<event>
 8    1  0.3106980E-007  0.9118800E+02  0.7816164E-02  0.1184000E+00
        -11   -1    0    0    0    0  0.00000000000E+00  0.00000000000E+00  0.45593999997E+02  0.45594000000E+02  0.51100000000E-03 0.  1.
         11   -1    0    0    0    0 -0.00000000000E+00 -0.00000000000E+00 -0.45593999997E+02  0.45594000000E+02  0.51100000000E-03 0. -1.
         23    2    1    2    0    0 -0.35527136788E-14 -0.35527136788E-14  0.00000000000E+00  0.91188000000E+02  0.91188000000E+02 0.  0.
    9900012    2    3    3    0    0 -0.24209267803E+02 -0.26558198517E+02  0.80220022836E+01  0.54367094570E+02  0.40000023692E+02 0.  0.
        -12    1    3    3    0    0  0.24209267803E+02  0.26558198517E+02 -0.80220022836E+01  0.36820905430E+02  0.00000000000E+00 0.  1.
         11    1    4    4    0    0 -0.24704706421E+01 -0.14341549425E+02  0.13320490336E+01  0.14613610778E+02  0.51100000000E-03 0. -1.
        -11    1    4    4    0    0 -0.91803310772E+01 -0.18388505567E+02 -0.54117139891E+01  0.21253288315E+02  0.51100000000E-03 0.  1.
        -12    1    4    4    0    0 -0.12558466083E+02  0.61718564740E+01  0.12101667239E+02  0.18500195476E+02  0.00000000000E+00 0.  1.
</event>
<event>
 8    1  0.3106980E-007  0.9118800E+02  0.7816164E-02  0.1184000E+00
        -11   -1    0    0    0    0  0.00000000000E+00  0.00000000000E+00  0.45593999997E+02  0.45594000000E+02  0.51100000000E-03 0.  1.
         11   -1    0    0    0    0 -0.00000000000E+00 -0.00000000000E+00 -0.45593999997E+02  0.45594000000E+02  0.51100000000E-03 0. -1.
         23    2    1    2    0    0  0.00000000000E+00  0.00000000000E+00  0.35527136788E-14  0.91188000000E+02  0.91188000000E+02 0.  0.
    9900012    2    3    3    0    0  0.14138929431E+02  0.28785723596E+02 -0.18090138672E+02  0.54367077611E+02  0.39999985030E+02 0.  0.
        -12    1    3    3    0    0 -0.14138929431E+02 -0.28785723596E+02  0.18090138672E+02  0.36820922389E+02  0.00000000000E+00 0.  1.
         11    1    4    4    0    0  0.58220005734E+00 -0.22289766073E+01  0.17965790680E+00  0.23107511435E+01  0.51100000000E-03 0. -1.
        -11    1    4    4    0    0 -0.69909890379E+01  0.17868067848E+02  0.33304443804E+01  0.19473921957E+02  0.51100000000E-03 0.  1.
         12    1    4    4    0    0  0.20547718412E+02  0.13146632355E+02 -0.21600240959E+02  0.32582404511E+02  0.00000000000E+00 0. -1.
</event>
<event>
 8    1  0.3106980E-007  0.9118800E+02  0.7816164E-02  0.1184000E+00
        -11   -1    0    0    0    0  0.00000000000E+00  0.00000000000E+00  0.45593999997E+02  0.45594000000E+02  0.51100000000E-03 0.  1.
         11   -1    0    0    0    0 -0.00000000000E+00 -0.00000000000E+00 -0.45593999997E+02  0.45594000000E+02  0.51100000000E-03 0. -1.
         23    2    1    2    0    0  0.00000000000E+00 -0.44408920985E-15  0.00000000000E+00  0.91188000000E+02  0.91188000000E+02 0.  0.
    9900012    2    3    3    0    0  0.32724747192E+02 -0.36429790869E+01 -0.16480282936E+02  0.54367080660E+02  0.39999991980E+02 0.  0.
        -12    1    3    3    0    0 -0.32724747192E+02  0.36429790869E+01  0.16480282936E+02  0.36820919340E+02  0.00000000000E+00 0.  1.
         11    1    4    4    0    0  0.24799388588E+02 -0.72509861371E+01 -0.22692810967E+02  0.34388226825E+02  0.51100000000E-03 0. -1.
        -11    1    4    4    0    0  0.12893825877E+02  0.17879676895E+01  0.19049602009E+01  0.13155852227E+02  0.51100000000E-03 0.  1.
         12    1    4    4    0    0 -0.49684672734E+01  0.18200393607E+01  0.43075678302E+01  0.68230016073E+01  0.00000000000E+00 0. -1.
</event>
<event>
 8    1  0.3106980E-007  0.9118800E+02  0.7816164E-02  0.1184000E+00
        -11   -1    0    0    0    0  0.00000000000E+00  0.00000000000E+00  0.45593999997E+02  0.45594000000E+02  0.51100000000E-03 0. -1.
         11   -1    0    0    0    0 -0.00000000000E+00 -0.00000000000E+00 -0.45593999997E+02  0.45594000000E+02  0.51100000000E-03 0.  1.
         23    2    1    2    0    0  0.00000000000E+00 -0.44408920985E-15 -0.71054273576E-14  0.91188000000E+02  0.91188000000E+02 0.  0.
    9900012    2    3    3    0    0 -0.16319438357E+02 -0.36526823458E+01  0.32804174849E+02  0.54367081433E+02  0.39999993742E+02 0.  0.
        -12    1    3    3    0    0  0.16319438357E+02  0.36526823458E+01 -0.32804174849E+02  0.36820918567E+02  0.00000000000E+00 0.  1.
         11    1    4    4    0    0  0.16117474134E+01  0.93665171690E+01  0.18980399969E+01  0.96918486210E+01  0.51100000000E-03 0. -1.
        -11    1    4    4    0    0 -0.11524012893E+02 -0.19290578872E+02  0.17202946825E+02  0.28299658763E+02  0.51100000000E-03 0.  1.
         12    1    4    4    0    0 -0.64071728769E+01  0.62713793571E+01  0.13703188027E+02  0.16375574049E+02  0.00000000000E+00 0. -1.
</event>
<event>
 8    1  0.3106980E-007  0.9118800E+02  0.7816164E-02  0.1184000E+00
        -11   -1    0    0    0    0  0.00000000000E+00  0.00000000000E+00  0.45593999997E+02  0.45594000000E+02  0.51100000000E-03 0.  1.
         11   -1    0    0    0    0 -0.00000000000E+00 -0.00000000000E+00 -0.45593999997E+02  0.45594000000E+02  0.51100000000E-03 0. -1.
         23    2    1    2    0    0 -0.35527136788E-14  0.35527136788E-14  0.00000000000E+00  0.91188000000E+02  0.91188000000E+02 0.  0.
    9900012    2    3    3    0    0 -0.17834155244E+02  0.11604797091E+02 -0.30050829188E+02  0.54367071934E+02  0.39999972087E+02 0.  0.
        -12    1    3    3    0    0  0.17834155244E+02 -0.11604797091E+02  0.30050829188E+02  0.36820928066E+02  0.00000000000E+00 0.  1.
         11    1    4    4    0    0 -0.20344587650E+02  0.96153311367E+00 -0.28945376826E+01  0.20571950351E+02  0.51100000000E-03 0. -1.
        -11    1    4    4    0    0  0.87955210601E+01  0.97126439746E+01 -0.13944252204E+02  0.19134754074E+02  0.51100000000E-03 0.  1.
        -12    1    4    4    0    0 -0.62850886538E+01  0.93062000226E+00 -0.13212039302E+02  0.14660367508E+02  0.00000000000E+00 0.  1.
</event>
<event>
 8    1  0.3106980E-007  0.9118800E+02  0.7816164E-02  0.1184000E+00
        -11   -1    0    0    0    0  0.00000000000E+00  0.00000000000E+00  0.45593999997E+02  0.45594000000E+02  0.51100000000E-03 0.  1.
         11   -1    0    0    0    0 -0.00000000000E+00 -0.00000000000E+00 -0.45593999997E+02  0.45594000000E+02  0.51100000000E-03 0. -1.
         23    2    1    2    0    0  0.00000000000E+00  0.00000000000E+00  0.35527136788E-14  0.91188000000E+02  0.91188000000E+02 0.  0.
    9900012    2    3    3    0    0 -0.78863025298E+01  0.20733335799E+02  0.29388999877E+02  0.54367105188E+02  0.40000047897E+02 0.  0.
         12    1    3    3    0    0  0.78863025298E+01 -0.20733335799E+02 -0.29388999877E+02  0.36820894812E+02  0.00000000000E+00 0. -1.
         11    1    4    4    0    0  0.17905586379E+01  0.16272385127E+02 -0.11429247713E+01  0.16410450794E+02  0.51100000000E-03 0. -1.
        -11    1    4    4    0    0  0.55956498928E+01 -0.16711057300E-01  0.35383407214E+01  0.66205311195E+01  0.51100000000E-03 0.  1.
        -12    1    4    4    0    0 -0.15272511060E+02  0.44776617292E+01  0.26993583927E+02  0.31336123275E+02  0.00000000000E+00 0.  1.
</event>
<event>
 8    1  0.3106980E-007  0.9118800E+02  0.7816164E-02  0.1184000E+00
        -11   -1    0    0    0    0  0.00000000000E+00  0.00000000000E+00  0.45593999997E+02  0.45594000000E+02  0.51100000000E-03 0.  1.
         11   -1    0    0    0    0 -0.00000000000E+00 -0.00000000000E+00 -0.45593999997E+02  0.45594000000E+02  0.51100000000E-03 0. -1.
         23    2    1    2    0    0 -0.35527136788E-14  0.00000000000E+00  0.35527136788E-14  0.91188000000E+02  0.91188000000E+02 0.  0.
    9900012    2    3    3    0    0 -0.24655619801E+02  0.63142357974E+01  0.26608457925E+02  0.54367092968E+02  0.40000020039E+02 0.  0.
         12    1    3    3    0    0  0.24655619801E+02 -0.63142357974E+01 -0.26608457925E+02  0.36820907032E+02  0.00000000000E+00 0. -1.
         11    1    4    4    0    0  0.52625843866E+01  0.10773918356E+01  0.61963931649E+01  0.82006619311E+01  0.51100000000E-03 0. -1.
        -11    1    4    4    0    0 -0.10169022255E+02  0.48908125677E+01  0.23599709678E+02  0.26158657426E+02  0.51100000000E-03 0.  1.
        -12    1    4    4    0    0 -0.19749181933E+02  0.34603139409E+00 -0.31876449177E+01  0.20007773611E+02  0.00000000000E+00 0.  1.
</event>
<event>
 8    1  0.3106980E-007  0.9118800E+02  0.7816164E-02  0.1184000E+00
        -11   -1    0    0    0    0  0.00000000000E+00  0.00000000000E+00  0.45593999997E+02  0.45594000000E+02  0.51100000000E-03 0. -1.
         11   -1    0    0    0    0 -0.00000000000E+00 -0.00000000000E+00 -0.45593999997E+02  0.45594000000E+02  0.51100000000E-03 0.  1.
         23    2    1    2    0    0 -0.17763568394E-14  0.22204460493E-15  0.00000000000E+00  0.91188000000E+02  0.91188000000E+02 0.  0.
    9900012    2    3    3    0    0 -0.15125835424E+02 -0.12115568654E+01  0.33548789681E+02  0.54367081267E+02  0.39999993363E+02 0.  0.
        -12    1    3    3    0    0  0.15125835424E+02  0.12115568654E+01 -0.33548789681E+02  0.36820918733E+02  0.00000000000E+00 0.  1.
         11    1    4    4    0    0 -0.14348884317E+02  0.94683314487E+00  0.13076356605E+01  0.14439421229E+02  0.51100000000E-03 0. -1.
        -11    1    4    4    0    0  0.10723394826E+02 -0.38832008131E+01  0.11803597834E+02  0.16413268024E+02  0.51100000000E-03 0.  1.
        -12    1    4    4    0    0 -0.11500345933E+02  0.17248108028E+01  0.20437556187E+02  0.23514392014E+02  0.00000000000E+00 0.  1.
</event>
<event>
 8    1  0.3106980E-007  0.9118800E+02  0.7816164E-02  0.1184000E+00
        -11   -1    0    0    0    0  0.00000000000E+00  0.00000000000E+00  0.45593999997E+02  0.45594000000E+02  0.51100000000E-03 0. -1.
         11   -1    0    0    0    0 -0.00000000000E+00 -0.00000000000E+00 -0.45593999997E+02  0.45594000000E+02  0.51100000000E-03 0.  1.
         23    2    1    2    0    0  0.00000000000E+00  0.00000000000E+00  0.00000000000E+00  0.91188000000E+02  0.91188000000E+02 0.  0.
    9900012    2    3    3    0    0 -0.30468364309E+01  0.33651634434E+02  0.14630731339E+02  0.54367163347E+02  0.40000180482E+02 0.  0.
        -12    1    3    3    0    0  0.30468364309E+01 -0.33651634434E+02 -0.14630731339E+02  0.36820836653E+02  0.00000000000E+00 0.  1.
         11    1    4    4    0    0 -0.13690757726E+02  0.22865324511E+02 -0.19101768846E+01  0.26719069746E+02  0.51100000000E-03 0. -1.
        -11    1    4    4    0    0  0.45619603004E+01 -0.15728328235E+01 -0.14044022262E+01  0.50256970409E+01  0.51100000000E-03 0.  1.
         12    1    4    4    0    0  0.60819609951E+01  0.12359142747E+02  0.17945310450E+02  0.22622396560E+02  0.00000000000E+00 0. -1.
</event>
<event>
 8    1  0.3106980E-007  0.9118800E+02  0.7816164E-02  0.1184000E+00
        -11   -1    0    0    0    0  0.00000000000E+00  0.00000000000E+00  0.45593999997E+02  0.45594000000E+02  0.51100000000E-03 0.  1.
         11   -1    0    0    0    0 -0.00000000000E+00 -0.00000000000E+00 -0.45593999997E+02  0.45594000000E+02  0.51100000000E-03 0. -1.
         23    2    1    2    0    0  0.00000000000E+00 -0.35527136788E-14 -0.71054273576E-14  0.91188000000E+02  0.91188000000E+02 0.  0.
    9900012    2    3    3    0    0 -0.26587596116E+01 -0.16643595394E+02  0.32736861682E+02  0.54367076830E+02  0.39999983250E+02 0.  0.
         12    1    3    3    0    0  0.26587596116E+01  0.16643595394E+02 -0.32736861682E+02  0.36820923170E+02  0.00000000000E+00 0. -1.
         11    1    4    4    0    0 -0.87127175185E+01 -0.24129110516E+02  0.25987347066E+02  0.36516676035E+02  0.51100000000E-03 0.  1.
        -11    1    4    4    0    0 -0.14977242814E+01  0.60758567493E+01  0.79047720817E+01  0.10081896408E+02  0.51100000000E-03 0. -1.
        -12    1    4    4    0    0  0.75516821883E+01  0.14096583733E+01 -0.11552574658E+01  0.77685043872E+01  0.00000000000E+00 0.  1.
</event>
<event>
 8    1  0.3106980E-007  0.9118800E+02  0.7816164E-02  0.1184000E+00
        -11   -1    0    0    0    0  0.00000000000E+00  0.00000000000E+00  0.45593999997E+02  0.45594000000E+02  0.51100000000E-03 0. -1.
         11   -1    0    0    0    0 -0.00000000000E+00 -0.00000000000E+00 -0.45593999997E+02  0.45594000000E+02  0.51100000000E-03 0.  1.
         23    2    1    2    0    0  0.00000000000E+00  0.35527136788E-14  0.00000000000E+00  0.91188000000E+02  0.91188000000E+02 0.  0.
    9900012    2    3    3    0    0  0.14331467418E+02 -0.30193466389E+02  0.15451226241E+02  0.54367125985E+02  0.40000095307E+02 0.  0.
        -12    1    3    3    0    0 -0.14331467418E+02  0.30193466389E+02 -0.15451226241E+02  0.36820874015E+02  0.00000000000E+00 0.  1.
         11    1    4    4    0    0  0.12084858096E-01  0.60433369014E+01 -0.67117170035E+00  0.60805048031E+01  0.51100000000E-03 0.  1.
        -11    1    4    4    0    0  0.13418048950E+02 -0.20811026241E+02  0.20587544430E+02  0.32202326574E+02  0.51100000000E-03 0. -1.
         12    1    4    4    0    0  0.90133360920E+00 -0.15425777049E+02 -0.44651464893E+01  0.16084294608E+02  0.00000000000E+00 0. -1.
</event>
<event>
 8    1  0.3106980E-007  0.9118800E+02  0.7816164E-02  0.1184000E+00
        -11   -1    0    0    0    0  0.00000000000E+00  0.00000000000E+00  0.45593999997E+02  0.45594000000E+02  0.51100000000E-03 0.  1.
         11   -1    0    0    0    0 -0.00000000000E+00 -0.00000000000E+00 -0.45593999997E+02  0.45594000000E+02  0.51100000000E-03 0. -1.
         23    2    1    2    0    0  0.00000000000E+00 -0.71054273576E-14  0.35527136788E-14  0.91188000000E+02  0.91188000000E+02 0.  0.
    9900012    2    3    3    0    0 -0.57959130714E+01  0.35676166659E+02 -0.70282738934E+01  0.54367107701E+02  0.40000053625E+02 0.  0.
        -12    1    3    3    0    0  0.57959130714E+01 -0.35676166659E+02  0.70282738934E+01  0.36820892299E+02  0.00000000000E+00 0.  1.
         11    1    4    4    0    0 -0.98362002566E+01  0.17958651136E+02 -0.19640129785E+02  0.28372498733E+02  0.51100000000E-03 0. -1.
        -11    1    4    4    0    0 -0.42471564462E+01  0.38190014749E+01  0.66094193563E+01  0.87354184006E+01  0.51100000000E-03 0.  1.
        -12    1    4    4    0    0  0.82874436313E+01  0.13898514048E+02  0.60024365353E+01  0.17259190567E+02  0.00000000000E+00 0.  1.
</event>
<event>
 8    1  0.3106980E-007  0.9118800E+02  0.7816164E-02  0.1184000E+00
        -11   -1    0    0    0    0  0.00000000000E+00  0.00000000000E+00  0.45593999997E+02  0.45594000000E+02  0.51100000000E-03 0. -1.
         11   -1    0    0    0    0 -0.00000000000E+00 -0.00000000000E+00 -0.45593999997E+02  0.45594000000E+02  0.51100000000E-03 0.  1.
         23    2    1    2    0    0  0.55511151231E-15  0.00000000000E+00  0.35527136788E-14  0.91188000000E+02  0.91188000000E+02 0.  0.
    9900012    2    3    3    0    0  0.56829274339E+00  0.32790685226E+02  0.16739982587E+02  0.54367095459E+02  0.40000025718E+02 0.  0.
        -12    1    3    3    0    0 -0.56829274339E+00 -0.32790685226E+02 -0.16739982587E+02  0.36820904541E+02  0.00000000000E+00 0.  1.
         11    1    4    4    0    0  0.43636712350E+01  0.17291921355E+02  0.16345987384E+02  0.24191805940E+02  0.51100000000E-03 0. -1.
        -11    1    4    4    0    0  0.10573299196E+01 -0.58072189659E+01  0.51253006151E+01  0.78173170163E+01  0.51100000000E-03 0.  1.
        -12    1    4    4    0    0 -0.48527084112E+01  0.21305982836E+02 -0.47313054124E+01  0.22357972503E+02  0.00000000000E+00 0.  1.
</event>
<event>
 8    1  0.3106980E-007  0.9118800E+02  0.7816164E-02  0.1184000E+00
        -11   -1    0    0    0    0  0.00000000000E+00  0.00000000000E+00  0.45593999997E+02  0.45594000000E+02  0.51100000000E-03 0.  1.
         11   -1    0    0    0    0 -0.00000000000E+00 -0.00000000000E+00 -0.45593999997E+02  0.45594000000E+02  0.51100000000E-03 0. -1.
         23    2    1    2    0    0  0.17763568394E-14  0.35527136788E-14  0.35527136788E-14  0.91188000000E+02  0.91188000000E+02 0.  0.
    9900012    2    3    3    0    0 -0.10744258129E+02 -0.21477553720E+02 -0.27911563518E+02  0.54367085093E+02  0.40000002087E+02 0.  0.
        -12    1    3    3    0    0  0.10744258129E+02  0.21477553720E+02  0.27911563518E+02  0.36820914907E+02  0.00000000000E+00 0.  1.
         11    1    4    4    0    0 -0.61832287377E+01  0.48892819210E+01 -0.13877817267E+02  0.15960300990E+02  0.51100000000E-03 0. -1.
        -11    1    4    4    0    0  0.93829920000E+01 -0.86901970570E+01 -0.22172105986E+01  0.12979833853E+02  0.51100000000E-03 0.  1.
        -12    1    4    4    0    0 -0.13944021392E+02 -0.17676638584E+02 -0.11816535652E+02  0.25426950250E+02  0.00000000000E+00 0.  1.
</event>
<event>
 8    1  0.3106980E-007  0.9118800E+02  0.7816164E-02  0.1184000E+00
        -11   -1    0    0    0    0  0.00000000000E+00  0.00000000000E+00  0.45593999997E+02  0.45594000000E+02  0.51100000000E-03 0.  1.
         11   -1    0    0    0    0 -0.00000000000E+00 -0.00000000000E+00 -0.45593999997E+02  0.45594000000E+02  0.51100000000E-03 0. -1.
         23    2    1    2    0    0  0.00000000000E+00  0.17763568394E-14  0.71054273576E-14  0.91188000000E+02  0.91188000000E+02 0.  0.
    9900012    2    3    3    0    0  0.15670641256E+02  0.44360858764E+01  0.33023210596E+02  0.54367078049E+02  0.39999986027E+02 0.  0.
         12    1    3    3    0    0 -0.15670641256E+02 -0.44360858764E+01 -0.33023210596E+02  0.36820921951E+02  0.00000000000E+00 0. -1.
         11    1    4    4    0    0 -0.77752449880E+00 -0.95060813933E+01  0.94530254679E+01  0.13428693852E+02  0.51100000000E-03 0. -1.
        -11    1    4    4    0    0  0.99560245684E+01  0.15976875240E+02  0.27313977047E+02  0.33172824872E+02  0.51100000000E-03 0.  1.
         12    1    4    4    0    0  0.64921411861E+01 -0.20347079700E+01 -0.37437919180E+01  0.77655593249E+01  0.00000000000E+00 0. -1.
</event>
<event>
 8    1  0.3106980E-007  0.9118800E+02  0.7816164E-02  0.1184000E+00
        -11   -1    0    0    0    0  0.00000000000E+00  0.00000000000E+00  0.45593999997E+02  0.45594000000E+02  0.51100000000E-03 0.  1.
         11   -1    0    0    0    0 -0.00000000000E+00 -0.00000000000E+00 -0.45593999997E+02  0.45594000000E+02  0.51100000000E-03 0. -1.
         23    2    1    2    0    0  0.00000000000E+00  0.00000000000E+00  0.17763568394E-14  0.91188000000E+02  0.91188000000E+02 0.  0.
    9900012    2    3    3    0    0  0.33269702644E+02 -0.13079441099E+02 -0.88224347326E+01  0.54367078663E+02  0.39999987429E+02 0.  0.
         12    1    3    3    0    0 -0.33269702644E+02  0.13079441099E+02  0.88224347326E+01  0.36820921337E+02  0.00000000000E+00 0. -1.
         11    1    4    4    0    0  0.32614870246E+01 -0.14253763573E+02 -0.11542461881E+02  0.18628888860E+02  0.51100000000E-03 0. -1.
        -11    1    4    4    0    0  0.12735323624E+02 -0.89518304315E+01  0.20857733024E+01  0.15705864714E+02  0.51100000000E-03 0.  1.
         12    1    4    4    0    0  0.17272891995E+02  0.10126152906E+02  0.63425384637E+00  0.20032325089E+02  0.00000000000E+00 0. -1.
</event>
<event>
 8    1  0.3106980E-007  0.9118800E+02  0.7816164E-02  0.1184000E+00
        -11   -1    0    0    0    0  0.00000000000E+00  0.00000000000E+00  0.45593999997E+02  0.45594000000E+02  0.51100000000E-03 0. -1.
         11   -1    0    0    0    0 -0.00000000000E+00 -0.00000000000E+00 -0.45593999997E+02  0.45594000000E+02  0.51100000000E-03 0.  1.
         23    2    1    2    0    0 -0.88817841970E-15 -0.88817841970E-15 -0.71054273576E-14  0.91188000000E+02  0.91188000000E+02 0.  0.
    9900012    2    3    3    0    0 -0.64249049924E+01 -0.76446494747E+01  0.35440930407E+02  0.54367087221E+02  0.40000006937E+02 0.  0.
        -12    1    3    3    0    0  0.64249049924E+01  0.76446494747E+01 -0.35440930407E+02  0.36820912779E+02  0.00000000000E+00 0.  1.
         11    1    4    4    0    0  0.19506161260E+01  0.30786654871E+01  0.29741712386E+01  0.47041236453E+01  0.51100000000E-03 0. -1.
        -11    1    4    4    0    0 -0.12302996856E+02  0.48049124424E+01 -0.27772977870E+00  0.13210906453E+02  0.51100000000E-03 0.  1.
        -12    1    4    4    0    0  0.39274757382E+01 -0.15528227404E+02  0.32744488948E+02  0.36452057122E+02  0.00000000000E+00 0.  1.
</event>
<event>
 8    1  0.3106980E-007  0.9118800E+02  0.7816164E-02  0.1184000E+00
        -11   -1    0    0    0    0  0.00000000000E+00  0.00000000000E+00  0.45593999997E+02  0.45594000000E+02  0.51100000000E-03 0. -1.
         11   -1    0    0    0    0 -0.00000000000E+00 -0.00000000000E+00 -0.45593999997E+02  0.45594000000E+02  0.51100000000E-03 0.  1.
         23    2    1    2    0    0  0.00000000000E+00  0.00000000000E+00  0.44408920985E-15  0.91188000000E+02  0.91188000000E+02 0.  0.
    9900012    2    3    3    0    0  0.36626177211E+02  0.13321262680E+01  0.35399480058E+01  0.54367046056E+02  0.39999913094E+02 0.  0.
        -12    1    3    3    0    0 -0.36626177211E+02 -0.13321262680E+01 -0.35399480058E+01  0.36820953944E+02  0.00000000000E+00 0.  1.
         11    1    4    4    0    0  0.19794712882E+02  0.88270935029E+00 -0.95415427807E+01  0.21992063859E+02  0.51100000000E-03 0. -1.
        -11    1    4    4    0    0  0.27622484125E+01  0.10246011526E+02 -0.31676722702E+00  0.10616548885E+02  0.51100000000E-03 0.  1.
        -12    1    4    4    0    0  0.14069215916E+02 -0.97965946084E+01  0.13398258014E+02  0.21758433312E+02  0.00000000000E+00 0.  1.
</event>
<event>
 8    1  0.3106980E-007  0.9118800E+02  0.7816164E-02  0.1184000E+00
        -11   -1    0    0    0    0  0.00000000000E+00  0.00000000000E+00  0.45593999997E+02  0.45594000000E+02  0.51100000000E-03 0. -1.
         11   -1    0    0    0    0 -0.00000000000E+00 -0.00000000000E+00 -0.45593999997E+02  0.45594000000E+02  0.51100000000E-03 0.  1.
         23    2    1    2    0    0 -0.71054273576E-14  0.35527136788E-14 -0.88817841970E-15  0.91188000000E+02  0.91188000000E+02 0.  0.
    9900012    2    3    3    0    0 -0.26511758073E+02  0.25084595262E+02 -0.48649675553E+01  0.54367107223E+02  0.40000052537E+02 0.  0.
         12    1    3    3    0    0  0.26511758073E+02 -0.25084595262E+02  0.48649675553E+01  0.36820892777E+02  0.00000000000E+00 0. -1.
         11    1    4    4    0    0 -0.58225593813E+01 -0.40567119025E+01 -0.36179496385E+01  0.79654672843E+01  0.51100000000E-03 0. -1.
        -11    1    4    4    0    0 -0.18293422803E+02  0.15121779689E+01 -0.30622205881E+01  0.18609492074E+02  0.51100000000E-03 0.  1.
        -12    1    4    4    0    0 -0.23957758882E+01  0.27629129196E+02  0.18152026713E+01  0.27792147865E+02  0.00000000000E+00 0.  1.
</event>
<event>
 8    1  0.3106980E-007  0.9118800E+02  0.7816164E-02  0.1184000E+00
        -11   -1    0    0    0    0  0.00000000000E+00  0.00000000000E+00  0.45593999997E+02  0.45594000000E+02  0.51100000000E-03 0.  1.
         11   -1    0    0    0    0 -0.00000000000E+00 -0.00000000000E+00 -0.45593999997E+02  0.45594000000E+02  0.51100000000E-03 0. -1.
         23    2    1    2    0    0  0.00000000000E+00  0.00000000000E+00  0.17763568394E-14  0.91188000000E+02  0.91188000000E+02 0.  0.
    9900012    2    3    3    0    0  0.32049383515E+02  0.11700859979E+02  0.13845754941E+02  0.54367108677E+02  0.40000055851E+02 0.  0.
         12    1    3    3    0    0 -0.32049383515E+02 -0.11700859979E+02 -0.13845754941E+02  0.36820891323E+02  0.00000000000E+00 0. -1.
         11    1    4    4    0    0  0.10273717662E+02  0.95272944550E-01  0.11039461506E+02  0.15080718223E+02  0.51100000000E-03 0. -1.
        -11    1    4    4    0    0  0.25532387532E+01  0.17949753244E+02  0.53046100683E+01  0.18890515025E+02  0.51100000000E-03 0.  1.
         12    1    4    4    0    0  0.19222427100E+02 -0.63441662099E+01 -0.24983166337E+01  0.20395875429E+02  0.00000000000E+00 0. -1.
</event>
<event>
 8    1  0.3106980E-007  0.9118800E+02  0.7816164E-02  0.1184000E+00
        -11   -1    0    0    0    0  0.00000000000E+00  0.00000000000E+00  0.45593999997E+02  0.45594000000E+02  0.51100000000E-03 0. -1.
         11   -1    0    0    0    0 -0.00000000000E+00 -0.00000000000E+00 -0.45593999997E+02  0.45594000000E+02  0.51100000000E-03 0.  1.
         23    2    1    2    0    0  0.00000000000E+00  0.00000000000E+00  0.35527136788E-14  0.91188000000E+02  0.91188000000E+02 0.  0.
    9900012    2    3    3    0    0 -0.14661280822E+02 -0.20555562849E+02  0.26801051675E+02  0.54367072658E+02  0.39999973740E+02 0.  0.
        -12    1    3    3    0    0  0.14661280822E+02  0.20555562849E+02 -0.26801051675E+02  0.36820927342E+02  0.00000000000E+00 0.  1.
         11    1    4    4    0    0 -0.71976322887E+01  0.11209645922E+01  0.24304706072E+02  0.25372843941E+02  0.51100000000E-03 0. -1.
        -11    1    4    4    0    0  0.20795026448E+01 -0.23512645802E+01  0.63647652235E+01  0.70966902840E+01  0.51100000000E-03 0.  1.
        -12    1    4    4    0    0 -0.95431511783E+01 -0.19325262861E+02 -0.38684196202E+01  0.21897538433E+02  0.00000000000E+00 0.  1.
</event>
<event>
 8    1  0.3106980E-007  0.9118800E+02  0.7816164E-02  0.1184000E+00
        -11   -1    0    0    0    0  0.00000000000E+00  0.00000000000E+00  0.45593999997E+02  0.45594000000E+02  0.51100000000E-03 0.  1.
         11   -1    0    0    0    0 -0.00000000000E+00 -0.00000000000E+00 -0.45593999997E+02  0.45594000000E+02  0.51100000000E-03 0. -1.
         23    2    1    2    0    0 -0.35527136788E-14  0.00000000000E+00  0.88817841970E-15  0.91188000000E+02  0.91188000000E+02 0.  0.
    9900012    2    3    3    0    0 -0.20972609714E+02 -0.29879801655E+02  0.48092818766E+01  0.54367053552E+02  0.39999930181E+02 0.  0.
         12    1    3    3    0    0  0.20972609714E+02  0.29879801655E+02 -0.48092818766E+01  0.36820946448E+02  0.00000000000E+00 0. -1.
         11    1    4    4    0    0 -0.76706801380E+01 -0.13520477827E+02  0.80706744878E+01  0.17515091818E+02  0.51100000000E-03 0.  1.
        -11    1    4    4    0    0 -0.68411509754E+01 -0.38868704832E+01 -0.16037881461E+02  0.17864007133E+02  0.51100000000E-03 0. -1.
         12    1    4    4    0    0 -0.64607786010E+01 -0.12472453345E+02  0.12776488850E+02  0.18987954600E+02  0.00000000000E+00 0. -1.
</event>
<event>
 8    1  0.3106980E-007  0.9118800E+02  0.7816164E-02  0.1184000E+00
        -11   -1    0    0    0    0  0.00000000000E+00  0.00000000000E+00  0.45593999997E+02  0.45594000000E+02  0.51100000000E-03 0.  1.
         11   -1    0    0    0    0 -0.00000000000E+00 -0.00000000000E+00 -0.45593999997E+02  0.45594000000E+02  0.51100000000E-03 0. -1.
         23    2    1    2    0    0  0.00000000000E+00  0.00000000000E+00  0.00000000000E+00  0.91188000000E+02  0.91188000000E+02 0.  0.
    9900012    2    3    3    0    0 -0.22579562836E+02  0.23601262896E+01  0.28989226643E+02  0.54367053308E+02  0.39999929626E+02 0.  0.
         12    1    3    3    0    0  0.22579562836E+02 -0.23601262896E+01 -0.28989226643E+02  0.36820946692E+02  0.00000000000E+00 0. -1.
         11    1    4    4    0    0 -0.20469612662E+02  0.11437361851E+02  0.28386724627E+02  0.36818805303E+02  0.51100000000E-03 0.  1.
        -11    1    4    4    0    0 -0.22709066957E+01 -0.10064445622E+02 -0.52739604616E+01  0.11587266378E+02  0.51100000000E-03 0. -1.
         12    1    4    4    0    0  0.16095652214E+00  0.98721006046E+00  0.58764624776E+01  0.59609816269E+01  0.00000000000E+00 0. -1.
</event>
<event>
 8    1  0.3106980E-007  0.9118800E+02  0.7816164E-02  0.1184000E+00
        -11   -1    0    0    0    0  0.00000000000E+00  0.00000000000E+00  0.45593999997E+02  0.45594000000E+02  0.51100000000E-03 0. -1.
         11   -1    0    0    0    0 -0.00000000000E+00 -0.00000000000E+00 -0.45593999997E+02  0.45594000000E+02  0.51100000000E-03 0.  1.
         23    2    1    2    0    0  0.35527136788E-14  0.00000000000E+00  0.17763568394E-14  0.91188000000E+02  0.91188000000E+02 0.  0.
    9900012    2    3    3    0    0  0.30679059674E+02 -0.16970027741E+02  0.11251399032E+02  0.54367074914E+02  0.39999978882E+02 0.  0.
        -12    1    3    3    0    0 -0.30679059674E+02  0.16970027741E+02 -0.11251399032E+02  0.36820925086E+02  0.00000000000E+00 0.  1.
         11    1    4    4    0    0  0.10542345082E+02  0.78611522062E+01  0.25297161576E+01  0.13391721993E+02  0.51100000000E-03 0. -1.
        -11    1    4    4    0    0  0.17812954583E+02 -0.30277355086E+01  0.48638165605E+01  0.18711633950E+02  0.51100000000E-03 0.  1.
         12    1    4    4    0    0  0.23237600090E+01 -0.21803444438E+02  0.38578663137E+01  0.22263718972E+02  0.00000000000E+00 0. -1.
</event>
<event>
 8    1  0.3106980E-007  0.9118800E+02  0.7816164E-02  0.1184000E+00
        -11   -1    0    0    0    0  0.00000000000E+00  0.00000000000E+00  0.45593999997E+02  0.45594000000E+02  0.51100000000E-03 0.  1.
         11   -1    0    0    0    0 -0.00000000000E+00 -0.00000000000E+00 -0.45593999997E+02  0.45594000000E+02  0.51100000000E-03 0. -1.
         23    2    1    2    0    0 -0.17763568394E-14  0.71054273576E-14 -0.88817841970E-15  0.91188000000E+02  0.91188000000E+02 0.  0.
    9900012    2    3    3    0    0 -0.12024939586E+02  0.34786643467E+02  0.10347440871E+01  0.54367076178E+02  0.39999981764E+02 0.  0.
         12    1    3    3    0    0  0.12024939586E+02 -0.34786643467E+02 -0.10347440871E+01  0.36820923822E+02  0.00000000000E+00 0. -1.
         11    1    4    4    0    0  0.71635476293E+00 -0.74014919492E+01 -0.24451153325E+01  0.78277606294E+01  0.51100000000E-03 0. -1.
        -11    1    4    4    0    0 -0.55391268690E+01  0.26296417819E+02 -0.46799757475E+01  0.27277934120E+02  0.51100000000E-03 0.  1.
         12    1    4    4    0    0 -0.72021674798E+01  0.15891717597E+02  0.81598351670E+01  0.19261381429E+02  0.00000000000E+00 0. -1.
</event>
<event>
 8    1  0.3106980E-007  0.9118800E+02  0.7816164E-02  0.1184000E+00
        -11   -1    0    0    0    0  0.00000000000E+00  0.00000000000E+00  0.45593999997E+02  0.45594000000E+02  0.51100000000E-03 0. -1.
         11   -1    0    0    0    0 -0.00000000000E+00 -0.00000000000E+00 -0.45593999997E+02  0.45594000000E+02  0.51100000000E-03 0.  1.
         23    2    1    2    0    0 -0.88817841970E-15 -0.35527136788E-14 -0.35527136788E-14  0.91188000000E+02  0.91188000000E+02 0.  0.
    9900012    2    3    3    0    0 -0.73506548611E+01  0.23286992400E+02  0.27558372631E+02  0.54367081435E+02  0.39999993746E+02 0.  0.
        -12    1    3    3    0    0  0.73506548611E+01 -0.23286992400E+02 -0.27558372631E+02  0.36820918565E+02  0.00000000000E+00 0.  1.
         11    1    4    4    0    0  0.77491908104E+01  0.19466457571E+02  0.51127227613E+00  0.20958395172E+02  0.51100000000E-03 0.  1.
        -11    1    4    4    0    0 -0.51015820726E+01 -0.36041300007E+01  0.14216051559E+02  0.15527782034E+02  0.51100000000E-03 0. -1.
        -12    1    4    4    0    0 -0.99982635989E+01  0.74246648295E+01  0.12831048796E+02  0.17880904229E+02  0.00000000000E+00 0.  1.
</event>
<event>
 8    1  0.3106980E-007  0.9118800E+02  0.7816164E-02  0.1184000E+00
        -11   -1    0    0    0    0  0.00000000000E+00  0.00000000000E+00  0.45593999997E+02  0.45594000000E+02  0.51100000000E-03 0.  1.
         11   -1    0    0    0    0 -0.00000000000E+00 -0.00000000000E+00 -0.45593999997E+02  0.45594000000E+02  0.51100000000E-03 0. -1.
         23    2    1    2    0    0  0.00000000000E+00  0.00000000000E+00  0.00000000000E+00  0.91188000000E+02  0.91188000000E+02 0.  0.
    9900012    2    3    3    0    0  0.11010970470E+02 -0.34274984129E+02 -0.77307387179E+01  0.54367077566E+02  0.39999984927E+02 0.  0.
        -12    1    3    3    0    0 -0.11010970470E+02  0.34274984129E+02  0.77307387179E+01  0.36820922434E+02  0.00000000000E+00 0.  1.
         11    1    4    4    0    0 -0.10584257620E+02 -0.89459245602E+01 -0.84327816963E+01  0.16222449969E+02  0.51100000000E-03 0. -1.
        -11    1    4    4    0    0  0.12821049956E+02 -0.20763059533E+01 -0.20149393477E+01  0.13143452713E+02  0.51100000000E-03 0.  1.
         12    1    4    4    0    0  0.87741781341E+01 -0.23252753616E+02  0.27169823261E+01  0.25001174885E+02  0.00000000000E+00 0. -1.
</event>
<event>
 8    1  0.3106980E-007  0.9118800E+02  0.7816164E-02  0.1184000E+00
        -11   -1    0    0    0    0  0.00000000000E+00  0.00000000000E+00  0.45593999997E+02  0.45594000000E+02  0.51100000000E-03 0.  1.
         11   -1    0    0    0    0 -0.00000000000E+00 -0.00000000000E+00 -0.45593999997E+02  0.45594000000E+02  0.51100000000E-03 0. -1.
         23    2    1    2    0    0  0.11102230246E-14  0.00000000000E+00  0.00000000000E+00  0.91188000000E+02  0.91188000000E+02 0.  0.
    9900012    2    3    3    0    0  0.18163977303E+01 -0.17580627126E+02  0.32301735424E+02  0.54367083903E+02  0.39999999373E+02 0.  0.
         12    1    3    3    0    0 -0.18163977303E+01  0.17580627126E+02 -0.32301735424E+02  0.36820916097E+02  0.00000000000E+00 0. -1.
         11    1    4    4    0    0  0.23303355746E+01  0.28743406154E+01 -0.13414114864E+01  0.39359475226E+01  0.51100000000E-03 0. -1.
        -11    1    4    4    0    0 -0.10509063132E+02 -0.80082012997E+01  0.21774301641E-01  0.13212576219E+02  0.51100000000E-03 0.  1.
        -12    1    4    4    0    0  0.99951252880E+01 -0.12446766441E+02  0.33621372608E+02  0.37218560161E+02  0.00000000000E+00 0.  1.
</event>
<event>
 8    1  0.3106980E-007  0.9118800E+02  0.7816164E-02  0.1184000E+00
        -11   -1    0    0    0    0  0.00000000000E+00  0.00000000000E+00  0.45593999997E+02  0.45594000000E+02  0.51100000000E-03 0.  1.
         11   -1    0    0    0    0 -0.00000000000E+00 -0.00000000000E+00 -0.45593999997E+02  0.45594000000E+02  0.51100000000E-03 0. -1.
         23    2    1    2    0    0 -0.88817841970E-15 -0.71054273576E-14 -0.13877787808E-15  0.91188000000E+02  0.91188000000E+02 0.  0.
    9900012    2    3    3    0    0 -0.78134929235E+01  0.35982159313E+02 -0.11132001625E+00  0.54367097612E+02  0.40000030626E+02 0.  0.
         12    1    3    3    0    0  0.78134929235E+01 -0.35982159313E+02  0.11132001625E+00  0.36820902388E+02  0.00000000000E+00 0. -1.
         11    1    4    4    0    0  0.57184973371E+01  0.15097067001E+01 -0.66616230247E+01  0.89082909527E+01  0.51100000000E-03 0. -1.
        -11    1    4    4    0    0  0.58622716852E+01  0.60054033486E+00  0.71180031418E-01  0.58933814455E+01  0.51100000000E-03 0.  1.
        -12    1    4    4    0    0 -0.19394261946E+02  0.33871912278E+02  0.64791229770E+01  0.39565425214E+02  0.00000000000E+00 0.  1.
</event>
<event>
 8    1  0.3106980E-007  0.9118800E+02  0.7816164E-02  0.1184000E+00
        -11   -1    0    0    0    0  0.00000000000E+00  0.00000000000E+00  0.45593999997E+02  0.45594000000E+02  0.51100000000E-03 0. -1.
         11   -1    0    0    0    0 -0.00000000000E+00 -0.00000000000E+00 -0.45593999997E+02  0.45594000000E+02  0.51100000000E-03 0.  1.
         23    2    1    2    0    0 -0.13322676296E-14  0.71054273576E-14  0.00000000000E+00  0.91188000000E+02  0.91188000000E+02 0.  0.
    9900012    2    3    3    0    0  0.30852170538E+01 -0.27313893135E+02 -0.24499224098E+02  0.54367091485E+02  0.40000016658E+02 0.  0.
         12    1    3    3    0    0 -0.30852170538E+01  0.27313893135E+02  0.24499224098E+02  0.36820908515E+02  0.00000000000E+00 0. -1.
         11    1    4    4    0    0 -0.64610584729E+01 -0.17780382093E+02 -0.28672162586E+02  0.34350839459E+02  0.51100000000E-03 0. -1.
        -11    1    4    4    0    0  0.10597412847E+02 -0.78257703111E+00  0.34523062550E+01  0.11173003383E+02  0.51100000000E-03 0.  1.
        -12    1    4    4    0    0 -0.10511373206E+01 -0.87509340114E+01  0.72063223286E+00  0.88432486425E+01  0.00000000000E+00 0.  1.
</event>
<event>
 8    1  0.3106980E-007  0.9118800E+02  0.7816164E-02  0.1184000E+00
        -11   -1    0    0    0    0  0.00000000000E+00  0.00000000000E+00  0.45593999997E+02  0.45594000000E+02  0.51100000000E-03 0.  1.
         11   -1    0    0    0    0 -0.00000000000E+00 -0.00000000000E+00 -0.45593999997E+02  0.45594000000E+02  0.51100000000E-03 0. -1.
         23    2    1    2    0    0  0.00000000000E+00  0.00000000000E+00  0.44408920985E-15  0.91188000000E+02  0.91188000000E+02 0.  0.
    9900012    2    3    3    0    0  0.31911079538E+02 -0.17929899924E+02  0.39973185828E+01  0.54367124611E+02  0.40000092175E+02 0.  0.
         12    1    3    3    0    0 -0.31911079538E+02  0.17929899924E+02 -0.39973185828E+01  0.36820875389E+02  0.00000000000E+00 0. -1.
         11    1    4    4    0    0  0.62372426908E+01 -0.13633451740E+02 -0.13400526930E+02  0.20108414283E+02  0.51100000000E-03 0. -1.
        -11    1    4    4    0    0  0.42314583080E+01  0.37896412859E+01  0.72125385711E+01  0.91808133294E+01  0.51100000000E-03 0.  1.
         12    1    4    4    0    0  0.21442378540E+02 -0.80860894697E+01  0.10185306942E+02  0.25077896998E+02  0.00000000000E+00 0. -1.
</event>
<event>
 8    1  0.3106980E-007  0.9118800E+02  0.7816164E-02  0.1184000E+00
        -11   -1    0    0    0    0  0.00000000000E+00  0.00000000000E+00  0.45593999997E+02  0.45594000000E+02  0.51100000000E-03 0.  1.
         11   -1    0    0    0    0 -0.00000000000E+00 -0.00000000000E+00 -0.45593999997E+02  0.45594000000E+02  0.51100000000E-03 0. -1.
         23    2    1    2    0    0  0.71054273576E-14  0.00000000000E+00  0.17763568394E-14  0.91188000000E+02  0.91188000000E+02 0.  0.
    9900012    2    3    3    0    0 -0.33780495227E+02  0.97876986360E+01 -0.10902273668E+02  0.54367075602E+02  0.39999980450E+02 0.  0.
        -12    1    3    3    0    0  0.33780495227E+02 -0.97876986360E+01  0.10902273668E+02  0.36820924398E+02  0.00000000000E+00 0.  1.
         11    1    4    4    0    0 -0.16280183557E+01  0.32962922702E+01  0.11157553415E+02  0.11747637420E+02  0.51100000000E-03 0. -1.
        -11    1    4    4    0    0 -0.16236024191E+02 -0.83042104503E+00 -0.26495277389E+01  0.16471735736E+02  0.51100000000E-03 0.  1.
         12    1    4    4    0    0 -0.15916452680E+02  0.73218274108E+01 -0.19410299344E+02  0.26147702446E+02  0.00000000000E+00 0. -1.
</event>
<event>
 8    1  0.3106980E-007  0.9118800E+02  0.7816164E-02  0.1184000E+00
        -11   -1    0    0    0    0  0.00000000000E+00  0.00000000000E+00  0.45593999997E+02  0.45594000000E+02  0.51100000000E-03 0.  1.
         11   -1    0    0    0    0 -0.00000000000E+00 -0.00000000000E+00 -0.45593999997E+02  0.45594000000E+02  0.51100000000E-03 0. -1.
         23    2    1    2    0    0  0.88817841970E-15  0.88817841970E-15  0.00000000000E+00  0.91188000000E+02  0.91188000000E+02 0.  0.
    9900012    2    3    3    0    0 -0.59964483534E+01  0.73325983748E+01 -0.35581666582E+02  0.54367090336E+02  0.40000014038E+02 0.  0.
        -12    1    3    3    0    0  0.59964483534E+01 -0.73325983748E+01  0.35581666582E+02  0.36820909664E+02  0.00000000000E+00 0.  1.
         11    1    4    4    0    0  0.53594688128E+01  0.34321901496E+01 -0.19781395109E+02  0.20779976610E+02  0.51100000000E-03 0. -1.
        -11    1    4    4    0    0 -0.46722903210E+01 -0.11286677850E+02 -0.10670002484E+02  0.16219381831E+02  0.51100000000E-03 0.  1.
        -12    1    4    4    0    0 -0.66836268452E+01  0.15187086075E+02 -0.51302689888E+01  0.17367731894E+02  0.00000000000E+00 0.  1.
</event>
<event>
 8    1  0.3106980E-007  0.9118800E+02  0.7816164E-02  0.1184000E+00
        -11   -1    0    0    0    0  0.00000000000E+00  0.00000000000E+00  0.45593999997E+02  0.45594000000E+02  0.51100000000E-03 0. -1.
         11   -1    0    0    0    0 -0.00000000000E+00 -0.00000000000E+00 -0.45593999997E+02  0.45594000000E+02  0.51100000000E-03 0.  1.
         23    2    1    2    0    0 -0.17763568394E-14  0.00000000000E+00  0.71054273576E-14  0.91188000000E+02  0.91188000000E+02 0.  0.
    9900012    2    3    3    0    0  0.14291303561E+02  0.12379948120E+01 -0.33911739568E+02  0.54367081093E+02  0.39999992967E+02 0.  0.
         12    1    3    3    0    0 -0.14291303561E+02 -0.12379948120E+01  0.33911739568E+02  0.36820918907E+02  0.00000000000E+00 0. -1.
         11    1    4    4    0    0 -0.91614167571E+00  0.12126605673E+02 -0.42108372974E+01  0.12869538908E+02  0.51100000000E-03 0. -1.
        -11    1    4    4    0    0  0.43540713656E+01  0.65248597226E+01 -0.46614745785E+01  0.91247508110E+01  0.51100000000E-03 0.  1.
        -12    1    4    4    0    0  0.10853373871E+02 -0.17413470583E+02 -0.25039427692E+02  0.32372791373E+02  0.00000000000E+00 0.  1.
</event>
<event>
 8    1  0.3106980E-007  0.9118800E+02  0.7816164E-02  0.1184000E+00
        -11   -1    0    0    0    0  0.00000000000E+00  0.00000000000E+00  0.45593999997E+02  0.45594000000E+02  0.51100000000E-03 0.  1.
         11   -1    0    0    0    0 -0.00000000000E+00 -0.00000000000E+00 -0.45593999997E+02  0.45594000000E+02  0.51100000000E-03 0. -1.
         23    2    1    2    0    0  0.00000000000E+00  0.00000000000E+00  0.00000000000E+00  0.91188000000E+02  0.91188000000E+02 0.  0.
    9900012    2    3    3    0    0 -0.11724605973E+02 -0.34788394807E+02  0.28428967223E+01  0.54367070351E+02  0.39999968479E+02 0.  0.
        -12    1    3    3    0    0  0.11724605973E+02  0.34788394807E+02 -0.28428967223E+01  0.36820929649E+02  0.00000000000E+00 0.  1.
         11    1    4    4    0    0  0.15059394458E+01 -0.65325656366E+01 -0.46041029793E+01  0.81326522068E+01  0.51100000000E-03 0. -1.
        -11    1    4    4    0    0 -0.45861578947E+01 -0.10655127460E+02 -0.13326365833E+02  0.17667954381E+02  0.51100000000E-03 0.  1.
         12    1    4    4    0    0 -0.86443875239E+01 -0.17600701709E+02  0.20773365534E+02  0.28566463763E+02  0.00000000000E+00 0. -1.
</event>
<event>
 8    1  0.3106980E-007  0.9118800E+02  0.7816164E-02  0.1184000E+00
        -11   -1    0    0    0    0  0.00000000000E+00  0.00000000000E+00  0.45593999997E+02  0.45594000000E+02  0.51100000000E-03 0.  1.
         11   -1    0    0    0    0 -0.00000000000E+00 -0.00000000000E+00 -0.45593999997E+02  0.45594000000E+02  0.51100000000E-03 0. -1.
         23    2    1    2    0    0  0.00000000000E+00  0.00000000000E+00  0.00000000000E+00  0.91188000000E+02  0.91188000000E+02 0.  0.
    9900012    2    3    3    0    0  0.20944972544E+02 -0.18681574057E+02  0.23834579385E+02  0.54367078521E+02  0.39999987104E+02 0.  0.
         12    1    3    3    0    0 -0.20944972544E+02  0.18681574057E+02 -0.23834579385E+02  0.36820921479E+02  0.00000000000E+00 0. -1.
         11    1    4    4    0    0  0.72954054899E+01 -0.90382736535E+00 -0.43828824847E+01  0.85585924254E+01  0.51100000000E-03 0. -1.
        -11    1    4    4    0    0 -0.24183616829E+01 -0.19531607155E+02  0.12840398549E+02  0.23499106078E+02  0.51100000000E-03 0.  1.
        -12    1    4    4    0    0  0.16067928737E+02  0.17538604634E+01  0.15377063321E+02  0.22309380018E+02  0.00000000000E+00 0.  1.
</event>
<event>
 8    1  0.3106980E-007  0.9118800E+02  0.7816164E-02  0.1184000E+00
        -11   -1    0    0    0    0  0.00000000000E+00  0.00000000000E+00  0.45593999997E+02  0.45594000000E+02  0.51100000000E-03 0.  1.
         11   -1    0    0    0    0 -0.00000000000E+00 -0.00000000000E+00 -0.45593999997E+02  0.45594000000E+02  0.51100000000E-03 0. -1.
         23    2    1    2    0    0 -0.35527136788E-14  0.00000000000E+00  0.00000000000E+00  0.91188000000E+02  0.91188000000E+02 0.  0.
    9900012    2    3    3    0    0 -0.28437209809E+02  0.11977848415E+02 -0.20090738813E+02  0.54367061114E+02  0.39999947423E+02 0.  0.
        -12    1    3    3    0    0  0.28437209809E+02 -0.11977848415E+02  0.20090738813E+02  0.36820938886E+02  0.00000000000E+00 0.  1.
         11    1    4    4    0    0 -0.32128836020E+02  0.11962207473E+02 -0.76630686092E+01  0.35129462456E+02  0.51100000000E-03 0. -1.
        -11    1    4    4    0    0 -0.39055837020E+01  0.95794166859E+00 -0.10642328567E+02  0.11376747948E+02  0.51100000000E-03 0.  1.
        -12    1    4    4    0    0  0.75972099135E+01 -0.94230072723E+00 -0.17853416370E+01  0.78608507104E+01  0.00000000000E+00 0.  1.
</event>
<event>
 8    1  0.3106980E-007  0.9118800E+02  0.7816164E-02  0.1184000E+00
        -11   -1    0    0    0    0  0.00000000000E+00  0.00000000000E+00  0.45593999997E+02  0.45594000000E+02  0.51100000000E-03 0. -1.
         11   -1    0    0    0    0 -0.00000000000E+00 -0.00000000000E+00 -0.45593999997E+02  0.45594000000E+02  0.51100000000E-03 0.  1.
         23    2    1    2    0    0 -0.35527136788E-14  0.00000000000E+00  0.00000000000E+00  0.91188000000E+02  0.91188000000E+02 0.  0.
    9900012    2    3    3    0    0 -0.23338331162E+02  0.27044811017E+02 -0.89259639290E+01  0.54367186098E+02  0.40000232346E+02 0.  0.
         12    1    3    3    0    0  0.23338331162E+02 -0.27044811017E+02  0.89259639290E+01  0.36820813902E+02  0.00000000000E+00 0. -1.
         11    1    4    4    0    0 -0.15828096603E+02  0.27240563543E+02  0.30471753230E+01  0.31652207221E+02  0.51100000000E-03 0.  1.
        -11    1    4    4    0    0 -0.43205666336E+01 -0.37295678781E+01  0.33850516435E+01  0.66359285321E+01  0.51100000000E-03 0. -1.
        -12    1    4    4    0    0 -0.31896679249E+01  0.35338153521E+01 -0.15358190895E+02  0.16079050345E+02  0.00000000000E+00 0.  1.
</event>
<event>
 8    1  0.3106980E-007  0.9118800E+02  0.7816164E-02  0.1184000E+00
        -11   -1    0    0    0    0  0.00000000000E+00  0.00000000000E+00  0.45593999997E+02  0.45594000000E+02  0.51100000000E-03 0. -1.
         11   -1    0    0    0    0 -0.00000000000E+00 -0.00000000000E+00 -0.45593999997E+02  0.45594000000E+02  0.51100000000E-03 0.  1.
         23    2    1    2    0    0  0.00000000000E+00  0.00000000000E+00  0.00000000000E+00  0.91188000000E+02  0.91188000000E+02 0.  0.
    9900012    2    3    3    0    0 -0.31620507299E+02  0.52616246453E+01  0.18117396710E+02  0.54367065203E+02  0.39999956744E+02 0.  0.
        -12    1    3    3    0    0  0.31620507299E+02 -0.52616246453E+01 -0.18117396710E+02  0.36820934797E+02  0.00000000000E+00 0.  1.
         11    1    4    4    0    0 -0.12523598079E+02  0.16583669360E+01  0.12558374939E+02  0.17813014094E+02  0.51100000000E-03 0. -1.
        -11    1    4    4    0    0 -0.20184778375E+02 -0.12853260682E+01  0.15460611347E+02  0.25457962304E+02  0.51100000000E-03 0.  1.
        -12    1    4    4    0    0  0.10878691558E+01  0.48885837775E+01 -0.99015895760E+01  0.11096088806E+02  0.00000000000E+00 0.  1.
</event>
<event>
 8    1  0.3106980E-007  0.9118800E+02  0.7816164E-02  0.1184000E+00
        -11   -1    0    0    0    0  0.00000000000E+00  0.00000000000E+00  0.45593999997E+02  0.45594000000E+02  0.51100000000E-03 0.  1.
         11   -1    0    0    0    0 -0.00000000000E+00 -0.00000000000E+00 -0.45593999997E+02  0.45594000000E+02  0.51100000000E-03 0. -1.
         23    2    1    2    0    0  0.00000000000E+00  0.35527136788E-14 -0.35527136788E-14  0.91188000000E+02  0.91188000000E+02 0.  0.
    9900012    2    3    3    0    0 -0.16514551544E+02 -0.29022334144E+02  0.15516210034E+02  0.54367094719E+02  0.40000024031E+02 0.  0.
         12    1    3    3    0    0  0.16514551544E+02  0.29022334144E+02 -0.15516210034E+02  0.36820905281E+02  0.00000000000E+00 0. -1.
         11    1    4    4    0    0 -0.88319997943E+01 -0.29996544011E+02  0.17590580272E+02  0.35877923400E+02  0.51100000000E-03 0. -1.
        -11    1    4    4    0    0 -0.86176824457E+01 -0.54760752919E+00  0.58082382491E+01  0.10406726505E+02  0.51100000000E-03 0.  1.
         12    1    4    4    0    0  0.93513069555E+00  0.15218173959E+01 -0.78826084864E+01  0.80824448130E+01  0.00000000000E+00 0. -1.
</event>
<event>
 8    1  0.3106980E-007  0.9118800E+02  0.7816164E-02  0.1184000E+00
        -11   -1    0    0    0    0  0.00000000000E+00  0.00000000000E+00  0.45593999997E+02  0.45594000000E+02  0.51100000000E-03 0. -1.
         11   -1    0    0    0    0 -0.00000000000E+00 -0.00000000000E+00 -0.45593999997E+02  0.45594000000E+02  0.51100000000E-03 0.  1.
         23    2    1    2    0    0  0.00000000000E+00 -0.88817841970E-15  0.00000000000E+00  0.91188000000E+02  0.91188000000E+02 0.  0.
    9900012    2    3    3    0    0 -0.34904617921E+02 -0.62163087255E+01 -0.99401017969E+01  0.54367075648E+02  0.39999980555E+02 0.  0.
         12    1    3    3    0    0  0.34904617921E+02  0.62163087255E+01  0.99401017969E+01  0.36820924352E+02  0.00000000000E+00 0. -1.
         11    1    4    4    0    0 -0.10994575379E+02  0.12149012607E+02  0.26192289558E+01  0.16593358782E+02  0.51100000000E-03 0. -1.
        -11    1    4    4    0    0 -0.10295599246E+02 -0.19206518113E+02 -0.58010620550E+01  0.22550876326E+02  0.51100000000E-03 0.  1.
         12    1    4    4    0    0 -0.13614443296E+02  0.84119678042E+00 -0.67582686977E+01  0.15222840539E+02  0.00000000000E+00 0. -1.
</event>
<event>
 8    1  0.3106980E-007  0.9118800E+02  0.7816164E-02  0.1184000E+00
        -11   -1    0    0    0    0  0.00000000000E+00  0.00000000000E+00  0.45593999997E+02  0.45594000000E+02  0.51100000000E-03 0. -1.
         11   -1    0    0    0    0 -0.00000000000E+00 -0.00000000000E+00 -0.45593999997E+02  0.45594000000E+02  0.51100000000E-03 0.  1.
         23    2    1    2    0    0  0.00000000000E+00  0.00000000000E+00 -0.17763568394E-14  0.91188000000E+02  0.91188000000E+02 0.  0.
    9900012    2    3    3    0    0 -0.17793523917E+02  0.28321603695E+02  0.15396647691E+02  0.54367088967E+02  0.40000010917E+02 0.  0.
        -12    1    3    3    0    0  0.17793523917E+02 -0.28321603695E+02 -0.15396647691E+02  0.36820911033E+02  0.00000000000E+00 0.  1.
         11    1    4    4    0    0  0.47146229267E+01  0.12663577143E+02 -0.98111511551E+00  0.13548300356E+02  0.51100000000E-03 0. -1.
        -11    1    4    4    0    0  0.36170822111E+01  0.87626949136E+01  0.53089336309E+00  0.94947329554E+01  0.51100000000E-03 0.  1.
         12    1    4    4    0    0 -0.26125229055E+02  0.68953316382E+01  0.15846869443E+02  0.31324055655E+02  0.00000000000E+00 0. -1.
</event>
<event>
 8    1  0.3106980E-007  0.9118800E+02  0.7816164E-02  0.1184000E+00
        -11   -1    0    0    0    0  0.00000000000E+00  0.00000000000E+00  0.45593999997E+02  0.45594000000E+02  0.51100000000E-03 0.  1.
         11   -1    0    0    0    0 -0.00000000000E+00 -0.00000000000E+00 -0.45593999997E+02  0.45594000000E+02  0.51100000000E-03 0. -1.
         23    2    1    2    0    0  0.00000000000E+00  0.00000000000E+00 -0.35527136788E-14  0.91188000000E+02  0.91188000000E+02 0.  0.
    9900012    2    3    3    0    0  0.29881398061E+02  0.10770258947E+02 -0.18624704921E+02  0.54367135518E+02  0.40000117039E+02 0.  0.
         12    1    3    3    0    0 -0.29881398061E+02 -0.10770258947E+02  0.18624704921E+02  0.36820864482E+02  0.00000000000E+00 0. -1.
         11    1    4    4    0    0  0.16915099897E+02  0.22545656682E+02 -0.80717879736E+01  0.29318611855E+02  0.51100000000E-03 0. -1.
        -11    1    4    4    0    0 -0.70371632892E+00 -0.62420650028E+01  0.94009123338E+00  0.63515638987E+01  0.51100000000E-03 0.  1.
        -12    1    4    4    0    0  0.13670014493E+02 -0.55333327328E+01 -0.11493008181E+02  0.18696959764E+02  0.00000000000E+00 0.  1.
</event>
<event>
 8    1  0.3106980E-007  0.9118800E+02  0.7816164E-02  0.1184000E+00
        -11   -1    0    0    0    0  0.00000000000E+00  0.00000000000E+00  0.45593999997E+02  0.45594000000E+02  0.51100000000E-03 0.  1.
         11   -1    0    0    0    0 -0.00000000000E+00 -0.00000000000E+00 -0.45593999997E+02  0.45594000000E+02  0.51100000000E-03 0. -1.
         23    2    1    2    0    0  0.00000000000E+00  0.00000000000E+00 -0.35527136788E-14  0.91188000000E+02  0.91188000000E+02 0.  0.
    9900012    2    3    3    0    0  0.22015840564E+02 -0.16217177005E+02 -0.24659394063E+02  0.54367085001E+02  0.40000001877E+02 0.  0.
        -12    1    3    3    0    0 -0.22015840564E+02  0.16217177005E+02  0.24659394063E+02  0.36820914999E+02  0.00000000000E+00 0.  1.
         11    1    4    4    0    0  0.94884248706E-01 -0.17115815935E+02 -0.14387908852E+02  0.22360055446E+02  0.51100000000E-03 0. -1.
        -11    1    4    4    0    0  0.39699034872E+01  0.92220544693E+01 -0.62164983098E+01  0.11808948888E+02  0.51100000000E-03 0.  1.
         12    1    4    4    0    0  0.17951052829E+02 -0.83234155395E+01 -0.40549869012E+01  0.20198080668E+02  0.00000000000E+00 0. -1.
</event>
<event>
 8    1  0.3106980E-007  0.9118800E+02  0.7816164E-02  0.1184000E+00
        -11   -1    0    0    0    0  0.00000000000E+00  0.00000000000E+00  0.45593999997E+02  0.45594000000E+02  0.51100000000E-03 0. -1.
         11   -1    0    0    0    0 -0.00000000000E+00 -0.00000000000E+00 -0.45593999997E+02  0.45594000000E+02  0.51100000000E-03 0.  1.
         23    2    1    2    0    0  0.00000000000E+00  0.00000000000E+00 -0.35527136788E-14  0.91188000000E+02  0.91188000000E+02 0.  0.
    9900012    2    3    3    0    0  0.25699279939E+02 -0.18470939336E+01 -0.26304269681E+02  0.54367090875E+02  0.40000015267E+02 0.  0.
         12    1    3    3    0    0 -0.25699279939E+02  0.18470939336E+01  0.26304269681E+02  0.36820909125E+02  0.00000000000E+00 0. -1.
         11    1    4    4    0    0  0.16451647531E+01  0.67486201753E+01 -0.95956883940E+01  0.11845998369E+02  0.51100000000E-03 0. -1.
        -11    1    4    4    0    0 -0.31592510018E+01 -0.59946934526E+01  0.43159277009E+01  0.80339559784E+01  0.51100000000E-03 0.  1.
        -12    1    4    4    0    0  0.27213366188E+02 -0.26010206564E+01 -0.21024508988E+02  0.34487136528E+02  0.00000000000E+00 0.  1.
</event>
<event>
 8    1  0.3106980E-007  0.9118800E+02  0.7816164E-02  0.1184000E+00
        -11   -1    0    0    0    0  0.00000000000E+00  0.00000000000E+00  0.45593999997E+02  0.45594000000E+02  0.51100000000E-03 0.  1.
         11   -1    0    0    0    0 -0.00000000000E+00 -0.00000000000E+00 -0.45593999997E+02  0.45594000000E+02  0.51100000000E-03 0. -1.
         23    2    1    2    0    0  0.00000000000E+00  0.00000000000E+00 -0.17763568394E-14  0.91188000000E+02  0.91188000000E+02 0.  0.
    9900012    2    3    3    0    0  0.27965837050E+02  0.21462787735E+02 -0.10632310474E+02  0.54367009719E+02  0.39999830257E+02 0.  0.
         12    1    3    3    0    0 -0.27965837050E+02 -0.21462787735E+02  0.10632310474E+02  0.36820990281E+02  0.00000000000E+00 0. -1.
         11    1    4    4    0    0  0.51576465313E+01 -0.74362707888E+01 -0.18481895484E+01  0.92366252416E+01  0.51100000000E-03 0. -1.
        -11    1    4    4    0    0 -0.17644319869E+01  0.14430687342E+02  0.19353240869E+01  0.14666405046E+02  0.51100000000E-03 0.  1.
        -12    1    4    4    0    0  0.24572622505E+02  0.14468371182E+02 -0.10719445013E+02  0.30463979432E+02  0.00000000000E+00 0.  1.
</event>
<event>
 8    1  0.3106980E-007  0.9118800E+02  0.7816164E-02  0.1184000E+00
        -11   -1    0    0    0    0  0.00000000000E+00  0.00000000000E+00  0.45593999997E+02  0.45594000000E+02  0.51100000000E-03 0. -1.
         11   -1    0    0    0    0 -0.00000000000E+00 -0.00000000000E+00 -0.45593999997E+02  0.45594000000E+02  0.51100000000E-03 0.  1.
         23    2    1    2    0    0  0.00000000000E+00  0.00000000000E+00 -0.35527136788E-14  0.91188000000E+02  0.91188000000E+02 0.  0.
    9900012    2    3    3    0    0 -0.62747841613E+01 -0.34129763676E+02  0.12311188407E+02  0.54367095003E+02  0.40000024677E+02 0.  0.
         12    1    3    3    0    0  0.62747841613E+01  0.34129763676E+02 -0.12311188407E+02  0.36820904997E+02  0.00000000000E+00 0. -1.
         11    1    4    4    0    0 -0.41609093040E+01 -0.79689165399E+01  0.19938754454E+02  0.21871687783E+02  0.51100000000E-03 0. -1.
        -11    1    4    4    0    0  0.60297301131E+01 -0.14156491172E+02 -0.91624013739E+01  0.17908475277E+02  0.51100000000E-03 0.  1.
        -12    1    4    4    0    0 -0.81436049704E+01 -0.12004355964E+02  0.15348353268E+01  0.14586931943E+02  0.00000000000E+00 0.  1.
</event>
<event>
 8    1  0.3106980E-007  0.9118800E+02  0.7816164E-02  0.1184000E+00
        -11   -1    0    0    0    0  0.00000000000E+00  0.00000000000E+00  0.45593999997E+02  0.45594000000E+02  0.51100000000E-03 0.  1.
         11   -1    0    0    0    0 -0.00000000000E+00 -0.00000000000E+00 -0.45593999997E+02  0.45594000000E+02  0.51100000000E-03 0. -1.
         23    2    1    2    0    0 -0.35527136788E-14  0.35527136788E-14 -0.35527136788E-14  0.91188000000E+02  0.91188000000E+02 0.  0.
    9900012    2    3    3    0    0 -0.16144493384E+02  0.28642156691E+02 -0.16575952230E+02  0.54367082047E+02  0.39999995144E+02 0.  0.
         12    1    3    3    0    0  0.16144493384E+02 -0.28642156691E+02  0.16575952230E+02  0.36820917953E+02  0.00000000000E+00 0. -1.
         11    1    4    4    0    0 -0.52924297763E+01  0.27407065727E+02 -0.22049360477E+02  0.35571496488E+02  0.51100000000E-03 0. -1.
        -11    1    4    4    0    0  0.16703046643E+01  0.21925449718E+00 -0.31397282525E+01  0.35631283960E+01  0.51100000000E-03 0.  1.
        -12    1    4    4    0    0 -0.12522368272E+02  0.10158364670E+01  0.86131364996E+01  0.15232457164E+02  0.00000000000E+00 0.  1.
</event>
<event>
 8    1  0.3106980E-007  0.9118800E+02  0.7816164E-02  0.1184000E+00
        -11   -1    0    0    0    0  0.00000000000E+00  0.00000000000E+00  0.45593999997E+02  0.45594000000E+02  0.51100000000E-03 0. -1.
         11   -1    0    0    0    0 -0.00000000000E+00 -0.00000000000E+00 -0.45593999997E+02  0.45594000000E+02  0.51100000000E-03 0.  1.
         23    2    1    2    0    0  0.00000000000E+00  0.00000000000E+00  0.00000000000E+00  0.91188000000E+02  0.91188000000E+02 0.  0.
    9900012    2    3    3    0    0  0.22595543824E+02 -0.15411286344E+02 -0.24651868612E+02  0.54367068812E+02  0.39999964971E+02 0.  0.
         12    1    3    3    0    0 -0.22595543824E+02  0.15411286344E+02  0.24651868612E+02  0.36820931188E+02  0.00000000000E+00 0. -1.
         11    1    4    4    0    0  0.17590167664E+01  0.11731074929E+01 -0.70460789918E+01  0.73564631851E+01  0.51100000000E-03 0. -1.
        -11    1    4    4    0    0  0.22412127268E+02 -0.82919625091E+01  0.36186864552E+01  0.24169298352E+02  0.51100000000E-03 0.  1.
         12    1    4    4    0    0 -0.15756002097E+01 -0.82924313281E+01 -0.21224476075E+02  0.22841307275E+02  0.00000000000E+00 0. -1.
</event>
<event>
 8    1  0.3106980E-007  0.9118800E+02  0.7816164E-02  0.1184000E+00
        -11   -1    0    0    0    0  0.00000000000E+00  0.00000000000E+00  0.45593999997E+02  0.45594000000E+02  0.51100000000E-03 0. -1.
         11   -1    0    0    0    0 -0.00000000000E+00 -0.00000000000E+00 -0.45593999997E+02  0.45594000000E+02  0.51100000000E-03 0.  1.
         23    2    1    2    0    0 -0.88817841970E-15  0.00000000000E+00  0.00000000000E+00  0.91188000000E+02  0.91188000000E+02 0.  0.
    9900012    2    3    3    0    0  0.27182612577E+01  0.31768809655E+02 -0.18415478353E+02  0.54367135614E+02  0.40000117259E+02 0.  0.
        -12    1    3    3    0    0 -0.27182612577E+01 -0.31768809655E+02  0.18415478353E+02  0.36820864386E+02  0.00000000000E+00 0.  1.
         11    1    4    4    0    0  0.11550938883E+02  0.94089292751E+01  0.89345969151E+00  0.14924825281E+02  0.51100000000E-03 0. -1.
        -11    1    4    4    0    0  0.77031349155E+01  0.45545668343E+01 -0.10003432416E+02  0.13422035127E+02  0.51100000000E-03 0.  1.
         12    1    4    4    0    0 -0.16535812541E+02  0.17805313545E+02 -0.93055056286E+01  0.26020275207E+02  0.00000000000E+00 0. -1.
</event>
<event>
 8    1  0.3106980E-007  0.9118800E+02  0.7816164E-02  0.1184000E+00
        -11   -1    0    0    0    0  0.00000000000E+00  0.00000000000E+00  0.45593999997E+02  0.45594000000E+02  0.51100000000E-03 0. -1.
         11   -1    0    0    0    0 -0.00000000000E+00 -0.00000000000E+00 -0.45593999997E+02  0.45594000000E+02  0.51100000000E-03 0.  1.
         23    2    1    2    0    0 -0.88817841970E-15  0.00000000000E+00  0.00000000000E+00  0.91188000000E+02  0.91188000000E+02 0.  0.
    9900012    2    3    3    0    0 -0.69558711282E+01  0.34078232650E+02  0.12085910976E+02  0.54367091160E+02  0.40000015916E+02 0.  0.
        -12    1    3    3    0    0  0.69558711282E+01 -0.34078232650E+02 -0.12085910976E+02  0.36820908840E+02  0.00000000000E+00 0.  1.
         11    1    4    4    0    0 -0.47289249852E+01 -0.17536526098E-01  0.25733157130E+01  0.53837712679E+01  0.51100000000E-03 0. -1.
        -11    1    4    4    0    0  0.31878040145E+01  0.73100806159E+01  0.18556962058E+02  0.20198025006E+02  0.51100000000E-03 0.  1.
        -12    1    4    4    0    0 -0.54147501575E+01  0.26785688560E+02 -0.90443667951E+01  0.28785294885E+02  0.00000000000E+00 0.  1.
</event>
<event>
 8    1  0.3106980E-007  0.9118800E+02  0.7816164E-02  0.1184000E+00
        -11   -1    0    0    0    0  0.00000000000E+00  0.00000000000E+00  0.45593999997E+02  0.45594000000E+02  0.51100000000E-03 0.  1.
         11   -1    0    0    0    0 -0.00000000000E+00 -0.00000000000E+00 -0.45593999997E+02  0.45594000000E+02  0.51100000000E-03 0. -1.
         23    2    1    2    0    0 -0.71054273576E-14  0.00000000000E+00  0.16653345369E-14  0.91188000000E+02  0.91188000000E+02 0.  0.
    9900012    2    3    3    0    0 -0.34987259683E+02  0.11466077710E+02  0.44693789180E+00  0.54367095182E+02  0.40000025086E+02 0.  0.
         12    1    3    3    0    0  0.34987259683E+02 -0.11466077710E+02 -0.44693789180E+00  0.36820904818E+02  0.00000000000E+00 0. -1.
         11    1    4    4    0    0  0.16152783850E+01 -0.64539628520E+01 -0.44510853086E+00  0.66678994159E+01  0.51100000000E-03 0. -1.
        -11    1    4    4    0    0 -0.87076144435E+01 -0.86839246803E+00  0.95676259479E+01  0.12965960100E+02  0.51100000000E-03 0.  1.
        -12    1    4    4    0    0 -0.27894923624E+02  0.18788433030E+02 -0.86755795252E+01  0.34733235666E+02  0.00000000000E+00 0.  1.
</event>
<event>
 8    1  0.3106980E-007  0.9118800E+02  0.7816164E-02  0.1184000E+00
        -11   -1    0    0    0    0  0.00000000000E+00  0.00000000000E+00  0.45593999997E+02  0.45594000000E+02  0.51100000000E-03 0. -1.
         11   -1    0    0    0    0 -0.00000000000E+00 -0.00000000000E+00 -0.45593999997E+02  0.45594000000E+02  0.51100000000E-03 0.  1.
         23    2    1    2    0    0  0.26645352591E-14  0.00000000000E+00  0.00000000000E+00  0.91188000000E+02  0.91188000000E+02 0.  0.
    9900012    2    3    3    0    0  0.72776799364E+01 -0.34992046329E+02 -0.88528008566E+01  0.54367081834E+02  0.39999994658E+02 0.  0.
         12    1    3    3    0    0 -0.72776799364E+01  0.34992046329E+02  0.88528008566E+01  0.36820918166E+02  0.00000000000E+00 0. -1.
         11    1    4    4    0    0  0.89664149426E+01  0.34836136428E+01 -0.10456995883E+02  0.14208480710E+02  0.51100000000E-03 0. -1.
        -11    1    4    4    0    0  0.28890940227E+01 -0.95150784519E+01  0.40488504565E+01  0.10736702124E+02  0.51100000000E-03 0.  1.
        -12    1    4    4    0    0 -0.45778290289E+01 -0.28960581520E+02 -0.24446554303E+01  0.29421899000E+02  0.00000000000E+00 0.  1.
</event>
<event>
 8    1  0.3106980E-007  0.9118800E+02  0.7816164E-02  0.1184000E+00
        -11   -1    0    0    0    0  0.00000000000E+00  0.00000000000E+00  0.45593999997E+02  0.45594000000E+02  0.51100000000E-03 0.  1.
         11   -1    0    0    0    0 -0.00000000000E+00 -0.00000000000E+00 -0.45593999997E+02  0.45594000000E+02  0.51100000000E-03 0. -1.
         23    2    1    2    0    0  0.35527136788E-14  0.00000000000E+00  0.00000000000E+00  0.91188000000E+02  0.91188000000E+02 0.  0.
    9900012    2    3    3    0    0  0.17088652467E+02 -0.69778609373E+01 -0.31860156557E+02  0.54367052671E+02  0.39999928173E+02 0.  0.
        -12    1    3    3    0    0 -0.17088652467E+02  0.69778609373E+01  0.31860156557E+02  0.36820947329E+02  0.00000000000E+00 0.  1.
         11    1    4    4    0    0  0.21919516542E+02 -0.61066830499E+01 -0.41589346625E+01  0.23131223943E+02  0.51100000000E-03 0. -1.
        -11    1    4    4    0    0  0.58990388455E-01  0.21862910285E+01  0.66763640208E+00  0.22867196929E+01  0.51100000000E-03 0.  1.
         12    1    4    4    0    0 -0.48898544636E+01 -0.30574689159E+01 -0.28368858297E+02  0.28949109035E+02  0.00000000000E+00 0. -1.
</event>
<event>
 8    1  0.3106980E-007  0.9118800E+02  0.7816164E-02  0.1184000E+00
        -11   -1    0    0    0    0  0.00000000000E+00  0.00000000000E+00  0.45593999997E+02  0.45594000000E+02  0.51100000000E-03 0.  1.
         11   -1    0    0    0    0 -0.00000000000E+00 -0.00000000000E+00 -0.45593999997E+02  0.45594000000E+02  0.51100000000E-03 0. -1.
         23    2    1    2    0    0  0.00000000000E+00 -0.35527136788E-14 -0.27755575616E-15  0.91188000000E+02  0.91188000000E+02 0.  0.
    9900012    2    3    3    0    0 -0.25908336444E+02  0.26162377252E+02  0.26185738095E+00  0.54367075920E+02  0.39999981175E+02 0.  0.
         12    1    3    3    0    0  0.25908336444E+02 -0.26162377252E+02 -0.26185738095E+00  0.36820924080E+02  0.00000000000E+00 0. -1.
         11    1    4    4    0    0 -0.33981946834E+01 -0.67503319067E+01  0.25780105729E+01  0.79850389311E+01  0.51100000000E-03 0. -1.
        -11    1    4    4    0    0 -0.17652599178E+02  0.21242931880E+02  0.93710410884E+01  0.29166638887E+02  0.51100000000E-03 0.  1.
        -12    1    4    4    0    0 -0.48575425832E+01  0.11669777279E+02 -0.11687194280E+02  0.17215398103E+02  0.00000000000E+00 0.  1.
</event>
<event>
 8    1  0.3106980E-007  0.9118800E+02  0.7816164E-02  0.1184000E+00
        -11   -1    0    0    0    0  0.00000000000E+00  0.00000000000E+00  0.45593999997E+02  0.45594000000E+02  0.51100000000E-03 0.  1.
         11   -1    0    0    0    0 -0.00000000000E+00 -0.00000000000E+00 -0.45593999997E+02  0.45594000000E+02  0.51100000000E-03 0. -1.
         23    2    1    2    0    0 -0.88817841970E-15  0.39968028887E-14  0.00000000000E+00  0.91188000000E+02  0.91188000000E+02 0.  0.
    9900012    2    3    3    0    0 -0.78304864669E+01  0.36236617205E+01 -0.35795693946E+02  0.54367093607E+02  0.40000021495E+02 0.  0.
        -12    1    3    3    0    0  0.78304864669E+01 -0.36236617205E+01  0.35795693946E+02  0.36820906393E+02  0.00000000000E+00 0.  1.
         11    1    4    4    0    0  0.82775134674E+01 -0.25978845416E+01 -0.40244858820E+01  0.95636143884E+01  0.51100000000E-03 0. -1.
        -11    1    4    4    0    0 -0.58726463803E+01 -0.10412566578E+02 -0.13858694624E+02  0.18302265849E+02  0.51100000000E-03 0.  1.
        -12    1    4    4    0    0 -0.10235353554E+02  0.16634112840E+02 -0.17912513439E+02  0.26501213369E+02  0.00000000000E+00 0.  1.
</event>
<event>
 8    1  0.3106980E-007  0.9118800E+02  0.7816164E-02  0.1184000E+00
        -11   -1    0    0    0    0  0.00000000000E+00  0.00000000000E+00  0.45593999997E+02  0.45594000000E+02  0.51100000000E-03 0. -1.
         11   -1    0    0    0    0 -0.00000000000E+00 -0.00000000000E+00 -0.45593999997E+02  0.45594000000E+02  0.51100000000E-03 0.  1.
         23    2    1    2    0    0  0.00000000000E+00 -0.35527136788E-14  0.00000000000E+00  0.91188000000E+02  0.91188000000E+02 0.  0.
    9900012    2    3    3    0    0 -0.22499140307E+01  0.22426547329E+02  0.29116442907E+02  0.54367090373E+02  0.40000014123E+02 0.  0.
        -12    1    3    3    0    0  0.22499140307E+01 -0.22426547329E+02 -0.29116442907E+02  0.36820909627E+02  0.00000000000E+00 0.  1.
         11    1    4    4    0    0 -0.10552628720E+02 -0.29992346239E+01  0.23087897965E+01  0.11210882741E+02  0.51100000000E-03 0. -1.
        -11    1    4    4    0    0  0.10130157533E+02  0.18248751591E+02  0.70083919332E+01  0.22017142958E+02  0.51100000000E-03 0.  1.
        -12    1    4    4    0    0 -0.18274428435E+01  0.71770303621E+01  0.19799261177E+02  0.21139064674E+02  0.00000000000E+00 0.  1.
</event>
<event>
 8    1  0.3106980E-007  0.9118800E+02  0.7816164E-02  0.1184000E+00
        -11   -1    0    0    0    0  0.00000000000E+00  0.00000000000E+00  0.45593999997E+02  0.45594000000E+02  0.51100000000E-03 0. -1.
         11   -1    0    0    0    0 -0.00000000000E+00 -0.00000000000E+00 -0.45593999997E+02  0.45594000000E+02  0.51100000000E-03 0.  1.
         23    2    1    2    0    0  0.17763568394E-14  0.00000000000E+00  0.00000000000E+00  0.91188000000E+02  0.91188000000E+02 0.  0.
    9900012    2    3    3    0    0 -0.75462216076E+01 -0.76871529555E+01  0.35209976578E+02  0.54367078885E+02  0.39999987934E+02 0.  0.
        -12    1    3    3    0    0  0.75462216076E+01  0.76871529555E+01 -0.35209976578E+02  0.36820921115E+02  0.00000000000E+00 0.  1.
         11    1    4    4    0    0 -0.12399336168E+02  0.10246807489E+02  0.24560819841E+02  0.29359401777E+02  0.51100000000E-03 0. -1.
        -11    1    4    4    0    0  0.53544919268E+00 -0.99271547601E+01  0.12244351531E+02  0.15772103605E+02  0.51100000000E-03 0.  1.
        -12    1    4    4    0    0  0.43176653681E+01 -0.80068056845E+01 -0.15951947941E+01  0.92355735031E+01  0.00000000000E+00 0.  1.
</event>
<event>
 8    1  0.3106980E-007  0.9118800E+02  0.7816164E-02  0.1184000E+00
        -11   -1    0    0    0    0  0.00000000000E+00  0.00000000000E+00  0.45593999997E+02  0.45594000000E+02  0.51100000000E-03 0.  1.
         11   -1    0    0    0    0 -0.00000000000E+00 -0.00000000000E+00 -0.45593999997E+02  0.45594000000E+02  0.51100000000E-03 0. -1.
         23    2    1    2    0    0  0.99920072216E-15  0.00000000000E+00  0.17763568394E-14  0.91188000000E+02  0.91188000000E+02 0.  0.
    9900012    2    3    3    0    0  0.77927838318E+00 -0.33242516555E+02  0.15814759293E+02  0.54367098419E+02  0.40000032466E+02 0.  0.
         12    1    3    3    0    0 -0.77927838318E+00  0.33242516555E+02 -0.15814759293E+02  0.36820901581E+02  0.00000000000E+00 0. -1.
         11    1    4    4    0    0 -0.30518825196E+01 -0.35202983947E+02  0.10023757207E+02  0.36729276804E+02  0.51100000000E-03 0.  1.
        -11    1    4    4    0    0  0.85183162751E+01 -0.10797918303E+01  0.78984253379E+01  0.11666738432E+02  0.51100000000E-03 0. -1.
        -12    1    4    4    0    0 -0.46871553723E+01  0.30402592225E+01 -0.21074232518E+01  0.59710831837E+01  0.00000000000E+00 0.  1.
</event>
<event>
 8    1  0.3106980E-007  0.9118800E+02  0.7816164E-02  0.1184000E+00
        -11   -1    0    0    0    0  0.00000000000E+00  0.00000000000E+00  0.45593999997E+02  0.45594000000E+02  0.51100000000E-03 0. -1.
         11   -1    0    0    0    0 -0.00000000000E+00 -0.00000000000E+00 -0.45593999997E+02  0.45594000000E+02  0.51100000000E-03 0.  1.
         23    2    1    2    0    0  0.00000000000E+00  0.00000000000E+00  0.00000000000E+00  0.91188000000E+02  0.91188000000E+02 0.  0.
    9900012    2    3    3    0    0 -0.10492067208E+02 -0.21499706755E+02  0.27990347224E+02  0.54367076565E+02  0.39999982646E+02 0.  0.
        -12    1    3    3    0    0  0.10492067208E+02  0.21499706755E+02 -0.27990347224E+02  0.36820923435E+02  0.00000000000E+00 0.  1.
         11    1    4    4    0    0 -0.16411279267E+02 -0.15903900114E+02  0.33463728214E+02  0.40522650855E+02  0.51100000000E-03 0. -1.
        -11    1    4    4    0    0  0.52173058798E-01 -0.59826316445E+01 -0.26366124892E+00  0.59886660399E+01  0.51100000000E-03 0.  1.
        -12    1    4    4    0    0  0.58670390005E+01  0.38682500285E+00 -0.52097197416E+01  0.78557596706E+01  0.00000000000E+00 0.  1.
</event>
<event>
 8    1  0.3106980E-007  0.9118800E+02  0.7816164E-02  0.1184000E+00
        -11   -1    0    0    0    0  0.00000000000E+00  0.00000000000E+00  0.45593999997E+02  0.45594000000E+02  0.51100000000E-03 0.  1.
         11   -1    0    0    0    0 -0.00000000000E+00 -0.00000000000E+00 -0.45593999997E+02  0.45594000000E+02  0.51100000000E-03 0. -1.
         23    2    1    2    0    0  0.66613381478E-15  0.00000000000E+00  0.00000000000E+00  0.91188000000E+02  0.91188000000E+02 0.  0.
    9900012    2    3    3    0    0 -0.16581072840E+01 -0.58596406670E+01 -0.36313848413E+02  0.54367078025E+02  0.39999985973E+02 0.  0.
        -12    1    3    3    0    0  0.16581072840E+01  0.58596406670E+01  0.36313848413E+02  0.36820921975E+02  0.00000000000E+00 0.  1.
         11    1    4    4    0    0 -0.10942006739E+02 -0.16744295630E+02 -0.19816017614E+02  0.28156233803E+02  0.51100000000E-03 0. -1.
        -11    1    4    4    0    0 -0.31246158914E+00  0.14193755382E+01  0.25150681284E+01  0.29047938162E+01  0.51100000000E-03 0.  1.
        -12    1    4    4    0    0  0.95963610445E+01  0.94652794247E+01 -0.19012898928E+02  0.23306050406E+02  0.00000000000E+00 0.  1.
</event>
<event>
 8    1  0.3106980E-007  0.9118800E+02  0.7816164E-02  0.1184000E+00
        -11   -1    0    0    0    0  0.00000000000E+00  0.00000000000E+00  0.45593999997E+02  0.45594000000E+02  0.51100000000E-03 0. -1.
         11   -1    0    0    0    0 -0.00000000000E+00 -0.00000000000E+00 -0.45593999997E+02  0.45594000000E+02  0.51100000000E-03 0.  1.
         23    2    1    2    0    0  0.00000000000E+00 -0.88817841970E-15  0.00000000000E+00  0.91188000000E+02  0.91188000000E+02 0.  0.
    9900012    2    3    3    0    0 -0.13347673306E+02  0.62800111112E+00  0.34310804479E+02  0.54366999579E+02  0.39999807139E+02 0.  0.
        -12    1    3    3    0    0  0.13347673306E+02 -0.62800111112E+00 -0.34310804479E+02  0.36821000421E+02  0.00000000000E+00 0.  1.
         11    1    4    4    0    0  0.94853443588E+00  0.73322813525E+01  0.17573640977E+02  0.19065542868E+02  0.51100000000E-03 0. -1.
        -11    1    4    4    0    0  0.69642395579E+01 -0.98921509730E+00 -0.90151499027E+00  0.70916788327E+01  0.51100000000E-03 0.  1.
        -12    1    4    4    0    0 -0.21260447299E+02 -0.57150651441E+01  0.17638678492E+02  0.28209777878E+02  0.00000000000E+00 0.  1.
</event>
<event>
 8    1  0.3106980E-007  0.9118800E+02  0.7816164E-02  0.1184000E+00
        -11   -1    0    0    0    0  0.00000000000E+00  0.00000000000E+00  0.45593999997E+02  0.45594000000E+02  0.51100000000E-03 0.  1.
         11   -1    0    0    0    0 -0.00000000000E+00 -0.00000000000E+00 -0.45593999997E+02  0.45594000000E+02  0.51100000000E-03 0. -1.
         23    2    1    2    0    0  0.00000000000E+00  0.88817841970E-15 -0.71054273576E-14  0.91188000000E+02  0.91188000000E+02 0.  0.
    9900012    2    3    3    0    0  0.68130929527E+01 -0.68425973810E+01 -0.35532231395E+02  0.54367097751E+02  0.40000030944E+02 0.  0.
        -12    1    3    3    0    0 -0.68130929527E+01  0.68425973810E+01  0.35532231395E+02  0.36820902249E+02  0.00000000000E+00 0.  1.
         11    1    4    4    0    0  0.65076958107E+01  0.10621135684E+02 -0.46476927642E+01  0.13295099709E+02  0.51100000000E-03 0. -1.
        -11    1    4    4    0    0  0.52993348743E+01  0.48625189803E+00 -0.38977220785E+00  0.53358517271E+01  0.51100000000E-03 0.  1.
         12    1    4    4    0    0 -0.49939377323E+01 -0.17949984963E+02 -0.30494766423E+02  0.35736146315E+02  0.00000000000E+00 0. -1.
</event>
<event>
 8    1  0.3106980E-007  0.9118800E+02  0.7816164E-02  0.1184000E+00
        -11   -1    0    0    0    0  0.00000000000E+00  0.00000000000E+00  0.45593999997E+02  0.45594000000E+02  0.51100000000E-03 0.  1.
         11   -1    0    0    0    0 -0.00000000000E+00 -0.00000000000E+00 -0.45593999997E+02  0.45594000000E+02  0.51100000000E-03 0. -1.
         23    2    1    2    0    0  0.00000000000E+00  0.00000000000E+00  0.00000000000E+00  0.91188000000E+02  0.91188000000E+02 0.  0.
    9900012    2    3    3    0    0 -0.32002275822E+02  0.99778527918E+01 -0.15234050428E+02  0.54367088869E+02  0.40000010694E+02 0.  0.
        -12    1    3    3    0    0  0.32002275822E+02 -0.99778527918E+01  0.15234050428E+02  0.36820911131E+02  0.00000000000E+00 0.  1.
         11    1    4    4    0    0 -0.16664480181E+02  0.23202426292E+01  0.91225100807E+01  0.19139190579E+02  0.51100000000E-03 0. -1.
        -11    1    4    4    0    0 -0.52533903302E+00  0.10339127952E+02 -0.88983727965E+01  0.13651175282E+02  0.51100000000E-03 0.  1.
        -12    1    4    4    0    0 -0.14812456608E+02 -0.26815177893E+01 -0.15458187712E+02  0.21576723008E+02  0.00000000000E+00 0.  1.
</event>
<event>
 8    1  0.3106980E-007  0.9118800E+02  0.7816164E-02  0.1184000E+00
        -11   -1    0    0    0    0  0.00000000000E+00  0.00000000000E+00  0.45593999997E+02  0.45594000000E+02  0.51100000000E-03 0. -1.
         11   -1    0    0    0    0 -0.00000000000E+00 -0.00000000000E+00 -0.45593999997E+02  0.45594000000E+02  0.51100000000E-03 0.  1.
         23    2    1    2    0    0 -0.17763568394E-14  0.00000000000E+00  0.00000000000E+00  0.91188000000E+02  0.91188000000E+02 0.  0.
    9900012    2    3    3    0    0  0.13636716400E+02  0.27948728542E+02 -0.19715168334E+02  0.54367091216E+02  0.40000016044E+02 0.  0.
        -12    1    3    3    0    0 -0.13636716400E+02 -0.27948728542E+02  0.19715168334E+02  0.36820908784E+02  0.00000000000E+00 0.  1.
         11    1    4    4    0    0  0.94234241254E+01  0.47211925638E+01 -0.99054182611E+01  0.14464020626E+02  0.51100000000E-03 0. -1.
        -11    1    4    4    0    0  0.60713213160E+01  0.18412082041E+02 -0.20387078904E+02  0.28133586585E+02  0.51100000000E-03 0.  1.
         12    1    4    4    0    0 -0.18580290410E+01  0.48154539370E+01  0.10577328832E+02  0.11769484005E+02  0.00000000000E+00 0. -1.
</event>
<event>
 8    1  0.3106980E-007  0.9118800E+02  0.7816164E-02  0.1184000E+00
        -11   -1    0    0    0    0  0.00000000000E+00  0.00000000000E+00  0.45593999997E+02  0.45594000000E+02  0.51100000000E-03 0.  1.
         11   -1    0    0    0    0 -0.00000000000E+00 -0.00000000000E+00 -0.45593999997E+02  0.45594000000E+02  0.51100000000E-03 0. -1.
         23    2    1    2    0    0  0.35527136788E-14  0.00000000000E+00  0.00000000000E+00  0.91188000000E+02  0.91188000000E+02 0.  0.
    9900012    2    3    3    0    0 -0.29133436602E+02 -0.47248687306E+01 -0.22015864509E+02  0.54367084710E+02  0.40000001213E+02 0.  0.
         12    1    3    3    0    0  0.29133436602E+02  0.47248687306E+01  0.22015864509E+02  0.36820915290E+02  0.00000000000E+00 0. -1.
         11    1    4    4    0    0 -0.15773405211E+02 -0.10838815941E+02 -0.40437536616E+01  0.19560986347E+02  0.51100000000E-03 0. -1.
        -11    1    4    4    0    0 -0.13966196943E+02  0.71532440078E+01  0.10681839239E+01  0.15727828014E+02  0.51100000000E-03 0.  1.
         12    1    4    4    0    0  0.60616555229E+00 -0.10392967978E+01 -0.19040294771E+02  0.19078270348E+02  0.00000000000E+00 0. -1.
</event>
<event>
 8    1  0.3106980E-007  0.9118800E+02  0.7816164E-02  0.1184000E+00
        -11   -1    0    0    0    0  0.00000000000E+00  0.00000000000E+00  0.45593999997E+02  0.45594000000E+02  0.51100000000E-03 0.  1.
         11   -1    0    0    0    0 -0.00000000000E+00 -0.00000000000E+00 -0.45593999997E+02  0.45594000000E+02  0.51100000000E-03 0. -1.
         23    2    1    2    0    0  0.00000000000E+00  0.00000000000E+00 -0.17763568394E-14  0.91188000000E+02  0.91188000000E+02 0.  0.
    9900012    2    3    3    0    0 -0.35155607800E+02 -0.66442002387E+01  0.87014199882E+01  0.54367124584E+02  0.40000092113E+02 0.  0.
         12    1    3    3    0    0  0.35155607800E+02  0.66442002387E+01 -0.87014199882E+01  0.36820875416E+02  0.00000000000E+00 0. -1.
         11    1    4    4    0    0 -0.11871606228E+02 -0.15168968225E+01  0.22542810685E+01  0.12178579301E+02  0.51100000000E-03 0. -1.
        -11    1    4    4    0    0 -0.31277222298E+02 -0.92926180398E+01  0.41863913505E+01  0.32895945913E+02  0.51100000000E-03 0.  1.
         12    1    4    4    0    0  0.79932207253E+01  0.41653146236E+01  0.22607475692E+01  0.92925993698E+01  0.00000000000E+00 0. -1.
</event>
<event>
 8    1  0.3106980E-007  0.9118800E+02  0.7816164E-02  0.1184000E+00
        -11   -1    0    0    0    0  0.00000000000E+00  0.00000000000E+00  0.45593999997E+02  0.45594000000E+02  0.51100000000E-03 0. -1.
         11   -1    0    0    0    0 -0.00000000000E+00 -0.00000000000E+00 -0.45593999997E+02  0.45594000000E+02  0.51100000000E-03 0.  1.
         23    2    1    2    0    0  0.00000000000E+00  0.00000000000E+00  0.71054273576E-14  0.91188000000E+02  0.91188000000E+02 0.  0.
    9900012    2    3    3    0    0 -0.31703032880E+02 -0.15880669779E+02 -0.99244789750E+01  0.54367173701E+02  0.40000204085E+02 0.  0.
         12    1    3    3    0    0  0.31703032880E+02  0.15880669779E+02  0.99244789750E+01  0.36820826299E+02  0.00000000000E+00 0. -1.
         11    1    4    4    0    0 -0.11230770264E+02 -0.31444268392E+00 -0.71612924616E+01  0.13323407406E+02  0.51100000000E-03 0. -1.
        -11    1    4    4    0    0 -0.14364461611E+02 -0.12313143231E+02 -0.16858804381E+02  0.25341084014E+02  0.51100000000E-03 0.  1.
         12    1    4    4    0    0 -0.61078010044E+01 -0.32530838646E+01  0.14095617867E+02  0.15702682281E+02  0.00000000000E+00 0. -1.
</event>
<event>
 8    1  0.3106980E-007  0.9118800E+02  0.7816164E-02  0.1184000E+00
        -11   -1    0    0    0    0  0.00000000000E+00  0.00000000000E+00  0.45593999997E+02  0.45594000000E+02  0.51100000000E-03 0. -1.
         11   -1    0    0    0    0 -0.00000000000E+00 -0.00000000000E+00 -0.45593999997E+02  0.45594000000E+02  0.51100000000E-03 0.  1.
         23    2    1    2    0    0  0.88817841970E-15  0.00000000000E+00  0.00000000000E+00  0.91188000000E+02  0.91188000000E+02 0.  0.
    9900012    2    3    3    0    0 -0.79461846191E+01 -0.27172924927E+02  0.23542943286E+02  0.54367083694E+02  0.39999998897E+02 0.  0.
         12    1    3    3    0    0  0.79461846191E+01  0.27172924927E+02 -0.23542943286E+02  0.36820916306E+02  0.00000000000E+00 0. -1.
         11    1    4    4    0    0  0.14228431472E+02 -0.48142741492E+01  0.20821751643E+01  0.15164463439E+02  0.51100000000E-03 0. -1.
        -11    1    4    4    0    0 -0.33678659914E+01 -0.35913200956E+01 -0.19325777397E+00  0.49272152575E+01  0.51100000000E-03 0.  1.
        -12    1    4    4    0    0 -0.18806750099E+02 -0.18767330682E+02  0.21654025895E+02  0.34275404997E+02  0.00000000000E+00 0.  1.
</event>
<event>
 8    1  0.3106980E-007  0.9118800E+02  0.7816164E-02  0.1184000E+00
        -11   -1    0    0    0    0  0.00000000000E+00  0.00000000000E+00  0.45593999997E+02  0.45594000000E+02  0.51100000000E-03 0. -1.
         11   -1    0    0    0    0 -0.00000000000E+00 -0.00000000000E+00 -0.45593999997E+02  0.45594000000E+02  0.51100000000E-03 0.  1.
         23    2    1    2    0    0 -0.35527136788E-14  0.00000000000E+00 -0.71054273576E-14  0.91188000000E+02  0.91188000000E+02 0.  0.
    9900012    2    3    3    0    0 -0.15650149427E+02 -0.17483982731E+02 -0.28375394373E+02  0.54367084272E+02  0.40000000215E+02 0.  0.
         12    1    3    3    0    0  0.15650149427E+02  0.17483982731E+02  0.28375394373E+02  0.36820915728E+02  0.00000000000E+00 0. -1.
         11    1    4    4    0    0 -0.19806573855E+02 -0.21877110120E+02 -0.16383819081E+02  0.33754078909E+02  0.51100000000E-03 0. -1.
        -11    1    4    4    0    0  0.12323299993E+01 -0.14823594877E+01 -0.13697123284E+02  0.13832108061E+02  0.51100000000E-03 0.  1.
        -12    1    4    4    0    0  0.29240944294E+01  0.58754868766E+01  0.17055479915E+01  0.67808973020E+01  0.00000000000E+00 0.  1.
</event>
<event>
 8    1  0.3106980E-007  0.9118800E+02  0.7816164E-02  0.1184000E+00
        -11   -1    0    0    0    0  0.00000000000E+00  0.00000000000E+00  0.45593999997E+02  0.45594000000E+02  0.51100000000E-03 0. -1.
         11   -1    0    0    0    0 -0.00000000000E+00 -0.00000000000E+00 -0.45593999997E+02  0.45594000000E+02  0.51100000000E-03 0.  1.
         23    2    1    2    0    0 -0.35527136788E-14 -0.35527136788E-14  0.00000000000E+00  0.91188000000E+02  0.91188000000E+02 0.  0.
    9900012    2    3    3    0    0  0.25929942435E+02  0.19225077814E+02 -0.17714712219E+02  0.54367128736E+02  0.40000101580E+02 0.  0.
         12    1    3    3    0    0 -0.25929942435E+02 -0.19225077814E+02  0.17714712219E+02  0.36820871264E+02  0.00000000000E+00 0. -1.
         11    1    4    4    0    0  0.28898631997E+01  0.21719983243E+01  0.34294919413E+01  0.49830012312E+01  0.51100000000E-03 0. -1.
        -11    1    4    4    0    0  0.19567626245E+02  0.26970161031E+02 -0.19880461220E+02  0.38800957739E+02  0.51100000000E-03 0.  1.
        -12    1    4    4    0    0  0.34724529904E+01 -0.99170815415E+01 -0.12637429402E+01  0.10583169766E+02  0.00000000000E+00 0.  1.
</event>
<event>
 8    1  0.3106980E-007  0.9118800E+02  0.7816164E-02  0.1184000E+00
        -11   -1    0    0    0    0  0.00000000000E+00  0.00000000000E+00  0.45593999997E+02  0.45594000000E+02  0.51100000000E-03 0.  1.
         11   -1    0    0    0    0 -0.00000000000E+00 -0.00000000000E+00 -0.45593999997E+02  0.45594000000E+02  0.51100000000E-03 0. -1.
         23    2    1    2    0    0  0.00000000000E+00  0.35527136788E-14 -0.17763568394E-14  0.91188000000E+02  0.91188000000E+02 0.  0.
    9900012    2    3    3    0    0  0.26469101734E+02  0.20672321660E+02  0.15093760817E+02  0.54367084137E+02  0.39999999907E+02 0.  0.
         12    1    3    3    0    0 -0.26469101734E+02 -0.20672321660E+02 -0.15093760817E+02  0.36820915863E+02  0.00000000000E+00 0. -1.
         11    1    4    4    0    0  0.11572407190E+02 -0.38631811574E+01  0.34258495157E+01  0.12672064630E+02  0.51100000000E-03 0. -1.
        -11    1    4    4    0    0  0.88455867114E+01  0.11896105910E+02 -0.85365773965E+01  0.17106574584E+02  0.51100000000E-03 0.  1.
        -12    1    4    4    0    0  0.60511078323E+01  0.12639396908E+02  0.20204488697E+02  0.24588444923E+02  0.00000000000E+00 0.  1.
</event>
<event>
 8    1  0.3106980E-007  0.9118800E+02  0.7816164E-02  0.1184000E+00
        -11   -1    0    0    0    0  0.00000000000E+00  0.00000000000E+00  0.45593999997E+02  0.45594000000E+02  0.51100000000E-03 0.  1.
         11   -1    0    0    0    0 -0.00000000000E+00 -0.00000000000E+00 -0.45593999997E+02  0.45594000000E+02  0.51100000000E-03 0. -1.
         23    2    1    2    0    0  0.17763568394E-14  0.00000000000E+00  0.00000000000E+00  0.91188000000E+02  0.91188000000E+02 0.  0.
    9900012    2    3    3    0    0  0.52571318749E+01 -0.82906699055E+01  0.35488125636E+02  0.54367086049E+02  0.40000004265E+02 0.  0.
         12    1    3    3    0    0 -0.52571318749E+01  0.82906699055E+01 -0.35488125636E+02  0.36820913951E+02  0.00000000000E+00 0. -1.
         11    1    4    4    0    0  0.51749141013E+01 -0.11184605340E+02  0.10806928491E+02  0.16390998634E+02  0.51100000000E-03 0. -1.
        -11    1    4    4    0    0  0.89963858746E+01  0.51746041060E+01 -0.12569506586E+01  0.10454253282E+02  0.51100000000E-03 0.  1.
        -12    1    4    4    0    0 -0.89141681010E+01 -0.22806686717E+01  0.25938147804E+02  0.27521834133E+02  0.00000000000E+00 0.  1.
</event>
<event>
 8    1  0.3106980E-007  0.9118800E+02  0.7816164E-02  0.1184000E+00
        -11   -1    0    0    0    0  0.00000000000E+00  0.00000000000E+00  0.45593999997E+02  0.45594000000E+02  0.51100000000E-03 0. -1.
         11   -1    0    0    0    0 -0.00000000000E+00 -0.00000000000E+00 -0.45593999997E+02  0.45594000000E+02  0.51100000000E-03 0.  1.
         23    2    1    2    0    0 -0.77715611724E-15  0.35527136788E-14  0.35527136788E-14  0.91188000000E+02  0.91188000000E+02 0.  0.
    9900012    2    3    3    0    0 -0.79597407920E+00 -0.22284541915E+02 -0.29300932983E+02  0.54367094840E+02  0.40000024308E+02 0.  0.
         12    1    3    3    0    0  0.79597407920E+00  0.22284541915E+02  0.29300932983E+02  0.36820905160E+02  0.00000000000E+00 0. -1.
         11    1    4    4    0    0 -0.84748301535E+01 -0.17448876968E+02 -0.10414784127E+02  0.22017124750E+02  0.51100000000E-03 0. -1.
        -11    1    4    4    0    0  0.13953602894E+02 -0.33213760683E+01 -0.22672586907E+01  0.14521536935E+02  0.51100000000E-03 0.  1.
        -12    1    4    4    0    0 -0.62747468199E+01 -0.15142888787E+01 -0.16618890166E+02  0.17828433156E+02  0.00000000000E+00 0.  1.
</event>
<event>
 8    1  0.3106980E-007  0.9118800E+02  0.7816164E-02  0.1184000E+00
        -11   -1    0    0    0    0  0.00000000000E+00  0.00000000000E+00  0.45593999997E+02  0.45594000000E+02  0.51100000000E-03 0. -1.
         11   -1    0    0    0    0 -0.00000000000E+00 -0.00000000000E+00 -0.45593999997E+02  0.45594000000E+02  0.51100000000E-03 0.  1.
         23    2    1    2    0    0  0.00000000000E+00 -0.88817841970E-15  0.00000000000E+00  0.91188000000E+02  0.91188000000E+02 0.  0.
    9900012    2    3    3    0    0 -0.21779451329E+02 -0.79728085969E+01  0.28598410422E+02  0.54367092138E+02  0.40000018147E+02 0.  0.
        -12    1    3    3    0    0  0.21779451329E+02  0.79728085969E+01 -0.28598410422E+02  0.36820907862E+02  0.00000000000E+00 0.  1.
         11    1    4    4    0    0 -0.16521106135E+02  0.52702857031E+01 -0.21376680595E+01  0.17472620991E+02  0.51100000000E-03 0. -1.
        -11    1    4    4    0    0  0.38628397126E+01 -0.13713368914E+01  0.21579810206E+01  0.46323836047E+01  0.51100000000E-03 0.  1.
         12    1    4    4    0    0 -0.91211849070E+01 -0.11871757409E+02  0.28578097461E+02  0.32262087542E+02  0.00000000000E+00 0. -1.
</event>
<event>
 8    1  0.3106980E-007  0.9118800E+02  0.7816164E-02  0.1184000E+00
        -11   -1    0    0    0    0  0.00000000000E+00  0.00000000000E+00  0.45593999997E+02  0.45594000000E+02  0.51100000000E-03 0.  1.
         11   -1    0    0    0    0 -0.00000000000E+00 -0.00000000000E+00 -0.45593999997E+02  0.45594000000E+02  0.51100000000E-03 0. -1.
         23    2    1    2    0    0  0.00000000000E+00  0.00000000000E+00 -0.17763568394E-14  0.91188000000E+02  0.91188000000E+02 0.  0.
    9900012    2    3    3    0    0 -0.34090715313E+02 -0.10951836800E+02  0.85824614768E+01  0.54367105865E+02  0.40000049441E+02 0.  0.
         12    1    3    3    0    0  0.34090715313E+02  0.10951836800E+02 -0.85824614768E+01  0.36820894135E+02  0.00000000000E+00 0. -1.
         11    1    4    4    0    0 -0.14959309739E+02 -0.67361701026E+01  0.47562880252E+01  0.17081545936E+02  0.51100000000E-03 0.  1.
        -11    1    4    4    0    0  0.40059674767E+01  0.24797334860E+01 -0.88804129693E+01  0.10052790078E+02  0.51100000000E-03 0. -1.
         12    1    4    4    0    0 -0.23137373051E+02 -0.66954001832E+01  0.12706586421E+02  0.27232769851E+02  0.00000000000E+00 0. -1.
</event>
<event>
 8    1  0.3106980E-007  0.9118800E+02  0.7816164E-02  0.1184000E+00
        -11   -1    0    0    0    0  0.00000000000E+00  0.00000000000E+00  0.45593999997E+02  0.45594000000E+02  0.51100000000E-03 0. -1.
         11   -1    0    0    0    0 -0.00000000000E+00 -0.00000000000E+00 -0.45593999997E+02  0.45594000000E+02  0.51100000000E-03 0.  1.
         23    2    1    2    0    0  0.00000000000E+00  0.00000000000E+00  0.00000000000E+00  0.91188000000E+02  0.91188000000E+02 0.  0.
    9900012    2    3    3    0    0 -0.25146070922E+02 -0.97378033261E+01 -0.25072560352E+02  0.54367041579E+02  0.39999902887E+02 0.  0.
         12    1    3    3    0    0  0.25146070922E+02  0.97378033261E+01  0.25072560352E+02  0.36820958421E+02  0.00000000000E+00 0. -1.
         11    1    4    4    0    0  0.32320144156E+01 -0.18200849684E+01 -0.55583848642E+01  0.66823849810E+01  0.51100000000E-03 0. -1.
        -11    1    4    4    0    0 -0.23158188590E+02  0.31441971356E+01  0.14472692601E+01  0.23415427884E+02  0.51100000000E-03 0.  1.
        -12    1    4    4    0    0 -0.52198967478E+01 -0.11061915493E+02 -0.20961444748E+02  0.24269228714E+02  0.00000000000E+00 0.  1.
</event>
<event>
 8    1  0.3106980E-007  0.9118800E+02  0.7816164E-02  0.1184000E+00
        -11   -1    0    0    0    0  0.00000000000E+00  0.00000000000E+00  0.45593999997E+02  0.45594000000E+02  0.51100000000E-03 0.  1.
         11   -1    0    0    0    0 -0.00000000000E+00 -0.00000000000E+00 -0.45593999997E+02  0.45594000000E+02  0.51100000000E-03 0. -1.
         23    2    1    2    0    0  0.88817841970E-15 -0.17763568394E-14  0.00000000000E+00  0.91188000000E+02  0.91188000000E+02 0.  0.
    9900012    2    3    3    0    0 -0.43313553003E+01  0.11046156977E+02 -0.34856880183E+02  0.54367077703E+02  0.39999985240E+02 0.  0.
        -12    1    3    3    0    0  0.43313553003E+01 -0.11046156977E+02  0.34856880183E+02  0.36820922297E+02  0.00000000000E+00 0.  1.
         11    1    4    4    0    0 -0.11968150987E+02  0.17708313473E+02 -0.35495688823E+02  0.41433862110E+02  0.51100000000E-03 0. -1.
        -11    1    4    4    0    0  0.22695349705E+01 -0.51837844160E+01  0.35204074853E+01  0.66645089074E+01  0.51100000000E-03 0.  1.
         12    1    4    4    0    0  0.53672607162E+01 -0.14783720805E+01 -0.28815988456E+01  0.62687066857E+01  0.00000000000E+00 0. -1.
</event>
<event>
 8    1  0.3106980E-007  0.9118800E+02  0.7816164E-02  0.1184000E+00
        -11   -1    0    0    0    0  0.00000000000E+00  0.00000000000E+00  0.45593999997E+02  0.45594000000E+02  0.51100000000E-03 0. -1.
         11   -1    0    0    0    0 -0.00000000000E+00 -0.00000000000E+00 -0.45593999997E+02  0.45594000000E+02  0.51100000000E-03 0.  1.
         23    2    1    2    0    0  0.35527136788E-14 -0.35527136788E-14  0.17763568394E-14  0.91188000000E+02  0.91188000000E+02 0.  0.
    9900012    2    3    3    0    0 -0.25376059732E+02 -0.24537094699E+02  0.10476904259E+02  0.54367096336E+02  0.40000027717E+02 0.  0.
        -12    1    3    3    0    0  0.25376059732E+02  0.24537094699E+02 -0.10476904259E+02  0.36820903664E+02  0.00000000000E+00 0.  1.
         11    1    4    4    0    0  0.13071990580E+01  0.46513366424E+01 -0.53287754099E+01  0.71930208931E+01  0.51100000000E-03 0.  1.
        -11    1    4    4    0    0 -0.22638850481E+02 -0.11388074216E+02  0.46026071615E+01  0.25756354136E+02  0.51100000000E-03 0. -1.
        -12    1    4    4    0    0 -0.40444083096E+01 -0.17800357125E+02  0.11203072507E+02  0.21417721306E+02  0.00000000000E+00 0.  1.
</event>
<event>
 8    1  0.3106980E-007  0.9118800E+02  0.7816164E-02  0.1184000E+00
        -11   -1    0    0    0    0  0.00000000000E+00  0.00000000000E+00  0.45593999997E+02  0.45594000000E+02  0.51100000000E-03 0.  1.
         11   -1    0    0    0    0 -0.00000000000E+00 -0.00000000000E+00 -0.45593999997E+02  0.45594000000E+02  0.51100000000E-03 0. -1.
         23    2    1    2    0    0  0.00000000000E+00  0.00000000000E+00  0.00000000000E+00  0.91188000000E+02  0.91188000000E+02 0.  0.
    9900012    2    3    3    0    0 -0.17011320810E+02 -0.28921410111E+02 -0.15164129003E+02  0.54367030337E+02  0.39999877260E+02 0.  0.
        -12    1    3    3    0    0  0.17011320810E+02  0.28921410111E+02  0.15164129003E+02  0.36820969663E+02  0.00000000000E+00 0.  1.
         11    1    4    4    0    0  0.57451691021E+01 -0.14700961140E+02 -0.13512739475E+02  0.20777857320E+02  0.51100000000E-03 0. -1.
        -11    1    4    4    0    0  0.37256079062E+01 -0.26054667378E+01  0.59365675655E+00  0.45848707504E+01  0.51100000000E-03 0.  1.
        -12    1    4    4    0    0 -0.26482097819E+02 -0.11614982233E+02 -0.22450462840E+01  0.29004302266E+02  0.00000000000E+00 0.  1.
</event>
<event>
 8    1  0.3106980E-007  0.9118800E+02  0.7816164E-02  0.1184000E+00
        -11   -1    0    0    0    0  0.00000000000E+00  0.00000000000E+00  0.45593999997E+02  0.45594000000E+02  0.51100000000E-03 0. -1.
         11   -1    0    0    0    0 -0.00000000000E+00 -0.00000000000E+00 -0.45593999997E+02  0.45594000000E+02  0.51100000000E-03 0.  1.
         23    2    1    2    0    0 -0.35527136788E-14 -0.26645352591E-14  0.00000000000E+00  0.91188000000E+02  0.91188000000E+02 0.  0.
    9900012    2    3    3    0    0 -0.23701950021E+02 -0.36950918792E+01 -0.27934635737E+02  0.54367081862E+02  0.39999994720E+02 0.  0.
         12    1    3    3    0    0  0.23701950021E+02  0.36950918792E+01  0.27934635737E+02  0.36820918138E+02  0.00000000000E+00 0. -1.
         11    1    4    4    0    0 -0.10243325557E+02  0.35840020222E+01 -0.51070809345E+01  0.11993876141E+02  0.51100000000E-03 0. -1.
        -11    1    4    4    0    0 -0.77396560252E+01 -0.20164207588E+02 -0.14071511666E+02  0.25777994178E+02  0.51100000000E-03 0.  1.
         12    1    4    4    0    0 -0.57189684389E+01  0.12885113686E+02 -0.87560431362E+01  0.16595211542E+02  0.00000000000E+00 0. -1.
</event>
<event>
 8    1  0.3106980E-007  0.9118800E+02  0.7816164E-02  0.1184000E+00
        -11   -1    0    0    0    0  0.00000000000E+00  0.00000000000E+00  0.45593999997E+02  0.45594000000E+02  0.51100000000E-03 0.  1.
         11   -1    0    0    0    0 -0.00000000000E+00 -0.00000000000E+00 -0.45593999997E+02  0.45594000000E+02  0.51100000000E-03 0. -1.
         23    2    1    2    0    0  0.35527136788E-14  0.00000000000E+00  0.88817841970E-15  0.91188000000E+02  0.91188000000E+02 0.  0.
    9900012    2    3    3    0    0  0.30393776124E+02 -0.19368379092E+02 -0.75407737343E+01  0.54367095554E+02  0.40000025935E+02 0.  0.
         12    1    3    3    0    0 -0.30393776124E+02  0.19368379092E+02  0.75407737343E+01  0.36820904446E+02  0.00000000000E+00 0. -1.
         11    1    4    4    0    0  0.18772919940E+02 -0.14862390990E+02  0.19094570152E+01  0.24019975341E+02  0.51100000000E-03 0. -1.
        -11    1    4    4    0    0  0.17996186224E+01 -0.11223616611E+00  0.88969758655E+01  0.90778523867E+01  0.51100000000E-03 0.  1.
         12    1    4    4    0    0  0.98212375610E+01 -0.43937519353E+01 -0.18347206615E+02  0.21269267826E+02  0.00000000000E+00 0. -1.
</event>
<event>
 8    1  0.3106980E-007  0.9118800E+02  0.7816164E-02  0.1184000E+00
        -11   -1    0    0    0    0  0.00000000000E+00  0.00000000000E+00  0.45593999997E+02  0.45594000000E+02  0.51100000000E-03 0. -1.
         11   -1    0    0    0    0 -0.00000000000E+00 -0.00000000000E+00 -0.45593999997E+02  0.45594000000E+02  0.51100000000E-03 0.  1.
         23    2    1    2    0    0  0.17763568394E-14  0.71054273576E-14 -0.35527136788E-14  0.91188000000E+02  0.91188000000E+02 0.  0.
    9900012    2    3    3    0    0  0.12219924865E+02  0.23961508424E+02 -0.25145544307E+02  0.54367097673E+02  0.40000030766E+02 0.  0.
         12    1    3    3    0    0 -0.12219924865E+02 -0.23961508424E+02  0.25145544307E+02  0.36820902327E+02  0.00000000000E+00 0. -1.
         11    1    4    4    0    0  0.10292827258E+02  0.12265019809E+02 -0.24811302685E+02  0.29529201565E+02  0.51100000000E-03 0. -1.
        -11    1    4    4    0    0  0.66157806410E+01  0.22632089105E+01 -0.88593487292E+01  0.11286218509E+02  0.51100000000E-03 0.  1.
         12    1    4    4    0    0 -0.46886830340E+01  0.94332797047E+01  0.85251071071E+01  0.13551677600E+02  0.00000000000E+00 0. -1.
</event>
<event>
 8    1  0.3106980E-007  0.9118800E+02  0.7816164E-02  0.1184000E+00
        -11   -1    0    0    0    0  0.00000000000E+00  0.00000000000E+00  0.45593999997E+02  0.45594000000E+02  0.51100000000E-03 0.  1.
         11   -1    0    0    0    0 -0.00000000000E+00 -0.00000000000E+00 -0.45593999997E+02  0.45594000000E+02  0.51100000000E-03 0. -1.
         23    2    1    2    0    0  0.35527136788E-14  0.00000000000E+00  0.00000000000E+00  0.91188000000E+02  0.91188000000E+02 0.  0.
    9900012    2    3    3    0    0 -0.21772999399E+02  0.10334708497E+01  0.29675717766E+02  0.54367084887E+02  0.40000001617E+02 0.  0.
         12    1    3    3    0    0  0.21772999399E+02 -0.10334708497E+01 -0.29675717766E+02  0.36820915113E+02  0.00000000000E+00 0. -1.
         11    1    4    4    0    0 -0.11154612015E+02  0.62054780335E+01  0.73662186038E+01  0.14737520267E+02  0.51100000000E-03 0.  1.
        -11    1    4    4    0    0  0.16947608377E+01 -0.14923500259E+02  0.17796319021E+02  0.23287164817E+02  0.51100000000E-03 0. -1.
         12    1    4    4    0    0 -0.12313148222E+02  0.97514930751E+01  0.45131801413E+01  0.16342399803E+02  0.00000000000E+00 0. -1.
</event>
<event>
 8    1  0.3106980E-007  0.9118800E+02  0.7816164E-02  0.1184000E+00
        -11   -1    0    0    0    0  0.00000000000E+00  0.00000000000E+00  0.45593999997E+02  0.45594000000E+02  0.51100000000E-03 0. -1.
         11   -1    0    0    0    0 -0.00000000000E+00 -0.00000000000E+00 -0.45593999997E+02  0.45594000000E+02  0.51100000000E-03 0.  1.
         23    2    1    2    0    0  0.00000000000E+00  0.00000000000E+00 -0.88817841970E-15  0.91188000000E+02  0.91188000000E+02 0.  0.
    9900012    2    3    3    0    0 -0.15085852417E+02 -0.32718002592E+02  0.75980785107E+01  0.54367062562E+02  0.39999950723E+02 0.  0.
        -12    1    3    3    0    0  0.15085852417E+02  0.32718002592E+02 -0.75980785107E+01  0.36820937438E+02  0.00000000000E+00 0.  1.
         11    1    4    4    0    0 -0.14946213147E+02 -0.37817341817E+01 -0.50894336158E+01  0.16235551597E+02  0.51100000000E-03 0. -1.
        -11    1    4    4    0    0  0.58677930414E+01 -0.19341854001E+02 -0.11603546222E+01  0.20245610252E+02  0.51100000000E-03 0.  1.
         12    1    4    4    0    0 -0.60074323116E+01 -0.95944144092E+01  0.13847866749E+02  0.17885900713E+02  0.00000000000E+00 0. -1.
</event>
<event>
 8    1  0.3106980E-007  0.9118800E+02  0.7816164E-02  0.1184000E+00
        -11   -1    0    0    0    0  0.00000000000E+00  0.00000000000E+00  0.45593999997E+02  0.45594000000E+02  0.51100000000E-03 0. -1.
         11   -1    0    0    0    0 -0.00000000000E+00 -0.00000000000E+00 -0.45593999997E+02  0.45594000000E+02  0.51100000000E-03 0.  1.
         23    2    1    2    0    0  0.00000000000E+00  0.00000000000E+00  0.00000000000E+00  0.91188000000E+02  0.91188000000E+02 0.  0.
    9900012    2    3    3    0    0  0.19441671042E+02  0.21266259871E+02 -0.22924828349E+02  0.54367080177E+02  0.39999990878E+02 0.  0.
         12    1    3    3    0    0 -0.19441671042E+02 -0.21266259871E+02  0.22924828349E+02  0.36820919823E+02  0.00000000000E+00 0. -1.
         11    1    4    4    0    0  0.91898564835E+00  0.12287965399E+02  0.85979680324E+01  0.15025434530E+02  0.51100000000E-03 0. -1.
        -11    1    4    4    0    0  0.37301809030E+01  0.91031824680E+00 -0.28620068205E+00  0.38503038804E+01  0.51100000000E-03 0.  1.
        -12    1    4    4    0    0  0.14792504491E+02  0.80679762252E+01 -0.31236595699E+02  0.35491341766E+02  0.00000000000E+00 0.  1.
</event>
<event>
 8    1  0.3106980E-007  0.9118800E+02  0.7816164E-02  0.1184000E+00
        -11   -1    0    0    0    0  0.00000000000E+00  0.00000000000E+00  0.45593999997E+02  0.45594000000E+02  0.51100000000E-03 0. -1.
         11   -1    0    0    0    0 -0.00000000000E+00 -0.00000000000E+00 -0.45593999997E+02  0.45594000000E+02  0.51100000000E-03 0.  1.
         23    2    1    2    0    0  0.00000000000E+00 -0.35527136788E-14  0.35527136788E-14  0.91188000000E+02  0.91188000000E+02 0.  0.
    9900012    2    3    3    0    0  0.14249956116E+02  0.26444524957E+02 -0.21293299321E+02  0.54367099068E+02  0.40000033944E+02 0.  0.
        -12    1    3    3    0    0 -0.14249956116E+02 -0.26444524957E+02  0.21293299321E+02  0.36820900932E+02  0.00000000000E+00 0.  1.
         11    1    4    4    0    0 -0.83703125488E+01  0.22739934899E+00  0.25426451402E+01  0.87509363613E+01  0.51100000000E-03 0.  1.
        -11    1    4    4    0    0  0.23879485692E+02  0.17546242773E+02 -0.15159540052E+02  0.33285313987E+02  0.51100000000E-03 0. -1.
         12    1    4    4    0    0 -0.12592170277E+01  0.86708828350E+01 -0.86764044096E+01  0.12330848719E+02  0.00000000000E+00 0. -1.
</event>
<event>
 8    1  0.3106980E-007  0.9118800E+02  0.7816164E-02  0.1184000E+00
        -11   -1    0    0    0    0  0.00000000000E+00  0.00000000000E+00  0.45593999997E+02  0.45594000000E+02  0.51100000000E-03 0.  1.
         11   -1    0    0    0    0 -0.00000000000E+00 -0.00000000000E+00 -0.45593999997E+02  0.45594000000E+02  0.51100000000E-03 0. -1.
         23    2    1    2    0    0  0.00000000000E+00  0.35527136788E-14 -0.35527136788E-14  0.91188000000E+02  0.91188000000E+02 0.  0.
    9900012    2    3    3    0    0  0.22448045807E+02 -0.22965095656E+02  0.18013080303E+02  0.54367062464E+02  0.39999950498E+02 0.  0.
         12    1    3    3    0    0 -0.22448045807E+02  0.22965095656E+02 -0.18013080303E+02  0.36820937536E+02  0.00000000000E+00 0. -1.
         11    1    4    4    0    0  0.10284232186E+02  0.54830124104E+01  0.13612575997E+02  0.17920130644E+02  0.51100000000E-03 0.  1.
        -11    1    4    4    0    0  0.14038140370E+02 -0.29485818587E+02  0.13059784522E+01  0.32683152583E+02  0.51100000000E-03 0. -1.
         12    1    4    4    0    0 -0.18743267487E+01  0.10377105208E+01  0.30945258534E+01  0.37637792368E+01  0.00000000000E+00 0. -1.
</event>
<event>
 8    1  0.3106980E-007  0.9118800E+02  0.7816164E-02  0.1184000E+00
        -11   -1    0    0    0    0  0.00000000000E+00  0.00000000000E+00  0.45593999997E+02  0.45594000000E+02  0.51100000000E-03 0.  1.
         11   -1    0    0    0    0 -0.00000000000E+00 -0.00000000000E+00 -0.45593999997E+02  0.45594000000E+02  0.51100000000E-03 0. -1.
         23    2    1    2    0    0  0.00000000000E+00  0.17763568394E-14  0.00000000000E+00  0.91188000000E+02  0.91188000000E+02 0.  0.
    9900012    2    3    3    0    0 -0.32834688826E+02  0.12410412854E+02  0.11119597121E+02  0.54367074188E+02  0.39999977227E+02 0.  0.
         12    1    3    3    0    0  0.32834688826E+02 -0.12410412854E+02 -0.11119597121E+02  0.36820925812E+02  0.00000000000E+00 0. -1.
         11    1    4    4    0    0 -0.18892574254E+02  0.39005584208E+01 -0.99061935462E+01  0.21685856883E+02  0.51100000000E-03 0. -1.
        -11    1    4    4    0    0 -0.11847016716E+02  0.12792437423E+02  0.21731822335E+02  0.27861628857E+02  0.51100000000E-03 0.  1.
        -12    1    4    4    0    0 -0.20950978565E+01 -0.42825829899E+01 -0.70603166799E+00  0.48195884482E+01  0.00000000000E+00 0.  1.
</event>
<event>
 8    1  0.3106980E-007  0.9118800E+02  0.7816164E-02  0.1184000E+00
        -11   -1    0    0    0    0  0.00000000000E+00  0.00000000000E+00  0.45593999997E+02  0.45594000000E+02  0.51100000000E-03 0. -1.
         11   -1    0    0    0    0 -0.00000000000E+00 -0.00000000000E+00 -0.45593999997E+02  0.45594000000E+02  0.51100000000E-03 0.  1.
         23    2    1    2    0    0  0.00000000000E+00  0.00000000000E+00  0.00000000000E+00  0.91188000000E+02  0.91188000000E+02 0.  0.
    9900012    2    3    3    0    0 -0.64788675057E+01  0.30105446194E+02  0.20185702274E+02  0.54367133755E+02  0.40000113022E+02 0.  0.
        -12    1    3    3    0    0  0.64788675057E+01 -0.30105446194E+02 -0.20185702274E+02  0.36820866245E+02  0.00000000000E+00 0.  1.
         11    1    4    4    0    0 -0.48162483907E+00 -0.32443439273E+01  0.16053717788E+00  0.32838243636E+01  0.51100000000E-03 0. -1.
        -11    1    4    4    0    0 -0.13097051558E+01  0.27562517300E+02 -0.21633326686E+01  0.27678289254E+02  0.51100000000E-03 0.  1.
         12    1    4    4    0    0 -0.46875375108E+01  0.57872728218E+01  0.22188497764E+02  0.23405020138E+02  0.00000000000E+00 0. -1.
</event>
<event>
 8    1  0.3106980E-007  0.9118800E+02  0.7816164E-02  0.1184000E+00
        -11   -1    0    0    0    0  0.00000000000E+00  0.00000000000E+00  0.45593999997E+02  0.45594000000E+02  0.51100000000E-03 0.  1.
         11   -1    0    0    0    0 -0.00000000000E+00 -0.00000000000E+00 -0.45593999997E+02  0.45594000000E+02  0.51100000000E-03 0. -1.
         23    2    1    2    0    0  0.17763568394E-14 -0.88817841970E-15  0.00000000000E+00  0.91188000000E+02  0.91188000000E+02 0.  0.
    9900012    2    3    3    0    0 -0.11934588307E+02  0.37093379972E+01  0.34635066923E+02  0.54367062380E+02  0.39999950309E+02 0.  0.
         12    1    3    3    0    0  0.11934588307E+02 -0.37093379972E+01 -0.34635066923E+02  0.36820937620E+02  0.00000000000E+00 0. -1.
         11    1    4    4    0    0 -0.10246426778E+02 -0.24200437085E+01 -0.28607041934E+01  0.10910064253E+02  0.51100000000E-03 0. -1.
        -11    1    4    4    0    0 -0.38305401453E+01  0.36084269503E+01  0.39325740438E+02  0.39676285664E+02  0.51100000000E-03 0.  1.
         12    1    4    4    0    0  0.21423786160E+01  0.25209547553E+01 -0.18299693214E+01  0.37807124633E+01  0.00000000000E+00 0. -1.
</event>
<event>
 8    1  0.3106980E-007  0.9118800E+02  0.7816164E-02  0.1184000E+00
        -11   -1    0    0    0    0  0.00000000000E+00  0.00000000000E+00  0.45593999997E+02  0.45594000000E+02  0.51100000000E-03 0.  1.
         11   -1    0    0    0    0 -0.00000000000E+00 -0.00000000000E+00 -0.45593999997E+02  0.45594000000E+02  0.51100000000E-03 0. -1.
         23    2    1    2    0    0 -0.17763568394E-14  0.00000000000E+00  0.00000000000E+00  0.91188000000E+02  0.91188000000E+02 0.  0.
    9900012    2    3    3    0    0 -0.75834046114E+01  0.20099137241E+02  0.29904790183E+02  0.54367084487E+02  0.40000000704E+02 0.  0.
        -12    1    3    3    0    0  0.75834046114E+01 -0.20099137241E+02 -0.29904790183E+02  0.36820915513E+02  0.00000000000E+00 0.  1.
         11    1    4    4    0    0  0.86612958742E+01 -0.14481051255E+01  0.36740095567E+00  0.87892001001E+01  0.51100000000E-03 0. -1.
        -11    1    4    4    0    0 -0.43532582762E+01  0.33567478852E+01 -0.31421709435E+01  0.63318127328E+01  0.51100000000E-03 0.  1.
        -12    1    4    4    0    0 -0.11891442209E+02  0.18190494482E+02  0.32679560171E+02  0.39246071654E+02  0.00000000000E+00 0.  1.
</event>
<event>
 8    1  0.3106980E-007  0.9118800E+02  0.7816164E-02  0.1184000E+00
        -11   -1    0    0    0    0  0.00000000000E+00  0.00000000000E+00  0.45593999997E+02  0.45594000000E+02  0.51100000000E-03 0. -1.
         11   -1    0    0    0    0 -0.00000000000E+00 -0.00000000000E+00 -0.45593999997E+02  0.45594000000E+02  0.51100000000E-03 0.  1.
         23    2    1    2    0    0  0.00000000000E+00  0.17763568394E-14  0.17763568394E-14  0.91188000000E+02  0.91188000000E+02 0.  0.
    9900012    2    3    3    0    0 -0.34375740147E+02  0.84130746801E+01  0.10164078849E+02  0.54367084272E+02  0.40000000215E+02 0.  0.
         12    1    3    3    0    0  0.34375740147E+02 -0.84130746801E+01 -0.10164078849E+02  0.36820915728E+02  0.00000000000E+00 0. -1.
         11    1    4    4    0    0 -0.17627180466E+02 -0.65932630928E+01  0.81631715658E+01  0.20514043474E+02  0.51100000000E-03 0. -1.
        -11    1    4    4    0    0 -0.18869682412E+02  0.44484770371E+01 -0.61591254771E+01  0.20341796606E+02  0.51100000000E-03 0.  1.
         12    1    4    4    0    0  0.21211227310E+01  0.10557860736E+02  0.81600327598E+01  0.13511244191E+02  0.00000000000E+00 0. -1.
</event>
<event>
 8    1  0.3106980E-007  0.9118800E+02  0.7816164E-02  0.1184000E+00
        -11   -1    0    0    0    0  0.00000000000E+00  0.00000000000E+00  0.45593999997E+02  0.45594000000E+02  0.51100000000E-03 0. -1.
         11   -1    0    0    0    0 -0.00000000000E+00 -0.00000000000E+00 -0.45593999997E+02  0.45594000000E+02  0.51100000000E-03 0.  1.
         23    2    1    2    0    0  0.17763568394E-14  0.00000000000E+00  0.71054273576E-14  0.91188000000E+02  0.91188000000E+02 0.  0.
    9900012    2    3    3    0    0 -0.10661802100E+02 -0.13737392938E+02 -0.32455915331E+02  0.54367130528E+02  0.40000105664E+02 0.  0.
         12    1    3    3    0    0  0.10661802100E+02  0.13737392938E+02  0.32455915331E+02  0.36820869472E+02  0.00000000000E+00 0. -1.
         11    1    4    4    0    0 -0.60035722340E+01 -0.46953875441E+01 -0.15531743962E+02  0.17301000391E+02  0.51100000000E-03 0. -1.
        -11    1    4    4    0    0 -0.13059555796E+02  0.50529492499E+01 -0.74570890985E+00  0.14022851912E+02  0.51100000000E-03 0.  1.
         12    1    4    4    0    0  0.84013259308E+01 -0.14094954643E+02 -0.16178462459E+02  0.23043278225E+02  0.00000000000E+00 0. -1.
</event>
<event>
 8    1  0.3106980E-007  0.9118800E+02  0.7816164E-02  0.1184000E+00
        -11   -1    0    0    0    0  0.00000000000E+00  0.00000000000E+00  0.45593999997E+02  0.45594000000E+02  0.51100000000E-03 0.  1.
         11   -1    0    0    0    0 -0.00000000000E+00 -0.00000000000E+00 -0.45593999997E+02  0.45594000000E+02  0.51100000000E-03 0. -1.
         23    2    1    2    0    0  0.71054273576E-14  0.00000000000E+00 -0.17763568394E-14  0.91188000000E+02  0.91188000000E+02 0.  0.
    9900012    2    3    3    0    0 -0.30318407738E+02  0.20323348688E+02  0.48514196450E+01  0.54367073582E+02  0.39999975845E+02 0.  0.
        -12    1    3    3    0    0  0.30318407738E+02 -0.20323348688E+02 -0.48514196450E+01  0.36820926418E+02  0.00000000000E+00 0.  1.
         11    1    4    4    0    0 -0.11351763650E+02  0.96176209827E+01  0.34606422063E+01  0.15275379409E+02  0.51100000000E-03 0. -1.
        -11    1    4    4    0    0 -0.15438914664E+02  0.13992177328E+02  0.14326845024E+02  0.25286352070E+02  0.51100000000E-03 0.  1.
        -12    1    4    4    0    0 -0.35277294241E+01 -0.32864496224E+01 -0.12936067586E+02  0.13805342103E+02  0.00000000000E+00 0.  1.
</event>
<event>
 8    1  0.3106980E-007  0.9118800E+02  0.7816164E-02  0.1184000E+00
        -11   -1    0    0    0    0  0.00000000000E+00  0.00000000000E+00  0.45593999997E+02  0.45594000000E+02  0.51100000000E-03 0.  1.
         11   -1    0    0    0    0 -0.00000000000E+00 -0.00000000000E+00 -0.45593999997E+02  0.45594000000E+02  0.51100000000E-03 0. -1.
         23    2    1    2    0    0  0.00000000000E+00 -0.41633363423E-15  0.00000000000E+00  0.91188000000E+02  0.91188000000E+02 0.  0.
    9900012    2    3    3    0    0 -0.21148487170E+02 -0.80451077664E-01  0.30141576101E+02  0.54367087575E+02  0.40000007746E+02 0.  0.
         12    1    3    3    0    0  0.21148487170E+02  0.80451077664E-01 -0.30141576101E+02  0.36820912425E+02  0.00000000000E+00 0. -1.
         11    1    4    4    0    0 -0.69507151604E+01  0.14381059358E+02  0.14241152339E+02  0.21399479660E+02  0.51100000000E-03 0. -1.
        -11    1    4    4    0    0  0.52194327973E+01 -0.45673424237E+01  0.24362489688E+01  0.73510818823E+01  0.51100000000E-03 0.  1.
        -12    1    4    4    0    0 -0.19417204807E+02 -0.98941680120E+01  0.13464174793E+02  0.25616526033E+02  0.00000000000E+00 0.  1.
</event>
<event>
 8    1  0.3106980E-007  0.9118800E+02  0.7816164E-02  0.1184000E+00
        -11   -1    0    0    0    0  0.00000000000E+00  0.00000000000E+00  0.45593999997E+02  0.45594000000E+02  0.51100000000E-03 0. -1.
         11   -1    0    0    0    0 -0.00000000000E+00 -0.00000000000E+00 -0.45593999997E+02  0.45594000000E+02  0.51100000000E-03 0.  1.
         23    2    1    2    0    0  0.35527136788E-14  0.35527136788E-14 -0.14918621893E-15  0.91188000000E+02  0.91188000000E+02 0.  0.
    9900012    2    3    3    0    0  0.21358021175E+02 -0.29993551046E+02  0.21245240811E-01  0.54367100714E+02  0.40000037698E+02 0.  0.
        -12    1    3    3    0    0 -0.21358021175E+02  0.29993551046E+02 -0.21245240811E-01  0.36820899286E+02  0.00000000000E+00 0.  1.
         11    1    4    4    0    0  0.10769678363E+00 -0.25689250673E+02 -0.80806542880E+01  0.26930394961E+02  0.51100000000E-03 0.  1.
        -11    1    4    4    0    0  0.21633171368E+02 -0.98051600338E+00  0.97003461864E+01  0.23728721657E+02  0.51100000000E-03 0. -1.
         12    1    4    4    0    0 -0.38284697694E+00 -0.33237843695E+01 -0.15984466576E+01  0.37079840965E+01  0.00000000000E+00 0. -1.
</event>
<event>
 8    1  0.3106980E-007  0.9118800E+02  0.7816164E-02  0.1184000E+00
        -11   -1    0    0    0    0  0.00000000000E+00  0.00000000000E+00  0.45593999997E+02  0.45594000000E+02  0.51100000000E-03 0.  1.
         11   -1    0    0    0    0 -0.00000000000E+00 -0.00000000000E+00 -0.45593999997E+02  0.45594000000E+02  0.51100000000E-03 0. -1.
         23    2    1    2    0    0 -0.18873791419E-14  0.35527136788E-14 -0.35527136788E-14  0.91188000000E+02  0.91188000000E+02 0.  0.
    9900012    2    3    3    0    0  0.85879118905E+00  0.22902305178E+02 -0.28818851533E+02  0.54367091422E+02  0.40000016516E+02 0.  0.
        -12    1    3    3    0    0 -0.85879118905E+00 -0.22902305178E+02  0.28818851533E+02  0.36820908578E+02  0.00000000000E+00 0.  1.
         11    1    4    4    0    0  0.34430239237E+01  0.19207103305E+02 -0.31418127775E+01  0.19764569788E+02  0.51100000000E-03 0. -1.
        -11    1    4    4    0    0  0.46487476783E+01  0.10418611185E+01  0.25077025793E+01  0.53837628155E+01  0.51100000000E-03 0.  1.
         12    1    4    4    0    0 -0.72329804129E+01  0.26533407549E+01 -0.28184741335E+02  0.29218758819E+02  0.00000000000E+00 0. -1.
</event>
<event>
 8    1  0.3106980E-007  0.9118800E+02  0.7816164E-02  0.1184000E+00
        -11   -1    0    0    0    0  0.00000000000E+00  0.00000000000E+00  0.45593999997E+02  0.45594000000E+02  0.51100000000E-03 0. -1.
         11   -1    0    0    0    0 -0.00000000000E+00 -0.00000000000E+00 -0.45593999997E+02  0.45594000000E+02  0.51100000000E-03 0.  1.
         23    2    1    2    0    0 -0.35527136788E-14  0.17763568394E-14 -0.35527136788E-14  0.91188000000E+02  0.91188000000E+02 0.  0.
    9900012    2    3    3    0    0  0.29136862366E+02 -0.13488134662E+02  0.18024751698E+02  0.54367106489E+02  0.40000050863E+02 0.  0.
        -12    1    3    3    0    0 -0.29136862366E+02  0.13488134662E+02 -0.18024751698E+02  0.36820893511E+02  0.00000000000E+00 0.  1.
         11    1    4    4    0    0  0.22658819903E+02 -0.13204337583E+02  0.15156145530E+02  0.30290021426E+02  0.51100000000E-03 0. -1.
        -11    1    4    4    0    0  0.40505643447E+01 -0.59065160314E+01 -0.85296302904E+01  0.11137710550E+02  0.51100000000E-03 0.  1.
         12    1    4    4    0    0  0.24274781180E+01  0.56227189525E+01  0.11398236458E+02  0.12939374513E+02  0.00000000000E+00 0. -1.
</event>
<event>
 8    1  0.3106980E-007  0.9118800E+02  0.7816164E-02  0.1184000E+00
        -11   -1    0    0    0    0  0.00000000000E+00  0.00000000000E+00  0.45593999997E+02  0.45594000000E+02  0.51100000000E-03 0.  1.
         11   -1    0    0    0    0 -0.00000000000E+00 -0.00000000000E+00 -0.45593999997E+02  0.45594000000E+02  0.51100000000E-03 0. -1.
         23    2    1    2    0    0 -0.35527136788E-14  0.13322676296E-14  0.00000000000E+00  0.91188000000E+02  0.91188000000E+02 0.  0.
    9900012    2    3    3    0    0 -0.27778339387E+02 -0.29179710277E+01  0.23992314861E+02  0.54367056688E+02  0.39999937331E+02 0.  0.
         12    1    3    3    0    0  0.27778339387E+02  0.29179710277E+01 -0.23992314861E+02  0.36820943312E+02  0.00000000000E+00 0. -1.
         11    1    4    4    0    0 -0.34220419131E+01  0.84518132628E+01  0.55069740967E+01  0.10652243062E+02  0.51100000000E-03 0. -1.
        -11    1    4    4    0    0 -0.65233698053E+01  0.94686132103E+01  0.18753969017E+01  0.11650154657E+02  0.51100000000E-03 0.  1.
         12    1    4    4    0    0 -0.17832927669E+02 -0.20838397501E+02  0.16609943863E+02  0.32064658968E+02  0.00000000000E+00 0. -1.
</event>
<event>
 8    1  0.3106980E-007  0.9118800E+02  0.7816164E-02  0.1184000E+00
        -11   -1    0    0    0    0  0.00000000000E+00  0.00000000000E+00  0.45593999997E+02  0.45594000000E+02  0.51100000000E-03 0.  1.
         11   -1    0    0    0    0 -0.00000000000E+00 -0.00000000000E+00 -0.45593999997E+02  0.45594000000E+02  0.51100000000E-03 0. -1.
         23    2    1    2    0    0  0.35527136788E-14  0.00000000000E+00  0.00000000000E+00  0.91188000000E+02  0.91188000000E+02 0.  0.
    9900012    2    3    3    0    0 -0.17172432559E+02 -0.17409046214E+02  0.27528391043E+02  0.54367086874E+02  0.40000006146E+02 0.  0.
         12    1    3    3    0    0  0.17172432559E+02  0.17409046214E+02 -0.27528391043E+02  0.36820913126E+02  0.00000000000E+00 0. -1.
         11    1    4    4    0    0 -0.62064250308E+01  0.45969454842E+01  0.11746125923E+02  0.14057848125E+02  0.51100000000E-03 0. -1.
        -11    1    4    4    0    0 -0.86274252020E+01 -0.20024805859E+02  0.23468590444E+02  0.32034357384E+02  0.51100000000E-03 0.  1.
        -12    1    4    4    0    0 -0.23385823267E+01 -0.19811858382E+01 -0.76863253236E+01  0.82748813649E+01  0.00000000000E+00 0.  1.
</event>
<event>
 8    1  0.3106980E-007  0.9118800E+02  0.7816164E-02  0.1184000E+00
        -11   -1    0    0    0    0  0.00000000000E+00  0.00000000000E+00  0.45593999997E+02  0.45594000000E+02  0.51100000000E-03 0.  1.
         11   -1    0    0    0    0 -0.00000000000E+00 -0.00000000000E+00 -0.45593999997E+02  0.45594000000E+02  0.51100000000E-03 0. -1.
         23    2    1    2    0    0  0.00000000000E+00 -0.17763568394E-14  0.00000000000E+00  0.91188000000E+02  0.91188000000E+02 0.  0.
    9900012    2    3    3    0    0 -0.29639042490E+02 -0.91576271189E+01  0.19835454252E+02  0.54367079050E+02  0.39999988311E+02 0.  0.
         12    1    3    3    0    0  0.29639042490E+02  0.91576271189E+01 -0.19835454252E+02  0.36820920950E+02  0.00000000000E+00 0. -1.
         11    1    4    4    0    0  0.61700998644E+01 -0.22126051304E+01 -0.15423519614E+01  0.67338401848E+01  0.51100000000E-03 0. -1.
        -11    1    4    4    0    0 -0.12035104975E+02  0.41194977518E+01 -0.15318852796E+01  0.12812520683E+02  0.51100000000E-03 0.  1.
        -12    1    4    4    0    0 -0.23774037380E+02 -0.11064519740E+02  0.22909691493E+02  0.34820718182E+02  0.00000000000E+00 0.  1.
</event>
<event>
 8    1  0.3106980E-007  0.9118800E+02  0.7816164E-02  0.1184000E+00
        -11   -1    0    0    0    0  0.00000000000E+00  0.00000000000E+00  0.45593999997E+02  0.45594000000E+02  0.51100000000E-03 0.  1.
         11   -1    0    0    0    0 -0.00000000000E+00 -0.00000000000E+00 -0.45593999997E+02  0.45594000000E+02  0.51100000000E-03 0. -1.
         23    2    1    2    0    0 -0.44408920985E-15  0.00000000000E+00  0.71054273576E-14  0.91188000000E+02  0.91188000000E+02 0.  0.
    9900012    2    3    3    0    0  0.31390287885E+01 -0.39035937714E+01 -0.36478600421E+02  0.54367084276E+02  0.40000000224E+02 0.  0.
        -12    1    3    3    0    0 -0.31390287885E+01  0.39035937714E+01  0.36478600421E+02  0.36820915724E+02  0.00000000000E+00 0.  1.
         11    1    4    4    0    0  0.72865112485E+01  0.75865366603E+01 -0.41119888153E+01  0.11294124001E+02  0.51100000000E-03 0. -1.
        -11    1    4    4    0    0 -0.65029635752E+01 -0.63982483512E+01  0.10550901147E+01  0.91836448448E+01  0.51100000000E-03 0.  1.
         12    1    4    4    0    0  0.23554811152E+01 -0.50918820805E+01 -0.33421701721E+02  0.33889315430E+02  0.00000000000E+00 0. -1.
</event>
<event>
 8    1  0.3106980E-007  0.9118800E+02  0.7816164E-02  0.1184000E+00
        -11   -1    0    0    0    0  0.00000000000E+00  0.00000000000E+00  0.45593999997E+02  0.45594000000E+02  0.51100000000E-03 0. -1.
         11   -1    0    0    0    0 -0.00000000000E+00 -0.00000000000E+00 -0.45593999997E+02  0.45594000000E+02  0.51100000000E-03 0.  1.
         23    2    1    2    0    0 -0.71054273576E-14 -0.26645352591E-14 -0.17763568394E-14  0.91188000000E+02  0.91188000000E+02 0.  0.
    9900012    2    3    3    0    0  0.34875899453E+02  0.48822287447E+01  0.10752494637E+02  0.54367073055E+02  0.39999974644E+02 0.  0.
         12    1    3    3    0    0 -0.34875899453E+02 -0.48822287447E+01 -0.10752494637E+02  0.36820926945E+02  0.00000000000E+00 0. -1.
         11    1    4    4    0    0  0.11733191099E+01 -0.31464500845E+01 -0.68839129419E+01  0.76593135150E+01  0.51100000000E-03 0.  1.
        -11    1    4    4    0    0  0.24467951826E+02  0.14002134018E+02  0.21060041730E+02  0.35189000860E+02  0.51100000000E-03 0. -1.
        -12    1    4    4    0    0  0.92346285166E+01 -0.59734551886E+01 -0.34236341504E+01  0.11518758680E+02  0.00000000000E+00 0.  1.
</event>
<event>
 8    1  0.3106980E-007  0.9118800E+02  0.7816164E-02  0.1184000E+00
        -11   -1    0    0    0    0  0.00000000000E+00  0.00000000000E+00  0.45593999997E+02  0.45594000000E+02  0.51100000000E-03 0.  1.
         11   -1    0    0    0    0 -0.00000000000E+00 -0.00000000000E+00 -0.45593999997E+02  0.45594000000E+02  0.51100000000E-03 0. -1.
         23    2    1    2    0    0  0.00000000000E+00  0.00000000000E+00 -0.22204460493E-15  0.91188000000E+02  0.91188000000E+02 0.  0.
    9900012    2    3    3    0    0 -0.31412138130E+02  0.19134706137E+02 -0.17088983085E+01  0.54367085640E+02  0.40000003334E+02 0.  0.
         12    1    3    3    0    0  0.31412138130E+02 -0.19134706137E+02  0.17088983085E+01  0.36820914360E+02  0.00000000000E+00 0. -1.
         11    1    4    4    0    0 -0.66584387135E+01  0.18201119781E+02 -0.11214065109E+02  0.22391311349E+02  0.51100000000E-03 0. -1.
        -11    1    4    4    0    0 -0.18957116598E+02  0.40607121668E+01  0.14076520694E+02  0.23958507636E+02  0.51100000000E-03 0.  1.
         12    1    4    4    0    0 -0.57965828185E+01 -0.31271258105E+01 -0.45713538940E+01  0.80172666558E+01  0.00000000000E+00 0. -1.
</event>
<event>
 8    1  0.3106980E-007  0.9118800E+02  0.7816164E-02  0.1184000E+00
        -11   -1    0    0    0    0  0.00000000000E+00  0.00000000000E+00  0.45593999997E+02  0.45594000000E+02  0.51100000000E-03 0. -1.
         11   -1    0    0    0    0 -0.00000000000E+00 -0.00000000000E+00 -0.45593999997E+02  0.45594000000E+02  0.51100000000E-03 0.  1.
         23    2    1    2    0    0  0.17763568394E-14  0.35527136788E-14  0.35527136788E-14  0.91188000000E+02  0.91188000000E+02 0.  0.
    9900012    2    3    3    0    0 -0.90174777659E+01  0.29477387435E+02  0.20138240146E+02  0.54367082149E+02  0.39999995375E+02 0.  0.
        -12    1    3    3    0    0  0.90174777659E+01 -0.29477387435E+02 -0.20138240146E+02  0.36820917851E+02  0.00000000000E+00 0.  1.
         11    1    4    4    0    0 -0.16937540740E+02  0.28749071296E+02  0.19958323239E+02  0.38880895739E+02  0.51100000000E-03 0. -1.
        -11    1    4    4    0    0  0.14154604001E+01  0.26296558362E+01  0.59034230709E+01  0.66158160628E+01  0.51100000000E-03 0.  1.
        -12    1    4    4    0    0  0.65046025739E+01 -0.19013396977E+01 -0.57235061639E+01  0.88703703473E+01  0.00000000000E+00 0.  1.
</event>
<event>
 8    1  0.3106980E-007  0.9118800E+02  0.7816164E-02  0.1184000E+00
        -11   -1    0    0    0    0  0.00000000000E+00  0.00000000000E+00  0.45593999997E+02  0.45594000000E+02  0.51100000000E-03 0. -1.
         11   -1    0    0    0    0 -0.00000000000E+00 -0.00000000000E+00 -0.45593999997E+02  0.45594000000E+02  0.51100000000E-03 0.  1.
         23    2    1    2    0    0 -0.71054273576E-14  0.00000000000E+00  0.00000000000E+00  0.91188000000E+02  0.91188000000E+02 0.  0.
    9900012    2    3    3    0    0 -0.33343677479E+02 -0.11058305897E+02  0.11031469146E+02  0.54367078384E+02  0.39999986792E+02 0.  0.
        -12    1    3    3    0    0  0.33343677479E+02  0.11058305897E+02 -0.11031469146E+02  0.36820921616E+02  0.00000000000E+00 0.  1.
         11    1    4    4    0    0 -0.13394307807E+01 -0.83953677822E+01  0.12581999334E+01  0.85941458184E+01  0.51100000000E-03 0.  1.
        -11    1    4    4    0    0 -0.35397230511E+02  0.48029647196E+01  0.11227028582E+02  0.37444339612E+02  0.51100000000E-03 0. -1.
         12    1    4    4    0    0  0.33929838126E+01 -0.74659028348E+01 -0.14537593687E+01  0.83285929539E+01  0.00000000000E+00 0. -1.
</event>
<event>
 8    1  0.3106980E-007  0.9118800E+02  0.7816164E-02  0.1184000E+00
        -11   -1    0    0    0    0  0.00000000000E+00  0.00000000000E+00  0.45593999997E+02  0.45594000000E+02  0.51100000000E-03 0. -1.
         11   -1    0    0    0    0 -0.00000000000E+00 -0.00000000000E+00 -0.45593999997E+02  0.45594000000E+02  0.51100000000E-03 0.  1.
         23    2    1    2    0    0  0.88817841970E-15  0.00000000000E+00  0.00000000000E+00  0.91188000000E+02  0.91188000000E+02 0.  0.
    9900012    2    3    3    0    0  0.23604616707E+01  0.28546607017E+02 -0.23136550636E+02  0.54367074878E+02  0.39999978800E+02 0.  0.
         12    1    3    3    0    0 -0.23604616707E+01 -0.28546607017E+02  0.23136550636E+02  0.36820925122E+02  0.00000000000E+00 0. -1.
         11    1    4    4    0    0  0.56612627125E+01  0.45904448066E+01 -0.20415183687E+01  0.75690076320E+01  0.51100000000E-03 0. -1.
        -11    1    4    4    0    0  0.26926602642E+01 -0.53462675685E+01 -0.15169188760E+02  0.16307583638E+02  0.51100000000E-03 0.  1.
         12    1    4    4    0    0 -0.59934613061E+01  0.29302429779E+02 -0.59258435069E+01  0.30490483608E+02  0.00000000000E+00 0. -1.
</event>
<event>
 8    1  0.3106980E-007  0.9118800E+02  0.7816164E-02  0.1184000E+00
        -11   -1    0    0    0    0  0.00000000000E+00  0.00000000000E+00  0.45593999997E+02  0.45594000000E+02  0.51100000000E-03 0.  1.
         11   -1    0    0    0    0 -0.00000000000E+00 -0.00000000000E+00 -0.45593999997E+02  0.45594000000E+02  0.51100000000E-03 0. -1.
         23    2    1    2    0    0 -0.24424906542E-14 -0.35527136788E-14  0.00000000000E+00  0.91188000000E+02  0.91188000000E+02 0.  0.
    9900012    2    3    3    0    0  0.18595506195E+01 -0.24210893621E+02 -0.27679484569E+02  0.54367093378E+02  0.40000020974E+02 0.  0.
        -12    1    3    3    0    0 -0.18595506195E+01  0.24210893621E+02  0.27679484569E+02  0.36820906622E+02  0.00000000000E+00 0.  1.
         11    1    4    4    0    0  0.12199609701E+02 -0.70094212742E+01 -0.16661199819E+02  0.21807293347E+02  0.51100000000E-03 0. -1.
        -11    1    4    4    0    0  0.71866616413E+01 -0.48940254113E+01 -0.52420991286E+00  0.87105904832E+01  0.51100000000E-03 0.  1.
        -12    1    4    4    0    0 -0.17526720723E+02 -0.12307446936E+02 -0.10494074837E+02  0.23849209548E+02  0.00000000000E+00 0.  1.
</event>
<event>
 8    1  0.3106980E-007  0.9118800E+02  0.7816164E-02  0.1184000E+00
        -11   -1    0    0    0    0  0.00000000000E+00  0.00000000000E+00  0.45593999997E+02  0.45594000000E+02  0.51100000000E-03 0. -1.
         11   -1    0    0    0    0 -0.00000000000E+00 -0.00000000000E+00 -0.45593999997E+02  0.45594000000E+02  0.51100000000E-03 0.  1.
         23    2    1    2    0    0  0.00000000000E+00  0.00000000000E+00  0.44408920985E-15  0.91188000000E+02  0.91188000000E+02 0.  0.
    9900012    2    3    3    0    0  0.33426005052E+02  0.15218745916E+02  0.26213924064E+01  0.54367085574E+02  0.40000003183E+02 0.  0.
         12    1    3    3    0    0 -0.33426005052E+02 -0.15218745916E+02 -0.26213924064E+01  0.36820914426E+02  0.00000000000E+00 0. -1.
         11    1    4    4    0    0  0.15419963956E+02  0.58666821078E+01  0.50211527571E+01  0.17245440633E+02  0.51100000000E-03 0. -1.
        -11    1    4    4    0    0  0.19144656702E+02  0.13969023487E+02 -0.11884108109E+02  0.26511950574E+02  0.51100000000E-03 0.  1.
        -12    1    4    4    0    0 -0.11386156051E+01 -0.46169596790E+01  0.94843477583E+01  0.10609694368E+02  0.00000000000E+00 0.  1.
</event>
<event>
 8    1  0.3106980E-007  0.9118800E+02  0.7816164E-02  0.1184000E+00
        -11   -1    0    0    0    0  0.00000000000E+00  0.00000000000E+00  0.45593999997E+02  0.45594000000E+02  0.51100000000E-03 0.  1.
         11   -1    0    0    0    0 -0.00000000000E+00 -0.00000000000E+00 -0.45593999997E+02  0.45594000000E+02  0.51100000000E-03 0. -1.
         23    2    1    2    0    0 -0.17763568394E-14  0.00000000000E+00  0.00000000000E+00  0.91188000000E+02  0.91188000000E+02 0.  0.
    9900012    2    3    3    0    0  0.10767799393E+02  0.22231986526E+02 -0.27305188420E+02  0.54367081444E+02  0.39999993768E+02 0.  0.
        -12    1    3    3    0    0 -0.10767799393E+02 -0.22231986526E+02  0.27305188420E+02  0.36820918556E+02  0.00000000000E+00 0.  1.
         11    1    4    4    0    0 -0.64215359691E+01 -0.44126507668E+01 -0.58889910649E+01  0.97666691874E+01  0.51100000000E-03 0. -1.
        -11    1    4    4    0    0  0.36324092034E+01 -0.77748412957E+00 -0.12048232316E+02  0.12607885643E+02  0.51100000000E-03 0.  1.
        -12    1    4    4    0    0  0.13556926158E+02  0.27422121422E+02 -0.93679650392E+01  0.31992526614E+02  0.00000000000E+00 0.  1.
</event>
<event>
 8    1  0.3106980E-007  0.9118800E+02  0.7816164E-02  0.1184000E+00
        -11   -1    0    0    0    0  0.00000000000E+00  0.00000000000E+00  0.45593999997E+02  0.45594000000E+02  0.51100000000E-03 0. -1.
         11   -1    0    0    0    0 -0.00000000000E+00 -0.00000000000E+00 -0.45593999997E+02  0.45594000000E+02  0.51100000000E-03 0.  1.
         23    2    1    2    0    0 -0.35527136788E-14  0.11102230246E-15  0.00000000000E+00  0.91188000000E+02  0.91188000000E+02 0.  0.
    9900012    2    3    3    0    0  0.19121347899E+02  0.87999247057E+00  0.31454263912E+02  0.54367203560E+02  0.40000272155E+02 0.  0.
        -12    1    3    3    0    0 -0.19121347899E+02 -0.87999247057E+00 -0.31454263912E+02  0.36820796440E+02  0.00000000000E+00 0.  1.
         11    1    4    4    0    0  0.36141560941E+01 -0.49228498544E+01 -0.31195543727E+01  0.68577106025E+01  0.51100000000E-03 0. -1.
        -11    1    4    4    0    0 -0.50442186979E+01  0.82052451913E+01  0.20007399933E+02  0.22205094984E+02  0.51100000000E-03 0.  1.
         12    1    4    4    0    0  0.20551410503E+02 -0.24024028663E+01  0.14566418352E+02  0.25304397973E+02  0.00000000000E+00 0. -1.
</event>
<event>
 8    1  0.3106980E-007  0.9118800E+02  0.7816164E-02  0.1184000E+00
        -11   -1    0    0    0    0  0.00000000000E+00  0.00000000000E+00  0.45593999997E+02  0.45594000000E+02  0.51100000000E-03 0. -1.
         11   -1    0    0    0    0 -0.00000000000E+00 -0.00000000000E+00 -0.45593999997E+02  0.45594000000E+02  0.51100000000E-03 0.  1.
         23    2    1    2    0    0  0.35527136788E-14  0.00000000000E+00  0.44408920985E-15  0.91188000000E+02  0.91188000000E+02 0.  0.
    9900012    2    3    3    0    0  0.28274133866E+02 -0.23328166941E+02  0.34856132294E+01  0.54367088574E+02  0.40000010022E+02 0.  0.
        -12    1    3    3    0    0 -0.28274133866E+02  0.23328166941E+02 -0.34856132294E+01  0.36820911426E+02  0.00000000000E+00 0.  1.
         11    1    4    4    0    0  0.32859692589E+01 -0.73107529114E+01  0.11955994981E+02  0.14394114018E+02  0.51100000000E-03 0. -1.
        -11    1    4    4    0    0  0.95580673184E+01 -0.20798470711E+02 -0.43074194391E+01  0.23291348121E+02  0.51100000000E-03 0.  1.
         12    1    4    4    0    0  0.15430097288E+02  0.47810566818E+01 -0.41629623129E+01  0.16681626436E+02  0.00000000000E+00 0. -1.
</event>
<event>
 8    1  0.3106980E-007  0.9118800E+02  0.7816164E-02  0.1184000E+00
        -11   -1    0    0    0    0  0.00000000000E+00  0.00000000000E+00  0.45593999997E+02  0.45594000000E+02  0.51100000000E-03 0.  1.
         11   -1    0    0    0    0 -0.00000000000E+00 -0.00000000000E+00 -0.45593999997E+02  0.45594000000E+02  0.51100000000E-03 0. -1.
         23    2    1    2    0    0  0.13322676296E-14  0.00000000000E+00  0.00000000000E+00  0.91188000000E+02  0.91188000000E+02 0.  0.
    9900012    2    3    3    0    0 -0.32624231669E+01  0.26674410292E+02  0.25171684903E+02  0.54367064512E+02  0.39999955168E+02 0.  0.
         12    1    3    3    0    0  0.32624231669E+01 -0.26674410292E+02 -0.25171684903E+02  0.36820935488E+02  0.00000000000E+00 0. -1.
         11    1    4    4    0    0 -0.43591382481E+01  0.32775743152E+01  0.19109155416E+02  0.19872201706E+02  0.51100000000E-03 0. -1.
        -11    1    4    4    0    0  0.12618750793E+02  0.12089702254E+02  0.55782439985E+01  0.18344224664E+02  0.51100000000E-03 0.  1.
        -12    1    4    4    0    0 -0.11522035711E+02  0.11307133723E+02  0.48428548803E+00  0.16150638142E+02  0.00000000000E+00 0.  1.
</event>
<event>
 8    1  0.3106980E-007  0.9118800E+02  0.7816164E-02  0.1184000E+00
        -11   -1    0    0    0    0  0.00000000000E+00  0.00000000000E+00  0.45593999997E+02  0.45594000000E+02  0.51100000000E-03 0. -1.
         11   -1    0    0    0    0 -0.00000000000E+00 -0.00000000000E+00 -0.45593999997E+02  0.45594000000E+02  0.51100000000E-03 0.  1.
         23    2    1    2    0    0  0.00000000000E+00  0.00000000000E+00 -0.88817841970E-15  0.91188000000E+02  0.91188000000E+02 0.  0.
    9900012    2    3    3    0    0  0.16998845971E+02  0.32367604584E+02  0.43768949047E+01  0.54367084750E+02  0.40000001305E+02 0.  0.
        -12    1    3    3    0    0 -0.16998845971E+02 -0.32367604584E+02 -0.43768949047E+01  0.36820915250E+02  0.00000000000E+00 0.  1.
         11    1    4    4    0    0 -0.49434491303E+01  0.11469030748E+02  0.17351166372E+02  0.21378478204E+02  0.51100000000E-03 0. -1.
        -11    1    4    4    0    0  0.11345180296E+02  0.11379580027E+02 -0.74221136978E+01  0.17700161850E+02  0.51100000000E-03 0.  1.
         12    1    4    4    0    0  0.10597114805E+02  0.95189938090E+01 -0.55521577691E+01  0.15288444696E+02  0.00000000000E+00 0. -1.
</event>
<event>
 8    1  0.3106980E-007  0.9118800E+02  0.7816164E-02  0.1184000E+00
        -11   -1    0    0    0    0  0.00000000000E+00  0.00000000000E+00  0.45593999997E+02  0.45594000000E+02  0.51100000000E-03 0.  1.
         11   -1    0    0    0    0 -0.00000000000E+00 -0.00000000000E+00 -0.45593999997E+02  0.45594000000E+02  0.51100000000E-03 0. -1.
         23    2    1    2    0    0  0.35527136788E-14  0.00000000000E+00  0.17763568394E-14  0.91188000000E+02  0.91188000000E+02 0.  0.
    9900012    2    3    3    0    0  0.30446458869E+02 -0.14467829259E+02  0.14814683478E+02  0.54367084915E+02  0.40000001681E+02 0.  0.
         12    1    3    3    0    0 -0.30446458869E+02  0.14467829259E+02 -0.14814683478E+02  0.36820915085E+02  0.00000000000E+00 0. -1.
         11    1    4    4    0    0  0.32159473795E+02 -0.15536325699E+02  0.17804351196E+02  0.39907444078E+02  0.51100000000E-03 0. -1.
        -11    1    4    4    0    0  0.19787628639E+01 -0.59203832757E+01 -0.13982090226E+01  0.63969859571E+01  0.51100000000E-03 0.  1.
         12    1    4    4    0    0 -0.36917777903E+01  0.69888797165E+01 -0.15914586953E+01  0.80626548806E+01  0.00000000000E+00 0. -1.
</event>
<event>
 8    1  0.3106980E-007  0.9118800E+02  0.7816164E-02  0.1184000E+00
        -11   -1    0    0    0    0  0.00000000000E+00  0.00000000000E+00  0.45593999997E+02  0.45594000000E+02  0.51100000000E-03 0. -1.
         11   -1    0    0    0    0 -0.00000000000E+00 -0.00000000000E+00 -0.45593999997E+02  0.45594000000E+02  0.51100000000E-03 0.  1.
         23    2    1    2    0    0  0.00000000000E+00  0.00000000000E+00 -0.17763568394E-14  0.91188000000E+02  0.91188000000E+02 0.  0.
    9900012    2    3    3    0    0 -0.32194502889E+02  0.12352473389E+02 -0.12911381709E+02  0.54367171754E+02  0.40000199648E+02 0.  0.
         12    1    3    3    0    0  0.32194502889E+02 -0.12352473389E+02  0.12911381709E+02  0.36820828246E+02  0.00000000000E+00 0. -1.
         11    1    4    4    0    0 -0.11782754480E+02 -0.89875294130E+01 -0.13489242438E+02  0.20039177875E+02  0.51100000000E-03 0. -1.
        -11    1    4    4    0    0 -0.21110276890E+02  0.11034796911E+02 -0.11847521991E+01  0.23849825393E+02  0.51100000000E-03 0.  1.
        -12    1    4    4    0    0  0.69852848165E+00  0.10305205891E+02  0.17626129279E+01  0.10478168486E+02  0.00000000000E+00 0.  1.
</event>
<event>
 8    1  0.3106980E-007  0.9118800E+02  0.7816164E-02  0.1184000E+00
        -11   -1    0    0    0    0  0.00000000000E+00  0.00000000000E+00  0.45593999997E+02  0.45594000000E+02  0.51100000000E-03 0. -1.
         11   -1    0    0    0    0 -0.00000000000E+00 -0.00000000000E+00 -0.45593999997E+02  0.45594000000E+02  0.51100000000E-03 0.  1.
         23    2    1    2    0    0 -0.35527136788E-14  0.00000000000E+00  0.35527136788E-14  0.91188000000E+02  0.91188000000E+02 0.  0.
    9900012    2    3    3    0    0  0.31080536245E+02 -0.95037422384E+01  0.17304879302E+02  0.54367086141E+02  0.40000004475E+02 0.  0.
        -12    1    3    3    0    0 -0.31080536245E+02  0.95037422384E+01 -0.17304879302E+02  0.36820913859E+02  0.00000000000E+00 0.  1.
         11    1    4    4    0    0  0.98103662171E+01 -0.19447235902E+01 -0.64021576508E+01  0.11874883494E+02  0.51100000000E-03 0. -1.
        -11    1    4    4    0    0 -0.43624737013E+01  0.26475988876E+01 -0.12887184974E+01  0.52632454143E+01  0.51100000000E-03 0.  1.
         12    1    4    4    0    0  0.25632643729E+02 -0.10206617536E+02  0.24995755450E+02  0.37228957232E+02  0.00000000000E+00 0. -1.
</event>
<event>
 8    1  0.3106980E-007  0.9118800E+02  0.7816164E-02  0.1184000E+00
        -11   -1    0    0    0    0  0.00000000000E+00  0.00000000000E+00  0.45593999997E+02  0.45594000000E+02  0.51100000000E-03 0.  1.
         11   -1    0    0    0    0 -0.00000000000E+00 -0.00000000000E+00 -0.45593999997E+02  0.45594000000E+02  0.51100000000E-03 0. -1.
         23    2    1    2    0    0 -0.44408920985E-15  0.00000000000E+00  0.35527136788E-14  0.91188000000E+02  0.91188000000E+02 0.  0.
    9900012    2    3    3    0    0  0.33201051254E+01 -0.30802152421E+02 -0.19899348457E+02  0.54367085280E+02  0.40000002513E+02 0.  0.
        -12    1    3    3    0    0 -0.33201051254E+01  0.30802152421E+02  0.19899348457E+02  0.36820914720E+02  0.00000000000E+00 0.  1.
         11    1    4    4    0    0  0.53022758350E+00 -0.12460206117E+02 -0.10526650618E+02  0.16320179266E+02  0.51100000000E-03 0. -1.
        -11    1    4    4    0    0  0.34728528745E+01 -0.26145347225E+02 -0.13011393386E+02  0.29409798481E+02  0.51100000000E-03 0.  1.
        -12    1    4    4    0    0 -0.68297533257E+00  0.78034009213E+01  0.36386955476E+01  0.86371075327E+01  0.00000000000E+00 0.  1.
</event>
<event>
 8    1  0.3106980E-007  0.9118800E+02  0.7816164E-02  0.1184000E+00
        -11   -1    0    0    0    0  0.00000000000E+00  0.00000000000E+00  0.45593999997E+02  0.45594000000E+02  0.51100000000E-03 0.  1.
         11   -1    0    0    0    0 -0.00000000000E+00 -0.00000000000E+00 -0.45593999997E+02  0.45594000000E+02  0.51100000000E-03 0. -1.
         23    2    1    2    0    0  0.00000000000E+00  0.00000000000E+00 -0.35527136788E-14  0.91188000000E+02  0.91188000000E+02 0.  0.
    9900012    2    3    3    0    0 -0.25807212564E+02 -0.17884527029E+02  0.19233100421E+02  0.54367072809E+02  0.39999974083E+02 0.  0.
         12    1    3    3    0    0  0.25807212564E+02  0.17884527029E+02 -0.19233100421E+02  0.36820927191E+02  0.00000000000E+00 0. -1.
         11    1    4    4    0    0  0.77734564887E+01 -0.10914230710E+02  0.26924931329E+01  0.13667354437E+02  0.51100000000E-03 0. -1.
        -11    1    4    4    0    0 -0.76367111964E+01  0.44380726147E+01  0.43891791304E+01  0.98630999250E+01  0.51100000000E-03 0.  1.
         12    1    4    4    0    0 -0.25943957856E+02 -0.11408368933E+02  0.12151428158E+02  0.30836618447E+02  0.00000000000E+00 0. -1.
</event>
<event>
 8    1  0.3106980E-007  0.9118800E+02  0.7816164E-02  0.1184000E+00
        -11   -1    0    0    0    0  0.00000000000E+00  0.00000000000E+00  0.45593999997E+02  0.45594000000E+02  0.51100000000E-03 0. -1.
         11   -1    0    0    0    0 -0.00000000000E+00 -0.00000000000E+00 -0.45593999997E+02  0.45594000000E+02  0.51100000000E-03 0.  1.
         23    2    1    2    0    0  0.00000000000E+00  0.88817841970E-15 -0.17763568394E-14  0.91188000000E+02  0.91188000000E+02 0.  0.
    9900012    2    3    3    0    0  0.35335772577E+02  0.37913421278E+01  0.96326745083E+01  0.54367088592E+02  0.40000010063E+02 0.  0.
        -12    1    3    3    0    0 -0.35335772577E+02 -0.37913421278E+01 -0.96326745083E+01  0.36820911408E+02  0.00000000000E+00 0.  1.
         11    1    4    4    0    0  0.27978908376E+02  0.58342980211E+01  0.87608956476E+01  0.29893337721E+02  0.51100000000E-03 0. -1.
        -11    1    4    4    0    0  0.40676833789E+01 -0.21405131228E+01 -0.11123246205E+02  0.12035549464E+02  0.51100000000E-03 0.  1.
        -12    1    4    4    0    0  0.32891808221E+01  0.97557229528E-01  0.11995025066E+02  0.12438201406E+02  0.00000000000E+00 0.  1.
</event>
<event>
 8    1  0.3106980E-007  0.9118800E+02  0.7816164E-02  0.1184000E+00
        -11   -1    0    0    0    0  0.00000000000E+00  0.00000000000E+00  0.45593999997E+02  0.45594000000E+02  0.51100000000E-03 0.  1.
         11   -1    0    0    0    0 -0.00000000000E+00 -0.00000000000E+00 -0.45593999997E+02  0.45594000000E+02  0.51100000000E-03 0. -1.
         23    2    1    2    0    0  0.17763568394E-14  0.00000000000E+00 -0.88817841970E-15  0.91188000000E+02  0.91188000000E+02 0.  0.
    9900012    2    3    3    0    0  0.11523712651E+02  0.34576181743E+02 -0.52413243388E+01  0.54367085047E+02  0.40000001981E+02 0.  0.
         12    1    3    3    0    0 -0.11523712651E+02 -0.34576181743E+02  0.52413243388E+01  0.36820914953E+02  0.00000000000E+00 0. -1.
         11    1    4    4    0    0 -0.15200540475E+01 -0.32553257532E+01  0.22296501758E+01  0.42283625950E+01  0.51100000000E-03 0. -1.
        -11    1    4    4    0    0  0.38004733867E+01  0.49637768476E+01  0.99940761750E+01  0.11788309353E+02  0.51100000000E-03 0.  1.
        -12    1    4    4    0    0  0.92432933114E+01  0.32867730649E+02 -0.17465050690E+02  0.38350413098E+02  0.00000000000E+00 0.  1.
</event>
<event>
 8    1  0.3106980E-007  0.9118800E+02  0.7816164E-02  0.1184000E+00
        -11   -1    0    0    0    0  0.00000000000E+00  0.00000000000E+00  0.45593999997E+02  0.45594000000E+02  0.51100000000E-03 0. -1.
         11   -1    0    0    0    0 -0.00000000000E+00 -0.00000000000E+00 -0.45593999997E+02  0.45594000000E+02  0.51100000000E-03 0.  1.
         23    2    1    2    0    0 -0.44408920985E-15  0.35527136788E-14  0.00000000000E+00  0.91188000000E+02  0.91188000000E+02 0.  0.
    9900012    2    3    3    0    0 -0.26890063129E+01  0.27679399219E+02 -0.24132967643E+02  0.54367081715E+02  0.39999994386E+02 0.  0.
        -12    1    3    3    0    0  0.26890063129E+01 -0.27679399219E+02  0.24132967643E+02  0.36820918285E+02  0.00000000000E+00 0.  1.
         11    1    4    4    0    0  0.13140024712E+02  0.60929042546E+01 -0.14917676458E+02  0.20792325576E+02  0.51100000000E-03 0. -1.
        -11    1    4    4    0    0 -0.91480777497E+01  0.42562070730E+01  0.39215412759E+01  0.10825022467E+02  0.51100000000E-03 0.  1.
         12    1    4    4    0    0 -0.66809532757E+01  0.17330287892E+02 -0.13136832460E+02  0.22749733673E+02  0.00000000000E+00 0. -1.
</event>
<event>
 8    1  0.3106980E-007  0.9118800E+02  0.7816164E-02  0.1184000E+00
        -11   -1    0    0    0    0  0.00000000000E+00  0.00000000000E+00  0.45593999997E+02  0.45594000000E+02  0.51100000000E-03 0. -1.
         11   -1    0    0    0    0 -0.00000000000E+00 -0.00000000000E+00 -0.45593999997E+02  0.45594000000E+02  0.51100000000E-03 0.  1.
         23    2    1    2    0    0  0.00000000000E+00  0.00000000000E+00  0.00000000000E+00  0.91188000000E+02  0.91188000000E+02 0.  0.
    9900012    2    3    3    0    0  0.15102574255E+02 -0.24423903302E+02  0.23047029253E+02  0.54367077157E+02  0.39999983996E+02 0.  0.
        -12    1    3    3    0    0 -0.15102574255E+02  0.24423903302E+02 -0.23047029253E+02  0.36820922843E+02  0.00000000000E+00 0.  1.
         11    1    4    4    0    0  0.11730995315E+02 -0.53766021162E+01 -0.47157163470E+01  0.13739071378E+02  0.51100000000E-03 0. -1.
        -11    1    4    4    0    0  0.82295412299E+01 -0.10540276821E+02  0.25964039975E+01  0.13622191391E+02  0.51100000000E-03 0.  1.
        -12    1    4    4    0    0 -0.48579622900E+01 -0.85070243646E+01  0.25166341602E+02  0.27005814388E+02  0.00000000000E+00 0.  1.
</event>
<event>
 8    1  0.3106980E-007  0.9118800E+02  0.7816164E-02  0.1184000E+00
        -11   -1    0    0    0    0  0.00000000000E+00  0.00000000000E+00  0.45593999997E+02  0.45594000000E+02  0.51100000000E-03 0.  1.
         11   -1    0    0    0    0 -0.00000000000E+00 -0.00000000000E+00 -0.45593999997E+02  0.45594000000E+02  0.51100000000E-03 0. -1.
         23    2    1    2    0    0  0.35527136788E-14  0.35527136788E-14 -0.17763568394E-14  0.91188000000E+02  0.91188000000E+02 0.  0.
    9900012    2    3    3    0    0 -0.29009133334E+02 -0.18078981577E+02 -0.13689457072E+02  0.54367073523E+02  0.39999975712E+02 0.  0.
        -12    1    3    3    0    0  0.29009133334E+02  0.18078981577E+02  0.13689457072E+02  0.36820926477E+02  0.00000000000E+00 0.  1.
         11    1    4    4    0    0 -0.88556349217E+01 -0.61405211483E+01 -0.78381527175E+01  0.13325348330E+02  0.51100000000E-03 0. -1.
        -11    1    4    4    0    0 -0.17389954876E+02 -0.18098600762E+02 -0.15325325444E+02  0.29408085289E+02  0.51100000000E-03 0.  1.
         12    1    4    4    0    0 -0.27635435370E+01  0.61601403340E+01  0.94740210897E+01  0.11633639904E+02  0.00000000000E+00 0. -1.
</event>
<event>
 8    1  0.3106980E-007  0.9118800E+02  0.7816164E-02  0.1184000E+00
        -11   -1    0    0    0    0  0.00000000000E+00  0.00000000000E+00  0.45593999997E+02  0.45594000000E+02  0.51100000000E-03 0. -1.
         11   -1    0    0    0    0 -0.00000000000E+00 -0.00000000000E+00 -0.45593999997E+02  0.45594000000E+02  0.51100000000E-03 0.  1.
         23    2    1    2    0    0  0.00000000000E+00 -0.35527136788E-14  0.35527136788E-14  0.91188000000E+02  0.91188000000E+02 0.  0.
    9900012    2    3    3    0    0 -0.21502523492E+02  0.19736877157E+02 -0.22447132088E+02  0.54367128535E+02  0.40000101122E+02 0.  0.
         12    1    3    3    0    0  0.21502523492E+02 -0.19736877157E+02  0.22447132088E+02  0.36820871465E+02  0.00000000000E+00 0. -1.
         11    1    4    4    0    0  0.36662913492E+00 -0.35549124958E+01  0.13699164877E+01  0.38273347410E+01  0.51100000000E-03 0. -1.
        -11    1    4    4    0    0 -0.21067774411E+02  0.18912674015E+02 -0.21200172793E+01  0.28390752554E+02  0.51100000000E-03 0.  1.
        -12    1    4    4    0    0 -0.80137821557E+00  0.43791156386E+01 -0.21697031296E+02  0.22149041241E+02  0.00000000000E+00 0.  1.
</event>
<event>
 8    1  0.3106980E-007  0.9118800E+02  0.7816164E-02  0.1184000E+00
        -11   -1    0    0    0    0  0.00000000000E+00  0.00000000000E+00  0.45593999997E+02  0.45594000000E+02  0.51100000000E-03 0. -1.
         11   -1    0    0    0    0 -0.00000000000E+00 -0.00000000000E+00 -0.45593999997E+02  0.45594000000E+02  0.51100000000E-03 0.  1.
         23    2    1    2    0    0  0.00000000000E+00  0.00000000000E+00  0.00000000000E+00  0.91188000000E+02  0.91188000000E+02 0.  0.
    9900012    2    3    3    0    0  0.26805325711E+01 -0.75596406775E+01 -0.35936690066E+02  0.54367094050E+02  0.40000022507E+02 0.  0.
         12    1    3    3    0    0 -0.26805325711E+01  0.75596406775E+01  0.35936690066E+02  0.36820905950E+02  0.00000000000E+00 0. -1.
         11    1    4    4    0    0 -0.69180410717E+01  0.90641733882E+00  0.98203402196E-01  0.69778599034E+01  0.51100000000E-03 0. -1.
        -11    1    4    4    0    0  0.29859428908E+01 -0.34014610361E+01  0.42761539715E+01  0.62266592308E+01  0.51100000000E-03 0.  1.
        -12    1    4    4    0    0  0.66126307520E+01 -0.50645969802E+01 -0.40311047440E+02  0.41162574916E+02  0.00000000000E+00 0.  1.
</event>
<event>
 8    1  0.3106980E-007  0.9118800E+02  0.7816164E-02  0.1184000E+00
        -11   -1    0    0    0    0  0.00000000000E+00  0.00000000000E+00  0.45593999997E+02  0.45594000000E+02  0.51100000000E-03 0. -1.
         11   -1    0    0    0    0 -0.00000000000E+00 -0.00000000000E+00 -0.45593999997E+02  0.45594000000E+02  0.51100000000E-03 0.  1.
         23    2    1    2    0    0 -0.17763568394E-14 -0.35527136788E-14 -0.71054273576E-14  0.91188000000E+02  0.91188000000E+02 0.  0.
    9900012    2    3    3    0    0  0.13560764469E+02 -0.21856705982E+02  0.26347117024E+02  0.54367075176E+02  0.39999979480E+02 0.  0.
        -12    1    3    3    0    0 -0.13560764469E+02  0.21856705982E+02 -0.26347117024E+02  0.36820924824E+02  0.00000000000E+00 0.  1.
         11    1    4    4    0    0  0.10475924514E+02 -0.11990130989E+02  0.14344484960E+01  0.15986427941E+02  0.51100000000E-03 0.  1.
        -11    1    4    4    0    0  0.49976396184E+01 -0.18874192166E+02  0.19973397279E+02  0.27931131929E+02  0.51100000000E-03 0. -1.
         12    1    4    4    0    0 -0.19127996629E+01  0.90076171729E+01  0.49392712491E+01  0.10449515307E+02  0.00000000000E+00 0. -1.
</event>
<event>
 8    1  0.3106980E-007  0.9118800E+02  0.7816164E-02  0.1184000E+00
        -11   -1    0    0    0    0  0.00000000000E+00  0.00000000000E+00  0.45593999997E+02  0.45594000000E+02  0.51100000000E-03 0.  1.
         11   -1    0    0    0    0 -0.00000000000E+00 -0.00000000000E+00 -0.45593999997E+02  0.45594000000E+02  0.51100000000E-03 0. -1.
         23    2    1    2    0    0 -0.17763568394E-14  0.35527136788E-14  0.35527136788E-14  0.91188000000E+02  0.91188000000E+02 0.  0.
    9900012    2    3    3    0    0  0.12507743049E+02 -0.30409358896E+02 -0.16571019369E+02  0.54367198439E+02  0.40000260481E+02 0.  0.
        -12    1    3    3    0    0 -0.12507743049E+02  0.30409358896E+02  0.16571019369E+02  0.36820801561E+02  0.00000000000E+00 0.  1.
         11    1    4    4    0    0 -0.91747215432E+01 -0.11975433785E+02 -0.13960392243E+02  0.20554295940E+02  0.51100000000E-03 0. -1.
        -11    1    4    4    0    0  0.16146449480E+02 -0.93206472725E+01 -0.96923864527E+01  0.21012487996E+02  0.51100000000E-03 0.  1.
         12    1    4    4    0    0  0.55360151125E+01 -0.91132778382E+01  0.70817593269E+01  0.12800414503E+02  0.00000000000E+00 0. -1.
</event>
<event>
 8    1  0.3106980E-007  0.9118800E+02  0.7816164E-02  0.1184000E+00
        -11   -1    0    0    0    0  0.00000000000E+00  0.00000000000E+00  0.45593999997E+02  0.45594000000E+02  0.51100000000E-03 0.  1.
         11   -1    0    0    0    0 -0.00000000000E+00 -0.00000000000E+00 -0.45593999997E+02  0.45594000000E+02  0.51100000000E-03 0. -1.
         23    2    1    2    0    0 -0.88817841970E-15 -0.71054273576E-14  0.00000000000E+00  0.91188000000E+02  0.91188000000E+02 0.  0.
    9900012    2    3    3    0    0  0.49851608235E+01  0.32380660894E+02 -0.16805217445E+02  0.54367158595E+02  0.40000169650E+02 0.  0.
        -12    1    3    3    0    0 -0.49851608235E+01 -0.32380660894E+02  0.16805217445E+02  0.36820841405E+02  0.00000000000E+00 0.  1.
         11    1    4    4    0    0  0.95793465415E+01  0.22030568893E+02 -0.86397000800E+01  0.25529478327E+02  0.51100000000E-03 0. -1.
        -11    1    4    4    0    0 -0.62925021523E+01  0.10530759284E+02  0.66295943214E+01  0.13944317680E+02  0.51100000000E-03 0.  1.
         12    1    4    4    0    0  0.16983164343E+01 -0.18066728312E+00 -0.14795111686E+02  0.14893362588E+02  0.00000000000E+00 0. -1.
</event>
<event>
 8    1  0.3106980E-007  0.9118800E+02  0.7816164E-02  0.1184000E+00
        -11   -1    0    0    0    0  0.00000000000E+00  0.00000000000E+00  0.45593999997E+02  0.45594000000E+02  0.51100000000E-03 0.  1.
         11   -1    0    0    0    0 -0.00000000000E+00 -0.00000000000E+00 -0.45593999997E+02  0.45594000000E+02  0.51100000000E-03 0. -1.
         23    2    1    2    0    0 -0.88817841970E-15 -0.17763568394E-14  0.00000000000E+00  0.91188000000E+02  0.91188000000E+02 0.  0.
    9900012    2    3    3    0    0  0.33642015482E+01  0.13689798749E+02  0.34015516905E+02  0.54367029994E+02  0.39999876477E+02 0.  0.
         12    1    3    3    0    0 -0.33642015482E+01 -0.13689798749E+02 -0.34015516905E+02  0.36820970006E+02  0.00000000000E+00 0. -1.
         11    1    4    4    0    0  0.11317746313E+02  0.16680834308E+02  0.12974004269E+02  0.23972200605E+02  0.51100000000E-03 0.  1.
        -11    1    4    4    0    0  0.16720313090E+01  0.30663884124E+01 -0.24695516977E+01  0.42775124129E+01  0.51100000000E-03 0. -1.
        -12    1    4    4    0    0 -0.96255760738E+01 -0.60574239711E+01  0.23511064334E+02  0.26117316976E+02  0.00000000000E+00 0.  1.
</event>
<event>
 8    1  0.3106980E-007  0.9118800E+02  0.7816164E-02  0.1184000E+00
        -11   -1    0    0    0    0  0.00000000000E+00  0.00000000000E+00  0.45593999997E+02  0.45594000000E+02  0.51100000000E-03 0.  1.
         11   -1    0    0    0    0 -0.00000000000E+00 -0.00000000000E+00 -0.45593999997E+02  0.45594000000E+02  0.51100000000E-03 0. -1.
         23    2    1    2    0    0  0.00000000000E+00  0.00000000000E+00  0.17763568394E-14  0.91188000000E+02  0.91188000000E+02 0.  0.
    9900012    2    3    3    0    0  0.27880605408E+02  0.21271157658E+02 -0.11224529446E+02  0.54367077045E+02  0.39999983739E+02 0.  0.
        -12    1    3    3    0    0 -0.27880605408E+02 -0.21271157658E+02  0.11224529446E+02  0.36820922955E+02  0.00000000000E+00 0.  1.
         11    1    4    4    0    0  0.23255971826E+02  0.22620409419E+02 -0.61761338110E+01  0.33025259680E+02  0.51100000000E-03 0. -1.
        -11    1    4    4    0    0 -0.48184678102E+01 -0.41789452606E+01 -0.87360972751E+01  0.10816682088E+02  0.51100000000E-03 0.  1.
        -12    1    4    4    0    0  0.94431013923E+01  0.28296934992E+01  0.36877016405E+01  0.10525135277E+02  0.00000000000E+00 0.  1.
</event>
<event>
 8    1  0.3106980E-007  0.9118800E+02  0.7816164E-02  0.1184000E+00
        -11   -1    0    0    0    0  0.00000000000E+00  0.00000000000E+00  0.45593999997E+02  0.45594000000E+02  0.51100000000E-03 0. -1.
         11   -1    0    0    0    0 -0.00000000000E+00 -0.00000000000E+00 -0.45593999997E+02  0.45594000000E+02  0.51100000000E-03 0.  1.
         23    2    1    2    0    0  0.00000000000E+00  0.17763568394E-14  0.00000000000E+00  0.91188000000E+02  0.91188000000E+02 0.  0.
    9900012    2    3    3    0    0 -0.88933290643E+01 -0.43124868660E+01 -0.35469578854E+02  0.54367083812E+02  0.39999999167E+02 0.  0.
         12    1    3    3    0    0  0.88933290643E+01  0.43124868660E+01  0.35469578854E+02  0.36820916188E+02  0.00000000000E+00 0. -1.
         11    1    4    4    0    0 -0.84343476465E+00  0.12834894687E+02 -0.45482011583E+01  0.13643021581E+02  0.51100000000E-03 0. -1.
        -11    1    4    4    0    0 -0.67521197002E+01  0.21640554047E+01 -0.94919147325E+01  0.11847814220E+02  0.51100000000E-03 0.  1.
         12    1    4    4    0    0 -0.12977745995E+01 -0.19311436958E+02 -0.21429462963E+02  0.28876248011E+02  0.00000000000E+00 0. -1.
</event>
<event>
 8    1  0.3106980E-007  0.9118800E+02  0.7816164E-02  0.1184000E+00
        -11   -1    0    0    0    0  0.00000000000E+00  0.00000000000E+00  0.45593999997E+02  0.45594000000E+02  0.51100000000E-03 0.  1.
         11   -1    0    0    0    0 -0.00000000000E+00 -0.00000000000E+00 -0.45593999997E+02  0.45594000000E+02  0.51100000000E-03 0. -1.
         23    2    1    2    0    0 -0.35527136788E-14  0.88817841970E-15  0.35527136788E-14  0.91188000000E+02  0.91188000000E+02 0.  0.
    9900012    2    3    3    0    0  0.27740320945E+02  0.26623119900E+01 -0.24065890129E+02  0.54367076886E+02  0.39999983376E+02 0.  0.
         12    1    3    3    0    0 -0.27740320945E+02 -0.26623119900E+01  0.24065890129E+02  0.36820923114E+02  0.00000000000E+00 0. -1.
         11    1    4    4    0    0  0.19286921527E+02 -0.51884945564E+01 -0.27506494826E+02  0.33992838593E+02  0.51100000000E-03 0. -1.
        -11    1    4    4    0    0  0.21141948835E+01 -0.35667443477E+01 -0.36413729439E+01  0.55182499423E+01  0.51100000000E-03 0.  1.
        -12    1    4    4    0    0  0.63392045344E+01  0.11417550894E+02  0.70819776406E+01  0.14855988350E+02  0.00000000000E+00 0.  1.
</event>
<event>
 8    1  0.3106980E-007  0.9118800E+02  0.7816164E-02  0.1184000E+00
        -11   -1    0    0    0    0  0.00000000000E+00  0.00000000000E+00  0.45593999997E+02  0.45594000000E+02  0.51100000000E-03 0.  1.
         11   -1    0    0    0    0 -0.00000000000E+00 -0.00000000000E+00 -0.45593999997E+02  0.45594000000E+02  0.51100000000E-03 0. -1.
         23    2    1    2    0    0  0.00000000000E+00  0.00000000000E+00 -0.88817841970E-15  0.91188000000E+02  0.91188000000E+02 0.  0.
    9900012    2    3    3    0    0  0.32334991216E+02  0.17108570217E+02 -0.41863113719E+01  0.54367081561E+02  0.39999994034E+02 0.  0.
        -12    1    3    3    0    0 -0.32334991216E+02 -0.17108570217E+02  0.41863113719E+01  0.36820918439E+02  0.00000000000E+00 0.  1.
         11    1    4    4    0    0  0.35076901482E+01 -0.88609755384E+01  0.40932970270E+01  0.10371878252E+02  0.51100000000E-03 0. -1.
        -11    1    4    4    0    0  0.17904547760E+02  0.14945530719E+02  0.46671559390E+01  0.23784954568E+02  0.51100000000E-03 0.  1.
         12    1    4    4    0    0  0.10922753308E+02  0.11024015035E+02 -0.12946764338E+02  0.20210248740E+02  0.00000000000E+00 0. -1.
</event>
<event>
 8    1  0.3106980E-007  0.9118800E+02  0.7816164E-02  0.1184000E+00
        -11   -1    0    0    0    0  0.00000000000E+00  0.00000000000E+00  0.45593999997E+02  0.45594000000E+02  0.51100000000E-03 0. -1.
         11   -1    0    0    0    0 -0.00000000000E+00 -0.00000000000E+00 -0.45593999997E+02  0.45594000000E+02  0.51100000000E-03 0.  1.
         23    2    1    2    0    0  0.00000000000E+00 -0.17763568394E-14  0.35527136788E-14  0.91188000000E+02  0.91188000000E+02 0.  0.
    9900012    2    3    3    0    0 -0.20339021371E+02 -0.15716316787E+02  0.26364765721E+02  0.54367091874E+02  0.40000017546E+02 0.  0.
        -12    1    3    3    0    0  0.20339021371E+02  0.15716316787E+02 -0.26364765721E+02  0.36820908126E+02  0.00000000000E+00 0.  1.
         11    1    4    4    0    0  0.37418904229E-01  0.23349088566E+01 -0.83353309107E+01  0.86562660076E+01  0.51100000000E-03 0. -1.
        -11    1    4    4    0    0  0.79124133595E+00 -0.25623350733E+01  0.73142403137E+01  0.77903617058E+01  0.51100000000E-03 0.  1.
         12    1    4    4    0    0 -0.21167681611E+02 -0.15488890571E+02  0.27385856318E+02  0.37920464161E+02  0.00000000000E+00 0. -1.
</event>
<event>
 8    1  0.3106980E-007  0.9118800E+02  0.7816164E-02  0.1184000E+00
        -11   -1    0    0    0    0  0.00000000000E+00  0.00000000000E+00  0.45593999997E+02  0.45594000000E+02  0.51100000000E-03 0. -1.
         11   -1    0    0    0    0 -0.00000000000E+00 -0.00000000000E+00 -0.45593999997E+02  0.45594000000E+02  0.51100000000E-03 0.  1.
         23    2    1    2    0    0 -0.17763568394E-14  0.00000000000E+00 -0.17763568394E-14  0.91188000000E+02  0.91188000000E+02 0.  0.
    9900012    2    3    3    0    0 -0.10033593117E+02  0.33703990218E+02 -0.10915499572E+02  0.54367080968E+02  0.39999992682E+02 0.  0.
         12    1    3    3    0    0  0.10033593117E+02 -0.33703990218E+02  0.10915499572E+02  0.36820919032E+02  0.00000000000E+00 0. -1.
         11    1    4    4    0    0 -0.80180711262E+00  0.96535123703E+00  0.98380820834E+01  0.99177949665E+01  0.51100000000E-03 0. -1.
        -11    1    4    4    0    0  0.38249543280E+01  0.55458030932E-01 -0.54116919411E+00  0.38634460734E+01  0.51100000000E-03 0.  1.
        -12    1    4    4    0    0 -0.13056740333E+02  0.32683180950E+02 -0.20212412462E+02  0.40585839928E+02  0.00000000000E+00 0.  1.
</event>
<event>
 8    1  0.3106980E-007  0.9118800E+02  0.7816164E-02  0.1184000E+00
        -11   -1    0    0    0    0  0.00000000000E+00  0.00000000000E+00  0.45593999997E+02  0.45594000000E+02  0.51100000000E-03 0.  1.
         11   -1    0    0    0    0 -0.00000000000E+00 -0.00000000000E+00 -0.45593999997E+02  0.45594000000E+02  0.51100000000E-03 0. -1.
         23    2    1    2    0    0  0.00000000000E+00  0.88817841970E-15 -0.66613381478E-15  0.91188000000E+02  0.91188000000E+02 0.  0.
    9900012    2    3    3    0    0 -0.36548222361E+02  0.40374012838E+01  0.19266521581E+01  0.54367012025E+02  0.39999835514E+02 0.  0.
         12    1    3    3    0    0  0.36548222361E+02 -0.40374012838E+01 -0.19266521581E+01  0.36820987975E+02  0.00000000000E+00 0. -1.
         11    1    4    4    0    0 -0.33770990310E+01  0.72102084005E+01  0.88861207142E+01  0.11931263330E+02  0.51100000000E-03 0. -1.
        -11    1    4    4    0    0 -0.28080563218E+02  0.68920240271E+01 -0.10265569487E+02  0.30682241492E+02  0.51100000000E-03 0.  1.
        -12    1    4    4    0    0 -0.50905601127E+01 -0.10064831144E+02  0.33061009311E+01  0.11753507203E+02  0.00000000000E+00 0.  1.
</event>
<event>
 8    1  0.3106980E-007  0.9118800E+02  0.7816164E-02  0.1184000E+00
        -11   -1    0    0    0    0  0.00000000000E+00  0.00000000000E+00  0.45593999997E+02  0.45594000000E+02  0.51100000000E-03 0.  1.
         11   -1    0    0    0    0 -0.00000000000E+00 -0.00000000000E+00 -0.45593999997E+02  0.45594000000E+02  0.51100000000E-03 0. -1.
         23    2    1    2    0    0 -0.35527136788E-14  0.00000000000E+00  0.00000000000E+00  0.91188000000E+02  0.91188000000E+02 0.  0.
    9900012    2    3    3    0    0  0.27488023676E+02 -0.92677725776E+01  0.22678115953E+02  0.54367082068E+02  0.39999995191E+02 0.  0.
         12    1    3    3    0    0 -0.27488023676E+02  0.92677725776E+01 -0.22678115953E+02  0.36820917932E+02  0.00000000000E+00 0. -1.
         11    1    4    4    0    0 -0.36042848397E+01  0.12565706374E+01  0.14574058628E+02  0.15065623921E+02  0.51100000000E-03 0. -1.
        -11    1    4    4    0    0 -0.21263909717E+01 -0.34417489244E+01  0.28105345072E+01  0.49260814752E+01  0.51100000000E-03 0.  1.
        -12    1    4    4    0    0  0.33218699488E+02 -0.70825942906E+01  0.52935228176E+01  0.34375376672E+02  0.00000000000E+00 0.  1.
</event>
<event>
 8    1  0.3106980E-007  0.9118800E+02  0.7816164E-02  0.1184000E+00
        -11   -1    0    0    0    0  0.00000000000E+00  0.00000000000E+00  0.45593999997E+02  0.45594000000E+02  0.51100000000E-03 0.  1.
         11   -1    0    0    0    0 -0.00000000000E+00 -0.00000000000E+00 -0.45593999997E+02  0.45594000000E+02  0.51100000000E-03 0. -1.
         23    2    1    2    0    0 -0.88817841970E-15  0.00000000000E+00  0.00000000000E+00  0.91188000000E+02  0.91188000000E+02 0.  0.
    9900012    2    3    3    0    0 -0.46292637792E+01  0.25818761781E+02  0.25840687778E+02  0.54367086270E+02  0.40000004770E+02 0.  0.
         12    1    3    3    0    0  0.46292637792E+01 -0.25818761781E+02 -0.25840687778E+02  0.36820913730E+02  0.00000000000E+00 0. -1.
         11    1    4    4    0    0 -0.43092055933E+00 -0.80514948745E+01 -0.25987461491E+01  0.84714664641E+01  0.51100000000E-03 0. -1.
        -11    1    4    4    0    0  0.33011550425E+01  0.17057937626E+02  0.16450459775E+02  0.23926731656E+02  0.51100000000E-03 0.  1.
         12    1    4    4    0    0 -0.74994982623E+01  0.16812319029E+02  0.11988974152E+02  0.21968888150E+02  0.00000000000E+00 0. -1.
</event>
<event>
 8    1  0.3106980E-007  0.9118800E+02  0.7816164E-02  0.1184000E+00
        -11   -1    0    0    0    0  0.00000000000E+00  0.00000000000E+00  0.45593999997E+02  0.45594000000E+02  0.51100000000E-03 0. -1.
         11   -1    0    0    0    0 -0.00000000000E+00 -0.00000000000E+00 -0.45593999997E+02  0.45594000000E+02  0.51100000000E-03 0.  1.
         23    2    1    2    0    0 -0.35527136788E-14  0.35527136788E-14  0.00000000000E+00  0.91188000000E+02  0.91188000000E+02 0.  0.
    9900012    2    3    3    0    0 -0.22971401417E+02  0.21603534134E+02  0.19010053638E+02  0.54367080546E+02  0.39999991721E+02 0.  0.
        -12    1    3    3    0    0  0.22971401417E+02 -0.21603534134E+02 -0.19010053638E+02  0.36820919454E+02  0.00000000000E+00 0.  1.
         11    1    4    4    0    0 -0.77862673591E+00  0.15510264005E+02 -0.60698024981E+00  0.15541652884E+02  0.51100000000E-03 0. -1.
        -11    1    4    4    0    0 -0.17923436567E+02  0.11738586428E+02  0.41606946620E+01  0.21825566889E+02  0.51100000000E-03 0.  1.
         12    1    4    4    0    0 -0.42693381137E+01 -0.56453162986E+01  0.15456339225E+02  0.16999860773E+02  0.00000000000E+00 0. -1.
</event>
<event>
 8    1  0.3106980E-007  0.9118800E+02  0.7816164E-02  0.1184000E+00
        -11   -1    0    0    0    0  0.00000000000E+00  0.00000000000E+00  0.45593999997E+02  0.45594000000E+02  0.51100000000E-03 0. -1.
         11   -1    0    0    0    0 -0.00000000000E+00 -0.00000000000E+00 -0.45593999997E+02  0.45594000000E+02  0.51100000000E-03 0.  1.
         23    2    1    2    0    0  0.71054273576E-14 -0.35527136788E-14  0.35527136788E-14  0.91188000000E+02  0.91188000000E+02 0.  0.
    9900012    2    3    3    0    0  0.27389049670E+02 -0.16809387487E+02  0.17973994308E+02  0.54367081748E+02  0.39999994461E+02 0.  0.
         12    1    3    3    0    0 -0.27389049670E+02  0.16809387487E+02 -0.17973994308E+02  0.36820918252E+02  0.00000000000E+00 0. -1.
         11    1    4    4    0    0 -0.24754261585E+01  0.75304602725E+01  0.31076834984E+01  0.85142975970E+01  0.51100000000E-03 0. -1.
        -11    1    4    4    0    0  0.32337274420E+02 -0.19093086953E+02  0.12369709043E+02  0.39538019530E+02  0.51100000000E-03 0.  1.
         12    1    4    4    0    0 -0.24727985913E+01 -0.52467608066E+01  0.24966017667E+01  0.63147646208E+01  0.00000000000E+00 0. -1.
</event>
<event>
 8    1  0.3106980E-007  0.9118800E+02  0.7816164E-02  0.1184000E+00
        -11   -1    0    0    0    0  0.00000000000E+00  0.00000000000E+00  0.45593999997E+02  0.45594000000E+02  0.51100000000E-03 0. -1.
         11   -1    0    0    0    0 -0.00000000000E+00 -0.00000000000E+00 -0.45593999997E+02  0.45594000000E+02  0.51100000000E-03 0.  1.
         23    2    1    2    0    0  0.35527136788E-14 -0.88817841970E-15 -0.35527136788E-14  0.91188000000E+02  0.91188000000E+02 0.  0.
    9900012    2    3    3    0    0 -0.23295263575E+02  0.55981705641E+01  0.27960178087E+02  0.54367076908E+02  0.39999983427E+02 0.  0.
        -12    1    3    3    0    0  0.23295263575E+02 -0.55981705641E+01 -0.27960178087E+02  0.36820923092E+02  0.00000000000E+00 0.  1.
         11    1    4    4    0    0 -0.51461127913E+01  0.10693208103E+02 -0.43391787933E+01  0.12635491651E+02  0.51100000000E-03 0. -1.
        -11    1    4    4    0    0 -0.20806421469E+02 -0.76251924707E+01  0.24046958223E+02  0.32700258938E+02  0.51100000000E-03 0.  1.
         12    1    4    4    0    0  0.26572706862E+01  0.25301549314E+01  0.82523986579E+01  0.90313263193E+01  0.00000000000E+00 0. -1.
</event>
<event>
 8    1  0.3106980E-007  0.9118800E+02  0.7816164E-02  0.1184000E+00
        -11   -1    0    0    0    0  0.00000000000E+00  0.00000000000E+00  0.45593999997E+02  0.45594000000E+02  0.51100000000E-03 0.  1.
         11   -1    0    0    0    0 -0.00000000000E+00 -0.00000000000E+00 -0.45593999997E+02  0.45594000000E+02  0.51100000000E-03 0. -1.
         23    2    1    2    0    0  0.00000000000E+00  0.00000000000E+00  0.00000000000E+00  0.91188000000E+02  0.91188000000E+02 0.  0.
    9900012    2    3    3    0    0  0.24708258114E+02 -0.13529581016E+02  0.23711444791E+02  0.54367079376E+02  0.39999989053E+02 0.  0.
         12    1    3    3    0    0 -0.24708258114E+02  0.13529581016E+02 -0.23711444791E+02  0.36820920624E+02  0.00000000000E+00 0. -1.
         11    1    4    4    0    0 -0.63870001351E+01 -0.40821110947E+01 -0.51281694617E+01  0.91518044125E+01  0.51100000000E-03 0. -1.
        -11    1    4    4    0    0 -0.10423537228E+01 -0.89904527177E-03  0.21356337641E+01  0.23764330261E+01  0.51100000000E-03 0.  1.
        -12    1    4    4    0    0  0.32137611972E+02 -0.94465708757E+01  0.26703980489E+02  0.42838841937E+02  0.00000000000E+00 0.  1.
</event>
<event>
 8    1  0.3106980E-007  0.9118800E+02  0.7816164E-02  0.1184000E+00
        -11   -1    0    0    0    0  0.00000000000E+00  0.00000000000E+00  0.45593999997E+02  0.45594000000E+02  0.51100000000E-03 0.  1.
         11   -1    0    0    0    0 -0.00000000000E+00 -0.00000000000E+00 -0.45593999997E+02  0.45594000000E+02  0.51100000000E-03 0. -1.
         23    2    1    2    0    0  0.00000000000E+00  0.00000000000E+00  0.00000000000E+00  0.91188000000E+02  0.91188000000E+02 0.  0.
    9900012    2    3    3    0    0 -0.19818382245E+02  0.24237473043E+02  0.19379315047E+02  0.54367065384E+02  0.39999957156E+02 0.  0.
         12    1    3    3    0    0  0.19818382245E+02 -0.24237473043E+02 -0.19379315047E+02  0.36820934616E+02  0.00000000000E+00 0. -1.
         11    1    4    4    0    0 -0.37825761620E+01 -0.99364237633E+01  0.43534993982E+01  0.11488836185E+02  0.51100000000E-03 0. -1.
        -11    1    4    4    0    0 -0.20051874501E+01  0.17812007364E+02  0.10760466953E+02  0.20906363442E+02  0.51100000000E-03 0.  1.
        -12    1    4    4    0    0 -0.14030618633E+02  0.16361889443E+02  0.42653486952E+01  0.21971865757E+02  0.00000000000E+00 0.  1.
</event>
<event>
 8    1  0.3106980E-007  0.9118800E+02  0.7816164E-02  0.1184000E+00
        -11   -1    0    0    0    0  0.00000000000E+00  0.00000000000E+00  0.45593999997E+02  0.45594000000E+02  0.51100000000E-03 0.  1.
         11   -1    0    0    0    0 -0.00000000000E+00 -0.00000000000E+00 -0.45593999997E+02  0.45594000000E+02  0.51100000000E-03 0. -1.
         23    2    1    2    0    0 -0.26645352591E-14 -0.44408920985E-15  0.00000000000E+00  0.91188000000E+02  0.91188000000E+02 0.  0.
    9900012    2    3    3    0    0 -0.42303668867E+01  0.28869151706E+01  0.36462978961E+02  0.54367094010E+02  0.40000022416E+02 0.  0.
         12    1    3    3    0    0  0.42303668867E+01 -0.28869151706E+01 -0.36462978961E+02  0.36820905990E+02  0.00000000000E+00 0. -1.
         11    1    4    4    0    0 -0.57932870726E+01 -0.65393040020E+01  0.80856752806E+01  0.11903899233E+02  0.51100000000E-03 0. -1.
        -11    1    4    4    0    0 -0.97225682115E+01 -0.67694332029E+01  0.10420931359E+02  0.15778129457E+02  0.51100000000E-03 0.  1.
         12    1    4    4    0    0  0.11285488397E+02  0.16195652375E+02  0.17956372321E+02  0.26685065321E+02  0.00000000000E+00 0. -1.
</event>
<event>
 8    1  0.3106980E-007  0.9118800E+02  0.7816164E-02  0.1184000E+00
        -11   -1    0    0    0    0  0.00000000000E+00  0.00000000000E+00  0.45593999997E+02  0.45594000000E+02  0.51100000000E-03 0. -1.
         11   -1    0    0    0    0 -0.00000000000E+00 -0.00000000000E+00 -0.45593999997E+02  0.45594000000E+02  0.51100000000E-03 0.  1.
         23    2    1    2    0    0 -0.35527136788E-14  0.00000000000E+00  0.00000000000E+00  0.91188000000E+02  0.91188000000E+02 0.  0.
    9900012    2    3    3    0    0 -0.17367872402E+02  0.18721530244E+02 -0.26526218086E+02  0.54367096529E+02  0.40000028157E+02 0.  0.
         12    1    3    3    0    0  0.17367872402E+02 -0.18721530244E+02  0.26526218086E+02  0.36820903471E+02  0.00000000000E+00 0. -1.
         11    1    4    4    0    0 -0.63625184057E+01  0.13030108868E+01  0.97623080728E+00  0.65675341404E+01  0.51100000000E-03 0. -1.
        -11    1    4    4    0    0 -0.21720251355E+02  0.18142593316E+02 -0.21051871443E+02  0.35271862762E+02  0.51100000000E-03 0.  1.
         12    1    4    4    0    0  0.10714897359E+02 -0.72407395817E+00 -0.64505774502E+01  0.12527699627E+02  0.00000000000E+00 0. -1.
</event>
<event>
 8    1  0.3106980E-007  0.9118800E+02  0.7816164E-02  0.1184000E+00
        -11   -1    0    0    0    0  0.00000000000E+00  0.00000000000E+00  0.45593999997E+02  0.45594000000E+02  0.51100000000E-03 0. -1.
         11   -1    0    0    0    0 -0.00000000000E+00 -0.00000000000E+00 -0.45593999997E+02  0.45594000000E+02  0.51100000000E-03 0.  1.
         23    2    1    2    0    0 -0.88817841970E-15 -0.35527136788E-14  0.35527136788E-14  0.91188000000E+02  0.91188000000E+02 0.  0.
    9900012    2    3    3    0    0  0.49550094925E+01 -0.26269769698E+02  0.25320473970E+02  0.54367091251E+02  0.40000016125E+02 0.  0.
        -12    1    3    3    0    0 -0.49550094925E+01  0.26269769698E+02 -0.25320473970E+02  0.36820908749E+02  0.00000000000E+00 0.  1.
         11    1    4    4    0    0 -0.81782354753E+01 -0.44608302527E+01 -0.67511919580E+01  0.11504830948E+02  0.51100000000E-03 0. -1.
        -11    1    4    4    0    0  0.13358231812E+02 -0.14494120209E+02  0.16687920668E+02  0.25826509138E+02  0.51100000000E-03 0.  1.
         12    1    4    4    0    0 -0.22498684419E+00 -0.73148192367E+01  0.15383745259E+02  0.17035751165E+02  0.00000000000E+00 0. -1.
</event>
<event>
 8    1  0.3106980E-007  0.9118800E+02  0.7816164E-02  0.1184000E+00
        -11   -1    0    0    0    0  0.00000000000E+00  0.00000000000E+00  0.45593999997E+02  0.45594000000E+02  0.51100000000E-03 0. -1.
         11   -1    0    0    0    0 -0.00000000000E+00 -0.00000000000E+00 -0.45593999997E+02  0.45594000000E+02  0.51100000000E-03 0.  1.
         23    2    1    2    0    0  0.00000000000E+00 -0.35527136788E-14  0.35527136788E-14  0.91188000000E+02  0.91188000000E+02 0.  0.
    9900012    2    3    3    0    0 -0.14040796938E+02  0.26806138227E+02 -0.20977863236E+02  0.54367030822E+02  0.39999878364E+02 0.  0.
         12    1    3    3    0    0  0.14040796938E+02 -0.26806138227E+02  0.20977863236E+02  0.36820969178E+02  0.00000000000E+00 0. -1.
         11    1    4    4    0    0  0.20678550987E+00  0.12557528295E+02  0.41186062777E+00  0.12565982117E+02  0.51100000000E-03 0. -1.
        -11    1    4    4    0    0 -0.11439998584E+01 -0.50179419193E+01  0.45951153469E+01  0.68995334693E+01  0.51100000000E-03 0.  1.
        -12    1    4    4    0    0 -0.13103582589E+02  0.19266551851E+02 -0.25984839211E+02  0.34901515235E+02  0.00000000000E+00 0.  1.
</event>
<event>
 8    1  0.3106980E-007  0.9118800E+02  0.7816164E-02  0.1184000E+00
        -11   -1    0    0    0    0  0.00000000000E+00  0.00000000000E+00  0.45593999997E+02  0.45594000000E+02  0.51100000000E-03 0. -1.
         11   -1    0    0    0    0 -0.00000000000E+00 -0.00000000000E+00 -0.45593999997E+02  0.45594000000E+02  0.51100000000E-03 0.  1.
         23    2    1    2    0    0  0.00000000000E+00  0.17763568394E-14 -0.35527136788E-14  0.91188000000E+02  0.91188000000E+02 0.  0.
    9900012    2    3    3    0    0 -0.13716730374E+02  0.12107527568E+02 -0.31953680706E+02  0.54367100682E+02  0.40000037624E+02 0.  0.
         12    1    3    3    0    0  0.13716730374E+02 -0.12107527568E+02  0.31953680706E+02  0.36820899318E+02  0.00000000000E+00 0. -1.
         11    1    4    4    0    0  0.73049755708E+01 -0.31461785249E+00 -0.15901157545E+02  0.17501670320E+02  0.51100000000E-03 0. -1.
        -11    1    4    4    0    0 -0.14483431502E+02  0.16305051418E+02 -0.18786382017E+02  0.28784590311E+02  0.51100000000E-03 0.  1.
         12    1    4    4    0    0 -0.65382744428E+01 -0.38829059979E+01  0.27338588553E+01  0.80808400503E+01  0.00000000000E+00 0. -1.
</event>
<event>
 8    1  0.3106980E-007  0.9118800E+02  0.7816164E-02  0.1184000E+00
        -11   -1    0    0    0    0  0.00000000000E+00  0.00000000000E+00  0.45593999997E+02  0.45594000000E+02  0.51100000000E-03 0.  1.
         11   -1    0    0    0    0 -0.00000000000E+00 -0.00000000000E+00 -0.45593999997E+02  0.45594000000E+02  0.51100000000E-03 0. -1.
         23    2    1    2    0    0  0.88817841970E-15  0.35527136788E-14  0.35527136788E-14  0.91188000000E+02  0.91188000000E+02 0.  0.
    9900012    2    3    3    0    0 -0.59361865460E+01 -0.25477501035E+02 -0.25912129198E+02  0.54367084622E+02  0.40000001012E+02 0.  0.
        -12    1    3    3    0    0  0.59361865460E+01  0.25477501035E+02  0.25912129198E+02  0.36820915378E+02  0.00000000000E+00 0.  1.
         11    1    4    4    0    0  0.27809665946E+01 -0.20373242821E+02 -0.11808786556E+02  0.23711816430E+02  0.51100000000E-03 0. -1.
        -11    1    4    4    0    0 -0.13429230741E+02 -0.10831190710E+02 -0.15400382792E+02  0.23126407436E+02  0.51100000000E-03 0.  1.
        -12    1    4    4    0    0  0.47120776007E+01  0.57269324961E+01  0.12970401492E+01  0.75288607557E+01  0.00000000000E+00 0.  1.
</event>
<event>
 8    1  0.3106980E-007  0.9118800E+02  0.7816164E-02  0.1184000E+00
        -11   -1    0    0    0    0  0.00000000000E+00  0.00000000000E+00  0.45593999997E+02  0.45594000000E+02  0.51100000000E-03 0. -1.
         11   -1    0    0    0    0 -0.00000000000E+00 -0.00000000000E+00 -0.45593999997E+02  0.45594000000E+02  0.51100000000E-03 0.  1.
         23    2    1    2    0    0 -0.17763568394E-14  0.17763568394E-14  0.00000000000E+00  0.91188000000E+02  0.91188000000E+02 0.  0.
    9900012    2    3    3    0    0  0.12308086379E+02 -0.14953218866E+02 -0.31315924698E+02  0.54367151497E+02  0.40000153468E+02 0.  0.
         12    1    3    3    0    0 -0.12308086379E+02  0.14953218866E+02  0.31315924698E+02  0.36820848503E+02  0.00000000000E+00 0. -1.
         11    1    4    4    0    0  0.50233204200E+01 -0.92088401090E+01 -0.65074739047E+01  0.12344379331E+02  0.51100000000E-03 0. -1.
        -11    1    4    4    0    0  0.18558826977E+02  0.22545258252E+01 -0.82007151526E+01  0.20414815080E+02  0.51100000000E-03 0.  1.
        -12    1    4    4    0    0 -0.11274061018E+02 -0.79989045818E+01 -0.16607735641E+02  0.21607957086E+02  0.00000000000E+00 0.  1.
</event>
<event>
 8    1  0.3106980E-007  0.9118800E+02  0.7816164E-02  0.1184000E+00
        -11   -1    0    0    0    0  0.00000000000E+00  0.00000000000E+00  0.45593999997E+02  0.45594000000E+02  0.51100000000E-03 0. -1.
         11   -1    0    0    0    0 -0.00000000000E+00 -0.00000000000E+00 -0.45593999997E+02  0.45594000000E+02  0.51100000000E-03 0.  1.
         23    2    1    2    0    0  0.00000000000E+00  0.35527136788E-14 -0.88817841970E-15  0.91188000000E+02  0.91188000000E+02 0.  0.
    9900012    2    3    3    0    0  0.19456884550E+02 -0.31065731515E+02 -0.34827897398E+01  0.54367083997E+02  0.39999999588E+02 0.  0.
        -12    1    3    3    0    0 -0.19456884550E+02  0.31065731515E+02  0.34827897398E+01  0.36820916003E+02  0.00000000000E+00 0.  1.
         11    1    4    4    0    0  0.56111073466E+01  0.55328521494E+01  0.48473534403E+01  0.92516925045E+01  0.51100000000E-03 0.  1.
        -11    1    4    4    0    0  0.14740330781E+02 -0.29504063374E+02 -0.14156923808E+02  0.35891302555E+02  0.51100000000E-03 0. -1.
         12    1    4    4    0    0 -0.89455357746E+00 -0.70945202896E+01  0.58267806277E+01  0.92240889375E+01  0.00000000000E+00 0. -1.
</event>
<event>
 8    1  0.3106980E-007  0.9118800E+02  0.7816164E-02  0.1184000E+00
        -11   -1    0    0    0    0  0.00000000000E+00  0.00000000000E+00  0.45593999997E+02  0.45594000000E+02  0.51100000000E-03 0. -1.
         11   -1    0    0    0    0 -0.00000000000E+00 -0.00000000000E+00 -0.45593999997E+02  0.45594000000E+02  0.51100000000E-03 0.  1.
         23    2    1    2    0    0 -0.35527136788E-14  0.00000000000E+00  0.71054273576E-14  0.91188000000E+02  0.91188000000E+02 0.  0.
    9900012    2    3    3    0    0  0.14856410582E+02  0.10186731279E+01 -0.33675427725E+02  0.54367013284E+02  0.39999838382E+02 0.  0.
         12    1    3    3    0    0 -0.14856410582E+02 -0.10186731279E+01  0.33675427725E+02  0.36820986716E+02  0.00000000000E+00 0. -1.
         11    1    4    4    0    0  0.67504088884E+01 -0.66064744203E+01 -0.22202040785E+01  0.97027228569E+01  0.51100000000E-03 0.  1.
        -11    1    4    4    0    0  0.12176997220E+01  0.15229735624E+02 -0.30801983726E+02  0.34382987676E+02  0.51100000000E-03 0. -1.
         12    1    4    4    0    0  0.68883019720E+01 -0.76045880763E+01 -0.65323992034E+00  0.10281302751E+02  0.00000000000E+00 0. -1.
</event>
<event>
 8    1  0.3106980E-007  0.9118800E+02  0.7816164E-02  0.1184000E+00
        -11   -1    0    0    0    0  0.00000000000E+00  0.00000000000E+00  0.45593999997E+02  0.45594000000E+02  0.51100000000E-03 0. -1.
         11   -1    0    0    0    0 -0.00000000000E+00 -0.00000000000E+00 -0.45593999997E+02  0.45594000000E+02  0.51100000000E-03 0.  1.
         23    2    1    2    0    0 -0.88817841970E-15 -0.35527136788E-14  0.00000000000E+00  0.91188000000E+02  0.91188000000E+02 0.  0.
    9900012    2    3    3    0    0  0.72721211101E+01 -0.28499166245E+02  0.22151637338E+02  0.54367064938E+02  0.39999956139E+02 0.  0.
        -12    1    3    3    0    0 -0.72721211101E+01  0.28499166245E+02 -0.22151637338E+02  0.36820935062E+02  0.00000000000E+00 0.  1.
         11    1    4    4    0    0  0.34293817381E+01 -0.10702816276E+02  0.12658700522E+02  0.16927895159E+02  0.51100000000E-03 0. -1.
        -11    1    4    4    0    0  0.17299647212E+02 -0.71021318623E+01  0.74472415262E+01  0.20129070452E+02  0.51100000000E-03 0.  1.
        -12    1    4    4    0    0 -0.13456907840E+02 -0.10694218106E+02  0.20456952901E+01  0.17310099327E+02  0.00000000000E+00 0.  1.
</event>
<event>
 8    1  0.3106980E-007  0.9118800E+02  0.7816164E-02  0.1184000E+00
        -11   -1    0    0    0    0  0.00000000000E+00  0.00000000000E+00  0.45593999997E+02  0.45594000000E+02  0.51100000000E-03 0.  1.
         11   -1    0    0    0    0 -0.00000000000E+00 -0.00000000000E+00 -0.45593999997E+02  0.45594000000E+02  0.51100000000E-03 0. -1.
         23    2    1    2    0    0  0.13322676296E-14  0.00000000000E+00  0.00000000000E+00  0.91188000000E+02  0.91188000000E+02 0.  0.
    9900012    2    3    3    0    0  0.39588234176E+01  0.15386430970E+02 -0.33216938326E+02  0.54367088379E+02  0.40000009578E+02 0.  0.
        -12    1    3    3    0    0 -0.39588234176E+01 -0.15386430970E+02  0.33216938326E+02  0.36820911621E+02  0.00000000000E+00 0.  1.
         11    1    4    4    0    0 -0.89025451742E+01  0.22470620418E+02 -0.31079110138E+02  0.39371248136E+02  0.51100000000E-03 0. -1.
        -11    1    4    4    0    0  0.37292702526E+01 -0.18954097680E+01 -0.15998937828E+01  0.44788051066E+01  0.51100000000E-03 0.  1.
         12    1    4    4    0    0  0.91320983393E+01 -0.51887796794E+01 -0.53793440480E+00  0.10517035137E+02  0.00000000000E+00 0. -1.
</event>
<event>
 8    1  0.3106980E-007  0.9118800E+02  0.7816164E-02  0.1184000E+00
        -11   -1    0    0    0    0  0.00000000000E+00  0.00000000000E+00  0.45593999997E+02  0.45594000000E+02  0.51100000000E-03 0.  1.
         11   -1    0    0    0    0 -0.00000000000E+00 -0.00000000000E+00 -0.45593999997E+02  0.45594000000E+02  0.51100000000E-03 0. -1.
         23    2    1    2    0    0  0.71054273576E-14  0.35527136788E-14 -0.35527136788E-14  0.91188000000E+02  0.91188000000E+02 0.  0.
    9900012    2    3    3    0    0  0.24305048740E+02  0.24651015885E+02 -0.12544824940E+02  0.54367073733E+02  0.39999976189E+02 0.  0.
         12    1    3    3    0    0 -0.24305048740E+02 -0.24651015885E+02  0.12544824940E+02  0.36820926267E+02  0.00000000000E+00 0. -1.
         11    1    4    4    0    0  0.22741651065E+02  0.64078382572E+01 -0.20418498556E+02  0.31227522601E+02  0.51100000000E-03 0. -1.
        -11    1    4    4    0    0 -0.18878395913E+01  0.18199187177E+02  0.68831885759E+01  0.19548724702E+02  0.51100000000E-03 0.  1.
         12    1    4    4    0    0  0.34512372667E+01  0.43990450001E-01  0.99048504018E+00  0.35908264293E+01  0.00000000000E+00 0. -1.
</event>
<event>
 8    1  0.3106980E-007  0.9118800E+02  0.7816164E-02  0.1184000E+00
        -11   -1    0    0    0    0  0.00000000000E+00  0.00000000000E+00  0.45593999997E+02  0.45594000000E+02  0.51100000000E-03 0. -1.
         11   -1    0    0    0    0 -0.00000000000E+00 -0.00000000000E+00 -0.45593999997E+02  0.45594000000E+02  0.51100000000E-03 0.  1.
         23    2    1    2    0    0  0.00000000000E+00 -0.17763568394E-14 -0.44408920985E-15  0.91188000000E+02  0.91188000000E+02 0.  0.
    9900012    2    3    3    0    0 -0.35593011126E+02  0.90094638106E+01 -0.27833832876E+01  0.54367080651E+02  0.39999991961E+02 0.  0.
        -12    1    3    3    0    0  0.35593011126E+02 -0.90094638106E+01  0.27833832876E+01  0.36820919349E+02  0.00000000000E+00 0.  1.
         11    1    4    4    0    0 -0.24769694209E+02 -0.28311451146E+01  0.11258297905E+02  0.27355116630E+02  0.51100000000E-03 0. -1.
        -11    1    4    4    0    0 -0.14981802066E+02  0.71050303982E+01 -0.11678875974E+02  0.20281321317E+02  0.51100000000E-03 0.  1.
        -12    1    4    4    0    0  0.41584851486E+01  0.47355785271E+01 -0.23628052183E+01  0.67306427046E+01  0.00000000000E+00 0.  1.
</event>
<event>
 8    1  0.3106980E-007  0.9118800E+02  0.7816164E-02  0.1184000E+00
        -11   -1    0    0    0    0  0.00000000000E+00  0.00000000000E+00  0.45593999997E+02  0.45594000000E+02  0.51100000000E-03 0.  1.
         11   -1    0    0    0    0 -0.00000000000E+00 -0.00000000000E+00 -0.45593999997E+02  0.45594000000E+02  0.51100000000E-03 0. -1.
         23    2    1    2    0    0 -0.17763568394E-14  0.00000000000E+00  0.00000000000E+00  0.91188000000E+02  0.91188000000E+02 0.  0.
    9900012    2    3    3    0    0 -0.94382326093E+01  0.20177211863E+01  0.35533452784E+02  0.54367113259E+02  0.40000066298E+02 0.  0.
         12    1    3    3    0    0  0.94382326093E+01 -0.20177211863E+01 -0.35533452784E+02  0.36820886741E+02  0.00000000000E+00 0. -1.
         11    1    4    4    0    0 -0.32375502715E+01 -0.52009083596E+01  0.12037714100E+02  0.13506951564E+02  0.51100000000E-03 0. -1.
        -11    1    4    4    0    0 -0.37052472755E+01  0.18953962364E+02  0.21139616684E+02  0.28633283788E+02  0.51100000000E-03 0.  1.
         12    1    4    4    0    0 -0.24954350624E+01 -0.11735332818E+02  0.23561220004E+01  0.12226877908E+02  0.00000000000E+00 0. -1.
</event>
<event>
 8    1  0.3106980E-007  0.9118800E+02  0.7816164E-02  0.1184000E+00
        -11   -1    0    0    0    0  0.00000000000E+00  0.00000000000E+00  0.45593999997E+02  0.45594000000E+02  0.51100000000E-03 0.  1.
         11   -1    0    0    0    0 -0.00000000000E+00 -0.00000000000E+00 -0.45593999997E+02  0.45594000000E+02  0.51100000000E-03 0. -1.
         23    2    1    2    0    0 -0.17763568394E-14  0.35527136788E-14  0.17763568394E-14  0.91188000000E+02  0.91188000000E+02 0.  0.
    9900012    2    3    3    0    0  0.10707610407E+02  0.31395072076E+02 -0.15983628547E+02  0.54367084031E+02  0.39999999665E+02 0.  0.
        -12    1    3    3    0    0 -0.10707610407E+02 -0.31395072076E+02  0.15983628547E+02  0.36820915969E+02  0.00000000000E+00 0.  1.
         11    1    4    4    0    0  0.67161048608E+01  0.22604926711E+02 -0.96650188813E+01  0.25485316681E+02  0.51100000000E-03 0. -1.
        -11    1    4    4    0    0  0.14385244812E+02  0.66736392611E+01 -0.85889223957E+01  0.18034475802E+02  0.51100000000E-03 0.  1.
         12    1    4    4    0    0 -0.10393739266E+02  0.21165061042E+01  0.22703127304E+01  0.10847291547E+02  0.00000000000E+00 0. -1.
</event>
<event>
 8    1  0.3106980E-007  0.9118800E+02  0.7816164E-02  0.1184000E+00
        -11   -1    0    0    0    0  0.00000000000E+00  0.00000000000E+00  0.45593999997E+02  0.45594000000E+02  0.51100000000E-03 0.  1.
         11   -1    0    0    0    0 -0.00000000000E+00 -0.00000000000E+00 -0.45593999997E+02  0.45594000000E+02  0.51100000000E-03 0. -1.
         23    2    1    2    0    0  0.88817841970E-15 -0.71054273576E-14  0.17763568394E-14  0.91188000000E+02  0.91188000000E+02 0.  0.
    9900012    2    3    3    0    0  0.50254978222E+01 -0.33565807511E+02 -0.14277986253E+02  0.54367082661E+02  0.39999996543E+02 0.  0.
         12    1    3    3    0    0 -0.50254978222E+01  0.33565807511E+02  0.14277986253E+02  0.36820917339E+02  0.00000000000E+00 0. -1.
         11    1    4    4    0    0  0.14578081742E+02 -0.70477265137E+01 -0.18771964074E+02  0.24790674693E+02  0.51100000000E-03 0. -1.
        -11    1    4    4    0    0 -0.71485468961E+01 -0.15174673668E+02  0.61445728610E+01  0.17864160197E+02  0.51100000000E-03 0.  1.
         12    1    4    4    0    0 -0.24040370241E+01 -0.11343407330E+02 -0.16505950397E+01  0.11712247771E+02  0.00000000000E+00 0. -1.
</event>
<event>
 8    1  0.3106980E-007  0.9118800E+02  0.7816164E-02  0.1184000E+00
        -11   -1    0    0    0    0  0.00000000000E+00  0.00000000000E+00  0.45593999997E+02  0.45594000000E+02  0.51100000000E-03 0.  1.
         11   -1    0    0    0    0 -0.00000000000E+00 -0.00000000000E+00 -0.45593999997E+02  0.45594000000E+02  0.51100000000E-03 0. -1.
         23    2    1    2    0    0  0.00000000000E+00  0.35527136788E-14  0.88817841970E-15  0.91188000000E+02  0.91188000000E+02 0.  0.
    9900012    2    3    3    0    0  0.30714276340E+02 -0.20179846071E+02  0.22775107137E+01  0.54367081847E+02  0.39999994687E+02 0.  0.
        -12    1    3    3    0    0 -0.30714276340E+02  0.20179846071E+02 -0.22775107137E+01  0.36820918153E+02  0.00000000000E+00 0.  1.
         11    1    4    4    0    0  0.32115674212E+01  0.74660989013E+01 -0.70716363218E+00  0.81582399308E+01  0.51100000000E-03 0.  1.
        -11    1    4    4    0    0  0.99251098687E+00  0.32997064680E+01 -0.35415576959E+01  0.49412318311E+01  0.51100000000E-03 0. -1.
         12    1    4    4    0    0  0.26510197932E+02 -0.30945651440E+02  0.65262320417E+01  0.41267610085E+02  0.00000000000E+00 0. -1.
</event>
<event>
 8    1  0.3106980E-007  0.9118800E+02  0.7816164E-02  0.1184000E+00
        -11   -1    0    0    0    0  0.00000000000E+00  0.00000000000E+00  0.45593999997E+02  0.45594000000E+02  0.51100000000E-03 0.  1.
         11   -1    0    0    0    0 -0.00000000000E+00 -0.00000000000E+00 -0.45593999997E+02  0.45594000000E+02  0.51100000000E-03 0. -1.
         23    2    1    2    0    0  0.00000000000E+00  0.00000000000E+00  0.71054273576E-14  0.91188000000E+02  0.91188000000E+02 0.  0.
    9900012    2    3    3    0    0  0.98659996886E+01  0.13729667054E+02 -0.32709897375E+02  0.54367094341E+02  0.40000023169E+02 0.  0.
        -12    1    3    3    0    0 -0.98659996886E+01 -0.13729667054E+02  0.32709897375E+02  0.36820905659E+02  0.00000000000E+00 0.  1.
         11    1    4    4    0    0  0.22741583664E+01  0.47958542398E+01 -0.15349305406E+02  0.16241095741E+02  0.51100000000E-03 0. -1.
        -11    1    4    4    0    0 -0.75721983407E+01  0.93779297744E+01 -0.19379088082E+02  0.22821761758E+02  0.51100000000E-03 0.  1.
        -12    1    4    4    0    0  0.15164039663E+02 -0.44411696018E+00  0.20184961131E+01  0.15304236843E+02  0.00000000000E+00 0.  1.
</event>
<event>
 8    1  0.3106980E-007  0.9118800E+02  0.7816164E-02  0.1184000E+00
        -11   -1    0    0    0    0  0.00000000000E+00  0.00000000000E+00  0.45593999997E+02  0.45594000000E+02  0.51100000000E-03 0. -1.
         11   -1    0    0    0    0 -0.00000000000E+00 -0.00000000000E+00 -0.45593999997E+02  0.45594000000E+02  0.51100000000E-03 0.  1.
         23    2    1    2    0    0  0.35527136788E-14  0.35527136788E-14  0.00000000000E+00  0.91188000000E+02  0.91188000000E+02 0.  0.
    9900012    2    3    3    0    0  0.21527126433E+02  0.28901855413E+02  0.75536286687E+01  0.54366922818E+02  0.39999632147E+02 0.  0.
         12    1    3    3    0    0 -0.21527126433E+02 -0.28901855413E+02 -0.75536286687E+01  0.36821077182E+02  0.00000000000E+00 0. -1.
         11    1    4    4    0    0  0.10527096868E+01  0.19783277093E+02  0.38640178137E+01  0.20184570448E+02  0.51100000000E-03 0. -1.
        -11    1    4    4    0    0  0.15481266429E+02  0.85300114673E+01 -0.95000512757E+01  0.20066930019E+02  0.51100000000E-03 0.  1.
         12    1    4    4    0    0  0.49931503169E+01  0.58856685219E+00  0.13189662131E+02  0.14115422351E+02  0.00000000000E+00 0. -1.
</event>
<event>
 8    1  0.3106980E-007  0.9118800E+02  0.7816164E-02  0.1184000E+00
        -11   -1    0    0    0    0  0.00000000000E+00  0.00000000000E+00  0.45593999997E+02  0.45594000000E+02  0.51100000000E-03 0. -1.
         11   -1    0    0    0    0 -0.00000000000E+00 -0.00000000000E+00 -0.45593999997E+02  0.45594000000E+02  0.51100000000E-03 0.  1.
         23    2    1    2    0    0  0.00000000000E+00 -0.35527136788E-14  0.17763568394E-14  0.91188000000E+02  0.91188000000E+02 0.  0.
    9900012    2    3    3    0    0 -0.20981539219E+02  0.25822915303E+02  0.15771155146E+02  0.54367119004E+02  0.40000079392E+02 0.  0.
        -12    1    3    3    0    0  0.20981539219E+02 -0.25822915303E+02 -0.15771155146E+02  0.36820880996E+02  0.00000000000E+00 0.  1.
         11    1    4    4    0    0 -0.96194981288E+01  0.24742673121E+01 -0.47285628976E+01  0.11000729536E+02  0.51100000000E-03 0. -1.
        -11    1    4    4    0    0 -0.70189802860E+01  0.29584695408E+02  0.18154541907E+02  0.35413382763E+02  0.51100000000E-03 0.  1.
         12    1    4    4    0    0 -0.43430608041E+01 -0.62360474168E+01  0.23451761360E+01  0.79530067045E+01  0.00000000000E+00 0. -1.
</event>
<event>
 8    1  0.3106980E-007  0.9118800E+02  0.7816164E-02  0.1184000E+00
        -11   -1    0    0    0    0  0.00000000000E+00  0.00000000000E+00  0.45593999997E+02  0.45594000000E+02  0.51100000000E-03 0.  1.
         11   -1    0    0    0    0 -0.00000000000E+00 -0.00000000000E+00 -0.45593999997E+02  0.45594000000E+02  0.51100000000E-03 0. -1.
         23    2    1    2    0    0 -0.35527136788E-14  0.17763568394E-14  0.00000000000E+00  0.91188000000E+02  0.91188000000E+02 0.  0.
    9900012    2    3    3    0    0  0.28121466385E+02  0.11060646439E+02 -0.21038318542E+02  0.54367277324E+02  0.40000440314E+02 0.  0.
        -12    1    3    3    0    0 -0.28121466385E+02 -0.11060646439E+02  0.21038318542E+02  0.36820722676E+02  0.00000000000E+00 0.  1.
         11    1    4    4    0    0 -0.72378648020E+00  0.11256065389E+02 -0.40280381290E+01  0.11976976511E+02  0.51100000000E-03 0.  1.
        -11    1    4    4    0    0  0.28302098303E+02  0.83765826115E+01 -0.95749475743E+01  0.31029913405E+02  0.51100000000E-03 0. -1.
         12    1    4    4    0    0  0.54315456135E+00 -0.85720015610E+01 -0.74353328392E+01  0.11360387408E+02  0.00000000000E+00 0. -1.
</event>
<event>
 8    1  0.3106980E-007  0.9118800E+02  0.7816164E-02  0.1184000E+00
        -11   -1    0    0    0    0  0.00000000000E+00  0.00000000000E+00  0.45593999997E+02  0.45594000000E+02  0.51100000000E-03 0.  1.
         11   -1    0    0    0    0 -0.00000000000E+00 -0.00000000000E+00 -0.45593999997E+02  0.45594000000E+02  0.51100000000E-03 0. -1.
         23    2    1    2    0    0  0.00000000000E+00  0.00000000000E+00  0.00000000000E+00  0.91188000000E+02  0.91188000000E+02 0.  0.
    9900012    2    3    3    0    0 -0.80444167478E+01  0.53696824759E+01  0.35527962392E+02  0.54367051581E+02  0.39999925689E+02 0.  0.
         12    1    3    3    0    0  0.80444167478E+01 -0.53696824759E+01 -0.35527962392E+02  0.36820948419E+02  0.00000000000E+00 0. -1.
         11    1    4    4    0    0  0.26268858799E+01  0.19248266215E+02  0.13187016749E+02  0.23479644220E+02  0.51100000000E-03 0. -1.
        -11    1    4    4    0    0 -0.29755244218E+01 -0.13154596493E+02  0.12647687579E+02  0.18489487711E+02  0.51100000000E-03 0.  1.
         12    1    4    4    0    0 -0.76957782060E+01 -0.72398724666E+00  0.96932580646E+01  0.12397919650E+02  0.00000000000E+00 0. -1.
</event>
<event>
 8    1  0.3106980E-007  0.9118800E+02  0.7816164E-02  0.1184000E+00
        -11   -1    0    0    0    0  0.00000000000E+00  0.00000000000E+00  0.45593999997E+02  0.45594000000E+02  0.51100000000E-03 0. -1.
         11   -1    0    0    0    0 -0.00000000000E+00 -0.00000000000E+00 -0.45593999997E+02  0.45594000000E+02  0.51100000000E-03 0.  1.
         23    2    1    2    0    0  0.00000000000E+00 -0.11102230246E-15  0.00000000000E+00  0.91188000000E+02  0.91188000000E+02 0.  0.
    9900012    2    3    3    0    0 -0.23965211424E+02  0.75471528110E+00 -0.27944227039E+02  0.54367071460E+02  0.39999971006E+02 0.  0.
         12    1    3    3    0    0  0.23965211424E+02 -0.75471528110E+00  0.27944227039E+02  0.36820928540E+02  0.00000000000E+00 0. -1.
         11    1    4    4    0    0 -0.90288135689E+01 -0.14846204420E+02 -0.18900041428E+02  0.25673738068E+02  0.51100000000E-03 0. -1.
        -11    1    4    4    0    0 -0.56684877936E+01 -0.20863904132E+01  0.13388039590E+01  0.61868550269E+01  0.51100000000E-03 0.  1.
         12    1    4    4    0    0 -0.92679100617E+01  0.17687310114E+02 -0.10382989570E+02  0.22506478365E+02  0.00000000000E+00 0. -1.
</event>
<event>
 8    1  0.3106980E-007  0.9118800E+02  0.7816164E-02  0.1184000E+00
        -11   -1    0    0    0    0  0.00000000000E+00  0.00000000000E+00  0.45593999997E+02  0.45594000000E+02  0.51100000000E-03 0.  1.
         11   -1    0    0    0    0 -0.00000000000E+00 -0.00000000000E+00 -0.45593999997E+02  0.45594000000E+02  0.51100000000E-03 0. -1.
         23    2    1    2    0    0 -0.88817841970E-15  0.00000000000E+00 -0.71054273576E-14  0.91188000000E+02  0.91188000000E+02 0.  0.
    9900012    2    3    3    0    0 -0.40038386544E+01 -0.77878125760E+01  0.35764476260E+02  0.54367102254E+02  0.40000041209E+02 0.  0.
         12    1    3    3    0    0  0.40038386544E+01  0.77878125760E+01 -0.35764476260E+02  0.36820897746E+02  0.00000000000E+00 0. -1.
         11    1    4    4    0    0 -0.12141486297E+02 -0.13731072574E+02  0.36963296856E+02  0.41258252002E+02  0.51100000000E-03 0. -1.
        -11    1    4    4    0    0  0.20606084142E+01  0.37426677301E+01  0.31592424487E+01  0.53136128844E+01  0.51100000000E-03 0.  1.
        -12    1    4    4    0    0  0.60770392281E+01  0.22005922681E+01 -0.43580630454E+01  0.77952373676E+01  0.00000000000E+00 0.  1.
</event>
<event>
 8    1  0.3106980E-007  0.9118800E+02  0.7816164E-02  0.1184000E+00
        -11   -1    0    0    0    0  0.00000000000E+00  0.00000000000E+00  0.45593999997E+02  0.45594000000E+02  0.51100000000E-03 0.  1.
         11   -1    0    0    0    0 -0.00000000000E+00 -0.00000000000E+00 -0.45593999997E+02  0.45594000000E+02  0.51100000000E-03 0. -1.
         23    2    1    2    0    0  0.00000000000E+00  0.00000000000E+00  0.17763568394E-14  0.91188000000E+02  0.91188000000E+02 0.  0.
    9900012    2    3    3    0    0  0.25741024469E+01 -0.33615630311E+02 -0.14803469866E+02  0.54367091202E+02  0.40000016014E+02 0.  0.
        -12    1    3    3    0    0 -0.25741024469E+01  0.33615630311E+02  0.14803469866E+02  0.36820908798E+02  0.00000000000E+00 0.  1.
         11    1    4    4    0    0  0.64887978364E+01  0.34841043929E+01 -0.14406888978E+02  0.16180294530E+02  0.51100000000E-03 0. -1.
        -11    1    4    4    0    0 -0.37203049191E+01 -0.20271548868E+02 -0.39531141579E+01  0.20985792194E+02  0.51100000000E-03 0.  1.
         12    1    4    4    0    0 -0.19439047036E+00 -0.16828185835E+02  0.35565332700E+01  0.17201004478E+02  0.00000000000E+00 0. -1.
</event>
<event>
 8    1  0.3106980E-007  0.9118800E+02  0.7816164E-02  0.1184000E+00
        -11   -1    0    0    0    0  0.00000000000E+00  0.00000000000E+00  0.45593999997E+02  0.45594000000E+02  0.51100000000E-03 0.  1.
         11   -1    0    0    0    0 -0.00000000000E+00 -0.00000000000E+00 -0.45593999997E+02  0.45594000000E+02  0.51100000000E-03 0. -1.
         23    2    1    2    0    0  0.00000000000E+00  0.00000000000E+00  0.00000000000E+00  0.91188000000E+02  0.91188000000E+02 0.  0.
    9900012    2    3    3    0    0 -0.32033995718E+02 -0.42827671356E+01 -0.17642566974E+02  0.54367093637E+02  0.40000021564E+02 0.  0.
        -12    1    3    3    0    0  0.32033995718E+02  0.42827671356E+01  0.17642566974E+02  0.36820906363E+02  0.00000000000E+00 0.  1.
         11    1    4    4    0    0 -0.69362848485E+01  0.39769971664E+00  0.88413385585E+01  0.11244531130E+02  0.51100000000E-03 0.  1.
        -11    1    4    4    0    0 -0.22201796694E+02 -0.12584692691E+01 -0.30057731217E+02  0.37389446740E+02  0.51100000000E-03 0. -1.
         12    1    4    4    0    0 -0.28959141750E+01 -0.34219975831E+01  0.35738256851E+01  0.57331157668E+01  0.00000000000E+00 0. -1.
</event>
<event>
 8    1  0.3106980E-007  0.9118800E+02  0.7816164E-02  0.1184000E+00
        -11   -1    0    0    0    0  0.00000000000E+00  0.00000000000E+00  0.45593999997E+02  0.45594000000E+02  0.51100000000E-03 0. -1.
         11   -1    0    0    0    0 -0.00000000000E+00 -0.00000000000E+00 -0.45593999997E+02  0.45594000000E+02  0.51100000000E-03 0.  1.
         23    2    1    2    0    0  0.00000000000E+00 -0.17763568394E-14 -0.35527136788E-14  0.91188000000E+02  0.91188000000E+02 0.  0.
    9900012    2    3    3    0    0  0.25566301040E+02  0.10898465314E+02 -0.24153001375E+02  0.54367085149E+02  0.40000002214E+02 0.  0.
         12    1    3    3    0    0 -0.25566301040E+02 -0.10898465314E+02  0.24153001375E+02  0.36820914851E+02  0.00000000000E+00 0. -1.
         11    1    4    4    0    0  0.82547676613E+01 -0.50489475313E+01 -0.10470825360E+01  0.97329051374E+01  0.51100000000E-03 0. -1.
        -11    1    4    4    0    0  0.28941596347E+01  0.20401121339E+02 -0.52645015195E+01  0.21267272707E+02  0.51100000000E-03 0.  1.
        -12    1    4    4    0    0  0.14417373744E+02 -0.44537084938E+01 -0.17841417320E+02  0.23366907305E+02  0.00000000000E+00 0.  1.
</event>
<event>
 8    1  0.3106980E-007  0.9118800E+02  0.7816164E-02  0.1184000E+00
        -11   -1    0    0    0    0  0.00000000000E+00  0.00000000000E+00  0.45593999997E+02  0.45594000000E+02  0.51100000000E-03 0.  1.
         11   -1    0    0    0    0 -0.00000000000E+00 -0.00000000000E+00 -0.45593999997E+02  0.45594000000E+02  0.51100000000E-03 0. -1.
         23    2    1    2    0    0  0.35527136788E-14  0.44408920985E-15  0.00000000000E+00  0.91188000000E+02  0.91188000000E+02 0.  0.
    9900012    2    3    3    0    0 -0.26969616802E+02 -0.39989508451E+01 -0.24747290223E+02  0.54367079157E+02  0.39999988555E+02 0.  0.
        -12    1    3    3    0    0  0.26969616802E+02  0.39989508451E+01  0.24747290223E+02  0.36820920843E+02  0.00000000000E+00 0.  1.
         11    1    4    4    0    0  0.25358963527E+00 -0.13287348799E+02 -0.87119426005E+01  0.15890748565E+02  0.51100000000E-03 0. -1.
        -11    1    4    4    0    0 -0.28024651720E+02  0.10844517641E+02 -0.92089831031E+01  0.31429127206E+02  0.51100000000E-03 0.  1.
        -12    1    4    4    0    0  0.80144528241E+00 -0.15561196864E+01 -0.68263645192E+01  0.70472033864E+01  0.00000000000E+00 0.  1.
</event>
<event>
 8    1  0.3106980E-007  0.9118800E+02  0.7816164E-02  0.1184000E+00
        -11   -1    0    0    0    0  0.00000000000E+00  0.00000000000E+00  0.45593999997E+02  0.45594000000E+02  0.51100000000E-03 0. -1.
         11   -1    0    0    0    0 -0.00000000000E+00 -0.00000000000E+00 -0.45593999997E+02  0.45594000000E+02  0.51100000000E-03 0.  1.
         23    2    1    2    0    0 -0.88817841970E-15  0.00000000000E+00  0.35527136788E-14  0.91188000000E+02  0.91188000000E+02 0.  0.
    9900012    2    3    3    0    0  0.60211082671E+01 -0.33394138982E+02 -0.14295373544E+02  0.54367082469E+02  0.39999996104E+02 0.  0.
         12    1    3    3    0    0 -0.60211082671E+01  0.33394138982E+02  0.14295373544E+02  0.36820917531E+02  0.00000000000E+00 0. -1.
         11    1    4    4    0    0  0.89315311911E+01 -0.24726621844E+01 -0.14319815469E+02  0.17057063728E+02  0.51100000000E-03 0.  1.
        -11    1    4    4    0    0 -0.47175964731E+01 -0.29232720504E+02  0.65540895277E+01  0.30327607132E+02  0.51100000000E-03 0. -1.
         12    1    4    4    0    0  0.18071735491E+01 -0.16887562930E+01 -0.65296476023E+01  0.69824116081E+01  0.00000000000E+00 0. -1.
</event>
<event>
 8    1  0.3106980E-007  0.9118800E+02  0.7816164E-02  0.1184000E+00
        -11   -1    0    0    0    0  0.00000000000E+00  0.00000000000E+00  0.45593999997E+02  0.45594000000E+02  0.51100000000E-03 0. -1.
         11   -1    0    0    0    0 -0.00000000000E+00 -0.00000000000E+00 -0.45593999997E+02  0.45594000000E+02  0.51100000000E-03 0.  1.
         23    2    1    2    0    0  0.35527136788E-14  0.00000000000E+00  0.00000000000E+00  0.91188000000E+02  0.91188000000E+02 0.  0.
    9900012    2    3    3    0    0  0.30513864088E+02 -0.20114229371E+02 -0.44834858604E+01  0.54367085152E+02  0.40000002222E+02 0.  0.
         12    1    3    3    0    0 -0.30513864088E+02  0.20114229371E+02  0.44834858604E+01  0.36820914848E+02  0.00000000000E+00 0. -1.
         11    1    4    4    0    0  0.98818942676E+01 -0.94683338566E+01  0.10500080995E+02  0.17249721200E+02  0.51100000000E-03 0. -1.
        -11    1    4    4    0    0  0.10799011857E+02  0.74722915808E+01 -0.38315291877E+01  0.13679708137E+02  0.51100000000E-03 0.  1.
        -12    1    4    4    0    0  0.98329579634E+01 -0.18118187096E+02 -0.11152037667E+02  0.23437655814E+02  0.00000000000E+00 0.  1.
</event>
<event>
 8    1  0.3106980E-007  0.9118800E+02  0.7816164E-02  0.1184000E+00
        -11   -1    0    0    0    0  0.00000000000E+00  0.00000000000E+00  0.45593999997E+02  0.45594000000E+02  0.51100000000E-03 0. -1.
         11   -1    0    0    0    0 -0.00000000000E+00 -0.00000000000E+00 -0.45593999997E+02  0.45594000000E+02  0.51100000000E-03 0.  1.
         23    2    1    2    0    0  0.00000000000E+00  0.00000000000E+00 -0.17763568394E-14  0.91188000000E+02  0.91188000000E+02 0.  0.
    9900012    2    3    3    0    0  0.33509883317E+02  0.98010749877E+01 -0.11696476302E+02  0.54367069692E+02  0.39999966978E+02 0.  0.
         12    1    3    3    0    0 -0.33509883317E+02 -0.98010749877E+01  0.11696476302E+02  0.36820930308E+02  0.00000000000E+00 0. -1.
         11    1    4    4    0    0  0.26665600420E+02  0.74122005624E+01 -0.81639428491E+01  0.28855587432E+02  0.51100000000E-03 0.  1.
        -11    1    4    4    0    0  0.96171344764E+01 -0.91222044265E+01 -0.38938356796E+00  0.13261052332E+02  0.51100000000E-03 0. -1.
        -12    1    4    4    0    0 -0.27728515797E+01  0.11511078852E+02 -0.31431498849E+01  0.12250429928E+02  0.00000000000E+00 0.  1.
</event>
<event>
 8    1  0.3106980E-007  0.9118800E+02  0.7816164E-02  0.1184000E+00
        -11   -1    0    0    0    0  0.00000000000E+00  0.00000000000E+00  0.45593999997E+02  0.45594000000E+02  0.51100000000E-03 0.  1.
         11   -1    0    0    0    0 -0.00000000000E+00 -0.00000000000E+00 -0.45593999997E+02  0.45594000000E+02  0.51100000000E-03 0. -1.
         23    2    1    2    0    0  0.00000000000E+00 -0.88817841970E-15  0.35527136788E-14  0.91188000000E+02  0.91188000000E+02 0.  0.
    9900012    2    3    3    0    0  0.17726570427E+02  0.49211404877E+01 -0.31895627366E+02  0.54367082468E+02  0.39999996103E+02 0.  0.
        -12    1    3    3    0    0 -0.17726570427E+02 -0.49211404877E+01  0.31895627366E+02  0.36820917532E+02  0.00000000000E+00 0.  1.
         11    1    4    4    0    0  0.81493737805E+01 -0.13411257057E+02 -0.13130151848E+02  0.20461549225E+02  0.51100000000E-03 0. -1.
        -11    1    4    4    0    0 -0.38670598712E+01  0.18526801157E+01 -0.10039769386E+02  0.10917121656E+02  0.51100000000E-03 0.  1.
         12    1    4    4    0    0  0.13444256518E+02  0.16479717429E+02 -0.87257061320E+01  0.22988411588E+02  0.00000000000E+00 0. -1.
</event>
<event>
 8    1  0.3106980E-007  0.9118800E+02  0.7816164E-02  0.1184000E+00
        -11   -1    0    0    0    0  0.00000000000E+00  0.00000000000E+00  0.45593999997E+02  0.45594000000E+02  0.51100000000E-03 0.  1.
         11   -1    0    0    0    0 -0.00000000000E+00 -0.00000000000E+00 -0.45593999997E+02  0.45594000000E+02  0.51100000000E-03 0. -1.
         23    2    1    2    0    0  0.00000000000E+00  0.00000000000E+00 -0.17763568394E-14  0.91188000000E+02  0.91188000000E+02 0.  0.
    9900012    2    3    3    0    0 -0.15728124664E+02  0.31322124250E+02  0.11284102411E+02  0.54367077413E+02  0.39999984578E+02 0.  0.
         12    1    3    3    0    0  0.15728124664E+02 -0.31322124250E+02 -0.11284102411E+02  0.36820922587E+02  0.00000000000E+00 0. -1.
         11    1    4    4    0    0 -0.80588652707E+01  0.10559376954E+02 -0.12133722610E+02  0.17990913699E+02  0.51100000000E-03 0. -1.
        -11    1    4    4    0    0  0.50416107470E+00 -0.23489717340E+01  0.55300021715E+01  0.60293259055E+01  0.51100000000E-03 0.  1.
        -12    1    4    4    0    0 -0.81734204681E+01  0.23111719030E+02  0.17887822849E+02  0.30346837808E+02  0.00000000000E+00 0.  1.
</event>
<event>
 8    1  0.3106980E-007  0.9118800E+02  0.7816164E-02  0.1184000E+00
        -11   -1    0    0    0    0  0.00000000000E+00  0.00000000000E+00  0.45593999997E+02  0.45594000000E+02  0.51100000000E-03 0.  1.
         11   -1    0    0    0    0 -0.00000000000E+00 -0.00000000000E+00 -0.45593999997E+02  0.45594000000E+02  0.51100000000E-03 0. -1.
         23    2    1    2    0    0 -0.88817841970E-15  0.00000000000E+00  0.00000000000E+00  0.91188000000E+02  0.91188000000E+02 0.  0.
    9900012    2    3    3    0    0 -0.60662320005E+01  0.89892574579E+01  0.35187699933E+02  0.54367080037E+02  0.39999990560E+02 0.  0.
         12    1    3    3    0    0  0.60662320005E+01 -0.89892574579E+01 -0.35187699933E+02  0.36820919963E+02  0.00000000000E+00 0. -1.
         11    1    4    4    0    0 -0.12708048424E+02 -0.11141305763E+01  0.36260080578E+01  0.13262115834E+02  0.51100000000E-03 0. -1.
        -11    1    4    4    0    0  0.59902917425E+01 -0.40196928429E+01  0.81045134678E+00  0.72593634265E+01  0.51100000000E-03 0.  1.
         12    1    4    4    0    0  0.65152468129E+00  0.14123080877E+02  0.30751240529E+02  0.33845600777E+02  0.00000000000E+00 0. -1.
</event>
<event>
 8    1  0.3106980E-007  0.9118800E+02  0.7816164E-02  0.1184000E+00
        -11   -1    0    0    0    0  0.00000000000E+00  0.00000000000E+00  0.45593999997E+02  0.45594000000E+02  0.51100000000E-03 0.  1.
         11   -1    0    0    0    0 -0.00000000000E+00 -0.00000000000E+00 -0.45593999997E+02  0.45594000000E+02  0.51100000000E-03 0. -1.
         23    2    1    2    0    0  0.35527136788E-14 -0.17763568394E-14  0.00000000000E+00  0.91188000000E+02  0.91188000000E+02 0.  0.
    9900012    2    3    3    0    0  0.28723419344E+02 -0.15670076765E+02  0.16887745084E+02  0.54367054078E+02  0.39999931381E+02 0.  0.
        -12    1    3    3    0    0 -0.28723419344E+02  0.15670076765E+02 -0.16887745084E+02  0.36820945922E+02  0.00000000000E+00 0.  1.
         11    1    4    4    0    0  0.12120856036E+02  0.27312596440E+01  0.46138091987E+01  0.13253760443E+02  0.51100000000E-03 0. -1.
        -11    1    4    4    0    0  0.85706833123E+01 -0.26308352765E+02  0.63836169209E+01  0.28396066680E+02  0.51100000000E-03 0.  1.
         12    1    4    4    0    0  0.80318799954E+01  0.79070163562E+01  0.58903189644E+01  0.12717226955E+02  0.00000000000E+00 0. -1.
</event>
<event>
 8    1  0.3106980E-007  0.9118800E+02  0.7816164E-02  0.1184000E+00
        -11   -1    0    0    0    0  0.00000000000E+00  0.00000000000E+00  0.45593999997E+02  0.45594000000E+02  0.51100000000E-03 0. -1.
         11   -1    0    0    0    0 -0.00000000000E+00 -0.00000000000E+00 -0.45593999997E+02  0.45594000000E+02  0.51100000000E-03 0.  1.
         23    2    1    2    0    0  0.00000000000E+00  0.44408920985E-15  0.00000000000E+00  0.91188000000E+02  0.91188000000E+02 0.  0.
    9900012    2    3    3    0    0 -0.35385601555E+02 -0.21798051736E+01  0.99443659236E+01  0.54367044532E+02  0.39999909619E+02 0.  0.
        -12    1    3    3    0    0  0.35385601555E+02  0.21798051736E+01 -0.99443659236E+01  0.36820955468E+02  0.00000000000E+00 0.  1.
         11    1    4    4    0    0 -0.20595193203E+02  0.85319454018E+01  0.61970092805E+01  0.23137826166E+02  0.51100000000E-03 0. -1.
        -11    1    4    4    0    0  0.40480861560E+01 -0.10253822060E+02 -0.26334740101E+01  0.11334154313E+02  0.51100000000E-03 0.  1.
         12    1    4    4    0    0 -0.18838494508E+02 -0.45792851552E+00  0.63808306533E+01  0.19895064053E+02  0.00000000000E+00 0. -1.
</event>
<event>
 8    1  0.3106980E-007  0.9118800E+02  0.7816164E-02  0.1184000E+00
        -11   -1    0    0    0    0  0.00000000000E+00  0.00000000000E+00  0.45593999997E+02  0.45594000000E+02  0.51100000000E-03 0. -1.
         11   -1    0    0    0    0 -0.00000000000E+00 -0.00000000000E+00 -0.45593999997E+02  0.45594000000E+02  0.51100000000E-03 0.  1.
         23    2    1    2    0    0  0.88817841970E-15  0.17763568394E-14 -0.71054273576E-14  0.91188000000E+02  0.91188000000E+02 0.  0.
    9900012    2    3    3    0    0  0.38801482824E+01  0.10175318414E+02 -0.35173688767E+02  0.54367067951E+02  0.39999963007E+02 0.  0.
         12    1    3    3    0    0 -0.38801482824E+01 -0.10175318414E+02  0.35173688767E+02  0.36820932049E+02  0.00000000000E+00 0. -1.
         11    1    4    4    0    0  0.11693630169E+02  0.14023863484E+02 -0.11379716718E+02  0.21515289596E+02  0.51100000000E-03 0. -1.
        -11    1    4    4    0    0 -0.35300889901E+01 -0.83649419914E+01 -0.24923336782E+02  0.26525581981E+02  0.51100000000E-03 0.  1.
         12    1    4    4    0    0 -0.42833928969E+01  0.45163969213E+01  0.11293647332E+01  0.63261963738E+01  0.00000000000E+00 0. -1.
</event>
<event>
 8    1  0.3106980E-007  0.9118800E+02  0.7816164E-02  0.1184000E+00
        -11   -1    0    0    0    0  0.00000000000E+00  0.00000000000E+00  0.45593999997E+02  0.45594000000E+02  0.51100000000E-03 0. -1.
         11   -1    0    0    0    0 -0.00000000000E+00 -0.00000000000E+00 -0.45593999997E+02  0.45594000000E+02  0.51100000000E-03 0.  1.
         23    2    1    2    0    0  0.00000000000E+00  0.00000000000E+00  0.00000000000E+00  0.91188000000E+02  0.91188000000E+02 0.  0.
    9900012    2    3    3    0    0  0.33611261650E+02 -0.14447504451E+02 -0.41635631075E+01  0.54367047374E+02  0.39999916098E+02 0.  0.
        -12    1    3    3    0    0 -0.33611261650E+02  0.14447504451E+02  0.41635631075E+01  0.36820952626E+02  0.00000000000E+00 0.  1.
         11    1    4    4    0    0  0.21663296329E+02 -0.89757417201E+01  0.52877951138E+01  0.24037951757E+02  0.51100000000E-03 0. -1.
        -11    1    4    4    0    0  0.50119864144E+01 -0.12059995869E+02 -0.14498291603E+02  0.19513174212E+02  0.51100000000E-03 0.  1.
         12    1    4    4    0    0  0.69359789065E+01  0.65882331372E+01  0.50469333817E+01  0.10815921404E+02  0.00000000000E+00 0. -1.
</event>
<event>
 8    1  0.3106980E-007  0.9118800E+02  0.7816164E-02  0.1184000E+00
        -11   -1    0    0    0    0  0.00000000000E+00  0.00000000000E+00  0.45593999997E+02  0.45594000000E+02  0.51100000000E-03 0.  1.
         11   -1    0    0    0    0 -0.00000000000E+00 -0.00000000000E+00 -0.45593999997E+02  0.45594000000E+02  0.51100000000E-03 0. -1.
         23    2    1    2    0    0  0.88817841970E-15  0.00000000000E+00  0.00000000000E+00  0.91188000000E+02  0.91188000000E+02 0.  0.
    9900012    2    3    3    0    0  0.60843232042E+01 -0.20691609479E+02  0.29843203924E+02  0.54367102236E+02  0.40000041168E+02 0.  0.
         12    1    3    3    0    0 -0.60843232042E+01  0.20691609479E+02 -0.29843203924E+02  0.36820897764E+02  0.00000000000E+00 0. -1.
         11    1    4    4    0    0 -0.16736545750E+01 -0.21587066346E+02  0.16551632768E+02  0.27253607112E+02  0.51100000000E-03 0. -1.
        -11    1    4    4    0    0  0.12122133031E+02  0.80851881680E+01  0.11380021752E+02  0.18488409133E+02  0.51100000000E-03 0.  1.
        -12    1    4    4    0    0 -0.43641552517E+01 -0.71897313003E+01  0.19115494049E+01  0.86250859914E+01  0.00000000000E+00 0.  1.
</event>
<event>
 8    1  0.3106980E-007  0.9118800E+02  0.7816164E-02  0.1184000E+00
        -11   -1    0    0    0    0  0.00000000000E+00  0.00000000000E+00  0.45593999997E+02  0.45594000000E+02  0.51100000000E-03 0. -1.
         11   -1    0    0    0    0 -0.00000000000E+00 -0.00000000000E+00 -0.45593999997E+02  0.45594000000E+02  0.51100000000E-03 0.  1.
         23    2    1    2    0    0  0.00000000000E+00  0.44408920985E-15  0.00000000000E+00  0.91188000000E+02  0.91188000000E+02 0.  0.
    9900012    2    3    3    0    0 -0.14336958842E+02  0.26724868119E+01  0.33809589312E+02  0.54367096914E+02  0.40000029035E+02 0.  0.
        -12    1    3    3    0    0  0.14336958842E+02 -0.26724868119E+01 -0.33809589312E+02  0.36820903086E+02  0.00000000000E+00 0.  1.
         11    1    4    4    0    0 -0.96328061044E+01 -0.83343042755E+01  0.20448377778E+02  0.24091237727E+02  0.51100000000E-03 0. -1.
        -11    1    4    4    0    0 -0.67431895351E+01  0.13580509452E+02 -0.13313865167E+01  0.15220822330E+02  0.51100000000E-03 0.  1.
        -12    1    4    4    0    0  0.20390367976E+01 -0.25737183647E+01  0.14692598051E+02  0.15055036857E+02  0.00000000000E+00 0.  1.
</event>
<event>
 8    1  0.3106980E-007  0.9118800E+02  0.7816164E-02  0.1184000E+00
        -11   -1    0    0    0    0  0.00000000000E+00  0.00000000000E+00  0.45593999997E+02  0.45594000000E+02  0.51100000000E-03 0. -1.
         11   -1    0    0    0    0 -0.00000000000E+00 -0.00000000000E+00 -0.45593999997E+02  0.45594000000E+02  0.51100000000E-03 0.  1.
         23    2    1    2    0    0  0.00000000000E+00  0.00000000000E+00  0.00000000000E+00  0.91188000000E+02  0.91188000000E+02 0.  0.
    9900012    2    3    3    0    0 -0.69869519532E+01 -0.40415506517E+01  0.35925305704E+02  0.54367092635E+02  0.40000019280E+02 0.  0.
        -12    1    3    3    0    0  0.69869519532E+01  0.40415506517E+01 -0.35925305704E+02  0.36820907365E+02  0.00000000000E+00 0.  1.
         11    1    4    4    0    0 -0.37275121120E+01 -0.11114970735E+02 -0.39520972038E+01  0.12371580075E+02  0.51100000000E-03 0.  1.
        -11    1    4    4    0    0 -0.59604616713E+01  0.18043403150E+01  0.12265729275E+02  0.13756120900E+02  0.51100000000E-03 0. -1.
        -12    1    4    4    0    0  0.27010218300E+01  0.52690797682E+01  0.27611673632E+02  0.28239391660E+02  0.00000000000E+00 0.  1.
</event>
<event>
 8    1  0.3106980E-007  0.9118800E+02  0.7816164E-02  0.1184000E+00
        -11   -1    0    0    0    0  0.00000000000E+00  0.00000000000E+00  0.45593999997E+02  0.45594000000E+02  0.51100000000E-03 0.  1.
         11   -1    0    0    0    0 -0.00000000000E+00 -0.00000000000E+00 -0.45593999997E+02  0.45594000000E+02  0.51100000000E-03 0. -1.
         23    2    1    2    0    0  0.35527136788E-14  0.00000000000E+00  0.00000000000E+00  0.91188000000E+02  0.91188000000E+02 0.  0.
    9900012    2    3    3    0    0 -0.30352827375E+02  0.19754679588E+01  0.20750518614E+02  0.54367073530E+02  0.39999975727E+02 0.  0.
         12    1    3    3    0    0  0.30352827375E+02 -0.19754679588E+01 -0.20750518614E+02  0.36820926470E+02  0.00000000000E+00 0. -1.
         11    1    4    4    0    0 -0.16122163505E+01  0.18748655720E+00  0.55332539681E+01  0.57663933708E+01  0.51100000000E-03 0. -1.
        -11    1    4    4    0    0 -0.11233578968E+02  0.18093054058E+02  0.12046139517E+02  0.24467557686E+02  0.51100000000E-03 0.  1.
         12    1    4    4    0    0 -0.17507032057E+02 -0.16305072656E+02  0.31711251286E+01  0.24133122474E+02  0.00000000000E+00 0. -1.
</event>
<event>
 8    1  0.3106980E-007  0.9118800E+02  0.7816164E-02  0.1184000E+00
        -11   -1    0    0    0    0  0.00000000000E+00  0.00000000000E+00  0.45593999997E+02  0.45594000000E+02  0.51100000000E-03 0.  1.
         11   -1    0    0    0    0 -0.00000000000E+00 -0.00000000000E+00 -0.45593999997E+02  0.45594000000E+02  0.51100000000E-03 0. -1.
         23    2    1    2    0    0 -0.35527136788E-14  0.00000000000E+00  0.00000000000E+00  0.91188000000E+02  0.91188000000E+02 0.  0.
    9900012    2    3    3    0    0  0.22653310445E+02 -0.10901720449E+02  0.26902755772E+02  0.54367105782E+02  0.40000049252E+02 0.  0.
         12    1    3    3    0    0 -0.22653310445E+02  0.10901720449E+02 -0.26902755772E+02  0.36820894218E+02  0.00000000000E+00 0. -1.
         11    1    4    4    0    0  0.17655542393E+02 -0.29783260134E+01 -0.39903162090E+01  0.18344242332E+02  0.51100000000E-03 0. -1.
        -11    1    4    4    0    0  0.93102952467E+01 -0.98331250373E+01  0.25388240320E+02  0.28773854320E+02  0.51100000000E-03 0.  1.
         12    1    4    4    0    0 -0.43125271940E+01  0.19097306021E+01  0.55048316602E+01  0.72490091309E+01  0.00000000000E+00 0. -1.
</event>
<event>
 8    1  0.3106980E-007  0.9118800E+02  0.7816164E-02  0.1184000E+00
        -11   -1    0    0    0    0  0.00000000000E+00  0.00000000000E+00  0.45593999997E+02  0.45594000000E+02  0.51100000000E-03 0. -1.
         11   -1    0    0    0    0 -0.00000000000E+00 -0.00000000000E+00 -0.45593999997E+02  0.45594000000E+02  0.51100000000E-03 0.  1.
         23    2    1    2    0    0  0.88817841970E-15  0.00000000000E+00 -0.71054273576E-14  0.91188000000E+02  0.91188000000E+02 0.  0.
    9900012    2    3    3    0    0 -0.24463679737E+01  0.17398770765E+02  0.32358585038E+02  0.54367082493E+02  0.39999996159E+02 0.  0.
        -12    1    3    3    0    0  0.24463679737E+01 -0.17398770765E+02 -0.32358585038E+02  0.36820917507E+02  0.00000000000E+00 0.  1.
         11    1    4    4    0    0  0.91741346666E+01  0.90143455774E+01  0.21078726624E+02  0.24692830729E+02  0.51100000000E-03 0. -1.
        -11    1    4    4    0    0 -0.16856458051E+02  0.29545398570E+01  0.12976984155E+01  0.17162561150E+02  0.51100000000E-03 0.  1.
         12    1    4    4    0    0  0.52359554108E+01  0.54298853305E+01  0.99821599987E+01  0.12511690613E+02  0.00000000000E+00 0. -1.
</event>
<event>
 8    1  0.3106980E-007  0.9118800E+02  0.7816164E-02  0.1184000E+00
        -11   -1    0    0    0    0  0.00000000000E+00  0.00000000000E+00  0.45593999997E+02  0.45594000000E+02  0.51100000000E-03 0.  1.
         11   -1    0    0    0    0 -0.00000000000E+00 -0.00000000000E+00 -0.45593999997E+02  0.45594000000E+02  0.51100000000E-03 0. -1.
         23    2    1    2    0    0  0.00000000000E+00  0.00000000000E+00  0.00000000000E+00  0.91188000000E+02  0.91188000000E+02 0.  0.
    9900012    2    3    3    0    0 -0.11648213259E+02  0.21196816846E+02  0.27763237292E+02  0.54367037744E+02  0.39999894145E+02 0.  0.
         12    1    3    3    0    0  0.11648213259E+02 -0.21196816846E+02 -0.27763237292E+02  0.36820962256E+02  0.00000000000E+00 0. -1.
         11    1    4    4    0    0 -0.15365246677E+02 -0.37772522110E+01  0.26794021905E+01  0.16047979190E+02  0.51100000000E-03 0. -1.
        -11    1    4    4    0    0 -0.21668419716E+01  0.45799292584E+01  0.12866514911E+02  0.13828165546E+02  0.51100000000E-03 0.  1.
         12    1    4    4    0    0  0.58838753895E+01  0.20394139798E+02  0.12217320191E+02  0.24490893008E+02  0.00000000000E+00 0. -1.
</event>
<event>
 8    1  0.3106980E-007  0.9118800E+02  0.7816164E-02  0.1184000E+00
        -11   -1    0    0    0    0  0.00000000000E+00  0.00000000000E+00  0.45593999997E+02  0.45594000000E+02  0.51100000000E-03 0. -1.
         11   -1    0    0    0    0 -0.00000000000E+00 -0.00000000000E+00 -0.45593999997E+02  0.45594000000E+02  0.51100000000E-03 0.  1.
         23    2    1    2    0    0  0.00000000000E+00  0.35527136788E-14 -0.35527136788E-14  0.91188000000E+02  0.91188000000E+02 0.  0.
    9900012    2    3    3    0    0 -0.23382525759E+02 -0.21817385769E+02  0.18249369860E+02  0.54367077511E+02  0.39999984802E+02 0.  0.
        -12    1    3    3    0    0  0.23382525759E+02  0.21817385769E+02 -0.18249369860E+02  0.36820922489E+02  0.00000000000E+00 0.  1.
         11    1    4    4    0    0  0.33395374436E+01 -0.29243688974E+01  0.14369006158E+02  0.15039041925E+02  0.51100000000E-03 0. -1.
        -11    1    4    4    0    0 -0.10367833896E+02 -0.12765699159E+02 -0.79174405155E+01  0.18252148347E+02  0.51100000000E-03 0.  1.
         12    1    4    4    0    0 -0.16354229306E+02 -0.61273177126E+01  0.11797804218E+02  0.21075887239E+02  0.00000000000E+00 0. -1.
</event>
<event>
 8    1  0.3106980E-007  0.9118800E+02  0.7816164E-02  0.1184000E+00
        -11   -1    0    0    0    0  0.00000000000E+00  0.00000000000E+00  0.45593999997E+02  0.45594000000E+02  0.51100000000E-03 0. -1.
         11   -1    0    0    0    0 -0.00000000000E+00 -0.00000000000E+00 -0.45593999997E+02  0.45594000000E+02  0.51100000000E-03 0.  1.
         23    2    1    2    0    0  0.00000000000E+00  0.00000000000E+00  0.35527136788E-14  0.91188000000E+02  0.91188000000E+02 0.  0.
    9900012    2    3    3    0    0  0.20396689912E+02 -0.18554710687E+02 -0.24402414853E+02  0.54367080692E+02  0.39999992054E+02 0.  0.
         12    1    3    3    0    0 -0.20396689912E+02  0.18554710687E+02  0.24402414853E+02  0.36820919308E+02  0.00000000000E+00 0. -1.
         11    1    4    4    0    0  0.19977887703E+02  0.12223025977E+01 -0.19852229965E+02  0.28190797355E+02  0.51100000000E-03 0. -1.
        -11    1    4    4    0    0  0.76062696753E+01 -0.15134664470E+02 -0.11781164547E+01  0.16979439497E+02  0.51100000000E-03 0.  1.
         12    1    4    4    0    0 -0.71874674661E+01 -0.46423488145E+01 -0.33720684329E+01  0.91968438395E+01  0.00000000000E+00 0. -1.
</event>
<event>
 8    1  0.3106980E-007  0.9118800E+02  0.7816164E-02  0.1184000E+00
        -11   -1    0    0    0    0  0.00000000000E+00  0.00000000000E+00  0.45593999997E+02  0.45594000000E+02  0.51100000000E-03 0.  1.
         11   -1    0    0    0    0 -0.00000000000E+00 -0.00000000000E+00 -0.45593999997E+02  0.45594000000E+02  0.51100000000E-03 0. -1.
         23    2    1    2    0    0  0.00000000000E+00 -0.35527136788E-14  0.35527136788E-14  0.91188000000E+02  0.91188000000E+02 0.  0.
    9900012    2    3    3    0    0  0.59130601077E+01 -0.19976152783E+02  0.30360641516E+02  0.54367088643E+02  0.40000010180E+02 0.  0.
         12    1    3    3    0    0 -0.59130601077E+01  0.19976152783E+02 -0.30360641516E+02  0.36820911357E+02  0.00000000000E+00 0. -1.
         11    1    4    4    0    0  0.45129468606E+01  0.10266751550E+02  0.18505038595E+02  0.21638145263E+02  0.51100000000E-03 0.  1.
        -11    1    4    4    0    0 -0.10348258667E+01 -0.61882619208E+01  0.32463942291E+01  0.70643135496E+01  0.51100000000E-03 0. -1.
        -12    1    4    4    0    0  0.24349391138E+01 -0.24054642412E+02  0.86092086926E+01  0.25664629831E+02  0.00000000000E+00 0.  1.
</event>
<event>
 8    1  0.3106980E-007  0.9118800E+02  0.7816164E-02  0.1184000E+00
        -11   -1    0    0    0    0  0.00000000000E+00  0.00000000000E+00  0.45593999997E+02  0.45594000000E+02  0.51100000000E-03 0.  1.
         11   -1    0    0    0    0 -0.00000000000E+00 -0.00000000000E+00 -0.45593999997E+02  0.45594000000E+02  0.51100000000E-03 0. -1.
         23    2    1    2    0    0 -0.17763568394E-14 -0.71054273576E-14 -0.17763568394E-14  0.91188000000E+02  0.91188000000E+02 0.  0.
    9900012    2    3    3    0    0 -0.83303834291E+01 -0.34869605602E+02 -0.83961219713E+01  0.54367088183E+02  0.40000009130E+02 0.  0.
         12    1    3    3    0    0  0.83303834291E+01  0.34869605602E+02  0.83961219713E+01  0.36820911817E+02  0.00000000000E+00 0. -1.
         11    1    4    4    0    0 -0.17249983776E+02 -0.25572764293E+02  0.70119842910E+01  0.31633781592E+02  0.51100000000E-03 0.  1.
        -11    1    4    4    0    0  0.10878355497E+02 -0.72246840445E+01 -0.94229368871E+01  0.16103615051E+02  0.51100000000E-03 0. -1.
        -12    1    4    4    0    0 -0.19587551501E+01 -0.20721572643E+01 -0.59851693752E+01  0.66296915400E+01  0.00000000000E+00 0.  1.
</event>
<event>
 8    1  0.3106980E-007  0.9118800E+02  0.7816164E-02  0.1184000E+00
        -11   -1    0    0    0    0  0.00000000000E+00  0.00000000000E+00  0.45593999997E+02  0.45594000000E+02  0.51100000000E-03 0.  1.
         11   -1    0    0    0    0 -0.00000000000E+00 -0.00000000000E+00 -0.45593999997E+02  0.45594000000E+02  0.51100000000E-03 0. -1.
         23    2    1    2    0    0 -0.17763568394E-14  0.00000000000E+00  0.00000000000E+00  0.91188000000E+02  0.91188000000E+02 0.  0.
    9900012    2    3    3    0    0  0.44008164321E+01 -0.17579170417E+02  0.32052813434E+02  0.54367119146E+02  0.40000079718E+02 0.  0.
         12    1    3    3    0    0 -0.44008164321E+01  0.17579170417E+02 -0.32052813434E+02  0.36820880854E+02  0.00000000000E+00 0. -1.
         11    1    4    4    0    0  0.39575004492E+01 -0.61471687314E+01  0.15097813848E+02  0.16774786928E+02  0.51100000000E-03 0.  1.
        -11    1    4    4    0    0 -0.10345132892E+02 -0.12972982966E+02 -0.96273072879E+00  0.16620677252E+02  0.51100000000E-03 0. -1.
         12    1    4    4    0    0  0.10788448875E+02  0.15409812807E+01  0.17917730315E+02  0.20971654967E+02  0.00000000000E+00 0. -1.
</event>
<event>
 8    1  0.3106980E-007  0.9118800E+02  0.7816164E-02  0.1184000E+00
        -11   -1    0    0    0    0  0.00000000000E+00  0.00000000000E+00  0.45593999997E+02  0.45594000000E+02  0.51100000000E-03 0.  1.
         11   -1    0    0    0    0 -0.00000000000E+00 -0.00000000000E+00 -0.45593999997E+02  0.45594000000E+02  0.51100000000E-03 0. -1.
         23    2    1    2    0    0  0.00000000000E+00  0.00000000000E+00 -0.11102230246E-14  0.91188000000E+02  0.91188000000E+02 0.  0.
    9900012    2    3    3    0    0 -0.16701240372E+02 -0.32775650953E+02  0.16139018863E+01  0.54367090117E+02  0.40000013539E+02 0.  0.
        -12    1    3    3    0    0  0.16701240372E+02  0.32775650953E+02 -0.16139018863E+01  0.36820909883E+02  0.00000000000E+00 0.  1.
         11    1    4    4    0    0 -0.87883746436E+01 -0.24304452716E+01  0.83499525386E+01  0.12363830343E+02  0.51100000000E-03 0. -1.
        -11    1    4    4    0    0 -0.15195607389E+02 -0.78410721390E+01 -0.66581313372E+01  0.18349921236E+02  0.51100000000E-03 0.  1.
         12    1    4    4    0    0  0.72827416601E+01 -0.22504133542E+02 -0.77919315037E-01  0.23653338538E+02  0.00000000000E+00 0. -1.
</event>
<event>
 8    1  0.3106980E-007  0.9118800E+02  0.7816164E-02  0.1184000E+00
        -11   -1    0    0    0    0  0.00000000000E+00  0.00000000000E+00  0.45593999997E+02  0.45594000000E+02  0.51100000000E-03 0. -1.
         11   -1    0    0    0    0 -0.00000000000E+00 -0.00000000000E+00 -0.45593999997E+02  0.45594000000E+02  0.51100000000E-03 0.  1.
         23    2    1    2    0    0  0.35527136788E-14  0.17763568394E-14 -0.35527136788E-14  0.91188000000E+02  0.91188000000E+02 0.  0.
    9900012    2    3    3    0    0  0.23514872448E+02 -0.10652314298E+02 -0.26255648586E+02  0.54367080554E+02  0.39999991739E+02 0.  0.
         12    1    3    3    0    0 -0.23514872448E+02  0.10652314298E+02  0.26255648586E+02  0.36820919446E+02  0.00000000000E+00 0. -1.
         11    1    4    4    0    0  0.12665921750E+02  0.70324320576E+01  0.25114643523E+01  0.14703337304E+02  0.51100000000E-03 0. -1.
        -11    1    4    4    0    0  0.71638531019E+01 -0.20110986787E+02 -0.27959719986E+02  0.35178381469E+02  0.51100000000E-03 0.  1.
        -12    1    4    4    0    0  0.36850975966E+01  0.24262404316E+01 -0.80739295245E+00  0.44853617812E+01  0.00000000000E+00 0.  1.
</event>
<event>
 8    1  0.3106980E-007  0.9118800E+02  0.7816164E-02  0.1184000E+00
        -11   -1    0    0    0    0  0.00000000000E+00  0.00000000000E+00  0.45593999997E+02  0.45594000000E+02  0.51100000000E-03 0. -1.
         11   -1    0    0    0    0 -0.00000000000E+00 -0.00000000000E+00 -0.45593999997E+02  0.45594000000E+02  0.51100000000E-03 0.  1.
         23    2    1    2    0    0  0.88817841970E-15 -0.17763568394E-14  0.00000000000E+00  0.91188000000E+02  0.91188000000E+02 0.  0.
    9900012    2    3    3    0    0  0.47828928682E+01 -0.14539560364E+02 -0.33488835847E+02  0.54367122686E+02  0.40000087787E+02 0.  0.
         12    1    3    3    0    0 -0.47828928682E+01  0.14539560364E+02  0.33488835847E+02  0.36820877314E+02  0.00000000000E+00 0. -1.
         11    1    4    4    0    0  0.48509986684E+01 -0.13806679662E+02 -0.32556034690E+01  0.14991849304E+02  0.51100000000E-03 0. -1.
        -11    1    4    4    0    0  0.55019271660E+01 -0.94883134202E+01 -0.25905925996E+02  0.28132122140E+02  0.51100000000E-03 0.  1.
        -12    1    4    4    0    0 -0.55700329662E+01  0.87554327176E+01 -0.43273063823E+01  0.11243151242E+02  0.00000000000E+00 0.  1.
</event>
<event>
 8    1  0.3106980E-007  0.9118800E+02  0.7816164E-02  0.1184000E+00
        -11   -1    0    0    0    0  0.00000000000E+00  0.00000000000E+00  0.45593999997E+02  0.45594000000E+02  0.51100000000E-03 0. -1.
         11   -1    0    0    0    0 -0.00000000000E+00 -0.00000000000E+00 -0.45593999997E+02  0.45594000000E+02  0.51100000000E-03 0.  1.
         23    2    1    2    0    0 -0.35527136788E-14 -0.71054273576E-14 -0.35527136788E-14  0.91188000000E+02  0.91188000000E+02 0.  0.
    9900012    2    3    3    0    0  0.13492408635E+02 -0.32332131524E+02  0.11330074959E+02  0.54367049195E+02  0.39999920249E+02 0.  0.
        -12    1    3    3    0    0 -0.13492408635E+02  0.32332131524E+02 -0.11330074959E+02  0.36820950805E+02  0.00000000000E+00 0.  1.
         11    1    4    4    0    0  0.69577505528E-01 -0.21723878949E+01 -0.34114209831E+01  0.40449849913E+01  0.51100000000E-03 0. -1.
        -11    1    4    4    0    0  0.22127357876E+02 -0.13565095914E+02  0.17610093724E+02  0.31364744459E+02  0.51100000000E-03 0.  1.
         12    1    4    4    0    0 -0.87045267466E+01 -0.16594647715E+02 -0.28685977821E+01  0.18957319745E+02  0.00000000000E+00 0. -1.
</event>
<event>
 8    1  0.3106980E-007  0.9118800E+02  0.7816164E-02  0.1184000E+00
        -11   -1    0    0    0    0  0.00000000000E+00  0.00000000000E+00  0.45593999997E+02  0.45594000000E+02  0.51100000000E-03 0.  1.
         11   -1    0    0    0    0 -0.00000000000E+00 -0.00000000000E+00 -0.45593999997E+02  0.45594000000E+02  0.51100000000E-03 0. -1.
         23    2    1    2    0    0  0.35527136788E-14  0.00000000000E+00  0.88817841970E-15  0.91188000000E+02  0.91188000000E+02 0.  0.
    9900012    2    3    3    0    0  0.30996139308E+02  0.19488125924E+02  0.39033927537E+01  0.54367025285E+02  0.39999865741E+02 0.  0.
        -12    1    3    3    0    0 -0.30996139308E+02 -0.19488125924E+02 -0.39033927537E+01  0.36820974715E+02  0.00000000000E+00 0.  1.
         11    1    4    4    0    0 -0.12025868928E+01  0.49151724553E+01 -0.12695888385E+02  0.13667140068E+02  0.51100000000E-03 0. -1.
        -11    1    4    4    0    0  0.16282102742E+02  0.12989606003E+02  0.12081081794E+02  0.24078813746E+02  0.51100000000E-03 0.  1.
         12    1    4    4    0    0  0.15916623458E+02  0.15833474658E+01  0.45181993446E+01  0.16621071470E+02  0.00000000000E+00 0. -1.
</event>
<event>
 8    1  0.3106980E-007  0.9118800E+02  0.7816164E-02  0.1184000E+00
        -11   -1    0    0    0    0  0.00000000000E+00  0.00000000000E+00  0.45593999997E+02  0.45594000000E+02  0.51100000000E-03 0. -1.
         11   -1    0    0    0    0 -0.00000000000E+00 -0.00000000000E+00 -0.45593999997E+02  0.45594000000E+02  0.51100000000E-03 0.  1.
         23    2    1    2    0    0  0.00000000000E+00  0.00000000000E+00  0.00000000000E+00  0.91188000000E+02  0.91188000000E+02 0.  0.
    9900012    2    3    3    0    0 -0.19061028563E+02 -0.26894217293E+02  0.16406022667E+02  0.54367091355E+02  0.40000016362E+02 0.  0.
         12    1    3    3    0    0  0.19061028563E+02  0.26894217293E+02 -0.16406022667E+02  0.36820908645E+02  0.00000000000E+00 0. -1.
         11    1    4    4    0    0 -0.44979705083E+01 -0.10938428484E+02  0.13150462783E+02  0.17686594587E+02  0.51100000000E-03 0.  1.
        -11    1    4    4    0    0  0.41835947943E+01 -0.58041493489E+01  0.11729363840E+02  0.13739308258E+02  0.51100000000E-03 0. -1.
        -12    1    4    4    0    0 -0.18746652849E+02 -0.10151639460E+02 -0.84738039560E+01  0.22941188510E+02  0.00000000000E+00 0.  1.
</event>
<event>
 8    1  0.3106980E-007  0.9118800E+02  0.7816164E-02  0.1184000E+00
        -11   -1    0    0    0    0  0.00000000000E+00  0.00000000000E+00  0.45593999997E+02  0.45594000000E+02  0.51100000000E-03 0. -1.
         11   -1    0    0    0    0 -0.00000000000E+00 -0.00000000000E+00 -0.45593999997E+02  0.45594000000E+02  0.51100000000E-03 0.  1.
         23    2    1    2    0    0  0.00000000000E+00  0.88817841970E-15 -0.44408920985E-15  0.91188000000E+02  0.91188000000E+02 0.  0.
    9900012    2    3    3    0    0 -0.35821688600E+02  0.76394198069E+01  0.37717665472E+01  0.54367077523E+02  0.39999984830E+02 0.  0.
         12    1    3    3    0    0  0.35821688600E+02 -0.76394198069E+01 -0.37717665472E+01  0.36820922477E+02  0.00000000000E+00 0. -1.
         11    1    4    4    0    0 -0.70463946237E+01 -0.10102869460E+02 -0.83423517105E+01  0.14876642123E+02  0.51100000000E-03 0. -1.
        -11    1    4    4    0    0 -0.18127258002E+02  0.13235335212E+02 -0.40521793217E+00  0.22448514042E+02  0.51100000000E-03 0.  1.
         12    1    4    4    0    0 -0.10648035974E+02  0.45069540549E+01  0.12519336190E+02  0.17041921359E+02  0.00000000000E+00 0. -1.
</event>
<event>
 8    1  0.3106980E-007  0.9118800E+02  0.7816164E-02  0.1184000E+00
        -11   -1    0    0    0    0  0.00000000000E+00  0.00000000000E+00  0.45593999997E+02  0.45594000000E+02  0.51100000000E-03 0.  1.
         11   -1    0    0    0    0 -0.00000000000E+00 -0.00000000000E+00 -0.45593999997E+02  0.45594000000E+02  0.51100000000E-03 0. -1.
         23    2    1    2    0    0  0.35527136788E-14  0.00000000000E+00  0.88817841970E-15  0.91188000000E+02  0.91188000000E+02 0.  0.
    9900012    2    3    3    0    0  0.28771060090E+02 -0.22576383576E+02  0.42795757391E+01  0.54367058098E+02  0.39999940545E+02 0.  0.
         12    1    3    3    0    0 -0.28771060090E+02  0.22576383576E+02 -0.42795757391E+01  0.36820941902E+02  0.00000000000E+00 0. -1.
         11    1    4    4    0    0  0.65186547910E+01 -0.11351183492E+01  0.90574133780E+01  0.11216866377E+02  0.51100000000E-03 0. -1.
        -11    1    4    4    0    0  0.20427214166E+02 -0.86926691676E+01 -0.14928290093E+02  0.26752334874E+02  0.51100000000E-03 0.  1.
         12    1    4    4    0    0  0.18251911336E+01 -0.12748596059E+02  0.10150452455E+02  0.16397856847E+02  0.00000000000E+00 0. -1.
</event>
<event>
 8    1  0.3106980E-007  0.9118800E+02  0.7816164E-02  0.1184000E+00
        -11   -1    0    0    0    0  0.00000000000E+00  0.00000000000E+00  0.45593999997E+02  0.45594000000E+02  0.51100000000E-03 0.  1.
         11   -1    0    0    0    0 -0.00000000000E+00 -0.00000000000E+00 -0.45593999997E+02  0.45594000000E+02  0.51100000000E-03 0. -1.
         23    2    1    2    0    0  0.00000000000E+00  0.17763568394E-14  0.00000000000E+00  0.91188000000E+02  0.91188000000E+02 0.  0.
    9900012    2    3    3    0    0  0.33104313116E+02 -0.15808605538E+02  0.31579258328E+01  0.54367081333E+02  0.39999993515E+02 0.  0.
        -12    1    3    3    0    0 -0.33104313116E+02  0.15808605538E+02 -0.31579258328E+01  0.36820918667E+02  0.00000000000E+00 0.  1.
         11    1    4    4    0    0  0.14371660669E+02  0.36609144799E+01 -0.10520616322E+02  0.18183242100E+02  0.51100000000E-03 0.  1.
        -11    1    4    4    0    0  0.16337362506E+02 -0.22965228919E+02  0.83877292969E+01  0.29405189270E+02  0.51100000000E-03 0. -1.
         12    1    4    4    0    0  0.23952899403E+01  0.34957089015E+01  0.52908128580E+01  0.67786499629E+01  0.00000000000E+00 0. -1.
</event>
<event>
 8    1  0.3106980E-007  0.9118800E+02  0.7816164E-02  0.1184000E+00
        -11   -1    0    0    0    0  0.00000000000E+00  0.00000000000E+00  0.45593999997E+02  0.45594000000E+02  0.51100000000E-03 0. -1.
         11   -1    0    0    0    0 -0.00000000000E+00 -0.00000000000E+00 -0.45593999997E+02  0.45594000000E+02  0.51100000000E-03 0.  1.
         23    2    1    2    0    0 -0.49960036108E-15 -0.88817841970E-15  0.00000000000E+00  0.91188000000E+02  0.91188000000E+02 0.  0.
    9900012    2    3    3    0    0 -0.45112265777E+00 -0.62100263269E+01  0.36290635999E+02  0.54367106477E+02  0.40000050836E+02 0.  0.
        -12    1    3    3    0    0  0.45112265777E+00  0.62100263269E+01 -0.36290635999E+02  0.36820893523E+02  0.00000000000E+00 0.  1.
         11    1    4    4    0    0  0.13326472026E+02  0.42971324439E+01  0.33842693099E+01  0.14405328283E+02  0.51100000000E-03 0. -1.
        -11    1    4    4    0    0 -0.12442388948E+02 -0.13512122310E+02  0.22484573098E+02  0.29033541288E+02  0.51100000000E-03 0.  1.
         12    1    4    4    0    0 -0.13352057361E+01  0.30049635397E+01  0.10421793591E+02  0.10928236906E+02  0.00000000000E+00 0. -1.
</event>
<event>
 8    1  0.3106980E-007  0.9118800E+02  0.7816164E-02  0.1184000E+00
        -11   -1    0    0    0    0  0.00000000000E+00  0.00000000000E+00  0.45593999997E+02  0.45594000000E+02  0.51100000000E-03 0. -1.
         11   -1    0    0    0    0 -0.00000000000E+00 -0.00000000000E+00 -0.45593999997E+02  0.45594000000E+02  0.51100000000E-03 0.  1.
         23    2    1    2    0    0  0.00000000000E+00  0.00000000000E+00  0.00000000000E+00  0.91188000000E+02  0.91188000000E+02 0.  0.
    9900012    2    3    3    0    0  0.19201510475E+02  0.23179904209E+02  0.21208160360E+02  0.54366918681E+02  0.39999622715E+02 0.  0.
        -12    1    3    3    0    0 -0.19201510475E+02 -0.23179904209E+02 -0.21208160360E+02  0.36821081319E+02  0.00000000000E+00 0.  1.
         11    1    4    4    0    0  0.85050112173E+01  0.22995153040E+02  0.18969260282E+02  0.30999114746E+02  0.51100000000E-03 0. -1.
        -11    1    4    4    0    0  0.73413209864E+01  0.10250002860E+02  0.19206789309E+01  0.12753296055E+02  0.51100000000E-03 0.  1.
         12    1    4    4    0    0  0.33551782713E+01 -0.10065251691E+02  0.31822114698E+00  0.10614507880E+02  0.00000000000E+00 0. -1.
</event>
<event>
 8    1  0.3106980E-007  0.9118800E+02  0.7816164E-02  0.1184000E+00
        -11   -1    0    0    0    0  0.00000000000E+00  0.00000000000E+00  0.45593999997E+02  0.45594000000E+02  0.51100000000E-03 0.  1.
         11   -1    0    0    0    0 -0.00000000000E+00 -0.00000000000E+00 -0.45593999997E+02  0.45594000000E+02  0.51100000000E-03 0. -1.
         23    2    1    2    0    0  0.00000000000E+00  0.00000000000E+00  0.35527136788E-14  0.91188000000E+02  0.91188000000E+02 0.  0.
    9900012    2    3    3    0    0 -0.87890783869E+01 -0.17858637061E+02  0.30977397566E+02  0.54367109509E+02  0.40000057748E+02 0.  0.
         12    1    3    3    0    0  0.87890783869E+01  0.17858637061E+02 -0.30977397566E+02  0.36820890491E+02  0.00000000000E+00 0. -1.
         11    1    4    4    0    0  0.15356054735E+01 -0.30168259344E+01 -0.66742463896E+01  0.74836413609E+01  0.51100000000E-03 0. -1.
        -11    1    4    4    0    0  0.10533999736E+01 -0.92005695037E+01  0.31382998526E+02  0.32720830177E+02  0.51100000000E-03 0.  1.
         12    1    4    4    0    0 -0.11378083834E+02 -0.56412416229E+01  0.62686454296E+01  0.14162637971E+02  0.00000000000E+00 0. -1.
</event>
<event>
 8    1  0.3106980E-007  0.9118800E+02  0.7816164E-02  0.1184000E+00
        -11   -1    0    0    0    0  0.00000000000E+00  0.00000000000E+00  0.45593999997E+02  0.45594000000E+02  0.51100000000E-03 0. -1.
         11   -1    0    0    0    0 -0.00000000000E+00 -0.00000000000E+00 -0.45593999997E+02  0.45594000000E+02  0.51100000000E-03 0.  1.
         23    2    1    2    0    0  0.00000000000E+00  0.00000000000E+00  0.00000000000E+00  0.91188000000E+02  0.91188000000E+02 0.  0.
    9900012    2    3    3    0    0 -0.17376939281E+02 -0.32362437384E+02 -0.25484242217E+01  0.54367084229E+02  0.40000000117E+02 0.  0.
         12    1    3    3    0    0  0.17376939281E+02  0.32362437384E+02  0.25484242217E+01  0.36820915771E+02  0.00000000000E+00 0. -1.
         11    1    4    4    0    0 -0.20338650956E+02 -0.31305713298E+02 -0.54781706913E+01  0.37732197951E+02  0.51100000000E-03 0. -1.
        -11    1    4    4    0    0  0.27862963733E+01 -0.56333352345E+01  0.77551637932E+01  0.99820077672E+01  0.51100000000E-03 0.  1.
        -12    1    4    4    0    0  0.17541530196E+00  0.45766111487E+01 -0.48254173235E+01  0.66528785109E+01  0.00000000000E+00 0.  1.
</event>
<event>
 8    1  0.3106980E-007  0.9118800E+02  0.7816164E-02  0.1184000E+00
        -11   -1    0    0    0    0  0.00000000000E+00  0.00000000000E+00  0.45593999997E+02  0.45594000000E+02  0.51100000000E-03 0. -1.
         11   -1    0    0    0    0 -0.00000000000E+00 -0.00000000000E+00 -0.45593999997E+02  0.45594000000E+02  0.51100000000E-03 0.  1.
         23    2    1    2    0    0  0.00000000000E+00  0.00000000000E+00 -0.66613381478E-15  0.91188000000E+02  0.91188000000E+02 0.  0.
    9900012    2    3    3    0    0  0.10567826375E+02 -0.35257437160E+02 -0.10070019697E+01  0.54367083630E+02  0.39999998751E+02 0.  0.
        -12    1    3    3    0    0 -0.10567826375E+02  0.35257437160E+02  0.10070019697E+01  0.36820916370E+02  0.00000000000E+00 0.  1.
         11    1    4    4    0    0 -0.13990819317E+01 -0.13805320788E+02  0.28037944655E+01  0.14156467638E+02  0.51100000000E-03 0. -1.
        -11    1    4    4    0    0  0.73583360167E+01 -0.10598495855E+02  0.13879719064E+02  0.18950457115E+02  0.51100000000E-03 0.  1.
         12    1    4    4    0    0  0.46085722899E+01 -0.10853620516E+02 -0.17690515499E+02  0.21260158877E+02  0.00000000000E+00 0. -1.
</event>
<event>
 8    1  0.3106980E-007  0.9118800E+02  0.7816164E-02  0.1184000E+00
        -11   -1    0    0    0    0  0.00000000000E+00  0.00000000000E+00  0.45593999997E+02  0.45594000000E+02  0.51100000000E-03 0. -1.
         11   -1    0    0    0    0 -0.00000000000E+00 -0.00000000000E+00 -0.45593999997E+02  0.45594000000E+02  0.51100000000E-03 0.  1.
         23    2    1    2    0    0 -0.76761513812E-16 -0.35527136788E-14  0.35527136788E-14  0.91188000000E+02  0.91188000000E+02 0.  0.
    9900012    2    3    3    0    0  0.37879825212E-02 -0.21842874311E+02 -0.29642339484E+02  0.54367089329E+02  0.40000011744E+02 0.  0.
         12    1    3    3    0    0 -0.37879825212E-02  0.21842874311E+02  0.29642339484E+02  0.36820910671E+02  0.00000000000E+00 0. -1.
         11    1    4    4    0    0  0.26062467718E+01 -0.27745067320E+01 -0.14879055019E+02  0.15358277519E+02  0.51100000000E-03 0.  1.
        -11    1    4    4    0    0  0.50235501651E+00  0.36429886766E+01 -0.15642890483E+02  0.16069341927E+02  0.51100000000E-03 0. -1.
         12    1    4    4    0    0 -0.31048138058E+01 -0.22711356256E+02  0.87960601729E+00  0.22939469883E+02  0.00000000000E+00 0. -1.
</event>
<event>
 8    1  0.3106980E-007  0.9118800E+02  0.7816164E-02  0.1184000E+00
        -11   -1    0    0    0    0  0.00000000000E+00  0.00000000000E+00  0.45593999997E+02  0.45594000000E+02  0.51100000000E-03 0. -1.
         11   -1    0    0    0    0 -0.00000000000E+00 -0.00000000000E+00 -0.45593999997E+02  0.45594000000E+02  0.51100000000E-03 0.  1.
         23    2    1    2    0    0  0.00000000000E+00  0.00000000000E+00  0.17763568394E-14  0.91188000000E+02  0.91188000000E+02 0.  0.
    9900012    2    3    3    0    0 -0.12304927116E+02 -0.32381565129E+02  0.12482109597E+02  0.54367081332E+02  0.39999993513E+02 0.  0.
        -12    1    3    3    0    0  0.12304927116E+02  0.32381565129E+02 -0.12482109597E+02  0.36820918668E+02  0.00000000000E+00 0.  1.
         11    1    4    4    0    0 -0.80694010184E+01  0.27682336639E+00  0.95795836203E+01  0.12528379248E+02  0.51100000000E-03 0.  1.
        -11    1    4    4    0    0 -0.74251551906E+01 -0.23803376510E+02  0.12928624818E+02  0.28087061128E+02  0.51100000000E-03 0. -1.
        -12    1    4    4    0    0  0.31896290926E+01 -0.88550119857E+01 -0.10026098842E+02  0.13751640956E+02  0.00000000000E+00 0.  1.
</event>
<event>
 8    1  0.3106980E-007  0.9118800E+02  0.7816164E-02  0.1184000E+00
        -11   -1    0    0    0    0  0.00000000000E+00  0.00000000000E+00  0.45593999997E+02  0.45594000000E+02  0.51100000000E-03 0. -1.
         11   -1    0    0    0    0 -0.00000000000E+00 -0.00000000000E+00 -0.45593999997E+02  0.45594000000E+02  0.51100000000E-03 0.  1.
         23    2    1    2    0    0  0.00000000000E+00  0.00000000000E+00  0.17763568394E-14  0.91188000000E+02  0.91188000000E+02 0.  0.
    9900012    2    3    3    0    0  0.51580667519E+01 -0.34186936590E+02 -0.12666045186E+02  0.54367068633E+02  0.39999964563E+02 0.  0.
         12    1    3    3    0    0 -0.51580667519E+01  0.34186936590E+02  0.12666045186E+02  0.36820931367E+02  0.00000000000E+00 0. -1.
         11    1    4    4    0    0 -0.23412015471E+01 -0.16123101644E+02 -0.25450421202E+01  0.16489780803E+02  0.51100000000E-03 0. -1.
        -11    1    4    4    0    0  0.13853742737E+02 -0.23935963861E+02 -0.93367521514E+01  0.29189578531E+02  0.51100000000E-03 0.  1.
        -12    1    4    4    0    0 -0.63544744383E+01  0.58721289143E+01 -0.78425091465E+00  0.86877092993E+01  0.00000000000E+00 0.  1.
</event>
<event>
 8    1  0.3106980E-007  0.9118800E+02  0.7816164E-02  0.1184000E+00
        -11   -1    0    0    0    0  0.00000000000E+00  0.00000000000E+00  0.45593999997E+02  0.45594000000E+02  0.51100000000E-03 0.  1.
         11   -1    0    0    0    0 -0.00000000000E+00 -0.00000000000E+00 -0.45593999997E+02  0.45594000000E+02  0.51100000000E-03 0. -1.
         23    2    1    2    0    0  0.00000000000E+00  0.00000000000E+00  0.00000000000E+00  0.91188000000E+02  0.91188000000E+02 0.  0.
    9900012    2    3    3    0    0  0.21822046735E+02 -0.12736063427E+02  0.26783839797E+02  0.54367039806E+02  0.39999898846E+02 0.  0.
         12    1    3    3    0    0 -0.21822046735E+02  0.12736063427E+02 -0.26783839797E+02  0.36820960194E+02  0.00000000000E+00 0. -1.
         11    1    4    4    0    0  0.10426881258E+02  0.79401219254E+01  0.49159149253E+01  0.13997557243E+02  0.51100000000E-03 0. -1.
        -11    1    4    4    0    0 -0.61250587900E+01 -0.12123814625E+02  0.13508259157E+02  0.19156625276E+02  0.51100000000E-03 0.  1.
         12    1    4    4    0    0  0.17520224267E+02 -0.85523707272E+01  0.83596657150E+01  0.21212857287E+02  0.00000000000E+00 0. -1.
</event>
<event>
 8    1  0.3106980E-007  0.9118800E+02  0.7816164E-02  0.1184000E+00
        -11   -1    0    0    0    0  0.00000000000E+00  0.00000000000E+00  0.45593999997E+02  0.45594000000E+02  0.51100000000E-03 0. -1.
         11   -1    0    0    0    0 -0.00000000000E+00 -0.00000000000E+00 -0.45593999997E+02  0.45594000000E+02  0.51100000000E-03 0.  1.
         23    2    1    2    0    0  0.00000000000E+00  0.00000000000E+00 -0.35527136788E-14  0.91188000000E+02  0.91188000000E+02 0.  0.
    9900012    2    3    3    0    0 -0.19902749535E+02 -0.16679532441E+02  0.26104641987E+02  0.54367101386E+02  0.40000039229E+02 0.  0.
        -12    1    3    3    0    0  0.19902749535E+02  0.16679532441E+02 -0.26104641987E+02  0.36820898614E+02  0.00000000000E+00 0.  1.
         11    1    4    4    0    0 -0.24039404588E+01 -0.15408305937E+02  0.17112806262E+02  0.23152601582E+02  0.51100000000E-03 0. -1.
        -11    1    4    4    0    0  0.15112748401E+01 -0.62908823384E+01  0.95613218995E+01  0.11544610386E+02  0.51100000000E-03 0.  1.
        -12    1    4    4    0    0 -0.19010083917E+02  0.50196558344E+01 -0.56948617458E+00  0.19669889418E+02  0.00000000000E+00 0.  1.
</event>
<event>
 8    1  0.3106980E-007  0.9118800E+02  0.7816164E-02  0.1184000E+00
        -11   -1    0    0    0    0  0.00000000000E+00  0.00000000000E+00  0.45593999997E+02  0.45594000000E+02  0.51100000000E-03 0.  1.
         11   -1    0    0    0    0 -0.00000000000E+00 -0.00000000000E+00 -0.45593999997E+02  0.45594000000E+02  0.51100000000E-03 0. -1.
         23    2    1    2    0    0 -0.17763568394E-14  0.35527136788E-14  0.00000000000E+00  0.91188000000E+02  0.91188000000E+02 0.  0.
    9900012    2    3    3    0    0 -0.12639418781E+02  0.24857020974E+02  0.24044737074E+02  0.54367139339E+02  0.40000125752E+02 0.  0.
         12    1    3    3    0    0  0.12639418781E+02 -0.24857020974E+02 -0.24044737074E+02  0.36820860661E+02  0.00000000000E+00 0. -1.
         11    1    4    4    0    0 -0.36822870527E+01  0.38529159052E+01  0.10197867002E+02  0.11506549898E+02  0.51100000000E-03 0. -1.
        -11    1    4    4    0    0  0.78037421430E+01 -0.27237879130E+01 -0.35540630791E+01  0.89971538089E+01  0.51100000000E-03 0.  1.
         12    1    4    4    0    0 -0.16760873872E+02  0.23727892982E+02  0.17400933151E+02  0.33863435632E+02  0.00000000000E+00 0. -1.
</event>
<event>
 8    1  0.3106980E-007  0.9118800E+02  0.7816164E-02  0.1184000E+00
        -11   -1    0    0    0    0  0.00000000000E+00  0.00000000000E+00  0.45593999997E+02  0.45594000000E+02  0.51100000000E-03 0.  1.
         11   -1    0    0    0    0 -0.00000000000E+00 -0.00000000000E+00 -0.45593999997E+02  0.45594000000E+02  0.51100000000E-03 0. -1.
         23    2    1    2    0    0  0.44408920985E-15 -0.11102230246E-14  0.00000000000E+00  0.91188000000E+02  0.91188000000E+02 0.  0.
    9900012    2    3    3    0    0 -0.27957581630E+01  0.14499628764E+01  0.36685969877E+02  0.54367095043E+02  0.40000024769E+02 0.  0.
         12    1    3    3    0    0  0.27957581630E+01 -0.14499628764E+01 -0.36685969877E+02  0.36820904957E+02  0.00000000000E+00 0. -1.
         11    1    4    4    0    0 -0.58323478021E+01 -0.76259598279E+01 -0.91133879951E+00  0.96437587511E+01  0.51100000000E-03 0. -1.
        -11    1    4    4    0    0 -0.66632841799E+01 -0.34100045531E+01  0.68378875689E+01  0.10138253981E+02  0.51100000000E-03 0.  1.
        -12    1    4    4    0    0  0.96998738190E+01  0.12485927257E+02  0.30759421108E+02  0.34585082311E+02  0.00000000000E+00 0.  1.
</event>
<event>
 8    1  0.3106980E-007  0.9118800E+02  0.7816164E-02  0.1184000E+00
        -11   -1    0    0    0    0  0.00000000000E+00  0.00000000000E+00  0.45593999997E+02  0.45594000000E+02  0.51100000000E-03 0. -1.
         11   -1    0    0    0    0 -0.00000000000E+00 -0.00000000000E+00 -0.45593999997E+02  0.45594000000E+02  0.51100000000E-03 0.  1.
         23    2    1    2    0    0  0.00000000000E+00  0.00000000000E+00 -0.88817841970E-15  0.91188000000E+02  0.91188000000E+02 0.  0.
    9900012    2    3    3    0    0  0.36322246584E+02  0.43770170038E+01 -0.41611547370E+01  0.54367094477E+02  0.40000023479E+02 0.  0.
         12    1    3    3    0    0 -0.36322246584E+02 -0.43770170038E+01  0.41611547370E+01  0.36820905523E+02  0.00000000000E+00 0. -1.
         11    1    4    4    0    0 -0.45692875439E+01  0.50195061085E+00  0.87351399626E+01  0.98708162531E+01  0.51100000000E-03 0. -1.
        -11    1    4    4    0    0  0.32594882491E+02 -0.36392318932E+00 -0.13215507381E+02  0.35173973906E+02  0.51100000000E-03 0.  1.
         12    1    4    4    0    0  0.82966516369E+01  0.42389895823E+01  0.31921268173E+00  0.93223043181E+01  0.00000000000E+00 0. -1.
</event>
<event>
 8    1  0.3106980E-007  0.9118800E+02  0.7816164E-02  0.1184000E+00
        -11   -1    0    0    0    0  0.00000000000E+00  0.00000000000E+00  0.45593999997E+02  0.45594000000E+02  0.51100000000E-03 0.  1.
         11   -1    0    0    0    0 -0.00000000000E+00 -0.00000000000E+00 -0.45593999997E+02  0.45594000000E+02  0.51100000000E-03 0. -1.
         23    2    1    2    0    0  0.17763568394E-14  0.35527136788E-14 -0.35527136788E-14  0.91188000000E+02  0.91188000000E+02 0.  0.
    9900012    2    3    3    0    0  0.87516130987E+01  0.23708122396E+02 -0.26779015687E+02  0.54367061927E+02  0.39999949275E+02 0.  0.
        -12    1    3    3    0    0 -0.87516130987E+01 -0.23708122396E+02  0.26779015687E+02  0.36820938073E+02  0.00000000000E+00 0.  1.
         11    1    4    4    0    0  0.11486586354E+02 -0.60730215502E+00  0.42744814101E+01  0.12271172461E+02  0.51100000000E-03 0.  1.
        -11    1    4    4    0    0 -0.23256956726E+01  0.23708054188E+02 -0.32604959168E+02  0.40380243391E+02  0.51100000000E-03 0. -1.
         12    1    4    4    0    0 -0.40927758291E+00  0.60737036348E+00  0.15514620706E+01  0.17156460751E+01  0.00000000000E+00 0. -1.
</event>
<event>
 8    1  0.3106980E-007  0.9118800E+02  0.7816164E-02  0.1184000E+00
        -11   -1    0    0    0    0  0.00000000000E+00  0.00000000000E+00  0.45593999997E+02  0.45594000000E+02  0.51100000000E-03 0.  1.
         11   -1    0    0    0    0 -0.00000000000E+00 -0.00000000000E+00 -0.45593999997E+02  0.45594000000E+02  0.51100000000E-03 0. -1.
         23    2    1    2    0    0 -0.71054273576E-14  0.00000000000E+00  0.00000000000E+00  0.91188000000E+02  0.91188000000E+02 0.  0.
    9900012    2    3    3    0    0  0.21019878623E+02 -0.27452708451E+02  0.12660227680E+02  0.54367246837E+02  0.40000370812E+02 0.  0.
         12    1    3    3    0    0 -0.21019878623E+02  0.27452708451E+02 -0.12660227680E+02  0.36820753163E+02  0.00000000000E+00 0. -1.
         11    1    4    4    0    0  0.17362487383E+02  0.24030598947E+01  0.12713310271E+02  0.21653150424E+02  0.51100000000E-03 0. -1.
        -11    1    4    4    0    0  0.56919772205E+01 -0.28880904023E+02 -0.23048603665E+01  0.29526557596E+02  0.51100000000E-03 0.  1.
        -12    1    4    4    0    0 -0.20345859803E+01 -0.97486432215E+00  0.22517777752E+01  0.31875388165E+01  0.00000000000E+00 0.  1.
</event>
<event>
 8    1  0.3106980E-007  0.9118800E+02  0.7816164E-02  0.1184000E+00
        -11   -1    0    0    0    0  0.00000000000E+00  0.00000000000E+00  0.45593999997E+02  0.45594000000E+02  0.51100000000E-03 0. -1.
         11   -1    0    0    0    0 -0.00000000000E+00 -0.00000000000E+00 -0.45593999997E+02  0.45594000000E+02  0.51100000000E-03 0.  1.
         23    2    1    2    0    0  0.00000000000E+00  0.00000000000E+00  0.35527136788E-14  0.91188000000E+02  0.91188000000E+02 0.  0.
    9900012    2    3    3    0    0 -0.16085009886E+02  0.20537124347E+02 -0.25986126061E+02  0.54367085194E+02  0.40000002318E+02 0.  0.
         12    1    3    3    0    0  0.16085009886E+02 -0.20537124347E+02  0.25986126061E+02  0.36820914806E+02  0.00000000000E+00 0. -1.
         11    1    4    4    0    0 -0.46570293679E+01  0.12088573239E+02 -0.17265971116E+02  0.21585534144E+02  0.51100000000E-03 0. -1.
        -11    1    4    4    0    0  0.65152526879E+01  0.55079634728E+01 -0.11571682591E+02  0.14376717896E+02  0.51100000000E-03 0.  1.
         12    1    4    4    0    0 -0.17943233206E+02  0.29405876356E+01  0.28515276456E+01  0.18404833154E+02  0.00000000000E+00 0. -1.
</event>
<event>
 8    1  0.3106980E-007  0.9118800E+02  0.7816164E-02  0.1184000E+00
        -11   -1    0    0    0    0  0.00000000000E+00  0.00000000000E+00  0.45593999997E+02  0.45594000000E+02  0.51100000000E-03 0. -1.
         11   -1    0    0    0    0 -0.00000000000E+00 -0.00000000000E+00 -0.45593999997E+02  0.45594000000E+02  0.51100000000E-03 0.  1.
         23    2    1    2    0    0  0.71054273576E-14  0.44408920985E-15 -0.35527136788E-14  0.91188000000E+02  0.91188000000E+02 0.  0.
    9900012    2    3    3    0    0  0.31031359466E+02  0.30534034484E+01 -0.19583432597E+02  0.54367090516E+02  0.40000014450E+02 0.  0.
         12    1    3    3    0    0 -0.31031359466E+02 -0.30534034484E+01  0.19583432597E+02  0.36820909484E+02  0.00000000000E+00 0. -1.
         11    1    4    4    0    0  0.29408264611E+02 -0.10690752882E+01 -0.17243939962E+02  0.34107805779E+02  0.51100000000E-03 0. -1.
        -11    1    4    4    0    0 -0.21893984135E+01  0.25005226038E+01 -0.10550818069E+02  0.11061909459E+02  0.51100000000E-03 0.  1.
         12    1    4    4    0    0  0.38124932686E+01  0.16219561328E+01  0.82113254340E+01  0.91973752780E+01  0.00000000000E+00 0. -1.
</event>
<event>
 8    1  0.3106980E-007  0.9118800E+02  0.7816164E-02  0.1184000E+00
        -11   -1    0    0    0    0  0.00000000000E+00  0.00000000000E+00  0.45593999997E+02  0.45594000000E+02  0.51100000000E-03 0.  1.
         11   -1    0    0    0    0 -0.00000000000E+00 -0.00000000000E+00 -0.45593999997E+02  0.45594000000E+02  0.51100000000E-03 0. -1.
         23    2    1    2    0    0 -0.17763568394E-14 -0.35527136788E-14  0.00000000000E+00  0.91188000000E+02  0.91188000000E+02 0.  0.
    9900012    2    3    3    0    0  0.15629380945E+02 -0.56628371299E+01  0.32854777005E+02  0.54367059693E+02  0.39999944181E+02 0.  0.
         12    1    3    3    0    0 -0.15629380945E+02  0.56628371299E+01 -0.32854777005E+02  0.36820940307E+02  0.00000000000E+00 0. -1.
         11    1    4    4    0    0 -0.23333145513E-01  0.84048207598E+01 -0.26390612940E+01  0.88094381895E+01  0.51100000000E-03 0. -1.
        -11    1    4    4    0    0  0.17756572008E+01  0.28182880077E+01 -0.57798970702E+00  0.33807954909E+01  0.51100000000E-03 0.  1.
        -12    1    4    4    0    0  0.13877056889E+02 -0.16885945897E+02  0.36071828006E+02  0.42176826012E+02  0.00000000000E+00 0.  1.
</event>
<event>
 8    1  0.3106980E-007  0.9118800E+02  0.7816164E-02  0.1184000E+00
        -11   -1    0    0    0    0  0.00000000000E+00  0.00000000000E+00  0.45593999997E+02  0.45594000000E+02  0.51100000000E-03 0.  1.
         11   -1    0    0    0    0 -0.00000000000E+00 -0.00000000000E+00 -0.45593999997E+02  0.45594000000E+02  0.51100000000E-03 0. -1.
         23    2    1    2    0    0  0.00000000000E+00  0.17763568394E-14  0.00000000000E+00  0.91188000000E+02  0.91188000000E+02 0.  0.
    9900012    2    3    3    0    0  0.32080924499E+02  0.82289593698E+01 -0.16089654198E+02  0.54367102927E+02  0.40000042744E+02 0.  0.
        -12    1    3    3    0    0 -0.32080924499E+02 -0.82289593698E+01  0.16089654198E+02  0.36820897073E+02  0.00000000000E+00 0.  1.
         11    1    4    4    0    0  0.30268812094E+02 -0.59878960345E+01 -0.72858577748E+01  0.31703936795E+02  0.51100000000E-03 0. -1.
        -11    1    4    4    0    0 -0.18912835224E+01  0.72704673694E+01  0.33156407758E+01  0.82115846916E+01  0.51100000000E-03 0.  1.
         12    1    4    4    0    0  0.37033959271E+01  0.69463880349E+01 -0.12119437199E+02  0.14451581441E+02  0.00000000000E+00 0. -1.
</event>
<event>
 8    1  0.3106980E-007  0.9118800E+02  0.7816164E-02  0.1184000E+00
        -11   -1    0    0    0    0  0.00000000000E+00  0.00000000000E+00  0.45593999997E+02  0.45594000000E+02  0.51100000000E-03 0. -1.
         11   -1    0    0    0    0 -0.00000000000E+00 -0.00000000000E+00 -0.45593999997E+02  0.45594000000E+02  0.51100000000E-03 0.  1.
         23    2    1    2    0    0  0.00000000000E+00  0.17763568394E-14  0.00000000000E+00  0.91188000000E+02  0.91188000000E+02 0.  0.
    9900012    2    3    3    0    0 -0.18790509507E+02 -0.92952428000E+01 -0.30270402300E+02  0.54367054308E+02  0.39999931906E+02 0.  0.
         12    1    3    3    0    0  0.18790509507E+02  0.92952428000E+01  0.30270402300E+02  0.36820945692E+02  0.00000000000E+00 0. -1.
         11    1    4    4    0    0 -0.44659319352E+01 -0.10866120500E+02  0.32367861162E+01  0.12185807622E+02  0.51100000000E-03 0. -1.
        -11    1    4    4    0    0 -0.13971416382E+02  0.92649986569E+01 -0.28270821947E+02  0.32867613994E+02  0.51100000000E-03 0.  1.
         12    1    4    4    0    0 -0.35316119001E+00 -0.76941209570E+01 -0.52363664696E+01  0.93136326925E+01  0.00000000000E+00 0. -1.
</event>
<event>
 8    1  0.3106980E-007  0.9118800E+02  0.7816164E-02  0.1184000E+00
        -11   -1    0    0    0    0  0.00000000000E+00  0.00000000000E+00  0.45593999997E+02  0.45594000000E+02  0.51100000000E-03 0.  1.
         11   -1    0    0    0    0 -0.00000000000E+00 -0.00000000000E+00 -0.45593999997E+02  0.45594000000E+02  0.51100000000E-03 0. -1.
         23    2    1    2    0    0 -0.35527136788E-14  0.00000000000E+00  0.35527136788E-14  0.91188000000E+02  0.91188000000E+02 0.  0.
    9900012    2    3    3    0    0 -0.31087981793E+02 -0.15124316200E+02  0.12671704195E+02  0.54367086925E+02  0.40000006262E+02 0.  0.
         12    1    3    3    0    0  0.31087981793E+02  0.15124316200E+02 -0.12671704195E+02  0.36820913075E+02  0.00000000000E+00 0. -1.
         11    1    4    4    0    0 -0.96563078430E+01 -0.44170464105E+01 -0.11703593708E+02  0.15802806272E+02  0.51100000000E-03 0. -1.
        -11    1    4    4    0    0  0.23219055923E+01 -0.36447725272E+01  0.86924865937E+00  0.44080841470E+01  0.51100000000E-03 0.  1.
        -12    1    4    4    0    0 -0.23753579543E+02 -0.70624972622E+01  0.23506049243E+02  0.34156196505E+02  0.00000000000E+00 0.  1.
</event>
<event>
 8    1  0.3106980E-007  0.9118800E+02  0.7816164E-02  0.1184000E+00
        -11   -1    0    0    0    0  0.00000000000E+00  0.00000000000E+00  0.45593999997E+02  0.45594000000E+02  0.51100000000E-03 0. -1.
         11   -1    0    0    0    0 -0.00000000000E+00 -0.00000000000E+00 -0.45593999997E+02  0.45594000000E+02  0.51100000000E-03 0.  1.
         23    2    1    2    0    0  0.00000000000E+00  0.41633363423E-15  0.35527136788E-14  0.91188000000E+02  0.91188000000E+02 0.  0.
    9900012    2    3    3    0    0 -0.30909779215E+02 -0.56826830372E-01  0.20009036719E+02  0.54367092477E+02  0.40000018920E+02 0.  0.
        -12    1    3    3    0    0  0.30909779215E+02  0.56826830372E-01 -0.20009036719E+02  0.36820907523E+02  0.00000000000E+00 0.  1.
         11    1    4    4    0    0 -0.18488310427E+02  0.11314567515E+02  0.18031516877E+00  0.21676475136E+02  0.51100000000E-03 0. -1.
        -11    1    4    4    0    0  0.42886777076E+01 -0.59934561639E+01  0.10452011819E+02  0.12789011869E+02  0.51100000000E-03 0.  1.
        -12    1    4    4    0    0 -0.16710146495E+02 -0.53779381816E+01  0.93767097312E+01  0.19901605472E+02  0.00000000000E+00 0.  1.
</event>
<event>
 8    1  0.3106980E-007  0.9118800E+02  0.7816164E-02  0.1184000E+00
        -11   -1    0    0    0    0  0.00000000000E+00  0.00000000000E+00  0.45593999997E+02  0.45594000000E+02  0.51100000000E-03 0.  1.
         11   -1    0    0    0    0 -0.00000000000E+00 -0.00000000000E+00 -0.45593999997E+02  0.45594000000E+02  0.51100000000E-03 0. -1.
         23    2    1    2    0    0  0.00000000000E+00 -0.19984014443E-14  0.88817841970E-15  0.91188000000E+02  0.91188000000E+02 0.  0.
    9900012    2    3    3    0    0 -0.36452569628E+02  0.23451968799E+00 -0.51900767087E+01  0.54367058564E+02  0.39999941608E+02 0.  0.
         12    1    3    3    0    0  0.36452569628E+02 -0.23451968799E+00  0.51900767087E+01  0.36820941436E+02  0.00000000000E+00 0. -1.
         11    1    4    4    0    0 -0.20634213714E+01 -0.17612357689E+01 -0.74538196328E+01  0.79321552285E+01  0.51100000000E-03 0. -1.
        -11    1    4    4    0    0 -0.49717702429E+01  0.13763620003E+02 -0.39797389918E+00  0.14639471248E+02  0.51100000000E-03 0.  1.
        -12    1    4    4    0    0 -0.29417378014E+02 -0.11767864546E+02  0.26617168233E+01  0.31795432088E+02  0.00000000000E+00 0.  1.
</event>
<event>
 8    1  0.3106980E-007  0.9118800E+02  0.7816164E-02  0.1184000E+00
        -11   -1    0    0    0    0  0.00000000000E+00  0.00000000000E+00  0.45593999997E+02  0.45594000000E+02  0.51100000000E-03 0. -1.
         11   -1    0    0    0    0 -0.00000000000E+00 -0.00000000000E+00 -0.45593999997E+02  0.45594000000E+02  0.51100000000E-03 0.  1.
         23    2    1    2    0    0 -0.88817841970E-15  0.00000000000E+00  0.00000000000E+00  0.91188000000E+02  0.91188000000E+02 0.  0.
    9900012    2    3    3    0    0 -0.25782574521E+01  0.16305892646E+02 -0.32912739407E+02  0.54367109710E+02  0.40000058206E+02 0.  0.
         12    1    3    3    0    0  0.25782574521E+01 -0.16305892646E+02  0.32912739407E+02  0.36820890290E+02  0.00000000000E+00 0. -1.
         11    1    4    4    0    0  0.94989989458E+01  0.79965804944E+01 -0.12326121425E+02  0.17495986689E+02  0.51100000000E-03 0. -1.
        -11    1    4    4    0    0 -0.18751835999E+02  0.83588626407E+01 -0.69264763446E+01  0.21667441307E+02  0.51100000000E-03 0.  1.
         12    1    4    4    0    0  0.66745796010E+01 -0.49550489281E-01 -0.13660141638E+02  0.15203681714E+02  0.00000000000E+00 0. -1.
</event>
<event>
 8    1  0.3106980E-007  0.9118800E+02  0.7816164E-02  0.1184000E+00
        -11   -1    0    0    0    0  0.00000000000E+00  0.00000000000E+00  0.45593999997E+02  0.45594000000E+02  0.51100000000E-03 0.  1.
         11   -1    0    0    0    0 -0.00000000000E+00 -0.00000000000E+00 -0.45593999997E+02  0.45594000000E+02  0.51100000000E-03 0. -1.
         23    2    1    2    0    0  0.71054273576E-14  0.00000000000E+00  0.00000000000E+00  0.91188000000E+02  0.91188000000E+02 0.  0.
    9900012    2    3    3    0    0 -0.32479761837E+02  0.10171572456E+02 -0.14049495000E+02  0.54367026018E+02  0.39999867414E+02 0.  0.
        -12    1    3    3    0    0  0.32479761837E+02 -0.10171572456E+02  0.14049495000E+02  0.36820973982E+02  0.00000000000E+00 0.  1.
         11    1    4    4    0    0  0.14809751106E+01  0.21150265262E+01  0.52384189503E+01  0.58401761827E+01  0.51100000000E-03 0. -1.
        -11    1    4    4    0    0 -0.33286138355E+02 -0.17443645292E+01 -0.95003628513E+01  0.34659294695E+02  0.51100000000E-03 0.  1.
         12    1    4    4    0    0 -0.67459859299E+00  0.98009104585E+01 -0.97875510987E+01  0.13867555141E+02  0.00000000000E+00 0. -1.
</event>
<event>
 8    1  0.3106980E-007  0.9118800E+02  0.7816164E-02  0.1184000E+00
        -11   -1    0    0    0    0  0.00000000000E+00  0.00000000000E+00  0.45593999997E+02  0.45594000000E+02  0.51100000000E-03 0.  1.
         11   -1    0    0    0    0 -0.00000000000E+00 -0.00000000000E+00 -0.45593999997E+02  0.45594000000E+02  0.51100000000E-03 0. -1.
         23    2    1    2    0    0  0.33306690739E-15  0.00000000000E+00  0.00000000000E+00  0.91188000000E+02  0.91188000000E+02 0.  0.
    9900012    2    3    3    0    0 -0.46595464639E+00  0.15840814362E+02  0.33235995813E+02  0.54367082968E+02  0.39999997242E+02 0.  0.
         12    1    3    3    0    0  0.46595464639E+00 -0.15840814362E+02 -0.33235995813E+02  0.36820917032E+02  0.00000000000E+00 0. -1.
         11    1    4    4    0    0  0.12948859438E+02  0.40500292703E+01  0.50196078915E+01  0.14466242134E+02  0.51100000000E-03 0. -1.
        -11    1    4    4    0    0 -0.73221650103E+01  0.99456826314E+01  0.15053897006E+01  0.12441740307E+02  0.51100000000E-03 0.  1.
         12    1    4    4    0    0 -0.60926490737E+01  0.18451024600E+01  0.26710998221E+02  0.27459100528E+02  0.00000000000E+00 0. -1.
</event>
<event>
 8    1  0.3106980E-007  0.9118800E+02  0.7816164E-02  0.1184000E+00
        -11   -1    0    0    0    0  0.00000000000E+00  0.00000000000E+00  0.45593999997E+02  0.45594000000E+02  0.51100000000E-03 0.  1.
         11   -1    0    0    0    0 -0.00000000000E+00 -0.00000000000E+00 -0.45593999997E+02  0.45594000000E+02  0.51100000000E-03 0. -1.
         23    2    1    2    0    0  0.22204460493E-15  0.00000000000E+00  0.26645352591E-14  0.91188000000E+02  0.91188000000E+02 0.  0.
    9900012    2    3    3    0    0 -0.14417922862E+00 -0.36142813299E+02 -0.70325287276E+01  0.54367079301E+02  0.39999988882E+02 0.  0.
         12    1    3    3    0    0  0.14417922862E+00  0.36142813299E+02  0.70325287276E+01  0.36820920699E+02  0.00000000000E+00 0. -1.
         11    1    4    4    0    0 -0.10210378256E+02 -0.18029495496E+01  0.27083173830E+00  0.10371875496E+02  0.51100000000E-03 0. -1.
        -11    1    4    4    0    0  0.85655071417E+01 -0.14064932228E+02 -0.14981845094E+02  0.22263106564E+02  0.51100000000E-03 0.  1.
        -12    1    4    4    0    0  0.15006918855E+01 -0.20274931521E+02  0.76784846282E+01  0.21732097242E+02  0.00000000000E+00 0.  1.
</event>
<event>
 8    1  0.3106980E-007  0.9118800E+02  0.7816164E-02  0.1184000E+00
        -11   -1    0    0    0    0  0.00000000000E+00  0.00000000000E+00  0.45593999997E+02  0.45594000000E+02  0.51100000000E-03 0. -1.
         11   -1    0    0    0    0 -0.00000000000E+00 -0.00000000000E+00 -0.45593999997E+02  0.45594000000E+02  0.51100000000E-03 0.  1.
         23    2    1    2    0    0  0.00000000000E+00  0.00000000000E+00  0.11102230246E-14  0.91188000000E+02  0.91188000000E+02 0.  0.
    9900012    2    3    3    0    0 -0.11633674034E+02  0.34896288022E+02  0.16408109248E+01  0.54367006671E+02  0.39999823307E+02 0.  0.
        -12    1    3    3    0    0  0.11633674034E+02 -0.34896288022E+02 -0.16408109248E+01  0.36820993329E+02  0.00000000000E+00 0.  1.
         11    1    4    4    0    0 -0.10185099240E+02  0.87453904186E+01 -0.59259407464E+01  0.14674292967E+02  0.51100000000E-03 0.  1.
        -11    1    4    4    0    0  0.34005445011E+01  0.30822099840E+02  0.99248060161E+01  0.32558674976E+02  0.51100000000E-03 0. -1.
         12    1    4    4    0    0 -0.48491192947E+01 -0.46712022369E+01 -0.23580543449E+01  0.71340387275E+01  0.00000000000E+00 0. -1.
</event>
<event>
 8    1  0.3106980E-007  0.9118800E+02  0.7816164E-02  0.1184000E+00
        -11   -1    0    0    0    0  0.00000000000E+00  0.00000000000E+00  0.45593999997E+02  0.45594000000E+02  0.51100000000E-03 0. -1.
         11   -1    0    0    0    0 -0.00000000000E+00 -0.00000000000E+00 -0.45593999997E+02  0.45594000000E+02  0.51100000000E-03 0.  1.
         23    2    1    2    0    0 -0.17763568394E-14  0.00000000000E+00 -0.17763568394E-14  0.91188000000E+02  0.91188000000E+02 0.  0.
    9900012    2    3    3    0    0 -0.12652356732E+02  0.32477907154E+02 -0.11869418816E+02  0.54367086282E+02  0.40000004797E+02 0.  0.
        -12    1    3    3    0    0  0.12652356732E+02 -0.32477907154E+02  0.11869418816E+02  0.36820913718E+02  0.00000000000E+00 0.  1.
         11    1    4    4    0    0 -0.17421389340E+02  0.29554571605E+02 -0.12163594408E+02  0.36399595306E+02  0.51100000000E-03 0. -1.
        -11    1    4    4    0    0  0.10943457515E+02 -0.10069944961E+00 -0.93305318102E+00  0.10983623776E+02  0.51100000000E-03 0.  1.
        -12    1    4    4    0    0 -0.61744249063E+01  0.30240349992E+01  0.12272287728E+01  0.69838671996E+01  0.00000000000E+00 0.  1.
</event>
<event>
 8    1  0.3106980E-007  0.9118800E+02  0.7816164E-02  0.1184000E+00
        -11   -1    0    0    0    0  0.00000000000E+00  0.00000000000E+00  0.45593999997E+02  0.45594000000E+02  0.51100000000E-03 0. -1.
         11   -1    0    0    0    0 -0.00000000000E+00 -0.00000000000E+00 -0.45593999997E+02  0.45594000000E+02  0.51100000000E-03 0.  1.
         23    2    1    2    0    0 -0.17763568394E-14  0.00000000000E+00  0.00000000000E+00  0.91188000000E+02  0.91188000000E+02 0.  0.
    9900012    2    3    3    0    0 -0.10673168649E+02 -0.30819657960E+02  0.17088261282E+02  0.54367129296E+02  0.40000102855E+02 0.  0.
        -12    1    3    3    0    0  0.10673168649E+02  0.30819657960E+02 -0.17088261282E+02  0.36820870704E+02  0.00000000000E+00 0.  1.
         11    1    4    4    0    0  0.37416092527E+01 -0.15517372867E+02  0.21119100327E+02  0.26472719909E+02  0.51100000000E-03 0. -1.
        -11    1    4    4    0    0 -0.21549119583E+01 -0.67787683057E+01 -0.96086185856E+01  0.11954952809E+02  0.51100000000E-03 0.  1.
         12    1    4    4    0    0 -0.12259865943E+02 -0.85235167874E+01  0.55777795407E+01  0.15939456577E+02  0.00000000000E+00 0. -1.
</event>
<event>
 8    1  0.3106980E-007  0.9118800E+02  0.7816164E-02  0.1184000E+00
        -11   -1    0    0    0    0  0.00000000000E+00  0.00000000000E+00  0.45593999997E+02  0.45594000000E+02  0.51100000000E-03 0.  1.
         11   -1    0    0    0    0 -0.00000000000E+00 -0.00000000000E+00 -0.45593999997E+02  0.45594000000E+02  0.51100000000E-03 0. -1.
         23    2    1    2    0    0 -0.35527136788E-14  0.00000000000E+00  0.27755575616E-14  0.91188000000E+02  0.91188000000E+02 0.  0.
    9900012    2    3    3    0    0  0.28771027072E+02 -0.22976230395E+02 -0.31719642230E+00  0.54367085080E+02  0.40000002058E+02 0.  0.
        -12    1    3    3    0    0 -0.28771027072E+02  0.22976230395E+02  0.31719642230E+00  0.36820914920E+02  0.00000000000E+00 0.  1.
         11    1    4    4    0    0  0.22229054913E+02 -0.35788208213E+01  0.14336034300E+02  0.26691959847E+02  0.51100000000E-03 0. -1.
        -11    1    4    4    0    0  0.72532660248E+01 -0.87480069909E+01 -0.27585071926E+01  0.11693881158E+02  0.51100000000E-03 0.  1.
        -12    1    4    4    0    0 -0.71129386553E+00 -0.10649402583E+02 -0.11894723530E+02  0.15981244075E+02  0.00000000000E+00 0.  1.
</event>
<event>
 8    1  0.3106980E-007  0.9118800E+02  0.7816164E-02  0.1184000E+00
        -11   -1    0    0    0    0  0.00000000000E+00  0.00000000000E+00  0.45593999997E+02  0.45594000000E+02  0.51100000000E-03 0. -1.
         11   -1    0    0    0    0 -0.00000000000E+00 -0.00000000000E+00 -0.45593999997E+02  0.45594000000E+02  0.51100000000E-03 0.  1.
         23    2    1    2    0    0  0.35527136788E-14  0.00000000000E+00  0.35527136788E-14  0.91188000000E+02  0.91188000000E+02 0.  0.
    9900012    2    3    3    0    0  0.22078173556E+02 -0.16680906682E+02  0.24291602648E+02  0.54367077218E+02  0.39999984134E+02 0.  0.
        -12    1    3    3    0    0 -0.22078173556E+02  0.16680906682E+02 -0.24291602648E+02  0.36820922782E+02  0.00000000000E+00 0.  1.
         11    1    4    4    0    0  0.87175412039E+01 -0.14051533179E+02  0.11599740173E+02  0.20198888130E+02  0.51100000000E-03 0. -1.
        -11    1    4    4    0    0  0.64053881942E+00 -0.80607886002E+01  0.17698903287E+02  0.19458617132E+02  0.51100000000E-03 0.  1.
        -12    1    4    4    0    0  0.12720093533E+02  0.54314150980E+01 -0.50070408123E+01  0.14709571957E+02  0.00000000000E+00 0.  1.
</event>
<event>
 8    1  0.3106980E-007  0.9118800E+02  0.7816164E-02  0.1184000E+00
        -11   -1    0    0    0    0  0.00000000000E+00  0.00000000000E+00  0.45593999997E+02  0.45594000000E+02  0.51100000000E-03 0.  1.
         11   -1    0    0    0    0 -0.00000000000E+00 -0.00000000000E+00 -0.45593999997E+02  0.45594000000E+02  0.51100000000E-03 0. -1.
         23    2    1    2    0    0  0.00000000000E+00  0.00000000000E+00 -0.17763568394E-14  0.91188000000E+02  0.91188000000E+02 0.  0.
    9900012    2    3    3    0    0 -0.10339077013E+02  0.32744671054E+02 -0.13291754424E+02  0.54367072098E+02  0.39999972461E+02 0.  0.
         12    1    3    3    0    0  0.10339077013E+02 -0.32744671054E+02  0.13291754424E+02  0.36820927902E+02  0.00000000000E+00 0. -1.
         11    1    4    4    0    0 -0.39171470428E+01  0.28020306382E+02 -0.15881150902E+02  0.32445224070E+02  0.51100000000E-03 0. -1.
        -11    1    4    4    0    0 -0.22155819658E+01 -0.72320754380E+01 -0.29114914527E+01  0.81048443124E+01  0.51100000000E-03 0.  1.
        -12    1    4    4    0    0 -0.42063480048E+01  0.11956440110E+02  0.55008879309E+01  0.13817003715E+02  0.00000000000E+00 0.  1.
</event>
<event>
 8    1  0.3106980E-007  0.9118800E+02  0.7816164E-02  0.1184000E+00
        -11   -1    0    0    0    0  0.00000000000E+00  0.00000000000E+00  0.45593999997E+02  0.45594000000E+02  0.51100000000E-03 0.  1.
         11   -1    0    0    0    0 -0.00000000000E+00 -0.00000000000E+00 -0.45593999997E+02  0.45594000000E+02  0.51100000000E-03 0. -1.
         23    2    1    2    0    0 -0.35527136788E-14 -0.17763568394E-14 -0.35527136788E-14  0.91188000000E+02  0.91188000000E+02 0.  0.
    9900012    2    3    3    0    0  0.26536676660E+02 -0.92662870664E+01  0.23784880438E+02  0.54367084455E+02  0.40000000631E+02 0.  0.
         12    1    3    3    0    0 -0.26536676660E+02  0.92662870664E+01 -0.23784880438E+02  0.36820915545E+02  0.00000000000E+00 0. -1.
         11    1    4    4    0    0  0.89127558019E+01 -0.14997281686E+02  0.21690290537E+01  0.17580112663E+02  0.51100000000E-03 0. -1.
        -11    1    4    4    0    0 -0.13414134250E+00 -0.31746691810E+01  0.15758162683E+02  0.16075329226E+02  0.51100000000E-03 0.  1.
        -12    1    4    4    0    0  0.17758062201E+02  0.89056638004E+01  0.58576887013E+01  0.20711642566E+02  0.00000000000E+00 0.  1.
</event>
<event>
 8    1  0.3106980E-007  0.9118800E+02  0.7816164E-02  0.1184000E+00
        -11   -1    0    0    0    0  0.00000000000E+00  0.00000000000E+00  0.45593999997E+02  0.45594000000E+02  0.51100000000E-03 0. -1.
         11   -1    0    0    0    0 -0.00000000000E+00 -0.00000000000E+00 -0.45593999997E+02  0.45594000000E+02  0.51100000000E-03 0.  1.
         23    2    1    2    0    0 -0.35527136788E-14  0.55511151231E-16  0.00000000000E+00  0.91188000000E+02  0.91188000000E+02 0.  0.
    9900012    2    3    3    0    0  0.26218537674E+02  0.46436894353E+00  0.25848620698E+02  0.54367101746E+02  0.40000040050E+02 0.  0.
        -12    1    3    3    0    0 -0.26218537674E+02 -0.46436894353E+00 -0.25848620698E+02  0.36820898254E+02  0.00000000000E+00 0.  1.
         11    1    4    4    0    0 -0.34367558384E+01  0.16311260801E+01 -0.70535151737E+00  0.38690288195E+01  0.51100000000E-03 0. -1.
        -11    1    4    4    0    0 -0.21826455099E+01  0.75163048827E+01  0.12236020564E+02  0.14525115490E+02  0.51100000000E-03 0.  1.
         12    1    4    4    0    0  0.31837939022E+02 -0.86830620192E+01  0.14317951652E+02  0.35972957436E+02  0.00000000000E+00 0. -1.
</event>
<event>
 8    1  0.3106980E-007  0.9118800E+02  0.7816164E-02  0.1184000E+00
        -11   -1    0    0    0    0  0.00000000000E+00  0.00000000000E+00  0.45593999997E+02  0.45594000000E+02  0.51100000000E-03 0. -1.
         11   -1    0    0    0    0 -0.00000000000E+00 -0.00000000000E+00 -0.45593999997E+02  0.45594000000E+02  0.51100000000E-03 0.  1.
         23    2    1    2    0    0  0.00000000000E+00 -0.35527136788E-14 -0.35527136788E-14  0.91188000000E+02  0.91188000000E+02 0.  0.
    9900012    2    3    3    0    0 -0.27071424812E+02 -0.16953540998E+02 -0.18316542611E+02  0.54367077592E+02  0.39999984988E+02 0.  0.
         12    1    3    3    0    0  0.27071424812E+02  0.16953540998E+02  0.18316542611E+02  0.36820922408E+02  0.00000000000E+00 0. -1.
         11    1    4    4    0    0 -0.46461024510E+01  0.71416416663E+01 -0.15935449517E+02  0.18070082049E+02  0.51100000000E-03 0. -1.
        -11    1    4    4    0    0 -0.21132887573E+02 -0.26253705169E+02 -0.21682679554E+01  0.33772138790E+02  0.51100000000E-03 0.  1.
         12    1    4    4    0    0 -0.12924347880E+01  0.21585225047E+01 -0.21282513774E+00  0.25248567531E+01  0.00000000000E+00 0. -1.
</event>
<event>
 8    1  0.3106980E-007  0.9118800E+02  0.7816164E-02  0.1184000E+00
        -11   -1    0    0    0    0  0.00000000000E+00  0.00000000000E+00  0.45593999997E+02  0.45594000000E+02  0.51100000000E-03 0.  1.
         11   -1    0    0    0    0 -0.00000000000E+00 -0.00000000000E+00 -0.45593999997E+02  0.45594000000E+02  0.51100000000E-03 0. -1.
         23    2    1    2    0    0  0.00000000000E+00  0.00000000000E+00  0.17763568394E-14  0.91188000000E+02  0.91188000000E+02 0.  0.
    9900012    2    3    3    0    0  0.23991772596E+02  0.25920658020E+02  0.10406400045E+02  0.54367097969E+02  0.40000031439E+02 0.  0.
         12    1    3    3    0    0 -0.23991772596E+02 -0.25920658020E+02 -0.10406400045E+02  0.36820902031E+02  0.00000000000E+00 0. -1.
         11    1    4    4    0    0  0.46064882715E+01 -0.57827482737E+01 -0.29104038028E+01  0.79454617455E+01  0.51100000000E-03 0. -1.
        -11    1    4    4    0    0 -0.27505543756E+01  0.93340278995E+01 -0.39774561879E+01  0.10512363397E+02  0.51100000000E-03 0.  1.
        -12    1    4    4    0    0  0.22135838700E+02  0.22369378395E+02  0.17294260036E+02  0.35909272826E+02  0.00000000000E+00 0.  1.
</event>
<event>
 8    1  0.3106980E-007  0.9118800E+02  0.7816164E-02  0.1184000E+00
        -11   -1    0    0    0    0  0.00000000000E+00  0.00000000000E+00  0.45593999997E+02  0.45594000000E+02  0.51100000000E-03 0. -1.
         11   -1    0    0    0    0 -0.00000000000E+00 -0.00000000000E+00 -0.45593999997E+02  0.45594000000E+02  0.51100000000E-03 0.  1.
         23    2    1    2    0    0  0.00000000000E+00 -0.17763568394E-14 -0.71054273576E-14  0.91188000000E+02  0.91188000000E+02 0.  0.
    9900012    2    3    3    0    0 -0.47667225299E+01  0.10918409078E+02  0.34840295415E+02  0.54367089025E+02  0.40000011050E+02 0.  0.
        -12    1    3    3    0    0  0.47667225299E+01 -0.10918409078E+02 -0.34840295415E+02  0.36820910975E+02  0.00000000000E+00 0.  1.
         11    1    4    4    0    0 -0.13125246693E+02  0.55902059952E+01  0.33031052592E+02  0.35980174255E+02  0.51100000000E-03 0. -1.
        -11    1    4    4    0    0  0.71468579302E+01 -0.38951084594E+01  0.36228154407E+01  0.89092221974E+01  0.51100000000E-03 0.  1.
         12    1    4    4    0    0  0.12116662331E+01  0.92233115418E+01 -0.18135726183E+01  0.94776925725E+01  0.00000000000E+00 0. -1.
</event>
<event>
 8    1  0.3106980E-007  0.9118800E+02  0.7816164E-02  0.1184000E+00
        -11   -1    0    0    0    0  0.00000000000E+00  0.00000000000E+00  0.45593999997E+02  0.45594000000E+02  0.51100000000E-03 0.  1.
         11   -1    0    0    0    0 -0.00000000000E+00 -0.00000000000E+00 -0.45593999997E+02  0.45594000000E+02  0.51100000000E-03 0. -1.
         23    2    1    2    0    0  0.00000000000E+00 -0.17763568394E-14  0.00000000000E+00  0.91188000000E+02  0.91188000000E+02 0.  0.
    9900012    2    3    3    0    0 -0.13071811173E+01 -0.44623224591E+01  0.36526120798E+02  0.54367101794E+02  0.40000040159E+02 0.  0.
         12    1    3    3    0    0  0.13071811173E+01  0.44623224591E+01 -0.36526120798E+02  0.36820898206E+02  0.00000000000E+00 0. -1.
         11    1    4    4    0    0 -0.36923372676E+01 -0.47617282258E+01 -0.24362679324E+00  0.60304862549E+01  0.51100000000E-03 0. -1.
        -11    1    4    4    0    0  0.99689629154E+01  0.12368140270E+02  0.26011265213E+02  0.30478468361E+02  0.51100000000E-03 0.  1.
        -12    1    4    4    0    0 -0.75838067652E+01 -0.12068734504E+02  0.10758482378E+02  0.17858147178E+02  0.00000000000E+00 0.  1.
</event>
<event>
 8    1  0.3106980E-007  0.9118800E+02  0.7816164E-02  0.1184000E+00
        -11   -1    0    0    0    0  0.00000000000E+00  0.00000000000E+00  0.45593999997E+02  0.45594000000E+02  0.51100000000E-03 0.  1.
         11   -1    0    0    0    0 -0.00000000000E+00 -0.00000000000E+00 -0.45593999997E+02  0.45594000000E+02  0.51100000000E-03 0. -1.
         23    2    1    2    0    0  0.00000000000E+00  0.35527136788E-14 -0.35527136788E-14  0.91188000000E+02  0.91188000000E+02 0.  0.
    9900012    2    3    3    0    0  0.10409560817E+02 -0.27174927503E+02 -0.22559802395E+02  0.54367077615E+02  0.39999985038E+02 0.  0.
        -12    1    3    3    0    0 -0.10409560817E+02  0.27174927503E+02  0.22559802395E+02  0.36820922385E+02  0.00000000000E+00 0.  1.
         11    1    4    4    0    0 -0.11136204444E+01 -0.25300552626E+02 -0.90111640261E+01  0.26880461139E+02  0.51100000000E-03 0. -1.
        -11    1    4    4    0    0  0.21480842397E+01  0.88868557835E+01 -0.80834274103E+01  0.12203780995E+02  0.51100000000E-03 0.  1.
         12    1    4    4    0    0  0.93750970222E+01 -0.10761230661E+02 -0.54652109582E+01  0.15282835481E+02  0.00000000000E+00 0. -1.
</event>
<event>
 8    1  0.3106980E-007  0.9118800E+02  0.7816164E-02  0.1184000E+00
        -11   -1    0    0    0    0  0.00000000000E+00  0.00000000000E+00  0.45593999997E+02  0.45594000000E+02  0.51100000000E-03 0.  1.
         11   -1    0    0    0    0 -0.00000000000E+00 -0.00000000000E+00 -0.45593999997E+02  0.45594000000E+02  0.51100000000E-03 0. -1.
         23    2    1    2    0    0  0.66613381478E-15  0.71054273576E-14  0.17763568394E-14  0.91188000000E+02  0.91188000000E+02 0.  0.
    9900012    2    3    3    0    0  0.14134178138E+01 -0.36347681817E+02 -0.57121384798E+01  0.54367078645E+02  0.39999987388E+02 0.  0.
        -12    1    3    3    0    0 -0.14134178138E+01  0.36347681817E+02  0.57121384798E+01  0.36820921355E+02  0.00000000000E+00 0.  1.
         11    1    4    4    0    0 -0.29745500119E+01 -0.52375744256E+01  0.26656986670E+01  0.65868113136E+01  0.51100000000E-03 0. -1.
        -11    1    4    4    0    0 -0.72918342794E+01 -0.33701592842E+02 -0.94937287253E+01  0.35764494861E+02  0.51100000000E-03 0.  1.
        -12    1    4    4    0    0  0.11679802105E+02  0.25914854510E+01  0.11158915786E+01  0.12015772471E+02  0.00000000000E+00 0.  1.
</event>
<event>
 8    1  0.3106980E-007  0.9118800E+02  0.7816164E-02  0.1184000E+00
        -11   -1    0    0    0    0  0.00000000000E+00  0.00000000000E+00  0.45593999997E+02  0.45594000000E+02  0.51100000000E-03 0.  1.
         11   -1    0    0    0    0 -0.00000000000E+00 -0.00000000000E+00 -0.45593999997E+02  0.45594000000E+02  0.51100000000E-03 0. -1.
         23    2    1    2    0    0  0.00000000000E+00 -0.17763568394E-14  0.00000000000E+00  0.91188000000E+02  0.91188000000E+02 0.  0.
    9900012    2    3    3    0    0 -0.13599079870E+02 -0.11132384522E+02 -0.32356215276E+02  0.54366951326E+02  0.39999697137E+02 0.  0.
        -12    1    3    3    0    0  0.13599079870E+02  0.11132384522E+02  0.32356215276E+02  0.36821048674E+02  0.00000000000E+00 0.  1.
         11    1    4    4    0    0 -0.12192457666E+02  0.36420851655E+01  0.22337099357E+01  0.12919375706E+02  0.51100000000E-03 0.  1.
        -11    1    4    4    0    0  0.24846281588E+01 -0.17615761482E+02 -0.24624730920E+02  0.30378706405E+02  0.51100000000E-03 0. -1.
         12    1    4    4    0    0 -0.38912503631E+01  0.28412917947E+01 -0.99651942914E+01  0.11068869216E+02  0.00000000000E+00 0. -1.
</event>
<event>
 8    1  0.3106980E-007  0.9118800E+02  0.7816164E-02  0.1184000E+00
        -11   -1    0    0    0    0  0.00000000000E+00  0.00000000000E+00  0.45593999997E+02  0.45594000000E+02  0.51100000000E-03 0.  1.
         11   -1    0    0    0    0 -0.00000000000E+00 -0.00000000000E+00 -0.45593999997E+02  0.45594000000E+02  0.51100000000E-03 0. -1.
         23    2    1    2    0    0  0.00000000000E+00  0.17763568394E-14  0.35527136788E-14  0.91188000000E+02  0.91188000000E+02 0.  0.
    9900012    2    3    3    0    0  0.30546201899E+02  0.40319254865E+01 -0.20160686102E+02  0.54367080162E+02  0.39999990845E+02 0.  0.
        -12    1    3    3    0    0 -0.30546201899E+02 -0.40319254865E+01  0.20160686102E+02  0.36820919838E+02  0.00000000000E+00 0.  1.
         11    1    4    4    0    0  0.14637238368E+02 -0.22128577517E+01 -0.30089666193E+01  0.15106269124E+02  0.51100000000E-03 0. -1.
        -11    1    4    4    0    0 -0.16215580662E+00  0.11119310532E+02 -0.19355580765E+02  0.22322720896E+02  0.51100000000E-03 0.  1.
        -12    1    4    4    0    0  0.16071119338E+02 -0.48745272934E+01  0.22038612819E+01  0.16938090143E+02  0.00000000000E+00 0.  1.
</event>
<event>
 8    1  0.3106980E-007  0.9118800E+02  0.7816164E-02  0.1184000E+00
        -11   -1    0    0    0    0  0.00000000000E+00  0.00000000000E+00  0.45593999997E+02  0.45594000000E+02  0.51100000000E-03 0. -1.
         11   -1    0    0    0    0 -0.00000000000E+00 -0.00000000000E+00 -0.45593999997E+02  0.45594000000E+02  0.51100000000E-03 0.  1.
         23    2    1    2    0    0 -0.71054273576E-14  0.00000000000E+00  0.00000000000E+00  0.91188000000E+02  0.91188000000E+02 0.  0.
    9900012    2    3    3    0    0  0.32845781563E+02  0.16185881527E+02  0.38668533283E+01  0.54367072772E+02  0.39999973997E+02 0.  0.
        -12    1    3    3    0    0 -0.32845781563E+02 -0.16185881527E+02 -0.38668533283E+01  0.36820927228E+02  0.00000000000E+00 0.  1.
         11    1    4    4    0    0  0.18813263093E+02  0.72311857255E+01  0.35169165634E+01  0.20459658296E+02  0.51100000000E-03 0. -1.
        -11    1    4    4    0    0  0.81606064734E+01 -0.10162952998E+02 -0.36002324969E+01  0.13521937211E+02  0.51100000000E-03 0.  1.
        -12    1    4    4    0    0  0.58719119966E+01  0.19117648799E+02  0.39501692619E+01  0.20385477264E+02  0.00000000000E+00 0.  1.
</event>
<event>
 8    1  0.3106980E-007  0.9118800E+02  0.7816164E-02  0.1184000E+00
        -11   -1    0    0    0    0  0.00000000000E+00  0.00000000000E+00  0.45593999997E+02  0.45594000000E+02  0.51100000000E-03 0.  1.
         11   -1    0    0    0    0 -0.00000000000E+00 -0.00000000000E+00 -0.45593999997E+02  0.45594000000E+02  0.51100000000E-03 0. -1.
         23    2    1    2    0    0  0.71054273576E-14 -0.17763568394E-14 -0.35527136788E-14  0.91188000000E+02  0.91188000000E+02 0.  0.
    9900012    2    3    3    0    0  0.32732918225E+02 -0.12074228600E+02 -0.11770665677E+02  0.54367088790E+02  0.40000010515E+02 0.  0.
        -12    1    3    3    0    0 -0.32732918225E+02  0.12074228600E+02  0.11770665677E+02  0.36820911210E+02  0.00000000000E+00 0.  1.
         11    1    4    4    0    0  0.14208593323E+02 -0.28243909730E+01  0.10692633785E+02  0.18005380476E+02  0.51100000000E-03 0.  1.
        -11    1    4    4    0    0  0.17555777788E+02 -0.11640557377E+02 -0.25035958606E+02  0.32718605309E+02  0.51100000000E-03 0. -1.
         12    1    4    4    0    0  0.96854711430E+00  0.23907197495E+01  0.25726591440E+01  0.36431030049E+01  0.00000000000E+00 0. -1.
</event>
<event>
 8    1  0.3106980E-007  0.9118800E+02  0.7816164E-02  0.1184000E+00
        -11   -1    0    0    0    0  0.00000000000E+00  0.00000000000E+00  0.45593999997E+02  0.45594000000E+02  0.51100000000E-03 0. -1.
         11   -1    0    0    0    0 -0.00000000000E+00 -0.00000000000E+00 -0.45593999997E+02  0.45594000000E+02  0.51100000000E-03 0.  1.
         23    2    1    2    0    0  0.00000000000E+00  0.17763568394E-14  0.00000000000E+00  0.91188000000E+02  0.91188000000E+02 0.  0.
    9900012    2    3    3    0    0 -0.27973594012E+02  0.34166807574E+01 -0.23697788335E+02  0.54367070607E+02  0.39999969064E+02 0.  0.
         12    1    3    3    0    0  0.27973594012E+02 -0.34166807574E+01  0.23697788335E+02  0.36820929393E+02  0.00000000000E+00 0. -1.
         11    1    4    4    0    0 -0.24792361313E+02 -0.43103863351E+01 -0.24971041476E+02  0.35451283792E+02  0.51100000000E-03 0.  1.
        -11    1    4    4    0    0  0.31542979869E+00 -0.45504153969E+01  0.37585936420E+01  0.59103978435E+01  0.51100000000E-03 0. -1.
        -12    1    4    4    0    0 -0.34966624978E+01  0.12277482489E+02 -0.24853405008E+01  0.13005388972E+02  0.00000000000E+00 0.  1.
</event>
<event>
 8    1  0.3106980E-007  0.9118800E+02  0.7816164E-02  0.1184000E+00
        -11   -1    0    0    0    0  0.00000000000E+00  0.00000000000E+00  0.45593999997E+02  0.45594000000E+02  0.51100000000E-03 0. -1.
         11   -1    0    0    0    0 -0.00000000000E+00 -0.00000000000E+00 -0.45593999997E+02  0.45594000000E+02  0.51100000000E-03 0.  1.
         23    2    1    2    0    0  0.00000000000E+00 -0.35527136788E-14 -0.44408920985E-15  0.91188000000E+02  0.91188000000E+02 0.  0.
    9900012    2    3    3    0    0 -0.24637359713E+02 -0.27239933372E+02  0.26012735058E+01  0.54367080843E+02  0.39999992397E+02 0.  0.
         12    1    3    3    0    0  0.24637359713E+02  0.27239933372E+02 -0.26012735058E+01  0.36820919157E+02  0.00000000000E+00 0. -1.
         11    1    4    4    0    0 -0.13787814803E+02 -0.86267606593E+01  0.12894837435E+02  0.20755762314E+02  0.51100000000E-03 0.  1.
        -11    1    4    4    0    0 -0.37953952185E+01 -0.98890937079E+01  0.72152711592E+01  0.12816369899E+02  0.51100000000E-03 0. -1.
         12    1    4    4    0    0 -0.70541496910E+01 -0.87240790050E+01 -0.17508835088E+02  0.20794948629E+02  0.00000000000E+00 0. -1.
</event>
<event>
 8    1  0.3106980E-007  0.9118800E+02  0.7816164E-02  0.1184000E+00
        -11   -1    0    0    0    0  0.00000000000E+00  0.00000000000E+00  0.45593999997E+02  0.45594000000E+02  0.51100000000E-03 0. -1.
         11   -1    0    0    0    0 -0.00000000000E+00 -0.00000000000E+00 -0.45593999997E+02  0.45594000000E+02  0.51100000000E-03 0.  1.
         23    2    1    2    0    0  0.00000000000E+00  0.17763568394E-14 -0.71054273576E-14  0.91188000000E+02  0.91188000000E+02 0.  0.
    9900012    2    3    3    0    0 -0.72047492563E+01  0.68752249069E+01 -0.35448604105E+02  0.54367073037E+02  0.39999974604E+02 0.  0.
         12    1    3    3    0    0  0.72047492563E+01 -0.68752249069E+01  0.35448604105E+02  0.36820926963E+02  0.00000000000E+00 0. -1.
         11    1    4    4    0    0 -0.58567930766E+00  0.79926206824E+01 -0.35449633387E+02  0.36344208798E+02  0.51100000000E-03 0.  1.
        -11    1    4    4    0    0 -0.94268626338E+01  0.54439303191E+01  0.35539104895E-01  0.10885925763E+02  0.51100000000E-03 0. -1.
        -12    1    4    4    0    0  0.28077926851E+01 -0.65613260945E+01 -0.34509822997E-01  0.71369384759E+01  0.00000000000E+00 0.  1.
</event>
<event>
 8    1  0.3106980E-007  0.9118800E+02  0.7816164E-02  0.1184000E+00
        -11   -1    0    0    0    0  0.00000000000E+00  0.00000000000E+00  0.45593999997E+02  0.45594000000E+02  0.51100000000E-03 0.  1.
         11   -1    0    0    0    0 -0.00000000000E+00 -0.00000000000E+00 -0.45593999997E+02  0.45594000000E+02  0.51100000000E-03 0. -1.
         23    2    1    2    0    0  0.71054273576E-14  0.35527136788E-14  0.88817841970E-15  0.91188000000E+02  0.91188000000E+02 0.  0.
    9900012    2    3    3    0    0 -0.33016118339E+02 -0.15617746766E+02 -0.46692540412E+01  0.54367081794E+02  0.39999994565E+02 0.  0.
        -12    1    3    3    0    0  0.33016118339E+02  0.15617746766E+02  0.46692540412E+01  0.36820918206E+02  0.00000000000E+00 0.  1.
         11    1    4    4    0    0  0.32674081140E+01 -0.53282794143E+01 -0.14885332251E+01  0.64251263586E+01  0.51100000000E-03 0. -1.
        -11    1    4    4    0    0 -0.39120591577E+02 -0.13604511404E+02  0.16255504660E+01  0.41450522680E+02  0.51100000000E-03 0.  1.
         12    1    4    4    0    0  0.28370651232E+01  0.33150440521E+01 -0.48062712821E+01  0.64914327554E+01  0.00000000000E+00 0. -1.
</event>
<event>
 8    1  0.3106980E-007  0.9118800E+02  0.7816164E-02  0.1184000E+00
        -11   -1    0    0    0    0  0.00000000000E+00  0.00000000000E+00  0.45593999997E+02  0.45594000000E+02  0.51100000000E-03 0. -1.
         11   -1    0    0    0    0 -0.00000000000E+00 -0.00000000000E+00 -0.45593999997E+02  0.45594000000E+02  0.51100000000E-03 0.  1.
         23    2    1    2    0    0  0.00000000000E+00  0.00000000000E+00 -0.17763568394E-14  0.91188000000E+02  0.91188000000E+02 0.  0.
    9900012    2    3    3    0    0 -0.24614882363E+02 -0.23137700876E+02 -0.14646978439E+02  0.54367087288E+02  0.40000007089E+02 0.  0.
        -12    1    3    3    0    0  0.24614882363E+02  0.23137700876E+02  0.14646978439E+02  0.36820912712E+02  0.00000000000E+00 0.  1.
         11    1    4    4    0    0  0.44305054012E+01 -0.13103419961E+02 -0.95151902813E+00  0.13864861396E+02  0.51100000000E-03 0. -1.
        -11    1    4    4    0    0 -0.19152505737E+02 -0.17286084496E+02 -0.10250901560E+02  0.27761631369E+02  0.51100000000E-03 0.  1.
        -12    1    4    4    0    0 -0.98928820278E+01  0.72518035821E+01 -0.34445578515E+01  0.12740594523E+02  0.00000000000E+00 0.  1.
</event>
<event>
 8    1  0.3106980E-007  0.9118800E+02  0.7816164E-02  0.1184000E+00
        -11   -1    0    0    0    0  0.00000000000E+00  0.00000000000E+00  0.45593999997E+02  0.45594000000E+02  0.51100000000E-03 0.  1.
         11   -1    0    0    0    0 -0.00000000000E+00 -0.00000000000E+00 -0.45593999997E+02  0.45594000000E+02  0.51100000000E-03 0. -1.
         23    2    1    2    0    0  0.00000000000E+00  0.00000000000E+00  0.00000000000E+00  0.91188000000E+02  0.91188000000E+02 0.  0.
    9900012    2    3    3    0    0  0.25434554249E+02  0.21584929828E+02 -0.15586989295E+02  0.54367082293E+02  0.39999995703E+02 0.  0.
        -12    1    3    3    0    0 -0.25434554249E+02 -0.21584929828E+02  0.15586989295E+02  0.36820917707E+02  0.00000000000E+00 0.  1.
         11    1    4    4    0    0  0.72801619226E+01 -0.24827826263E+01 -0.16998769103E+02  0.18658057735E+02  0.51100000000E-03 0. -1.
        -11    1    4    4    0    0  0.86102921628E+01  0.13699228765E+02 -0.86934892272E+01  0.18367981792E+02  0.51100000000E-03 0.  1.
        -12    1    4    4    0    0  0.95441001636E+01  0.10368483689E+02  0.10105269035E+02  0.17341042766E+02  0.00000000000E+00 0.  1.
</event>
<event>
 8    1  0.3106980E-007  0.9118800E+02  0.7816164E-02  0.1184000E+00
        -11   -1    0    0    0    0  0.00000000000E+00  0.00000000000E+00  0.45593999997E+02  0.45594000000E+02  0.51100000000E-03 0. -1.
         11   -1    0    0    0    0 -0.00000000000E+00 -0.00000000000E+00 -0.45593999997E+02  0.45594000000E+02  0.51100000000E-03 0.  1.
         23    2    1    2    0    0  0.35527136788E-14 -0.17763568394E-14  0.35527136788E-14  0.91188000000E+02  0.91188000000E+02 0.  0.
    9900012    2    3    3    0    0 -0.26140461124E+02 -0.14637284345E+02 -0.21405753068E+02  0.54367081147E+02  0.39999993091E+02 0.  0.
         12    1    3    3    0    0  0.26140461124E+02  0.14637284345E+02  0.21405753068E+02  0.36820918853E+02  0.00000000000E+00 0. -1.
         11    1    4    4    0    0 -0.39388248195E+01 -0.56466031711E+01 -0.13692055973E+02  0.15325497230E+02  0.51100000000E-03 0. -1.
        -11    1    4    4    0    0  0.32765238360E+01 -0.11464772480E+02  0.10863718455E+01  0.11973170863E+02  0.51100000000E-03 0.  1.
        -12    1    4    4    0    0 -0.25478160140E+02  0.24740913055E+01 -0.88000689409E+01  0.27068413054E+02  0.00000000000E+00 0.  1.
</event>
<event>
 8    1  0.3106980E-007  0.9118800E+02  0.7816164E-02  0.1184000E+00
        -11   -1    0    0    0    0  0.00000000000E+00  0.00000000000E+00  0.45593999997E+02  0.45594000000E+02  0.51100000000E-03 0.  1.
         11   -1    0    0    0    0 -0.00000000000E+00 -0.00000000000E+00 -0.45593999997E+02  0.45594000000E+02  0.51100000000E-03 0. -1.
         23    2    1    2    0    0 -0.35527136788E-14 -0.26645352591E-14 -0.71054273576E-14  0.91188000000E+02  0.91188000000E+02 0.  0.
    9900012    2    3    3    0    0 -0.20943133081E+02 -0.41491716812E+01 -0.29999170598E+02  0.54367072724E+02  0.39999973888E+02 0.  0.
        -12    1    3    3    0    0  0.20943133081E+02  0.41491716812E+01  0.29999170598E+02  0.36820927276E+02  0.00000000000E+00 0.  1.
         11    1    4    4    0    0 -0.25749911580E+02  0.69322432723E+00 -0.10376660700E+02  0.27770732686E+02  0.51100000000E-03 0. -1.
        -11    1    4    4    0    0  0.10755952880E+00 -0.10533468305E+02 -0.10669826992E+02  0.14993689736E+02  0.51100000000E-03 0.  1.
        -12    1    4    4    0    0  0.46992189701E+01  0.56910722968E+01 -0.89526829059E+01  0.11602650302E+02  0.00000000000E+00 0.  1.
</event>
<event>
 8    1  0.3106980E-007  0.9118800E+02  0.7816164E-02  0.1184000E+00
        -11   -1    0    0    0    0  0.00000000000E+00  0.00000000000E+00  0.45593999997E+02  0.45594000000E+02  0.51100000000E-03 0.  1.
         11   -1    0    0    0    0 -0.00000000000E+00 -0.00000000000E+00 -0.45593999997E+02  0.45594000000E+02  0.51100000000E-03 0. -1.
         23    2    1    2    0    0  0.00000000000E+00  0.35527136788E-14 -0.35527136788E-14  0.91188000000E+02  0.91188000000E+02 0.  0.
    9900012    2    3    3    0    0 -0.17729851926E+02 -0.23512527105E+02  0.22104130006E+02  0.54367093663E+02  0.40000021623E+02 0.  0.
        -12    1    3    3    0    0  0.17729851926E+02  0.23512527105E+02 -0.22104130006E+02  0.36820906337E+02  0.00000000000E+00 0.  1.
         11    1    4    4    0    0 -0.18777744542E+02 -0.23121424096E+02  0.10569278269E+02  0.31605594215E+02  0.51100000000E-03 0. -1.
        -11    1    4    4    0    0  0.94255765994E+01  0.20542286436E+01  0.10010305816E+02  0.13902070793E+02  0.51100000000E-03 0.  1.
         12    1    4    4    0    0 -0.83776839836E+01 -0.24453316527E+01  0.15245459210E+01  0.88594286546E+01  0.00000000000E+00 0. -1.
</event>
<event>
 8    1  0.3106980E-007  0.9118800E+02  0.7816164E-02  0.1184000E+00
        -11   -1    0    0    0    0  0.00000000000E+00  0.00000000000E+00  0.45593999997E+02  0.45594000000E+02  0.51100000000E-03 0.  1.
         11   -1    0    0    0    0 -0.00000000000E+00 -0.00000000000E+00 -0.45593999997E+02  0.45594000000E+02  0.51100000000E-03 0. -1.
         23    2    1    2    0    0 -0.44408920985E-15  0.00000000000E+00  0.35527136788E-14  0.91188000000E+02  0.91188000000E+02 0.  0.
    9900012    2    3    3    0    0 -0.11772792010E+01 -0.24556418627E+02 -0.27411256800E+02  0.54367072778E+02  0.39999974013E+02 0.  0.
        -12    1    3    3    0    0  0.11772792010E+01  0.24556418627E+02  0.27411256800E+02  0.36820927222E+02  0.00000000000E+00 0.  1.
         11    1    4    4    0    0 -0.59520909701E+01 -0.20968526579E+02 -0.24182854109E+02  0.32556365383E+02  0.51100000000E-03 0. -1.
        -11    1    4    4    0    0  0.55912426449E+01 -0.62268209633E+01  0.71894596692E+01  0.11032842980E+02  0.51100000000E-03 0.  1.
         12    1    4    4    0    0 -0.81643087574E+00  0.26389289161E+01 -0.10417862360E+02  0.10777864415E+02  0.00000000000E+00 0. -1.
</event>
<event>
 8    1  0.3106980E-007  0.9118800E+02  0.7816164E-02  0.1184000E+00
        -11   -1    0    0    0    0  0.00000000000E+00  0.00000000000E+00  0.45593999997E+02  0.45594000000E+02  0.51100000000E-03 0. -1.
         11   -1    0    0    0    0 -0.00000000000E+00 -0.00000000000E+00 -0.45593999997E+02  0.45594000000E+02  0.51100000000E-03 0.  1.
         23    2    1    2    0    0  0.88817841970E-15  0.00000000000E+00  0.71054273576E-14  0.91188000000E+02  0.91188000000E+02 0.  0.
    9900012    2    3    3    0    0  0.21701852472E+01 -0.82673541016E+01  0.35815103606E+02  0.54367075321E+02  0.39999979810E+02 0.  0.
        -12    1    3    3    0    0 -0.21701852472E+01  0.82673541016E+01 -0.35815103606E+02  0.36820924679E+02  0.00000000000E+00 0.  1.
         11    1    4    4    0    0  0.89572060327E+01 -0.12470476263E+02  0.64655817532E+00  0.15367574821E+02  0.51100000000E-03 0. -1.
        -11    1    4    4    0    0 -0.37317440839E+01  0.75631823963E+01  0.85986211200E+01  0.12044248723E+02  0.51100000000E-03 0.  1.
         12    1    4    4    0    0 -0.30552767017E+01 -0.33600602347E+01  0.26569924311E+02  0.26955251778E+02  0.00000000000E+00 0. -1.
</event>
<event>
 8    1  0.3106980E-007  0.9118800E+02  0.7816164E-02  0.1184000E+00
        -11   -1    0    0    0    0  0.00000000000E+00  0.00000000000E+00  0.45593999997E+02  0.45594000000E+02  0.51100000000E-03 0.  1.
         11   -1    0    0    0    0 -0.00000000000E+00 -0.00000000000E+00 -0.45593999997E+02  0.45594000000E+02  0.51100000000E-03 0. -1.
         23    2    1    2    0    0  0.00000000000E+00 -0.17763568394E-14 -0.35527136788E-14  0.91188000000E+02  0.91188000000E+02 0.  0.
    9900012    2    3    3    0    0 -0.29803405008E+02 -0.94553904514E+01  0.19445425036E+02  0.54367191840E+02  0.40000245438E+02 0.  0.
        -12    1    3    3    0    0  0.29803405008E+02  0.94553904514E+01 -0.19445425036E+02  0.36820808160E+02  0.00000000000E+00 0.  1.
         11    1    4    4    0    0  0.46652713237E+01  0.66104377061E+00 -0.34313212831E+01  0.58288679347E+01  0.51100000000E-03 0. -1.
        -11    1    4    4    0    0 -0.33971910861E+02 -0.14825515107E+02  0.16441966605E+02  0.40549043044E+02  0.51100000000E-03 0.  1.
        -12    1    4    4    0    0 -0.49676547128E+00  0.47090808847E+01  0.64347797141E+01  0.79892808613E+01  0.00000000000E+00 0.  1.
</event>
<event>
 8    1  0.3106980E-007  0.9118800E+02  0.7816164E-02  0.1184000E+00
        -11   -1    0    0    0    0  0.00000000000E+00  0.00000000000E+00  0.45593999997E+02  0.45594000000E+02  0.51100000000E-03 0. -1.
         11   -1    0    0    0    0 -0.00000000000E+00 -0.00000000000E+00 -0.45593999997E+02  0.45594000000E+02  0.51100000000E-03 0.  1.
         23    2    1    2    0    0  0.00000000000E+00 -0.15543122345E-14  0.71054273576E-14  0.91188000000E+02  0.91188000000E+02 0.  0.
    9900012    2    3    3    0    0  0.55619654498E+01 -0.68236280116E+00  0.36392018386E+02  0.54367080934E+02  0.39999992606E+02 0.  0.
        -12    1    3    3    0    0 -0.55619654498E+01  0.68236280116E+00 -0.36392018386E+02  0.36820919066E+02  0.00000000000E+00 0.  1.
         11    1    4    4    0    0 -0.27155520830E+00  0.21272128421E+01 -0.56221165861E+00  0.22169481088E+01  0.51100000000E-03 0. -1.
        -11    1    4    4    0    0  0.61543200321E+01  0.10799068409E+02  0.36469073682E+02  0.38529065250E+02  0.51100000000E-03 0.  1.
         12    1    4    4    0    0 -0.32079937399E+00 -0.13608644053E+02  0.48515636209E+00  0.13621067575E+02  0.00000000000E+00 0. -1.
</event>
<event>
 8    1  0.3106980E-007  0.9118800E+02  0.7816164E-02  0.1184000E+00
        -11   -1    0    0    0    0  0.00000000000E+00  0.00000000000E+00  0.45593999997E+02  0.45594000000E+02  0.51100000000E-03 0. -1.
         11   -1    0    0    0    0 -0.00000000000E+00 -0.00000000000E+00 -0.45593999997E+02  0.45594000000E+02  0.51100000000E-03 0.  1.
         23    2    1    2    0    0  0.17763568394E-14  0.00000000000E+00  0.00000000000E+00  0.91188000000E+02  0.91188000000E+02 0.  0.
    9900012    2    3    3    0    0 -0.84100291301E+01 -0.23206378618E+02  0.27322431300E+02  0.54367084060E+02  0.39999999731E+02 0.  0.
        -12    1    3    3    0    0  0.84100291301E+01  0.23206378618E+02 -0.27322431300E+02  0.36820915940E+02  0.00000000000E+00 0.  1.
         11    1    4    4    0    0 -0.12632202147E+02 -0.11608536314E+02  0.17756980224E+02  0.24690909124E+02  0.51100000000E-03 0. -1.
        -11    1    4    4    0    0 -0.73161478546E+01 -0.13197398779E+02  0.82355042180E+00  0.15112100764E+02  0.51100000000E-03 0.  1.
         12    1    4    4    0    0  0.11538320871E+02  0.15995564743E+01  0.87419006543E+01  0.14564074172E+02  0.00000000000E+00 0. -1.
</event>
<event>
 8    1  0.3106980E-007  0.9118800E+02  0.7816164E-02  0.1184000E+00
        -11   -1    0    0    0    0  0.00000000000E+00  0.00000000000E+00  0.45593999997E+02  0.45594000000E+02  0.51100000000E-03 0.  1.
         11   -1    0    0    0    0 -0.00000000000E+00 -0.00000000000E+00 -0.45593999997E+02  0.45594000000E+02  0.51100000000E-03 0. -1.
         23    2    1    2    0    0 -0.17763568394E-14  0.00000000000E+00  0.00000000000E+00  0.91188000000E+02  0.91188000000E+02 0.  0.
    9900012    2    3    3    0    0 -0.14564420654E+02 -0.22078072770E+02  0.25616716521E+02  0.54367084591E+02  0.40000000942E+02 0.  0.
         12    1    3    3    0    0  0.14564420654E+02  0.22078072770E+02 -0.25616716521E+02  0.36820915409E+02  0.00000000000E+00 0. -1.
         11    1    4    4    0    0 -0.17329355524E+02 -0.92203598968E+01  0.67749666630E+01  0.20765880021E+02  0.51100000000E-03 0. -1.
        -11    1    4    4    0    0  0.43871066135E+01 -0.14351735995E+02  0.23821696825E+02  0.28154791251E+02  0.51100000000E-03 0.  1.
        -12    1    4    4    0    0 -0.16221717436E+01  0.14940231218E+01 -0.49799469662E+01  0.54464133190E+01  0.00000000000E+00 0.  1.
</event>
<event>
 8    1  0.3106980E-007  0.9118800E+02  0.7816164E-02  0.1184000E+00
        -11   -1    0    0    0    0  0.00000000000E+00  0.00000000000E+00  0.45593999997E+02  0.45594000000E+02  0.51100000000E-03 0. -1.
         11   -1    0    0    0    0 -0.00000000000E+00 -0.00000000000E+00 -0.45593999997E+02  0.45594000000E+02  0.51100000000E-03 0.  1.
         23    2    1    2    0    0  0.00000000000E+00  0.35527136788E-14 -0.17763568394E-14  0.91188000000E+02  0.91188000000E+02 0.  0.
    9900012    2    3    3    0    0 -0.18336760566E+02 -0.27998626503E+02  0.15349899661E+02  0.54367091623E+02  0.40000016972E+02 0.  0.
        -12    1    3    3    0    0  0.18336760566E+02  0.27998626503E+02 -0.15349899661E+02  0.36820908377E+02  0.00000000000E+00 0.  1.
         11    1    4    4    0    0  0.11889986230E+02 -0.13837177670E+02  0.22210401950E+01  0.18378582052E+02  0.51100000000E-03 0.  1.
        -11    1    4    4    0    0 -0.26023171690E+02 -0.11764303605E+02  0.12227104417E+02  0.31066161444E+02  0.51100000000E-03 0. -1.
        -12    1    4    4    0    0 -0.42035751065E+01 -0.23971452274E+01  0.90175504846E+00  0.49223481271E+01  0.00000000000E+00 0.  1.
</event>
<event>
 8    1  0.3106980E-007  0.9118800E+02  0.7816164E-02  0.1184000E+00
        -11   -1    0    0    0    0  0.00000000000E+00  0.00000000000E+00  0.45593999997E+02  0.45594000000E+02  0.51100000000E-03 0.  1.
         11   -1    0    0    0    0 -0.00000000000E+00 -0.00000000000E+00 -0.45593999997E+02  0.45594000000E+02  0.51100000000E-03 0. -1.
         23    2    1    2    0    0  0.44408920985E-15  0.00000000000E+00  0.00000000000E+00  0.91188000000E+02  0.91188000000E+02 0.  0.
    9900012    2    3    3    0    0  0.19785630924E+01 -0.22173907384E+02  0.29328864180E+02  0.54367093511E+02  0.40000021278E+02 0.  0.
         12    1    3    3    0    0 -0.19785630924E+01  0.22173907384E+02 -0.29328864180E+02  0.36820906489E+02  0.00000000000E+00 0. -1.
         11    1    4    4    0    0 -0.12265173259E+02 -0.21427094090E+02  0.58910561067E+01  0.25382265039E+02  0.51100000000E-03 0. -1.
        -11    1    4    4    0    0  0.85246269399E+00 -0.81173217144E+00  0.98037059681E+01  0.98741203524E+01  0.51100000000E-03 0.  1.
         12    1    4    4    0    0  0.13391273657E+02  0.64918878102E-01  0.13634102105E+02  0.19110708119E+02  0.00000000000E+00 0. -1.
</event>
<event>
 8    1  0.3106980E-007  0.9118800E+02  0.7816164E-02  0.1184000E+00
        -11   -1    0    0    0    0  0.00000000000E+00  0.00000000000E+00  0.45593999997E+02  0.45594000000E+02  0.51100000000E-03 0. -1.
         11   -1    0    0    0    0 -0.00000000000E+00 -0.00000000000E+00 -0.45593999997E+02  0.45594000000E+02  0.51100000000E-03 0.  1.
         23    2    1    2    0    0  0.00000000000E+00  0.00000000000E+00  0.00000000000E+00  0.91188000000E+02  0.91188000000E+02 0.  0.
    9900012    2    3    3    0    0 -0.98632205647E+01 -0.26932242848E+02  0.23090065409E+02  0.54367082774E+02  0.39999996800E+02 0.  0.
        -12    1    3    3    0    0  0.98632205647E+01  0.26932242848E+02 -0.23090065409E+02  0.36820917226E+02  0.00000000000E+00 0.  1.
         11    1    4    4    0    0 -0.12617820537E+02 -0.25052247235E+01  0.78046039074E+01  0.15046507516E+02  0.51100000000E-03 0. -1.
        -11    1    4    4    0    0  0.88944582374E+01 -0.11238516758E+02 -0.42631411384E+01  0.14952926767E+02  0.51100000000E-03 0.  1.
        -12    1    4    4    0    0 -0.61398582653E+01 -0.13188501366E+02  0.19548602640E+02  0.24367648491E+02  0.00000000000E+00 0.  1.
</event>
<event>
 8    1  0.3106980E-007  0.9118800E+02  0.7816164E-02  0.1184000E+00
        -11   -1    0    0    0    0  0.00000000000E+00  0.00000000000E+00  0.45593999997E+02  0.45594000000E+02  0.51100000000E-03 0.  1.
         11   -1    0    0    0    0 -0.00000000000E+00 -0.00000000000E+00 -0.45593999997E+02  0.45594000000E+02  0.51100000000E-03 0. -1.
         23    2    1    2    0    0 -0.35527136788E-14  0.00000000000E+00  0.17763568394E-14  0.91188000000E+02  0.91188000000E+02 0.  0.
    9900012    2    3    3    0    0  0.21651514864E+02 -0.28572166450E+02 -0.84043824516E+01  0.54366940320E+02  0.39999672046E+02 0.  0.
        -12    1    3    3    0    0 -0.21651514864E+02  0.28572166450E+02  0.84043824516E+01  0.36821059680E+02  0.00000000000E+00 0.  1.
         11    1    4    4    0    0  0.69306782746E+01 -0.76348203834E+00 -0.11823665352E+02  0.13726480568E+02  0.51100000000E-03 0. -1.
        -11    1    4    4    0    0  0.15546553800E+02 -0.65727663873E+01 -0.52674228684E+01  0.17681694969E+02  0.51100000000E-03 0.  1.
        -12    1    4    4    0    0 -0.82571721079E+00 -0.21235918025E+02  0.86867057685E+01  0.22958764783E+02  0.00000000000E+00 0.  1.
</event>
<event>
 8    1  0.3106980E-007  0.9118800E+02  0.7816164E-02  0.1184000E+00
        -11   -1    0    0    0    0  0.00000000000E+00  0.00000000000E+00  0.45593999997E+02  0.45594000000E+02  0.51100000000E-03 0. -1.
         11   -1    0    0    0    0 -0.00000000000E+00 -0.00000000000E+00 -0.45593999997E+02  0.45594000000E+02  0.51100000000E-03 0.  1.
         23    2    1    2    0    0  0.92981178312E-15  0.00000000000E+00  0.00000000000E+00  0.91188000000E+02  0.91188000000E+02 0.  0.
    9900012    2    3    3    0    0  0.61104840574E-01 -0.19869781135E+02  0.30999480061E+02  0.54367086103E+02  0.40000004388E+02 0.  0.
        -12    1    3    3    0    0 -0.61104840574E-01  0.19869781135E+02 -0.30999480061E+02  0.36820913897E+02  0.00000000000E+00 0.  1.
         11    1    4    4    0    0  0.72594745925E+01 -0.57348543908E+01 -0.21339081947E+01  0.94943188638E+01  0.51100000000E-03 0.  1.
        -11    1    4    4    0    0  0.78389583775E+01  0.18135842686E+01  0.11825203049E+02  0.14302929202E+02  0.51100000000E-03 0. -1.
        -12    1    4    4    0    0 -0.15037328129E+02 -0.15948511012E+02  0.21308185207E+02  0.30569838037E+02  0.00000000000E+00 0.  1.
</event>
<event>
 8    1  0.3106980E-007  0.9118800E+02  0.7816164E-02  0.1184000E+00
        -11   -1    0    0    0    0  0.00000000000E+00  0.00000000000E+00  0.45593999997E+02  0.45594000000E+02  0.51100000000E-03 0. -1.
         11   -1    0    0    0    0 -0.00000000000E+00 -0.00000000000E+00 -0.45593999997E+02  0.45594000000E+02  0.51100000000E-03 0.  1.
         23    2    1    2    0    0 -0.17763568394E-14 -0.35527136788E-14  0.00000000000E+00  0.91188000000E+02  0.91188000000E+02 0.  0.
    9900012    2    3    3    0    0 -0.10299629487E+02 -0.22476300563E+02 -0.27285769525E+02  0.54367086471E+02  0.40000005227E+02 0.  0.
         12    1    3    3    0    0  0.10299629487E+02  0.22476300563E+02  0.27285769525E+02  0.36820913529E+02  0.00000000000E+00 0. -1.
         11    1    4    4    0    0  0.57209153748E+01 -0.27556344072E+02 -0.20170246278E+02  0.34625421391E+02  0.51100000000E-03 0. -1.
        -11    1    4    4    0    0 -0.72150646673E+01 -0.15478471569E+01 -0.32369811889E+01  0.80579796756E+01  0.51100000000E-03 0.  1.
        -12    1    4    4    0    0 -0.88054801942E+01  0.66278906654E+01 -0.38785420579E+01  0.11683685404E+02  0.00000000000E+00 0.  1.
</event>
<event>
 8    1  0.3106980E-007  0.9118800E+02  0.7816164E-02  0.1184000E+00
        -11   -1    0    0    0    0  0.00000000000E+00  0.00000000000E+00  0.45593999997E+02  0.45594000000E+02  0.51100000000E-03 0. -1.
         11   -1    0    0    0    0 -0.00000000000E+00 -0.00000000000E+00 -0.45593999997E+02  0.45594000000E+02  0.51100000000E-03 0.  1.
         23    2    1    2    0    0  0.17763568394E-14  0.00000000000E+00  0.35527136788E-14  0.91188000000E+02  0.91188000000E+02 0.  0.
    9900012    2    3    3    0    0  0.10375319414E+02  0.20403133861E+02  0.28841719492E+02  0.54367083288E+02  0.39999997972E+02 0.  0.
        -12    1    3    3    0    0 -0.10375319414E+02 -0.20403133861E+02 -0.28841719492E+02  0.36820916712E+02  0.00000000000E+00 0.  1.
         11    1    4    4    0    0 -0.83242384845E+01  0.16523661064E+02  0.26464029832E+02  0.32290388608E+02  0.51100000000E-03 0.  1.
        -11    1    4    4    0    0  0.15892638317E+02  0.30053013384E+00  0.51993051153E+01  0.16724205362E+02  0.51100000000E-03 0. -1.
        -12    1    4    4    0    0  0.28069195812E+01  0.35789426633E+01 -0.28216154553E+01  0.53524893181E+01  0.00000000000E+00 0.  1.
</event>
<event>
 8    1  0.3106980E-007  0.9118800E+02  0.7816164E-02  0.1184000E+00
        -11   -1    0    0    0    0  0.00000000000E+00  0.00000000000E+00  0.45593999997E+02  0.45594000000E+02  0.51100000000E-03 0.  1.
         11   -1    0    0    0    0 -0.00000000000E+00 -0.00000000000E+00 -0.45593999997E+02  0.45594000000E+02  0.51100000000E-03 0. -1.
         23    2    1    2    0    0 -0.35527136788E-14 -0.35527136788E-14 -0.35527136788E-14  0.91188000000E+02  0.91188000000E+02 0.  0.
    9900012    2    3    3    0    0  0.19939744111E+02 -0.21071722316E+02  0.22675299324E+02  0.54367081000E+02  0.39999992756E+02 0.  0.
         12    1    3    3    0    0 -0.19939744111E+02  0.21071722316E+02 -0.22675299324E+02  0.36820919000E+02  0.00000000000E+00 0. -1.
         11    1    4    4    0    0  0.27715364706E+02 -0.11899723885E+02  0.15088554004E+02  0.33725499722E+02  0.51100000000E-03 0.  1.
        -11    1    4    4    0    0 -0.55367197632E+01 -0.50452400445E+01 -0.37457841320E+01  0.83749992159E+01  0.51100000000E-03 0. -1.
        -12    1    4    4    0    0 -0.22389008313E+01 -0.41267583860E+01  0.11332529452E+02  0.12266582062E+02  0.00000000000E+00 0.  1.
</event>
<event>
 8    1  0.3106980E-007  0.9118800E+02  0.7816164E-02  0.1184000E+00
        -11   -1    0    0    0    0  0.00000000000E+00  0.00000000000E+00  0.45593999997E+02  0.45594000000E+02  0.51100000000E-03 0. -1.
         11   -1    0    0    0    0 -0.00000000000E+00 -0.00000000000E+00 -0.45593999997E+02  0.45594000000E+02  0.51100000000E-03 0.  1.
         23    2    1    2    0    0  0.26645352591E-14 -0.55511151231E-16 -0.71054273576E-14  0.91188000000E+02  0.91188000000E+02 0.  0.
    9900012    2    3    3    0    0  0.31695961117E+01 -0.46317567919E+00  0.36681314070E+02  0.54367086471E+02  0.40000005227E+02 0.  0.
        -12    1    3    3    0    0 -0.31695961117E+01  0.46317567919E+00 -0.36681314070E+02  0.36820913529E+02  0.00000000000E+00 0.  1.
         11    1    4    4    0    0 -0.75770491298E+01 -0.49573918318E+00  0.32403506212E+01  0.82557436530E+01  0.51100000000E-03 0. -1.
        -11    1    4    4    0    0 -0.55179397038E+01 -0.27921154797E+00 -0.29403460100E+01  0.62586941596E+01  0.51100000000E-03 0.  1.
         12    1    4    4    0    0  0.16264584945E+02  0.31177505196E+00  0.36381309459E+02  0.39852648658E+02  0.00000000000E+00 0. -1.
</event>
<event>
 8    1  0.3106980E-007  0.9118800E+02  0.7816164E-02  0.1184000E+00
        -11   -1    0    0    0    0  0.00000000000E+00  0.00000000000E+00  0.45593999997E+02  0.45594000000E+02  0.51100000000E-03 0.  1.
         11   -1    0    0    0    0 -0.00000000000E+00 -0.00000000000E+00 -0.45593999997E+02  0.45594000000E+02  0.51100000000E-03 0. -1.
         23    2    1    2    0    0  0.00000000000E+00  0.00000000000E+00 -0.35527136788E-14  0.91188000000E+02  0.91188000000E+02 0.  0.
    9900012    2    3    3    0    0  0.12115875573E+02 -0.16212669908E+02 -0.30759293323E+02  0.54367092458E+02  0.40000018877E+02 0.  0.
        -12    1    3    3    0    0 -0.12115875573E+02  0.16212669908E+02  0.30759293323E+02  0.36820907542E+02  0.00000000000E+00 0.  1.
         11    1    4    4    0    0  0.23350005858E+02 -0.16783409417E+02 -0.25764565643E+02  0.38609823209E+02  0.51100000000E-03 0. -1.
        -11    1    4    4    0    0 -0.76860441497E+01 -0.18384783999E+01  0.14313952030E+01  0.80314488099E+01  0.51100000000E-03 0.  1.
         12    1    4    4    0    0 -0.35480861345E+01  0.24092179088E+01 -0.64261228838E+01  0.77258204397E+01  0.00000000000E+00 0. -1.
</event>
<event>
 8    1  0.3106980E-007  0.9118800E+02  0.7816164E-02  0.1184000E+00
        -11   -1    0    0    0    0  0.00000000000E+00  0.00000000000E+00  0.45593999997E+02  0.45594000000E+02  0.51100000000E-03 0. -1.
         11   -1    0    0    0    0 -0.00000000000E+00 -0.00000000000E+00 -0.45593999997E+02  0.45594000000E+02  0.51100000000E-03 0.  1.
         23    2    1    2    0    0 -0.17763568394E-14  0.00000000000E+00  0.00000000000E+00  0.91188000000E+02  0.91188000000E+02 0.  0.
    9900012    2    3    3    0    0 -0.15523706601E+02  0.26730083494E+02  0.20007420797E+02  0.54367085873E+02  0.40000003864E+02 0.  0.
        -12    1    3    3    0    0  0.15523706601E+02 -0.26730083494E+02 -0.20007420797E+02  0.36820914127E+02  0.00000000000E+00 0.  1.
         11    1    4    4    0    0 -0.10606340276E+02  0.33760511297E+00 -0.48686182936E+01  0.11675267690E+02  0.51100000000E-03 0. -1.
        -11    1    4    4    0    0  0.66001408235E+01  0.19542165335E+02  0.19055892108E+02  0.28081757586E+02  0.51100000000E-03 0.  1.
         12    1    4    4    0    0 -0.11517507148E+02  0.68503130463E+01  0.58201469824E+01  0.14610060597E+02  0.00000000000E+00 0. -1.
</event>
<event>
 8    1  0.3106980E-007  0.9118800E+02  0.7816164E-02  0.1184000E+00
        -11   -1    0    0    0    0  0.00000000000E+00  0.00000000000E+00  0.45593999997E+02  0.45594000000E+02  0.51100000000E-03 0. -1.
         11   -1    0    0    0    0 -0.00000000000E+00 -0.00000000000E+00 -0.45593999997E+02  0.45594000000E+02  0.51100000000E-03 0.  1.
         23    2    1    2    0    0 -0.22204460493E-14 -0.17763568394E-14  0.00000000000E+00  0.91188000000E+02  0.91188000000E+02 0.  0.
    9900012    2    3    3    0    0 -0.23198086026E+01 -0.10304709909E+02  0.35273387890E+02  0.54367075901E+02  0.39999981131E+02 0.  0.
        -12    1    3    3    0    0  0.23198086026E+01  0.10304709909E+02 -0.35273387890E+02  0.36820924099E+02  0.00000000000E+00 0.  1.
         11    1    4    4    0    0  0.48857538126E+01 -0.13305156289E+02  0.87385242048E+01  0.16651113468E+02  0.51100000000E-03 0. -1.
        -11    1    4    4    0    0 -0.16082464658E+02 -0.10343687484E+01  0.21107576956E+02  0.26556456717E+02  0.51100000000E-03 0.  1.
         12    1    4    4    0    0  0.88769022428E+01  0.40348151287E+01  0.54272867301E+01  0.11159505715E+02  0.00000000000E+00 0. -1.
</event>
<event>
 8    1  0.3106980E-007  0.9118800E+02  0.7816164E-02  0.1184000E+00
        -11   -1    0    0    0    0  0.00000000000E+00  0.00000000000E+00  0.45593999997E+02  0.45594000000E+02  0.51100000000E-03 0. -1.
         11   -1    0    0    0    0 -0.00000000000E+00 -0.00000000000E+00 -0.45593999997E+02  0.45594000000E+02  0.51100000000E-03 0.  1.
         23    2    1    2    0    0 -0.17763568394E-14 -0.44408920985E-15  0.00000000000E+00  0.91188000000E+02  0.91188000000E+02 0.  0.
    9900012    2    3    3    0    0  0.60643635340E+01  0.17945887124E+01 -0.36273723071E+02  0.54367081500E+02  0.39999993896E+02 0.  0.
         12    1    3    3    0    0 -0.60643635340E+01 -0.17945887124E+01  0.36273723071E+02  0.36820918500E+02  0.00000000000E+00 0. -1.
         11    1    4    4    0    0 -0.13580986107E+01 -0.75461489970E+01  0.15224455546E+01  0.78170734453E+01  0.51100000000E-03 0. -1.
        -11    1    4    4    0    0 -0.81232771275E+01  0.33453931921E+01 -0.59560451719E+01  0.10613847618E+02  0.51100000000E-03 0.  1.
        -12    1    4    4    0    0  0.15545739272E+02  0.59953445173E+01 -0.31840123454E+02  0.35936160437E+02  0.00000000000E+00 0.  1.
</event>
<event>
 8    1  0.3106980E-007  0.9118800E+02  0.7816164E-02  0.1184000E+00
        -11   -1    0    0    0    0  0.00000000000E+00  0.00000000000E+00  0.45593999997E+02  0.45594000000E+02  0.51100000000E-03 0. -1.
         11   -1    0    0    0    0 -0.00000000000E+00 -0.00000000000E+00 -0.45593999997E+02  0.45594000000E+02  0.51100000000E-03 0.  1.
         23    2    1    2    0    0  0.00000000000E+00 -0.88817841970E-15  0.00000000000E+00  0.91188000000E+02  0.91188000000E+02 0.  0.
    9900012    2    3    3    0    0  0.28910202227E+02 -0.74204805887E+01  0.21561937001E+02  0.54367075891E+02  0.39999981110E+02 0.  0.
         12    1    3    3    0    0 -0.28910202227E+02  0.74204805887E+01 -0.21561937001E+02  0.36820924109E+02  0.00000000000E+00 0. -1.
         11    1    4    4    0    0  0.58300646672E+01  0.42972550644E+01  0.96877152980E+01  0.12095779556E+02  0.51100000000E-03 0. -1.
        -11    1    4    4    0    0  0.26145516623E+02 -0.31403870703E+01 -0.11724963691E+01  0.26359529936E+02  0.51100000000E-03 0.  1.
         12    1    4    4    0    0 -0.30653790631E+01 -0.85773485828E+01  0.13046718072E+02  0.15911766400E+02  0.00000000000E+00 0. -1.
</event>
<event>
 8    1  0.3106980E-007  0.9118800E+02  0.7816164E-02  0.1184000E+00
        -11   -1    0    0    0    0  0.00000000000E+00  0.00000000000E+00  0.45593999997E+02  0.45594000000E+02  0.51100000000E-03 0.  1.
         11   -1    0    0    0    0 -0.00000000000E+00 -0.00000000000E+00 -0.45593999997E+02  0.45594000000E+02  0.51100000000E-03 0. -1.
         23    2    1    2    0    0  0.00000000000E+00  0.00000000000E+00  0.00000000000E+00  0.91188000000E+02  0.91188000000E+02 0.  0.
    9900012    2    3    3    0    0  0.24587498504E+02 -0.18831554969E+02  0.19915005640E+02  0.54367082102E+02  0.39999995267E+02 0.  0.
         12    1    3    3    0    0 -0.24587498504E+02  0.18831554969E+02 -0.19915005640E+02  0.36820917898E+02  0.00000000000E+00 0. -1.
         11    1    4    4    0    0  0.87614064013E+00  0.46572600030E+01  0.10015500881E+02  0.11080070005E+02  0.51100000000E-03 0.  1.
        -11    1    4    4    0    0 -0.44730145606E+01 -0.97943672199E+01  0.17427312469E+01  0.10907547889E+02  0.51100000000E-03 0. -1.
        -12    1    4    4    0    0  0.28184372424E+02 -0.13694447752E+02  0.81567735118E+01  0.32379464207E+02  0.00000000000E+00 0.  1.
</event>
<event>
 8    1  0.3106980E-007  0.9118800E+02  0.7816164E-02  0.1184000E+00
        -11   -1    0    0    0    0  0.00000000000E+00  0.00000000000E+00  0.45593999997E+02  0.45594000000E+02  0.51100000000E-03 0. -1.
         11   -1    0    0    0    0 -0.00000000000E+00 -0.00000000000E+00 -0.45593999997E+02  0.45594000000E+02  0.51100000000E-03 0.  1.
         23    2    1    2    0    0  0.00000000000E+00  0.00000000000E+00 -0.13322676296E-14  0.91188000000E+02  0.91188000000E+02 0.  0.
    9900012    2    3    3    0    0 -0.41352709936E+01 -0.36450303014E+02 -0.31705934902E+01  0.54367113005E+02  0.40000065717E+02 0.  0.
        -12    1    3    3    0    0  0.41352709936E+01  0.36450303014E+02  0.31705934902E+01  0.36820886995E+02  0.00000000000E+00 0.  1.
         11    1    4    4    0    0 -0.64464358996E+01 -0.22839282139E+02  0.14035398553E+01  0.23773078656E+02  0.51100000000E-03 0. -1.
        -11    1    4    4    0    0  0.68587849798E+01 -0.62516420367E+01 -0.14632351056E+02  0.17327194154E+02  0.51100000000E-03 0.  1.
        -12    1    4    4    0    0 -0.45476200738E+01 -0.73593788391E+01  0.10058217711E+02  0.13266840195E+02  0.00000000000E+00 0.  1.
</event>
<event>
 8    1  0.3106980E-007  0.9118800E+02  0.7816164E-02  0.1184000E+00
        -11   -1    0    0    0    0  0.00000000000E+00  0.00000000000E+00  0.45593999997E+02  0.45594000000E+02  0.51100000000E-03 0.  1.
         11   -1    0    0    0    0 -0.00000000000E+00 -0.00000000000E+00 -0.45593999997E+02  0.45594000000E+02  0.51100000000E-03 0. -1.
         23    2    1    2    0    0  0.17763568394E-14  0.00000000000E+00  0.00000000000E+00  0.91188000000E+02  0.91188000000E+02 0.  0.
    9900012    2    3    3    0    0 -0.10608523776E+02 -0.18424905020E+02  0.30062634117E+02  0.54367083773E+02  0.39999999078E+02 0.  0.
         12    1    3    3    0    0  0.10608523776E+02  0.18424905020E+02 -0.30062634117E+02  0.36820916227E+02  0.00000000000E+00 0. -1.
         11    1    4    4    0    0  0.67247569345E+01 -0.69207192293E+01 -0.34827916134E+01  0.10259071506E+02  0.51100000000E-03 0.  1.
        -11    1    4    4    0    0 -0.73442327761E+01  0.41855688653E+01  0.17928636985E+02  0.19821522802E+02  0.51100000000E-03 0. -1.
        -12    1    4    4    0    0 -0.99890479343E+01 -0.15689754656E+02  0.15616788746E+02  0.24286489465E+02  0.00000000000E+00 0.  1.
</event>
<event>
 8    1  0.3106980E-007  0.9118800E+02  0.7816164E-02  0.1184000E+00
        -11   -1    0    0    0    0  0.00000000000E+00  0.00000000000E+00  0.45593999997E+02  0.45594000000E+02  0.51100000000E-03 0. -1.
         11   -1    0    0    0    0 -0.00000000000E+00 -0.00000000000E+00 -0.45593999997E+02  0.45594000000E+02  0.51100000000E-03 0.  1.
         23    2    1    2    0    0 -0.71054273576E-14  0.00000000000E+00  0.00000000000E+00  0.91188000000E+02  0.91188000000E+02 0.  0.
    9900012    2    3    3    0    0  0.34908825322E+02 -0.10799582534E+02  0.45300892846E+01  0.54367098637E+02  0.40000032962E+02 0.  0.
        -12    1    3    3    0    0 -0.34908825322E+02  0.10799582534E+02 -0.45300892846E+01  0.36820901363E+02  0.00000000000E+00 0.  1.
         11    1    4    4    0    0  0.24272508822E+02 -0.35526759859E-01  0.14674059568E+02  0.28363426647E+02  0.51100000000E-03 0. -1.
        -11    1    4    4    0    0 -0.31657895654E+01  0.30475552843E+01 -0.14248649217E+01  0.46195299642E+01  0.51100000000E-03 0.  1.
        -12    1    4    4    0    0  0.13802106066E+02 -0.13811611058E+02 -0.87191053618E+01  0.21384142026E+02  0.00000000000E+00 0.  1.
</event>
<event>
 8    1  0.3106980E-007  0.9118800E+02  0.7816164E-02  0.1184000E+00
        -11   -1    0    0    0    0  0.00000000000E+00  0.00000000000E+00  0.45593999997E+02  0.45594000000E+02  0.51100000000E-03 0. -1.
         11   -1    0    0    0    0 -0.00000000000E+00 -0.00000000000E+00 -0.45593999997E+02  0.45594000000E+02  0.51100000000E-03 0.  1.
         23    2    1    2    0    0  0.00000000000E+00  0.35527136788E-14  0.00000000000E+00  0.91188000000E+02  0.91188000000E+02 0.  0.
    9900012    2    3    3    0    0 -0.16931976118E+02  0.27873146900E+02 -0.17093125429E+02  0.54367094657E+02  0.40000023888E+02 0.  0.
         12    1    3    3    0    0  0.16931976118E+02 -0.27873146900E+02  0.17093125429E+02  0.36820905343E+02  0.00000000000E+00 0. -1.
         11    1    4    4    0    0 -0.28407866164E+01  0.12212788538E+02  0.50927924099E+01  0.13533617671E+02  0.51100000000E-03 0. -1.
        -11    1    4    4    0    0  0.63270908489E+01 -0.23503902227E+01 -0.67024703714E+01  0.95120724424E+01  0.51100000000E-03 0.  1.
         12    1    4    4    0    0 -0.20418280351E+02  0.18010748584E+02 -0.15483447468E+02  0.31321404543E+02  0.00000000000E+00 0. -1.
</event>
<event>
 8    1  0.3106980E-007  0.9118800E+02  0.7816164E-02  0.1184000E+00
        -11   -1    0    0    0    0  0.00000000000E+00  0.00000000000E+00  0.45593999997E+02  0.45594000000E+02  0.51100000000E-03 0.  1.
         11   -1    0    0    0    0 -0.00000000000E+00 -0.00000000000E+00 -0.45593999997E+02  0.45594000000E+02  0.51100000000E-03 0. -1.
         23    2    1    2    0    0  0.35527136788E-14  0.00000000000E+00  0.35527136788E-14  0.91188000000E+02  0.91188000000E+02 0.  0.
    9900012    2    3    3    0    0 -0.16705519749E+02  0.16823819191E+02 -0.28172043753E+02  0.54367091110E+02  0.40000015804E+02 0.  0.
        -12    1    3    3    0    0  0.16705519749E+02 -0.16823819191E+02  0.28172043753E+02  0.36820908890E+02  0.00000000000E+00 0.  1.
         11    1    4    4    0    0 -0.16853636970E+02  0.31435286702E+01 -0.72595907773E+01  0.18617962030E+02  0.51100000000E-03 0.  1.
        -11    1    4    4    0    0  0.11805323883E+02  0.12162018696E+02 -0.98325795747E+01  0.19594897094E+02  0.51100000000E-03 0. -1.
         12    1    4    4    0    0 -0.11657206662E+02  0.15182718246E+01 -0.11079873401E+02  0.16154231987E+02  0.00000000000E+00 0. -1.
</event>
<event>
 8    1  0.3106980E-007  0.9118800E+02  0.7816164E-02  0.1184000E+00
        -11   -1    0    0    0    0  0.00000000000E+00  0.00000000000E+00  0.45593999997E+02  0.45594000000E+02  0.51100000000E-03 0. -1.
         11   -1    0    0    0    0 -0.00000000000E+00 -0.00000000000E+00 -0.45593999997E+02  0.45594000000E+02  0.51100000000E-03 0.  1.
         23    2    1    2    0    0  0.00000000000E+00  0.00000000000E+00  0.00000000000E+00  0.91188000000E+02  0.91188000000E+02 0.  0.
    9900012    2    3    3    0    0  0.14839232241E+02  0.55656142196E+01  0.33235563761E+02  0.54367060663E+02  0.39999946393E+02 0.  0.
        -12    1    3    3    0    0 -0.14839232241E+02 -0.55656142196E+01 -0.33235563761E+02  0.36820939337E+02  0.00000000000E+00 0.  1.
         11    1    4    4    0    0 -0.10116757712E+02  0.71342382509E+01  0.13688377841E+02  0.18455834584E+02  0.51100000000E-03 0. -1.
        -11    1    4    4    0    0  0.45136624429E+01  0.63721539698E+01  0.27203022614E+01  0.82690712609E+01  0.51100000000E-03 0.  1.
         12    1    4    4    0    0  0.20442327510E+02 -0.79407780012E+01  0.16826883659E+02  0.27642154818E+02  0.00000000000E+00 0. -1.
</event>
<event>
 8    1  0.3106980E-007  0.9118800E+02  0.7816164E-02  0.1184000E+00
        -11   -1    0    0    0    0  0.00000000000E+00  0.00000000000E+00  0.45593999997E+02  0.45594000000E+02  0.51100000000E-03 0.  1.
         11   -1    0    0    0    0 -0.00000000000E+00 -0.00000000000E+00 -0.45593999997E+02  0.45594000000E+02  0.51100000000E-03 0. -1.
         23    2    1    2    0    0 -0.35527136788E-14  0.44408920985E-15 -0.35527136788E-14  0.91188000000E+02  0.91188000000E+02 0.  0.
    9900012    2    3    3    0    0  0.18577818161E+02  0.11204488417E+01 -0.31770899138E+02  0.54367071640E+02  0.39999971418E+02 0.  0.
        -12    1    3    3    0    0 -0.18577818161E+02 -0.11204488417E+01  0.31770899138E+02  0.36820928360E+02  0.00000000000E+00 0.  1.
         11    1    4    4    0    0 -0.29352050288E+00  0.15923267815E+01 -0.10995327131E+02  0.11113904708E+02  0.51100000000E-03 0. -1.
        -11    1    4    4    0    0  0.97449846887E+00 -0.14442113120E+02 -0.12379177551E+02  0.19046477778E+02  0.51100000000E-03 0.  1.
         12    1    4    4    0    0  0.17896840195E+02  0.13970235181E+02 -0.83963944557E+01  0.24206689155E+02  0.00000000000E+00 0. -1.
</event>
<event>
 8    1  0.3106980E-007  0.9118800E+02  0.7816164E-02  0.1184000E+00
        -11   -1    0    0    0    0  0.00000000000E+00  0.00000000000E+00  0.45593999997E+02  0.45594000000E+02  0.51100000000E-03 0. -1.
         11   -1    0    0    0    0 -0.00000000000E+00 -0.00000000000E+00 -0.45593999997E+02  0.45594000000E+02  0.51100000000E-03 0.  1.
         23    2    1    2    0    0  0.00000000000E+00  0.35527136788E-14 -0.35527136788E-14  0.91188000000E+02  0.91188000000E+02 0.  0.
    9900012    2    3    3    0    0 -0.16140496803E+02  0.21025835929E+02 -0.25557356657E+02  0.54367083487E+02  0.39999998426E+02 0.  0.
         12    1    3    3    0    0  0.16140496803E+02 -0.21025835929E+02  0.25557356657E+02  0.36820916513E+02  0.00000000000E+00 0. -1.
         11    1    4    4    0    0  0.11383105620E+02  0.16733594742E+01 -0.51966791851E+01  0.12624606937E+02  0.51100000000E-03 0. -1.
        -11    1    4    4    0    0 -0.22803620324E+02  0.18214920193E+02 -0.22074939168E+02  0.36593597214E+02  0.51100000000E-03 0.  1.
         12    1    4    4    0    0 -0.47199820987E+01  0.11375562615E+01  0.17142616959E+01  0.51488793365E+01  0.00000000000E+00 0. -1.
</event>
<event>
 8    1  0.3106980E-007  0.9118800E+02  0.7816164E-02  0.1184000E+00
        -11   -1    0    0    0    0  0.00000000000E+00  0.00000000000E+00  0.45593999997E+02  0.45594000000E+02  0.51100000000E-03 0.  1.
         11   -1    0    0    0    0 -0.00000000000E+00 -0.00000000000E+00 -0.45593999997E+02  0.45594000000E+02  0.51100000000E-03 0. -1.
         23    2    1    2    0    0  0.22204460493E-15  0.35527136788E-14  0.00000000000E+00  0.91188000000E+02  0.91188000000E+02 0.  0.
    9900012    2    3    3    0    0  0.14336159139E+01  0.22477541764E+02 -0.29128725262E+02  0.54367112263E+02  0.40000064025E+02 0.  0.
        -12    1    3    3    0    0 -0.14336159139E+01 -0.22477541764E+02  0.29128725262E+02  0.36820887737E+02  0.00000000000E+00 0.  1.
         11    1    4    4    0    0 -0.58554460202E+01  0.16198931029E+00 -0.13488295383E+02  0.14705325608E+02  0.51100000000E-03 0. -1.
        -11    1    4    4    0    0  0.58089678779E+01 -0.31555371030E+01 -0.12254720536E+02  0.13924069013E+02  0.51100000000E-03 0.  1.
        -12    1    4    4    0    0  0.14800940562E+01  0.25471089557E+02 -0.33857093434E+01  0.25737717641E+02  0.00000000000E+00 0.  1.
</event>
<event>
 8    1  0.3106980E-007  0.9118800E+02  0.7816164E-02  0.1184000E+00
        -11   -1    0    0    0    0  0.00000000000E+00  0.00000000000E+00  0.45593999997E+02  0.45594000000E+02  0.51100000000E-03 0.  1.
         11   -1    0    0    0    0 -0.00000000000E+00 -0.00000000000E+00 -0.45593999997E+02  0.45594000000E+02  0.51100000000E-03 0. -1.
         23    2    1    2    0    0  0.00000000000E+00 -0.44408920985E-15  0.35527136788E-14  0.91188000000E+02  0.91188000000E+02 0.  0.
    9900012    2    3    3    0    0 -0.32729791088E+02  0.23506324374E+01 -0.16703723127E+02  0.54367094745E+02  0.40000024089E+02 0.  0.
        -12    1    3    3    0    0  0.32729791088E+02 -0.23506324374E+01  0.16703723127E+02  0.36820905255E+02  0.00000000000E+00 0.  1.
         11    1    4    4    0    0 -0.18176715532E+02  0.11744788281E+02 -0.35337850195E+01  0.21927623586E+02  0.51100000000E-03 0. -1.
        -11    1    4    4    0    0  0.32466377764E+01 -0.21158965772E+01  0.47662721160E+01  0.61428841208E+01  0.51100000000E-03 0.  1.
         12    1    4    4    0    0 -0.17799713333E+02 -0.72782592664E+01 -0.17936210223E+02  0.26296587038E+02  0.00000000000E+00 0. -1.
</event>
<event>
 8    1  0.3106980E-007  0.9118800E+02  0.7816164E-02  0.1184000E+00
        -11   -1    0    0    0    0  0.00000000000E+00  0.00000000000E+00  0.45593999997E+02  0.45594000000E+02  0.51100000000E-03 0.  1.
         11   -1    0    0    0    0 -0.00000000000E+00 -0.00000000000E+00 -0.45593999997E+02  0.45594000000E+02  0.51100000000E-03 0. -1.
         23    2    1    2    0    0  0.35527136788E-14  0.00000000000E+00  0.00000000000E+00  0.91188000000E+02  0.91188000000E+02 0.  0.
    9900012    2    3    3    0    0  0.26985574453E+02 -0.19650703035E+02  0.15537287959E+02  0.54367100019E+02  0.40000036112E+02 0.  0.
        -12    1    3    3    0    0 -0.26985574453E+02  0.19650703035E+02 -0.15537287959E+02  0.36820899981E+02  0.00000000000E+00 0.  1.
         11    1    4    4    0    0  0.24941095378E+02 -0.14697669782E+02  0.46079338587E+01  0.29314037429E+02  0.51100000000E-03 0. -1.
        -11    1    4    4    0    0  0.11414330204E+02  0.31657950391E+00  0.33507872597E+01  0.11900207229E+02  0.51100000000E-03 0.  1.
        -12    1    4    4    0    0 -0.93698511285E+01 -0.52696127568E+01  0.75785668407E+01  0.13152855361E+02  0.00000000000E+00 0.  1.
</event>
<event>
 8    1  0.3106980E-007  0.9118800E+02  0.7816164E-02  0.1184000E+00
        -11   -1    0    0    0    0  0.00000000000E+00  0.00000000000E+00  0.45593999997E+02  0.45594000000E+02  0.51100000000E-03 0.  1.
         11   -1    0    0    0    0 -0.00000000000E+00 -0.00000000000E+00 -0.45593999997E+02  0.45594000000E+02  0.51100000000E-03 0. -1.
         23    2    1    2    0    0  0.00000000000E+00 -0.35527136788E-14  0.35527136788E-14  0.91188000000E+02  0.91188000000E+02 0.  0.
    9900012    2    3    3    0    0  0.22285724476E+02  0.22046168873E+02 -0.19315608573E+02  0.54367084586E+02  0.40000000931E+02 0.  0.
         12    1    3    3    0    0 -0.22285724476E+02 -0.22046168873E+02  0.19315608573E+02  0.36820915414E+02  0.00000000000E+00 0. -1.
         11    1    4    4    0    0 -0.43864611123E+01  0.14108269980E+01  0.36688851265E+01  0.58900078302E+01  0.51100000000E-03 0. -1.
        -11    1    4    4    0    0 -0.22820344305E+01 -0.39636378216E+01 -0.36261203704E+01  0.58366818591E+01  0.51100000000E-03 0.  1.
         12    1    4    4    0    0  0.28954220019E+02  0.24598979697E+02 -0.19358373329E+02  0.42640394897E+02  0.00000000000E+00 0. -1.
</event>
<event>
 8    1  0.3106980E-007  0.9118800E+02  0.7816164E-02  0.1184000E+00
        -11   -1    0    0    0    0  0.00000000000E+00  0.00000000000E+00  0.45593999997E+02  0.45594000000E+02  0.51100000000E-03 0.  1.
         11   -1    0    0    0    0 -0.00000000000E+00 -0.00000000000E+00 -0.45593999997E+02  0.45594000000E+02  0.51100000000E-03 0. -1.
         23    2    1    2    0    0 -0.17763568394E-14  0.00000000000E+00 -0.35527136788E-14  0.91188000000E+02  0.91188000000E+02 0.  0.
    9900012    2    3    3    0    0 -0.11783666556E+02 -0.29742832344E+02  0.18228813100E+02  0.54367075237E+02  0.39999979618E+02 0.  0.
         12    1    3    3    0    0  0.11783666556E+02  0.29742832344E+02 -0.18228813100E+02  0.36820924763E+02  0.00000000000E+00 0. -1.
         11    1    4    4    0    0 -0.47822547851E+01 -0.11524592340E+02  0.11727005378E+02  0.17123342104E+02  0.51100000000E-03 0. -1.
        -11    1    4    4    0    0 -0.18860352149E+02 -0.64168468789E+01  0.29316407262E+01  0.20136616515E+02  0.51100000000E-03 0.  1.
         12    1    4    4    0    0  0.11858940379E+02 -0.11801393125E+02  0.35701669962E+01  0.17107116618E+02  0.00000000000E+00 0. -1.
</event>
<event>
 8    1  0.3106980E-007  0.9118800E+02  0.7816164E-02  0.1184000E+00
        -11   -1    0    0    0    0  0.00000000000E+00  0.00000000000E+00  0.45593999997E+02  0.45594000000E+02  0.51100000000E-03 0.  1.
         11   -1    0    0    0    0 -0.00000000000E+00 -0.00000000000E+00 -0.45593999997E+02  0.45594000000E+02  0.51100000000E-03 0. -1.
         23    2    1    2    0    0  0.00000000000E+00 -0.17763568394E-14  0.35527136788E-14  0.91188000000E+02  0.91188000000E+02 0.  0.
    9900012    2    3    3    0    0  0.26329900753E+02 -0.80571722372E+01 -0.24445840815E+02  0.54367070744E+02  0.39999969375E+02 0.  0.
        -12    1    3    3    0    0 -0.26329900753E+02  0.80571722372E+01  0.24445840815E+02  0.36820929256E+02  0.00000000000E+00 0.  1.
         11    1    4    4    0    0  0.23944982072E+01 -0.17903385689E+02 -0.10383123262E+02  0.20834444791E+02  0.51100000000E-03 0. -1.
        -11    1    4    4    0    0 -0.20868283547E+01  0.26978269528E+01 -0.10210625750E+01  0.35602937930E+01  0.51100000000E-03 0.  1.
        -12    1    4    4    0    0  0.26022230901E+02  0.71483864989E+01 -0.13041654978E+02  0.29972332160E+02  0.00000000000E+00 0.  1.
</event>
<event>
 8    1  0.3106980E-007  0.9118800E+02  0.7816164E-02  0.1184000E+00
        -11   -1    0    0    0    0  0.00000000000E+00  0.00000000000E+00  0.45593999997E+02  0.45594000000E+02  0.51100000000E-03 0.  1.
         11   -1    0    0    0    0 -0.00000000000E+00 -0.00000000000E+00 -0.45593999997E+02  0.45594000000E+02  0.51100000000E-03 0. -1.
         23    2    1    2    0    0  0.00000000000E+00  0.00000000000E+00  0.00000000000E+00  0.91188000000E+02  0.91188000000E+02 0.  0.
    9900012    2    3    3    0    0 -0.11862529323E+02  0.19784160274E+02  0.28699105751E+02  0.54367200571E+02  0.40000265341E+02 0.  0.
         12    1    3    3    0    0  0.11862529323E+02 -0.19784160274E+02 -0.28699105751E+02  0.36820799429E+02  0.00000000000E+00 0. -1.
         11    1    4    4    0    0  0.89599499595E+01  0.16510160187E+02  0.10696008061E+02  0.21616444698E+02  0.51100000000E-03 0. -1.
        -11    1    4    4    0    0 -0.47291469899E+01  0.79996163853E+00  0.15564511775E+02  0.16286767541E+02  0.51100000000E-03 0.  1.
        -12    1    4    4    0    0 -0.16093332293E+02  0.24740384485E+01  0.24385859151E+01  0.16463988332E+02  0.00000000000E+00 0.  1.
</event>
<event>
 8    1  0.3106980E-007  0.9118800E+02  0.7816164E-02  0.1184000E+00
        -11   -1    0    0    0    0  0.00000000000E+00  0.00000000000E+00  0.45593999997E+02  0.45594000000E+02  0.51100000000E-03 0. -1.
         11   -1    0    0    0    0 -0.00000000000E+00 -0.00000000000E+00 -0.45593999997E+02  0.45594000000E+02  0.51100000000E-03 0.  1.
         23    2    1    2    0    0  0.00000000000E+00  0.00000000000E+00  0.00000000000E+00  0.91188000000E+02  0.91188000000E+02 0.  0.
    9900012    2    3    3    0    0 -0.19852466125E+02 -0.48362659485E+01 -0.30631191440E+02  0.54367085174E+02  0.40000002271E+02 0.  0.
         12    1    3    3    0    0  0.19852466125E+02  0.48362659485E+01  0.30631191440E+02  0.36820914826E+02  0.00000000000E+00 0. -1.
         11    1    4    4    0    0 -0.11741485871E+02 -0.57477928618E+01 -0.81852777337E+01  0.15423954910E+02  0.51100000000E-03 0.  1.
        -11    1    4    4    0    0 -0.11191009054E+02  0.90361835049E+01  0.51525175962E+00  0.14392942042E+02  0.51100000000E-03 0. -1.
         12    1    4    4    0    0  0.30800288000E+01 -0.81246565917E+01 -0.22961165466E+02  0.24550188221E+02  0.00000000000E+00 0. -1.
</event>
<event>
 8    1  0.3106980E-007  0.9118800E+02  0.7816164E-02  0.1184000E+00
        -11   -1    0    0    0    0  0.00000000000E+00  0.00000000000E+00  0.45593999997E+02  0.45594000000E+02  0.51100000000E-03 0. -1.
         11   -1    0    0    0    0 -0.00000000000E+00 -0.00000000000E+00 -0.45593999997E+02  0.45594000000E+02  0.51100000000E-03 0.  1.
         23    2    1    2    0    0 -0.35527136788E-14 -0.35527136788E-14 -0.35527136788E-14  0.91188000000E+02  0.91188000000E+02 0.  0.
    9900012    2    3    3    0    0  0.21628150784E+02  0.10965841122E+02  0.27708362542E+02  0.54367082948E+02  0.39999997196E+02 0.  0.
        -12    1    3    3    0    0 -0.21628150784E+02 -0.10965841122E+02 -0.27708362542E+02  0.36820917052E+02  0.00000000000E+00 0.  1.
         11    1    4    4    0    0  0.37929211550E+01 -0.74084016469E+01  0.50167968344E+01  0.97179687481E+01  0.51100000000E-03 0. -1.
        -11    1    4    4    0    0 -0.71589948305E+01  0.23357840856E+01  0.44574970348E+00  0.75435924690E+01  0.51100000000E-03 0.  1.
         12    1    4    4    0    0  0.24994224459E+02  0.16038458683E+02  0.22245816004E+02  0.37105521731E+02  0.00000000000E+00 0. -1.
</event>
<event>
 8    1  0.3106980E-007  0.9118800E+02  0.7816164E-02  0.1184000E+00
        -11   -1    0    0    0    0  0.00000000000E+00  0.00000000000E+00  0.45593999997E+02  0.45594000000E+02  0.51100000000E-03 0.  1.
         11   -1    0    0    0    0 -0.00000000000E+00 -0.00000000000E+00 -0.45593999997E+02  0.45594000000E+02  0.51100000000E-03 0. -1.
         23    2    1    2    0    0  0.00000000000E+00  0.00000000000E+00  0.35527136788E-14  0.91188000000E+02  0.91188000000E+02 0.  0.
    9900012    2    3    3    0    0 -0.23821811554E+02  0.19942402731E+02 -0.19763602914E+02  0.54367107391E+02  0.40000052919E+02 0.  0.
        -12    1    3    3    0    0  0.23821811554E+02 -0.19942402731E+02  0.19763602914E+02  0.36820892609E+02  0.00000000000E+00 0.  1.
         11    1    4    4    0    0 -0.23562226927E+02  0.16542325412E+02 -0.21473754924E+01  0.28869331298E+02  0.51100000000E-03 0. -1.
        -11    1    4    4    0    0 -0.59744525491E+00  0.44116781810E+01 -0.21249679717E+02  0.21711027925E+02  0.51100000000E-03 0.  1.
        -12    1    4    4    0    0  0.33786062844E+00 -0.10116008623E+01  0.36334522954E+01  0.37867481686E+01  0.00000000000E+00 0.  1.
</event>
<event>
 8    1  0.3106980E-007  0.9118800E+02  0.7816164E-02  0.1184000E+00
        -11   -1    0    0    0    0  0.00000000000E+00  0.00000000000E+00  0.45593999997E+02  0.45594000000E+02  0.51100000000E-03 0.  1.
         11   -1    0    0    0    0 -0.00000000000E+00 -0.00000000000E+00 -0.45593999997E+02  0.45594000000E+02  0.51100000000E-03 0. -1.
         23    2    1    2    0    0  0.35527136788E-14  0.35527136788E-14  0.17763568394E-14  0.91188000000E+02  0.91188000000E+02 0.  0.
    9900012    2    3    3    0    0  0.29000151604E+02  0.21024499111E+02  0.85289424173E+01  0.54367065537E+02  0.39999957505E+02 0.  0.
         12    1    3    3    0    0 -0.29000151604E+02 -0.21024499111E+02 -0.85289424173E+01  0.36820934463E+02  0.00000000000E+00 0. -1.
         11    1    4    4    0    0  0.18999344891E+02  0.22089637930E+02 -0.21096425448E+01  0.29212630865E+02  0.51100000000E-03 0. -1.
        -11    1    4    4    0    0  0.83379276534E+01  0.30042702002E+00 -0.47603837062E+01  0.96058600468E+01  0.51100000000E-03 0.  1.
        -12    1    4    4    0    0  0.16628790601E+01 -0.13655658384E+01  0.15398968668E+02  0.15548574625E+02  0.00000000000E+00 0.  1.
</event>
<event>
 8    1  0.3106980E-007  0.9118800E+02  0.7816164E-02  0.1184000E+00
        -11   -1    0    0    0    0  0.00000000000E+00  0.00000000000E+00  0.45593999997E+02  0.45594000000E+02  0.51100000000E-03 0.  1.
         11   -1    0    0    0    0 -0.00000000000E+00 -0.00000000000E+00 -0.45593999997E+02  0.45594000000E+02  0.51100000000E-03 0. -1.
         23    2    1    2    0    0  0.00000000000E+00 -0.17763568394E-14  0.00000000000E+00  0.91188000000E+02  0.91188000000E+02 0.  0.
    9900012    2    3    3    0    0  0.22985254843E+02  0.15754091199E+02 -0.24067948571E+02  0.54367089118E+02  0.40000011263E+02 0.  0.
        -12    1    3    3    0    0 -0.22985254843E+02 -0.15754091199E+02  0.24067948571E+02  0.36820910882E+02  0.00000000000E+00 0.  1.
         11    1    4    4    0    0  0.15691465242E+02 -0.61660944644E+01 -0.91325438899E+01  0.19174101297E+02  0.51100000000E-03 0. -1.
        -11    1    4    4    0    0  0.80583616799E+01 -0.62103889412E+00 -0.85210717996E+01  0.11744426216E+02  0.51100000000E-03 0.  1.
        -12    1    4    4    0    0 -0.76457207874E+00  0.22541224558E+02 -0.64143328817E+01  0.23448561605E+02  0.00000000000E+00 0.  1.
</event>
<event>
 8    1  0.3106980E-007  0.9118800E+02  0.7816164E-02  0.1184000E+00
        -11   -1    0    0    0    0  0.00000000000E+00  0.00000000000E+00  0.45593999997E+02  0.45594000000E+02  0.51100000000E-03 0.  1.
         11   -1    0    0    0    0 -0.00000000000E+00 -0.00000000000E+00 -0.45593999997E+02  0.45594000000E+02  0.51100000000E-03 0. -1.
         23    2    1    2    0    0 -0.88817841970E-15  0.17763568394E-14  0.00000000000E+00  0.91188000000E+02  0.91188000000E+02 0.  0.
    9900012    2    3    3    0    0  0.51558222922E+01 -0.10693916274E+02 -0.34854539803E+02  0.54367064465E+02  0.39999955061E+02 0.  0.
        -12    1    3    3    0    0 -0.51558222922E+01  0.10693916274E+02  0.34854539803E+02  0.36820935535E+02  0.00000000000E+00 0.  1.
         11    1    4    4    0    0  0.78529664623E+01  0.53896768913E+01  0.43793245290E+01  0.10483138025E+02  0.51100000000E-03 0.  1.
        -11    1    4    4    0    0 -0.14703505592E+01 -0.14195975793E+02 -0.39106147561E+02  0.41629057601E+02  0.51100000000E-03 0. -1.
        -12    1    4    4    0    0 -0.12267936109E+01 -0.18876173722E+01 -0.12771677155E+00  0.22548688391E+01  0.00000000000E+00 0.  1.
</event>
<event>
 8    1  0.3106980E-007  0.9118800E+02  0.7816164E-02  0.1184000E+00
        -11   -1    0    0    0    0  0.00000000000E+00  0.00000000000E+00  0.45593999997E+02  0.45594000000E+02  0.51100000000E-03 0.  1.
         11   -1    0    0    0    0 -0.00000000000E+00 -0.00000000000E+00 -0.45593999997E+02  0.45594000000E+02  0.51100000000E-03 0. -1.
         23    2    1    2    0    0  0.00000000000E+00  0.00000000000E+00 -0.35527136788E-14  0.91188000000E+02  0.91188000000E+02 0.  0.
    9900012    2    3    3    0    0 -0.23485565917E+02  0.12901034914E+02 -0.25254148837E+02  0.54367074675E+02  0.39999978337E+02 0.  0.
        -12    1    3    3    0    0  0.23485565917E+02 -0.12901034914E+02  0.25254148837E+02  0.36820925325E+02  0.00000000000E+00 0.  1.
         11    1    4    4    0    0 -0.25881729465E+01 -0.93390040861E+01 -0.14993792337E+02  0.17852995419E+02  0.51100000000E-03 0. -1.
        -11    1    4    4    0    0 -0.51398833330E+01 -0.23796179575E+01 -0.45296882573E+00  0.56820914564E+01  0.51100000000E-03 0.  1.
        -12    1    4    4    0    0 -0.15757509637E+02  0.24619656958E+02 -0.98073876738E+01  0.30831987800E+02  0.00000000000E+00 0.  1.
</event>
<event>
 8    1  0.3106980E-007  0.9118800E+02  0.7816164E-02  0.1184000E+00
        -11   -1    0    0    0    0  0.00000000000E+00  0.00000000000E+00  0.45593999997E+02  0.45594000000E+02  0.51100000000E-03 0.  1.
         11   -1    0    0    0    0 -0.00000000000E+00 -0.00000000000E+00 -0.45593999997E+02  0.45594000000E+02  0.51100000000E-03 0. -1.
         23    2    1    2    0    0  0.35527136788E-14 -0.35527136788E-14  0.35527136788E-14  0.91188000000E+02  0.91188000000E+02 0.  0.
    9900012    2    3    3    0    0  0.16564502460E+02 -0.20904581289E+02  0.25384955811E+02  0.54367078744E+02  0.39999987613E+02 0.  0.
         12    1    3    3    0    0 -0.16564502460E+02  0.20904581289E+02 -0.25384955811E+02  0.36820921256E+02  0.00000000000E+00 0. -1.
         11    1    4    4    0    0 -0.31446535242E+01 -0.52993198034E+01  0.90661111578E+01  0.10962025723E+02  0.51100000000E-03 0. -1.
        -11    1    4    4    0    0  0.18174803776E+02 -0.13370543103E+02  0.25372804786E+02  0.33954000326E+02  0.51100000000E-03 0.  1.
         12    1    4    4    0    0  0.15343522083E+01 -0.22347183823E+01 -0.90539601334E+01  0.94510526951E+01  0.00000000000E+00 0. -1.
</event>
<event>
 8    1  0.3106980E-007  0.9118800E+02  0.7816164E-02  0.1184000E+00
        -11   -1    0    0    0    0  0.00000000000E+00  0.00000000000E+00  0.45593999997E+02  0.45594000000E+02  0.51100000000E-03 0.  1.
         11   -1    0    0    0    0 -0.00000000000E+00 -0.00000000000E+00 -0.45593999997E+02  0.45594000000E+02  0.51100000000E-03 0. -1.
         23    2    1    2    0    0  0.00000000000E+00  0.00000000000E+00  0.88817841970E-15  0.91188000000E+02  0.91188000000E+02 0.  0.
    9900012    2    3    3    0    0  0.30632769901E+02  0.19996337621E+02 -0.41906743596E+01  0.54367056753E+02  0.39999937479E+02 0.  0.
        -12    1    3    3    0    0 -0.30632769901E+02 -0.19996337621E+02  0.41906743596E+01  0.36820943247E+02  0.00000000000E+00 0.  1.
         11    1    4    4    0    0 -0.30023572182E+01 -0.71356461210E+01 -0.52707347777E+01  0.93654812897E+01  0.51100000000E-03 0. -1.
        -11    1    4    4    0    0  0.11373221691E+02  0.22359592286E+01  0.29125833132E+00  0.11594589988E+02  0.51100000000E-03 0.  1.
        -12    1    4    4    0    0  0.22261905428E+02  0.24896024513E+02  0.78880208678E+00  0.33406985476E+02  0.00000000000E+00 0.  1.
</event>
<event>
 8    1  0.3106980E-007  0.9118800E+02  0.7816164E-02  0.1184000E+00
        -11   -1    0    0    0    0  0.00000000000E+00  0.00000000000E+00  0.45593999997E+02  0.45594000000E+02  0.51100000000E-03 0. -1.
         11   -1    0    0    0    0 -0.00000000000E+00 -0.00000000000E+00 -0.45593999997E+02  0.45594000000E+02  0.51100000000E-03 0.  1.
         23    2    1    2    0    0  0.00000000000E+00  0.35527136788E-14  0.00000000000E+00  0.91188000000E+02  0.91188000000E+02 0.  0.
    9900012    2    3    3    0    0 -0.29027871303E+02 -0.86764159575E+01 -0.20925660478E+02  0.54367071540E+02  0.39999971189E+02 0.  0.
         12    1    3    3    0    0  0.29027871303E+02  0.86764159575E+01  0.20925660478E+02  0.36820928460E+02  0.00000000000E+00 0. -1.
         11    1    4    4    0    0 -0.15896697811E+02  0.15693857049E+01  0.55880092076E+01  0.16923174050E+02  0.51100000000E-03 0. -1.
        -11    1    4    4    0    0 -0.88509139880E+01 -0.16278180406E+02 -0.15396180755E+02  0.24090666613E+02  0.51100000000E-03 0.  1.
         12    1    4    4    0    0 -0.42802595042E+01  0.60323787433E+01 -0.11117488931E+02  0.13353230877E+02  0.00000000000E+00 0. -1.
</event>
<event>
 8    1  0.3106980E-007  0.9118800E+02  0.7816164E-02  0.1184000E+00
        -11   -1    0    0    0    0  0.00000000000E+00  0.00000000000E+00  0.45593999997E+02  0.45594000000E+02  0.51100000000E-03 0.  1.
         11   -1    0    0    0    0 -0.00000000000E+00 -0.00000000000E+00 -0.45593999997E+02  0.45594000000E+02  0.51100000000E-03 0. -1.
         23    2    1    2    0    0  0.00000000000E+00  0.00000000000E+00  0.00000000000E+00  0.91188000000E+02  0.91188000000E+02 0.  0.
    9900012    2    3    3    0    0  0.20251532163E+02 -0.26050767759E+02  0.16340530302E+02  0.54367082217E+02  0.39999995530E+02 0.  0.
        -12    1    3    3    0    0 -0.20251532163E+02  0.26050767759E+02 -0.16340530302E+02  0.36820917783E+02  0.00000000000E+00 0.  1.
         11    1    4    4    0    0  0.57235099439E+01 -0.88397930814E+00  0.14948285586E+02  0.16030945939E+02  0.51100000000E-03 0. -1.
        -11    1    4    4    0    0  0.18630939400E+02 -0.73514815906E+01  0.65166682613E+00  0.20039482389E+02  0.51100000000E-03 0.  1.
         12    1    4    4    0    0 -0.41029171804E+01 -0.17815306860E+02  0.74057789046E+00  0.18296653889E+02  0.00000000000E+00 0. -1.
</event>
<event>
 8    1  0.3106980E-007  0.9118800E+02  0.7816164E-02  0.1184000E+00
        -11   -1    0    0    0    0  0.00000000000E+00  0.00000000000E+00  0.45593999997E+02  0.45594000000E+02  0.51100000000E-03 0.  1.
         11   -1    0    0    0    0 -0.00000000000E+00 -0.00000000000E+00 -0.45593999997E+02  0.45594000000E+02  0.51100000000E-03 0. -1.
         23    2    1    2    0    0  0.35527136788E-14  0.71054273576E-14 -0.53290705182E-14  0.91188000000E+02  0.91188000000E+02 0.  0.
    9900012    2    3    3    0    0 -0.20352589114E+02 -0.30040743506E+02  0.62533984051E+01  0.54367093634E+02  0.40000021556E+02 0.  0.
         12    1    3    3    0    0  0.20352589114E+02  0.30040743506E+02 -0.62533984051E+01  0.36820906366E+02  0.00000000000E+00 0. -1.
         11    1    4    4    0    0  0.29159935432E+01 -0.95413827552E+01  0.19197172723E+01  0.10160035329E+02  0.51100000000E-03 0. -1.
        -11    1    4    4    0    0 -0.16524889965E+02 -0.12195741560E+02  0.17682285808E+02  0.27101131567E+02  0.51100000000E-03 0.  1.
         12    1    4    4    0    0 -0.67436926926E+01 -0.83036191904E+01 -0.13348604675E+02  0.17105926738E+02  0.00000000000E+00 0. -1.
</event>
<event>
 8    1  0.3106980E-007  0.9118800E+02  0.7816164E-02  0.1184000E+00
        -11   -1    0    0    0    0  0.00000000000E+00  0.00000000000E+00  0.45593999997E+02  0.45594000000E+02  0.51100000000E-03 0. -1.
         11   -1    0    0    0    0 -0.00000000000E+00 -0.00000000000E+00 -0.45593999997E+02  0.45594000000E+02  0.51100000000E-03 0.  1.
         23    2    1    2    0    0  0.00000000000E+00  0.00000000000E+00  0.17763568394E-14  0.91188000000E+02  0.91188000000E+02 0.  0.
    9900012    2    3    3    0    0  0.10762124129E+02  0.33643868684E+02  0.10394463500E+02  0.54367108006E+02  0.40000054321E+02 0.  0.
         12    1    3    3    0    0 -0.10762124129E+02 -0.33643868684E+02 -0.10394463500E+02  0.36820891994E+02  0.00000000000E+00 0. -1.
         11    1    4    4    0    0  0.14899343368E+01  0.29112010988E+02  0.65825519609E+01  0.29884094074E+02  0.51100000000E-03 0. -1.
        -11    1    4    4    0    0 -0.29954479583E+01  0.16845766473E+01  0.99111512311E+01  0.10490063200E+02  0.51100000000E-03 0.  1.
        -12    1    4    4    0    0  0.12267637751E+02  0.28472810490E+01 -0.60992396922E+01  0.13992950732E+02  0.00000000000E+00 0.  1.
</event>
<event>
 8    1  0.3106980E-007  0.9118800E+02  0.7816164E-02  0.1184000E+00
        -11   -1    0    0    0    0  0.00000000000E+00  0.00000000000E+00  0.45593999997E+02  0.45594000000E+02  0.51100000000E-03 0.  1.
         11   -1    0    0    0    0 -0.00000000000E+00 -0.00000000000E+00 -0.45593999997E+02  0.45594000000E+02  0.51100000000E-03 0. -1.
         23    2    1    2    0    0 -0.17763568394E-14 -0.44408920985E-15  0.00000000000E+00  0.91188000000E+02  0.91188000000E+02 0.  0.
    9900012    2    3    3    0    0  0.10019221867E+02 -0.28629869769E+01  0.35315566249E+02  0.54367208038E+02  0.40000282362E+02 0.  0.
         12    1    3    3    0    0 -0.10019221867E+02  0.28629869769E+01 -0.35315566249E+02  0.36820791962E+02  0.00000000000E+00 0. -1.
         11    1    4    4    0    0  0.23774261942E+01  0.86642834017E+01  0.26734192217E+01  0.93738536776E+01  0.51100000000E-03 0. -1.
        -11    1    4    4    0    0  0.16212030589E+02 -0.11754945561E+02  0.29911138123E+02  0.35995622860E+02  0.51100000000E-03 0.  1.
         12    1    4    4    0    0 -0.85702349167E+01  0.22767518257E+00  0.27310089042E+01  0.89977315002E+01  0.00000000000E+00 0. -1.
</event>
<event>
 8    1  0.3106980E-007  0.9118800E+02  0.7816164E-02  0.1184000E+00
        -11   -1    0    0    0    0  0.00000000000E+00  0.00000000000E+00  0.45593999997E+02  0.45594000000E+02  0.51100000000E-03 0. -1.
         11   -1    0    0    0    0 -0.00000000000E+00 -0.00000000000E+00 -0.45593999997E+02  0.45594000000E+02  0.51100000000E-03 0.  1.
         23    2    1    2    0    0  0.35527136788E-14  0.00000000000E+00  0.17763568394E-14  0.91188000000E+02  0.91188000000E+02 0.  0.
    9900012    2    3    3    0    0 -0.30299145650E+02 -0.16875883972E+02 -0.12367150729E+02  0.54367080618E+02  0.39999991886E+02 0.  0.
        -12    1    3    3    0    0  0.30299145650E+02  0.16875883972E+02  0.12367150729E+02  0.36820919382E+02  0.00000000000E+00 0.  1.
         11    1    4    4    0    0 -0.65492253199E+01 -0.36859049368E+01  0.87160736168E+01  0.11508613602E+02  0.51100000000E-03 0. -1.
        -11    1    4    4    0    0  0.25831457040E+01 -0.66971516457E+00 -0.12037270623E+02  0.12329519230E+02  0.51100000000E-03 0.  1.
        -12    1    4    4    0    0 -0.26333066034E+02 -0.12520263871E+02 -0.90459537220E+01  0.30528947786E+02  0.00000000000E+00 0.  1.
</event>
<event>
 8    1  0.3106980E-007  0.9118800E+02  0.7816164E-02  0.1184000E+00
        -11   -1    0    0    0    0  0.00000000000E+00  0.00000000000E+00  0.45593999997E+02  0.45594000000E+02  0.51100000000E-03 0.  1.
         11   -1    0    0    0    0 -0.00000000000E+00 -0.00000000000E+00 -0.45593999997E+02  0.45594000000E+02  0.51100000000E-03 0. -1.
         23    2    1    2    0    0  0.35527136788E-14 -0.17763568394E-14 -0.35527136788E-14  0.91188000000E+02  0.91188000000E+02 0.  0.
    9900012    2    3    3    0    0 -0.31130983721E+02  0.10653273329E+02  0.16527337565E+02  0.54367037668E+02  0.39999893971E+02 0.  0.
         12    1    3    3    0    0  0.31130983721E+02 -0.10653273329E+02 -0.16527337565E+02  0.36820962332E+02  0.00000000000E+00 0. -1.
         11    1    4    4    0    0 -0.85525457013E+00  0.15741908100E+01  0.13333381262E+02  0.13453200110E+02  0.51100000000E-03 0.  1.
        -11    1    4    4    0    0  0.19591836343E+01  0.64198949094E+01 -0.39523242942E+01  0.77893721666E+01  0.51100000000E-03 0. -1.
         12    1    4    4    0    0 -0.32234912786E+02  0.26591876092E+01  0.71462805977E+01  0.33124465391E+02  0.00000000000E+00 0. -1.
</event>
<event>
 8    1  0.3106980E-007  0.9118800E+02  0.7816164E-02  0.1184000E+00
        -11   -1    0    0    0    0  0.00000000000E+00  0.00000000000E+00  0.45593999997E+02  0.45594000000E+02  0.51100000000E-03 0.  1.
         11   -1    0    0    0    0 -0.00000000000E+00 -0.00000000000E+00 -0.45593999997E+02  0.45594000000E+02  0.51100000000E-03 0. -1.
         23    2    1    2    0    0  0.17763568394E-14  0.35527136788E-14  0.00000000000E+00  0.91188000000E+02  0.91188000000E+02 0.  0.
    9900012    2    3    3    0    0 -0.15266005416E+02  0.95083637118E+01  0.32129728982E+02  0.54367090366E+02  0.40000014108E+02 0.  0.
         12    1    3    3    0    0  0.15266005416E+02 -0.95083637118E+01 -0.32129728982E+02  0.36820909634E+02  0.00000000000E+00 0. -1.
         11    1    4    4    0    0 -0.31010570864E+01  0.21193408387E+02  0.30258317771E+02  0.37072131159E+02  0.51100000000E-03 0. -1.
        -11    1    4    4    0    0 -0.10280584415E+02 -0.10040958227E+02  0.27749485217E+01  0.14635969308E+02  0.51100000000E-03 0.  1.
        -12    1    4    4    0    0 -0.18843639143E+01 -0.16440864483E+01 -0.90353731086E+00  0.26589898990E+01  0.00000000000E+00 0.  1.
</event>
<event>
 8    1  0.3106980E-007  0.9118800E+02  0.7816164E-02  0.1184000E+00
        -11   -1    0    0    0    0  0.00000000000E+00  0.00000000000E+00  0.45593999997E+02  0.45594000000E+02  0.51100000000E-03 0.  1.
         11   -1    0    0    0    0 -0.00000000000E+00 -0.00000000000E+00 -0.45593999997E+02  0.45594000000E+02  0.51100000000E-03 0. -1.
         23    2    1    2    0    0 -0.71054273576E-14  0.44408920985E-15 -0.17763568394E-14  0.91188000000E+02  0.91188000000E+02 0.  0.
    9900012    2    3    3    0    0 -0.34545556111E+02  0.31456365572E+01 -0.12348624680E+02  0.54367095504E+02  0.40000025821E+02 0.  0.
        -12    1    3    3    0    0  0.34545556111E+02 -0.31456365572E+01  0.12348624680E+02  0.36820904496E+02  0.00000000000E+00 0.  1.
         11    1    4    4    0    0 -0.80448846749E+01  0.12601028571E+02 -0.15373480671E+01  0.15028956378E+02  0.51100000000E-03 0. -1.
        -11    1    4    4    0    0 -0.38523817172E+01 -0.14171505564E+02 -0.39392932117E+01  0.15204948080E+02  0.51100000000E-03 0.  1.
        -12    1    4    4    0    0 -0.22648289719E+02  0.47161135507E+01 -0.68719834008E+01  0.24133191047E+02  0.00000000000E+00 0.  1.
</event>
<event>
 8    1  0.3106980E-007  0.9118800E+02  0.7816164E-02  0.1184000E+00
        -11   -1    0    0    0    0  0.00000000000E+00  0.00000000000E+00  0.45593999997E+02  0.45594000000E+02  0.51100000000E-03 0. -1.
         11   -1    0    0    0    0 -0.00000000000E+00 -0.00000000000E+00 -0.45593999997E+02  0.45594000000E+02  0.51100000000E-03 0.  1.
         23    2    1    2    0    0  0.00000000000E+00  0.22204460493E-14  0.35527136788E-14  0.91188000000E+02  0.91188000000E+02 0.  0.
    9900012    2    3    3    0    0  0.22106132434E+02 -0.37259939952E+01 -0.29210050057E+02  0.54366930667E+02  0.39999650041E+02 0.  0.
         12    1    3    3    0    0 -0.22106132434E+02  0.37259939952E+01  0.29210050057E+02  0.36821069333E+02  0.00000000000E+00 0. -1.
         11    1    4    4    0    0  0.46130848972E+01  0.89418106526E+01 -0.34799051994E+01  0.10646420547E+02  0.51100000000E-03 0. -1.
        -11    1    4    4    0    0  0.16887126257E+01  0.81255551271E+01 -0.10853750070E+02  0.13663099476E+02  0.51100000000E-03 0.  1.
        -12    1    4    4    0    0  0.15804334911E+02 -0.20793359775E+02 -0.14876394788E+02  0.30057410644E+02  0.00000000000E+00 0.  1.
</event>
<event>
 8    1  0.3106980E-007  0.9118800E+02  0.7816164E-02  0.1184000E+00
        -11   -1    0    0    0    0  0.00000000000E+00  0.00000000000E+00  0.45593999997E+02  0.45594000000E+02  0.51100000000E-03 0. -1.
         11   -1    0    0    0    0 -0.00000000000E+00 -0.00000000000E+00 -0.45593999997E+02  0.45594000000E+02  0.51100000000E-03 0.  1.
         23    2    1    2    0    0  0.00000000000E+00  0.00000000000E+00  0.00000000000E+00  0.91188000000E+02  0.91188000000E+02 0.  0.
    9900012    2    3    3    0    0  0.27081568885E+02 -0.24866962611E+02  0.20009722365E+01  0.54367067195E+02  0.39999961283E+02 0.  0.
        -12    1    3    3    0    0 -0.27081568885E+02  0.24866962611E+02 -0.20009722365E+01  0.36820932805E+02  0.00000000000E+00 0.  1.
         11    1    4    4    0    0  0.15973932574E+02 -0.22047533415E+02  0.54079073851E+01  0.27757984692E+02  0.51100000000E-03 0. -1.
        -11    1    4    4    0    0  0.11640349886E+02  0.39319191285E+01  0.70389371665E+01  0.14159956575E+02  0.51100000000E-03 0.  1.
        -12    1    4    4    0    0 -0.53271357587E+00 -0.67513483241E+01 -0.10445872315E+02  0.12449125928E+02  0.00000000000E+00 0.  1.
</event>
<event>
 8    1  0.3106980E-007  0.9118800E+02  0.7816164E-02  0.1184000E+00
        -11   -1    0    0    0    0  0.00000000000E+00  0.00000000000E+00  0.45593999997E+02  0.45594000000E+02  0.51100000000E-03 0. -1.
         11   -1    0    0    0    0 -0.00000000000E+00 -0.00000000000E+00 -0.45593999997E+02  0.45594000000E+02  0.51100000000E-03 0.  1.
         23    2    1    2    0    0 -0.66613381478E-15  0.00000000000E+00 -0.17763568394E-14  0.91188000000E+02  0.91188000000E+02 0.  0.
    9900012    2    3    3    0    0  0.11312909869E+01  0.36647001419E+02  0.33913140511E+01  0.54367033917E+02  0.39999885419E+02 0.  0.
        -12    1    3    3    0    0 -0.11312909869E+01 -0.36647001419E+02 -0.33913140511E+01  0.36820966083E+02  0.00000000000E+00 0.  1.
         11    1    4    4    0    0  0.97354352317E+01  0.15606810288E+02  0.38970754281E+01  0.18802617469E+02  0.51100000000E-03 0. -1.
        -11    1    4    4    0    0 -0.17215798143E+02  0.14003976609E+02  0.55861560385E+01  0.22884497069E+02  0.51100000000E-03 0.  1.
        -12    1    4    4    0    0  0.86116538978E+01  0.70362145217E+01 -0.60919174154E+01  0.12679919379E+02  0.00000000000E+00 0.  1.
</event>
<event>
 8    1  0.3106980E-007  0.9118800E+02  0.7816164E-02  0.1184000E+00
        -11   -1    0    0    0    0  0.00000000000E+00  0.00000000000E+00  0.45593999997E+02  0.45594000000E+02  0.51100000000E-03 0.  1.
         11   -1    0    0    0    0 -0.00000000000E+00 -0.00000000000E+00 -0.45593999997E+02  0.45594000000E+02  0.51100000000E-03 0. -1.
         23    2    1    2    0    0  0.00000000000E+00  0.00000000000E+00  0.00000000000E+00  0.91188000000E+02  0.91188000000E+02 0.  0.
    9900012    2    3    3    0    0  0.28031343192E+02  0.50892894407E+01  0.23326396426E+02  0.54367111385E+02  0.40000062025E+02 0.  0.
         12    1    3    3    0    0 -0.28031343192E+02 -0.50892894407E+01 -0.23326396426E+02  0.36820888615E+02  0.00000000000E+00 0. -1.
         11    1    4    4    0    0 -0.43703441315E+00 -0.54027102754E+01  0.88312295266E+01  0.10361992695E+02  0.51100000000E-03 0. -1.
        -11    1    4    4    0    0  0.14081108320E+02  0.14033755577E+02 -0.40287921643E+01  0.20284355392E+02  0.51100000000E-03 0.  1.
         12    1    4    4    0    0  0.14387269286E+02 -0.35417558605E+01  0.18523959063E+02  0.23720763298E+02  0.00000000000E+00 0. -1.
</event>
<event>
 8    1  0.3106980E-007  0.9118800E+02  0.7816164E-02  0.1184000E+00
        -11   -1    0    0    0    0  0.00000000000E+00  0.00000000000E+00  0.45593999997E+02  0.45594000000E+02  0.51100000000E-03 0. -1.
         11   -1    0    0    0    0 -0.00000000000E+00 -0.00000000000E+00 -0.45593999997E+02  0.45594000000E+02  0.51100000000E-03 0.  1.
         23    2    1    2    0    0  0.17763568394E-14  0.35527136788E-14 -0.35527136788E-14  0.91188000000E+02  0.91188000000E+02 0.  0.
    9900012    2    3    3    0    0  0.86012408929E+01  0.27212412234E+02 -0.23265459509E+02  0.54367104701E+02  0.40000046787E+02 0.  0.
         12    1    3    3    0    0 -0.86012408929E+01 -0.27212412234E+02  0.23265459509E+02  0.36820895299E+02  0.00000000000E+00 0. -1.
         11    1    4    4    0    0  0.12433457927E+01 -0.35461342535E+01 -0.22088492971E+00  0.37642751384E+01  0.51100000000E-03 0. -1.
        -11    1    4    4    0    0  0.12321158927E+02  0.35069751146E+02 -0.14682586735E+02  0.39965944956E+02  0.51100000000E-03 0.  1.
         12    1    4    4    0    0 -0.49632638268E+01 -0.43112046587E+01 -0.83619878446E+01  0.10636884607E+02  0.00000000000E+00 0. -1.
</event>
<event>
 8    1  0.3106980E-007  0.9118800E+02  0.7816164E-02  0.1184000E+00
        -11   -1    0    0    0    0  0.00000000000E+00  0.00000000000E+00  0.45593999997E+02  0.45594000000E+02  0.51100000000E-03 0.  1.
         11   -1    0    0    0    0 -0.00000000000E+00 -0.00000000000E+00 -0.45593999997E+02  0.45594000000E+02  0.51100000000E-03 0. -1.
         23    2    1    2    0    0  0.00000000000E+00  0.00000000000E+00  0.35527136788E-14  0.91188000000E+02  0.91188000000E+02 0.  0.
    9900012    2    3    3    0    0 -0.66663391510E+01  0.19564266177E+02 -0.30472584383E+02  0.54367095778E+02  0.40000026446E+02 0.  0.
        -12    1    3    3    0    0  0.66663391510E+01 -0.19564266177E+02  0.30472584383E+02  0.36820904222E+02  0.00000000000E+00 0.  1.
         11    1    4    4    0    0 -0.37502914019E+00  0.63536922168E+01  0.34618262841E+01  0.72452945506E+01  0.51100000000E-03 0. -1.
        -11    1    4    4    0    0 -0.34931528727E+01  0.61874923446E+01  0.41941764539E+01  0.82509572108E+01  0.51100000000E-03 0.  1.
        -12    1    4    4    0    0 -0.27981571382E+01  0.70230816151E+01 -0.38128587121E+02  0.38870844017E+02  0.00000000000E+00 0.  1.
</event>
<event>
 8    1  0.3106980E-007  0.9118800E+02  0.7816164E-02  0.1184000E+00
        -11   -1    0    0    0    0  0.00000000000E+00  0.00000000000E+00  0.45593999997E+02  0.45594000000E+02  0.51100000000E-03 0. -1.
         11   -1    0    0    0    0 -0.00000000000E+00 -0.00000000000E+00 -0.45593999997E+02  0.45594000000E+02  0.51100000000E-03 0.  1.
         23    2    1    2    0    0  0.17763568394E-14  0.00000000000E+00  0.35527136788E-14  0.91188000000E+02  0.91188000000E+02 0.  0.
    9900012    2    3    3    0    0  0.15307508742E+02  0.23883462771E+02 -0.23474255663E+02  0.54367078002E+02  0.39999985922E+02 0.  0.
         12    1    3    3    0    0 -0.15307508742E+02 -0.23883462771E+02  0.23474255663E+02  0.36820921998E+02  0.00000000000E+00 0. -1.
         11    1    4    4    0    0 -0.46592594982E+01  0.11963861862E+01  0.43905830044E+01  0.65128533192E+01  0.51100000000E-03 0. -1.
        -11    1    4    4    0    0  0.88102992781E+01  0.21835034249E+00 -0.19518913855E+02  0.21416279990E+02  0.51100000000E-03 0.  1.
        -12    1    4    4    0    0  0.11156468962E+02  0.22468726242E+02 -0.83459248121E+01  0.26437944694E+02  0.00000000000E+00 0.  1.
</event>
<event>
 8    1  0.3106980E-007  0.9118800E+02  0.7816164E-02  0.1184000E+00
        -11   -1    0    0    0    0  0.00000000000E+00  0.00000000000E+00  0.45593999997E+02  0.45594000000E+02  0.51100000000E-03 0.  1.
         11   -1    0    0    0    0 -0.00000000000E+00 -0.00000000000E+00 -0.45593999997E+02  0.45594000000E+02  0.51100000000E-03 0. -1.
         23    2    1    2    0    0 -0.26645352591E-14  0.00000000000E+00  0.00000000000E+00  0.91188000000E+02  0.91188000000E+02 0.  0.
    9900012    2    3    3    0    0  0.79363178509E+01 -0.34877382671E+02 -0.87385558076E+01  0.54367091258E+02  0.40000016141E+02 0.  0.
        -12    1    3    3    0    0 -0.79363178509E+01  0.34877382671E+02  0.87385558076E+01  0.36820908742E+02  0.00000000000E+00 0.  1.
         11    1    4    4    0    0 -0.87958973499E+01 -0.44360043744E+00  0.31452105258E+01  0.93518415861E+01  0.51100000000E-03 0. -1.
        -11    1    4    4    0    0 -0.69754500541E+00  0.15710712501E+01 -0.38476973620E+01  0.42142151296E+01  0.51100000000E-03 0.  1.
        -12    1    4    4    0    0  0.17429760206E+02 -0.36004853483E+02 -0.80360689714E+01  0.40801034542E+02  0.00000000000E+00 0.  1.
</event>
<event>
 8    1  0.3106980E-007  0.9118800E+02  0.7816164E-02  0.1184000E+00
        -11   -1    0    0    0    0  0.00000000000E+00  0.00000000000E+00  0.45593999997E+02  0.45594000000E+02  0.51100000000E-03 0.  1.
         11   -1    0    0    0    0 -0.00000000000E+00 -0.00000000000E+00 -0.45593999997E+02  0.45594000000E+02  0.51100000000E-03 0. -1.
         23    2    1    2    0    0 -0.39968028887E-14  0.00000000000E+00  0.00000000000E+00  0.91188000000E+02  0.91188000000E+02 0.  0.
    9900012    2    3    3    0    0 -0.32475801816E+01  0.95558340913E+01 -0.35410696239E+02  0.54367107149E+02  0.40000052368E+02 0.  0.
        -12    1    3    3    0    0  0.32475801816E+01 -0.95558340913E+01  0.35410696239E+02  0.36820892851E+02  0.00000000000E+00 0.  1.
         11    1    4    4    0    0  0.51603384148E+01  0.29958129008E+01  0.55467646171E+00  0.59926332885E+01  0.51100000000E-03 0.  1.
        -11    1    4    4    0    0  0.86970925004E+01  0.24286165647E+01 -0.27310060651E+02  0.28764161893E+02  0.51100000000E-03 0. -1.
        -12    1    4    4    0    0 -0.17105011097E+02  0.41314046258E+01 -0.86553120499E+01  0.19610311968E+02  0.00000000000E+00 0.  1.
</event>
<event>
 8    1  0.3106980E-007  0.9118800E+02  0.7816164E-02  0.1184000E+00
        -11   -1    0    0    0    0  0.00000000000E+00  0.00000000000E+00  0.45593999997E+02  0.45594000000E+02  0.51100000000E-03 0. -1.
         11   -1    0    0    0    0 -0.00000000000E+00 -0.00000000000E+00 -0.45593999997E+02  0.45594000000E+02  0.51100000000E-03 0.  1.
         23    2    1    2    0    0  0.00000000000E+00 -0.17763568394E-14  0.00000000000E+00  0.91188000000E+02  0.91188000000E+02 0.  0.
    9900012    2    3    3    0    0  0.84389429894E+01 -0.10609827458E+02 -0.34234516627E+02  0.54366996127E+02  0.39999799271E+02 0.  0.
         12    1    3    3    0    0 -0.84389429894E+01  0.10609827458E+02  0.34234516627E+02  0.36821003873E+02  0.00000000000E+00 0. -1.
         11    1    4    4    0    0 -0.40757936953E+01 -0.35563682571E+01  0.45163010059E+01  0.70467598556E+01  0.51100000000E-03 0. -1.
        -11    1    4    4    0    0  0.30366030741E+01 -0.10329525109E+02 -0.45659468213E+01  0.11694781650E+02  0.51100000000E-03 0.  1.
        -12    1    4    4    0    0  0.94781336105E+01  0.32760659078E+01 -0.34184870812E+02  0.35625454622E+02  0.00000000000E+00 0.  1.
</event>
<event>
 8    1  0.3106980E-007  0.9118800E+02  0.7816164E-02  0.1184000E+00
        -11   -1    0    0    0    0  0.00000000000E+00  0.00000000000E+00  0.45593999997E+02  0.45594000000E+02  0.51100000000E-03 0. -1.
         11   -1    0    0    0    0 -0.00000000000E+00 -0.00000000000E+00 -0.45593999997E+02  0.45594000000E+02  0.51100000000E-03 0.  1.
         23    2    1    2    0    0 -0.88817841970E-15  0.00000000000E+00  0.00000000000E+00  0.91188000000E+02  0.91188000000E+02 0.  0.
    9900012    2    3    3    0    0  0.36902955571E+01  0.36086029830E+02  0.63213452667E+01  0.54367092404E+02  0.40000018754E+02 0.  0.
        -12    1    3    3    0    0 -0.36902955571E+01 -0.36086029830E+02 -0.63213452667E+01  0.36820907596E+02  0.00000000000E+00 0.  1.
         11    1    4    4    0    0 -0.55317507030E+01 -0.63897108999E+00 -0.66832294397E+01  0.86990864980E+01  0.51100000000E-03 0. -1.
        -11    1    4    4    0    0  0.15240316551E+02  0.25099026347E+02  0.36757965823E+01  0.29592902069E+02  0.51100000000E-03 0.  1.
         12    1    4    4    0    0 -0.60182702904E+01  0.11625974574E+02  0.93287781242E+01  0.16075103837E+02  0.00000000000E+00 0. -1.
</event>
<event>
 8    1  0.3106980E-007  0.9118800E+02  0.7816164E-02  0.1184000E+00
        -11   -1    0    0    0    0  0.00000000000E+00  0.00000000000E+00  0.45593999997E+02  0.45594000000E+02  0.51100000000E-03 0. -1.
         11   -1    0    0    0    0 -0.00000000000E+00 -0.00000000000E+00 -0.45593999997E+02  0.45594000000E+02  0.51100000000E-03 0.  1.
         23    2    1    2    0    0  0.17763568394E-14  0.00000000000E+00 -0.17763568394E-14  0.91188000000E+02  0.91188000000E+02 0.  0.
    9900012    2    3    3    0    0 -0.12847789538E+02  0.31323773142E+02  0.14475375764E+02  0.54367068950E+02  0.39999965285E+02 0.  0.
        -12    1    3    3    0    0  0.12847789538E+02 -0.31323773142E+02 -0.14475375764E+02  0.36820931050E+02  0.00000000000E+00 0.  1.
         11    1    4    4    0    0 -0.10684001131E+02 -0.26643487770E+00 -0.81234293097E+01  0.13424193522E+02  0.51100000000E-03 0. -1.
        -11    1    4    4    0    0  0.29488381213E+01  0.10962800807E+02  0.23582831339E+01  0.11594832789E+02  0.51100000000E-03 0.  1.
        -12    1    4    4    0    0 -0.51126265287E+01  0.20627407213E+02  0.20240521940E+02  0.29348042639E+02  0.00000000000E+00 0.  1.
</event>
<event>
 8    1  0.3106980E-007  0.9118800E+02  0.7816164E-02  0.1184000E+00
        -11   -1    0    0    0    0  0.00000000000E+00  0.00000000000E+00  0.45593999997E+02  0.45594000000E+02  0.51100000000E-03 0. -1.
         11   -1    0    0    0    0 -0.00000000000E+00 -0.00000000000E+00 -0.45593999997E+02  0.45594000000E+02  0.51100000000E-03 0.  1.
         23    2    1    2    0    0  0.44408920985E-15  0.26645352591E-14  0.14210854715E-13  0.91188000000E+02  0.91188000000E+02 0.  0.
    9900012    2    3    3    0    0 -0.27013638737E+01 -0.72699139412E+01 -0.35994876194E+02  0.54367080298E+02  0.39999991155E+02 0.  0.
         12    1    3    3    0    0  0.27013638737E+01  0.72699139412E+01  0.35994876194E+02  0.36820919702E+02  0.00000000000E+00 0. -1.
         11    1    4    4    0    0 -0.53330974655E+01 -0.11518432501E+02 -0.33173821553E+02  0.35519271566E+02  0.51100000000E-03 0. -1.
        -11    1    4    4    0    0 -0.51703172757E+01 -0.43530221770E+01 -0.25740040252E+01  0.72323218808E+01  0.51100000000E-03 0.  1.
        -12    1    4    4    0    0  0.78020508675E+01  0.86015407368E+01 -0.24705061590E+00  0.11615486851E+02  0.00000000000E+00 0.  1.
</event>
<event>
 8    1  0.3106980E-007  0.9118800E+02  0.7816164E-02  0.1184000E+00
        -11   -1    0    0    0    0  0.00000000000E+00  0.00000000000E+00  0.45593999997E+02  0.45594000000E+02  0.51100000000E-03 0.  1.
         11   -1    0    0    0    0 -0.00000000000E+00 -0.00000000000E+00 -0.45593999997E+02  0.45594000000E+02  0.51100000000E-03 0. -1.
         23    2    1    2    0    0 -0.35527136788E-14 -0.13322676296E-14  0.71054273576E-14  0.91188000000E+02  0.91188000000E+02 0.  0.
    9900012    2    3    3    0    0  0.15411517176E+02  0.29711325152E+01 -0.33308220485E+02  0.54367081462E+02  0.39999993809E+02 0.  0.
        -12    1    3    3    0    0 -0.15411517176E+02 -0.29711325152E+01  0.33308220485E+02  0.36820918538E+02  0.00000000000E+00 0.  1.
         11    1    4    4    0    0 -0.34389856434E+01 -0.41728379012E+01 -0.18052719836E+02  0.18845155667E+02  0.51100000000E-03 0. -1.
        -11    1    4    4    0    0  0.24963032353E+02  0.55718433868E+01 -0.13726748680E+02  0.29027952952E+02  0.51100000000E-03 0.  1.
        -12    1    4    4    0    0 -0.61125295335E+01  0.15721270297E+01 -0.15287519689E+01  0.64939728424E+01  0.00000000000E+00 0.  1.
</event>
<event>
 8    1  0.3106980E-007  0.9118800E+02  0.7816164E-02  0.1184000E+00
        -11   -1    0    0    0    0  0.00000000000E+00  0.00000000000E+00  0.45593999997E+02  0.45594000000E+02  0.51100000000E-03 0. -1.
         11   -1    0    0    0    0 -0.00000000000E+00 -0.00000000000E+00 -0.45593999997E+02  0.45594000000E+02  0.51100000000E-03 0.  1.
         23    2    1    2    0    0 -0.71054273576E-14  0.16653345369E-15  0.00000000000E+00  0.91188000000E+02  0.91188000000E+02 0.  0.
    9900012    2    3    3    0    0  0.32693476785E+02 -0.25810936715E+00 -0.16936649005E+02  0.54367080345E+02  0.39999991262E+02 0.  0.
         12    1    3    3    0    0 -0.32693476785E+02  0.25810936715E+00  0.16936649005E+02  0.36820919655E+02  0.00000000000E+00 0. -1.
         11    1    4    4    0    0  0.45039540432E+00 -0.16756688414E+01 -0.83499123857E+01  0.85282916927E+01  0.51100000000E-03 0. -1.
        -11    1    4    4    0    0 -0.25765953322E+01 -0.18840515149E+01 -0.10337565286E+02  0.10819138132E+02  0.51100000000E-03 0.  1.
         12    1    4    4    0    0  0.34819676713E+02  0.33016109891E+01  0.17508286668E+01  0.35019650520E+02  0.00000000000E+00 0. -1.
</event>
<event>
 8    1  0.3106980E-007  0.9118800E+02  0.7816164E-02  0.1184000E+00
        -11   -1    0    0    0    0  0.00000000000E+00  0.00000000000E+00  0.45593999997E+02  0.45594000000E+02  0.51100000000E-03 0.  1.
         11   -1    0    0    0    0 -0.00000000000E+00 -0.00000000000E+00 -0.45593999997E+02  0.45594000000E+02  0.51100000000E-03 0. -1.
         23    2    1    2    0    0  0.49960036108E-15  0.88817841970E-15  0.00000000000E+00  0.91188000000E+02  0.91188000000E+02 0.  0.
    9900012    2    3    3    0    0 -0.30913484492E+00  0.46314924467E+01  0.36527166997E+02  0.54367079106E+02  0.39999988439E+02 0.  0.
         12    1    3    3    0    0  0.30913484492E+00 -0.46314924467E+01 -0.36527166997E+02  0.36820920894E+02  0.00000000000E+00 0. -1.
         11    1    4    4    0    0 -0.36240888656E+01  0.57092674637E+01  0.28283388605E+02  0.29080574725E+02  0.51100000000E-03 0. -1.
        -11    1    4    4    0    0  0.10677755830E+02 -0.41507934677E+01  0.11892955081E+02  0.16513204922E+02  0.51100000000E-03 0.  1.
         12    1    4    4    0    0 -0.73628018096E+01  0.30730184506E+01 -0.36491766897E+01  0.87732994590E+01  0.00000000000E+00 0. -1.
</event>
<event>
 8    1  0.3106980E-007  0.9118800E+02  0.7816164E-02  0.1184000E+00
        -11   -1    0    0    0    0  0.00000000000E+00  0.00000000000E+00  0.45593999997E+02  0.45594000000E+02  0.51100000000E-03 0.  1.
         11   -1    0    0    0    0 -0.00000000000E+00 -0.00000000000E+00 -0.45593999997E+02  0.45594000000E+02  0.51100000000E-03 0. -1.
         23    2    1    2    0    0  0.17763568394E-14  0.00000000000E+00  0.00000000000E+00  0.91188000000E+02  0.91188000000E+02 0.  0.
    9900012    2    3    3    0    0 -0.58266578746E+01  0.16831994306E+02  0.32225981668E+02  0.54367083814E+02  0.39999999172E+02 0.  0.
         12    1    3    3    0    0  0.58266578746E+01 -0.16831994306E+02 -0.32225981668E+02  0.36820916186E+02  0.00000000000E+00 0. -1.
         11    1    4    4    0    0  0.66806591722E+01  0.81649165976E+01  0.29824712310E+01  0.10963220554E+02  0.51100000000E-03 0. -1.
        -11    1    4    4    0    0  0.60616645082E+01 -0.29630577974E+01  0.17033153030E+02  0.18320802125E+02  0.51100000000E-03 0.  1.
         12    1    4    4    0    0 -0.18568981555E+02  0.11630135506E+02  0.12210357407E+02  0.25083061135E+02  0.00000000000E+00 0. -1.
</event>
<event>
 8    1  0.3106980E-007  0.9118800E+02  0.7816164E-02  0.1184000E+00
        -11   -1    0    0    0    0  0.00000000000E+00  0.00000000000E+00  0.45593999997E+02  0.45594000000E+02  0.51100000000E-03 0.  1.
         11   -1    0    0    0    0 -0.00000000000E+00 -0.00000000000E+00 -0.45593999997E+02  0.45594000000E+02  0.51100000000E-03 0. -1.
         23    2    1    2    0    0  0.00000000000E+00 -0.15543122345E-14  0.00000000000E+00  0.91188000000E+02  0.91188000000E+02 0.  0.
    9900012    2    3    3    0    0 -0.10109103952E+02  0.15664139760E+01 -0.35371367174E+02  0.54367065041E+02  0.39999956375E+02 0.  0.
        -12    1    3    3    0    0  0.10109103952E+02 -0.15664139760E+01  0.35371367174E+02  0.36820934959E+02  0.00000000000E+00 0.  1.
         11    1    4    4    0    0 -0.68563640218E+01  0.84185973570E+01 -0.56600689791E+01  0.12244136971E+02  0.51100000000E-03 0. -1.
        -11    1    4    4    0    0  0.21170575161E+01 -0.15490367819E+02 -0.67878539020E+01  0.17044306632E+02  0.51100000000E-03 0.  1.
        -12    1    4    4    0    0 -0.53697974459E+01  0.86381844380E+01 -0.22923444293E+02  0.25078621439E+02  0.00000000000E+00 0.  1.
</event>
<event>
 8    1  0.3106980E-007  0.9118800E+02  0.7816164E-02  0.1184000E+00
        -11   -1    0    0    0    0  0.00000000000E+00  0.00000000000E+00  0.45593999997E+02  0.45594000000E+02  0.51100000000E-03 0. -1.
         11   -1    0    0    0    0 -0.00000000000E+00 -0.00000000000E+00 -0.45593999997E+02  0.45594000000E+02  0.51100000000E-03 0.  1.
         23    2    1    2    0    0  0.00000000000E+00 -0.77715611724E-15  0.00000000000E+00  0.91188000000E+02  0.91188000000E+02 0.  0.
    9900012    2    3    3    0    0 -0.34001292685E+01  0.95132107802E+00 -0.36651246336E+02  0.54367085443E+02  0.40000002884E+02 0.  0.
         12    1    3    3    0    0  0.34001292685E+01 -0.95132107802E+00  0.36651246336E+02  0.36820914557E+02  0.00000000000E+00 0. -1.
         11    1    4    4    0    0 -0.12745850879E+01 -0.42605244300E+01 -0.11163775423E+02  0.12016926293E+02  0.51100000000E-03 0. -1.
        -11    1    4    4    0    0 -0.60784291280E+01  0.17365527998E+02 -0.22787258504E+02  0.29287676823E+02  0.51100000000E-03 0.  1.
         12    1    4    4    0    0  0.39528849474E+01 -0.12153682490E+02 -0.27002124088E+01  0.13062482326E+02  0.00000000000E+00 0. -1.
</event>
<event>
 8    1  0.3106980E-007  0.9118800E+02  0.7816164E-02  0.1184000E+00
        -11   -1    0    0    0    0  0.00000000000E+00  0.00000000000E+00  0.45593999997E+02  0.45594000000E+02  0.51100000000E-03 0.  1.
         11   -1    0    0    0    0 -0.00000000000E+00 -0.00000000000E+00 -0.45593999997E+02  0.45594000000E+02  0.51100000000E-03 0. -1.
         23    2    1    2    0    0  0.00000000000E+00  0.00000000000E+00  0.00000000000E+00  0.91188000000E+02  0.91188000000E+02 0.  0.
    9900012    2    3    3    0    0  0.83045054542E+01  0.33104577006E+02 -0.13816815455E+02  0.54367051901E+02  0.39999926419E+02 0.  0.
        -12    1    3    3    0    0 -0.83045054542E+01 -0.33104577006E+02  0.13816815455E+02  0.36820948099E+02  0.00000000000E+00 0.  1.
         11    1    4    4    0    0 -0.53253124065E+01  0.14489795200E+02 -0.10250416169E+02  0.18530627325E+02  0.51100000000E-03 0.  1.
        -11    1    4    4    0    0  0.17897240470E+01 -0.70754020326E+01  0.19027544498E+00  0.73007281208E+01  0.51100000000E-03 0. -1.
         12    1    4    4    0    0  0.11840093814E+02  0.25690183838E+02 -0.37566747313E+01  0.28535696456E+02  0.00000000000E+00 0. -1.
</event>
<event>
 8    1  0.3106980E-007  0.9118800E+02  0.7816164E-02  0.1184000E+00
        -11   -1    0    0    0    0  0.00000000000E+00  0.00000000000E+00  0.45593999997E+02  0.45594000000E+02  0.51100000000E-03 0.  1.
         11   -1    0    0    0    0 -0.00000000000E+00 -0.00000000000E+00 -0.45593999997E+02  0.45594000000E+02  0.51100000000E-03 0. -1.
         23    2    1    2    0    0  0.00000000000E+00  0.00000000000E+00  0.00000000000E+00  0.91188000000E+02  0.91188000000E+02 0.  0.
    9900012    2    3    3    0    0  0.18157994075E+02 -0.17087674753E+02  0.27093893663E+02  0.54367075906E+02  0.39999981143E+02 0.  0.
         12    1    3    3    0    0 -0.18157994075E+02  0.17087674753E+02 -0.27093893663E+02  0.36820924094E+02  0.00000000000E+00 0. -1.
         11    1    4    4    0    0 -0.81667192159E+01 -0.54479695575E+01  0.52213664810E+01  0.11119278000E+02  0.51100000000E-03 0. -1.
        -11    1    4    4    0    0  0.54082131136E+01 -0.14177514666E+02  0.14322957600E+02  0.20866188101E+02  0.51100000000E-03 0.  1.
        -12    1    4    4    0    0  0.20916500178E+02  0.25378094707E+01  0.75495695826E+01  0.22381609805E+02  0.00000000000E+00 0.  1.
</event>
<event>
 8    1  0.3106980E-007  0.9118800E+02  0.7816164E-02  0.1184000E+00
        -11   -1    0    0    0    0  0.00000000000E+00  0.00000000000E+00  0.45593999997E+02  0.45594000000E+02  0.51100000000E-03 0.  1.
         11   -1    0    0    0    0 -0.00000000000E+00 -0.00000000000E+00 -0.45593999997E+02  0.45594000000E+02  0.51100000000E-03 0. -1.
         23    2    1    2    0    0  0.00000000000E+00  0.00000000000E+00  0.00000000000E+00  0.91188000000E+02  0.91188000000E+02 0.  0.
    9900012    2    3    3    0    0 -0.15900326420E+02  0.19337407187E+02 -0.27000500654E+02  0.54367044926E+02  0.39999910517E+02 0.  0.
        -12    1    3    3    0    0  0.15900326420E+02 -0.19337407187E+02  0.27000500654E+02  0.36820955074E+02  0.00000000000E+00 0.  1.
         11    1    4    4    0    0 -0.93338186964E+01  0.13234667187E+02 -0.66616905335E+01  0.17511559269E+02  0.51100000000E-03 0. -1.
        -11    1    4    4    0    0  0.44959427003E+01  0.30797661554E+01  0.60138023830E+01  0.81156810989E+01  0.51100000000E-03 0.  1.
         12    1    4    4    0    0 -0.11062450424E+02  0.30229738449E+01 -0.26352612504E+02  0.28739804558E+02  0.00000000000E+00 0. -1.
</event>
<event>
 8    1  0.3106980E-007  0.9118800E+02  0.7816164E-02  0.1184000E+00
        -11   -1    0    0    0    0  0.00000000000E+00  0.00000000000E+00  0.45593999997E+02  0.45594000000E+02  0.51100000000E-03 0. -1.
         11   -1    0    0    0    0 -0.00000000000E+00 -0.00000000000E+00 -0.45593999997E+02  0.45594000000E+02  0.51100000000E-03 0.  1.
         23    2    1    2    0    0  0.17763568394E-14  0.71054273576E-14  0.88817841970E-15  0.91188000000E+02  0.91188000000E+02 0.  0.
    9900012    2    3    3    0    0  0.12823938872E+02  0.34227040559E+02  0.44537652519E+01  0.54367085583E+02  0.40000003203E+02 0.  0.
         12    1    3    3    0    0 -0.12823938872E+02 -0.34227040559E+02 -0.44537652519E+01  0.36820914417E+02  0.00000000000E+00 0. -1.
         11    1    4    4    0    0  0.19024736304E+02  0.16600628739E+02 -0.63263947005E+01  0.26029689513E+02  0.51100000000E-03 0. -1.
        -11    1    4    4    0    0 -0.99807855391E+01  0.95718767855E+01  0.13199313067E+02  0.19116975987E+02  0.51100000000E-03 0.  1.
        -12    1    4    4    0    0  0.37799881067E+01  0.80545350346E+01 -0.24191531148E+01  0.92204200828E+01  0.00000000000E+00 0.  1.
</event>
<event>
 8    1  0.3106980E-007  0.9118800E+02  0.7816164E-02  0.1184000E+00
        -11   -1    0    0    0    0  0.00000000000E+00  0.00000000000E+00  0.45593999997E+02  0.45594000000E+02  0.51100000000E-03 0. -1.
         11   -1    0    0    0    0 -0.00000000000E+00 -0.00000000000E+00 -0.45593999997E+02  0.45594000000E+02  0.51100000000E-03 0.  1.
         23    2    1    2    0    0  0.88817841970E-15 -0.17763568394E-14 -0.71054273576E-14  0.91188000000E+02  0.91188000000E+02 0.  0.
    9900012    2    3    3    0    0 -0.45300536460E+01 -0.92770071798E+01 -0.35343956142E+02  0.54367089039E+02  0.40000011082E+02 0.  0.
         12    1    3    3    0    0  0.45300536460E+01  0.92770071798E+01  0.35343956142E+02  0.36820910961E+02  0.00000000000E+00 0. -1.
         11    1    4    4    0    0 -0.62924946228E+01 -0.79593084153E+01 -0.83678132476E+01  0.13151668253E+02  0.51100000000E-03 0. -1.
        -11    1    4    4    0    0 -0.39322766866E+01 -0.15117328021E+02 -0.97185553651E+01  0.18396921619E+02  0.51100000000E-03 0.  1.
         12    1    4    4    0    0  0.56947176634E+01  0.13799629256E+02 -0.17257587529E+02  0.22818499166E+02  0.00000000000E+00 0. -1.
</event>
<event>
 8    1  0.3106980E-007  0.9118800E+02  0.7816164E-02  0.1184000E+00
        -11   -1    0    0    0    0  0.00000000000E+00  0.00000000000E+00  0.45593999997E+02  0.45594000000E+02  0.51100000000E-03 0. -1.
         11   -1    0    0    0    0 -0.00000000000E+00 -0.00000000000E+00 -0.45593999997E+02  0.45594000000E+02  0.51100000000E-03 0.  1.
         23    2    1    2    0    0  0.00000000000E+00  0.22204460493E-15  0.00000000000E+00  0.91188000000E+02  0.91188000000E+02 0.  0.
    9900012    2    3    3    0    0  0.31304702697E+02  0.11366629187E+01 -0.19352097565E+02  0.54367080759E+02  0.39999992207E+02 0.  0.
         12    1    3    3    0    0 -0.31304702697E+02 -0.11366629187E+01  0.19352097565E+02  0.36820919241E+02  0.00000000000E+00 0. -1.
         11    1    4    4    0    0 -0.79528529424E+01  0.65916893523E+01 -0.20514809942E+01  0.10531230364E+02  0.51100000000E-03 0. -1.
        -11    1    4    4    0    0  0.21199550481E+02 -0.53466505226E+01 -0.65668211597E+01  0.22828288434E+02  0.51100000000E-03 0.  1.
         12    1    4    4    0    0  0.18058005159E+02 -0.10837591107E+00 -0.10733795411E+02  0.21007561962E+02  0.00000000000E+00 0. -1.
</event>
<event>
 8    1  0.3106980E-007  0.9118800E+02  0.7816164E-02  0.1184000E+00
        -11   -1    0    0    0    0  0.00000000000E+00  0.00000000000E+00  0.45593999997E+02  0.45594000000E+02  0.51100000000E-03 0.  1.
         11   -1    0    0    0    0 -0.00000000000E+00 -0.00000000000E+00 -0.45593999997E+02  0.45594000000E+02  0.51100000000E-03 0. -1.
         23    2    1    2    0    0  0.00000000000E+00 -0.17763568394E-14  0.71054273576E-14  0.91188000000E+02  0.91188000000E+02 0.  0.
    9900012    2    3    3    0    0 -0.33385196627E+01  0.79200824667E+01  0.35803722120E+02  0.54367082882E+02  0.39999997045E+02 0.  0.
         12    1    3    3    0    0  0.33385196627E+01 -0.79200824667E+01 -0.35803722120E+02  0.36820917118E+02  0.00000000000E+00 0. -1.
         11    1    4    4    0    0 -0.54641199359E+01  0.18448074190E+02  0.35292776679E+02  0.40196618440E+02  0.51100000000E-03 0. -1.
        -11    1    4    4    0    0 -0.16877296289E+01 -0.75026065926E+01 -0.29085314052E+01  0.82217450812E+01  0.51100000000E-03 0.  1.
         12    1    4    4    0    0  0.38133299022E+01 -0.30253851310E+01  0.34194768456E+01  0.59487193606E+01  0.00000000000E+00 0. -1.
</event>
<event>
 8    1  0.3106980E-007  0.9118800E+02  0.7816164E-02  0.1184000E+00
        -11   -1    0    0    0    0  0.00000000000E+00  0.00000000000E+00  0.45593999997E+02  0.45594000000E+02  0.51100000000E-03 0.  1.
         11   -1    0    0    0    0 -0.00000000000E+00 -0.00000000000E+00 -0.45593999997E+02  0.45594000000E+02  0.51100000000E-03 0. -1.
         23    2    1    2    0    0  0.00000000000E+00 -0.88817841970E-15  0.35527136788E-14  0.91188000000E+02  0.91188000000E+02 0.  0.
    9900012    2    3    3    0    0  0.21876072078E+02 -0.65611903557E+01  0.28881996293E+02  0.54367062230E+02  0.39999949965E+02 0.  0.
         12    1    3    3    0    0 -0.21876072078E+02  0.65611903557E+01 -0.28881996293E+02  0.36820937770E+02  0.00000000000E+00 0. -1.
         11    1    4    4    0    0  0.19415187163E+02 -0.33520778285E+01 -0.25703606349E+01  0.19869390338E+02  0.51100000000E-03 0. -1.
        -11    1    4    4    0    0  0.76466839770E+00  0.52769467352E+01  0.14794437894E+02  0.15725974611E+02  0.51100000000E-03 0.  1.
        -12    1    4    4    0    0  0.16962165168E+01 -0.84860592624E+01  0.16657919034E+02  0.18771697281E+02  0.00000000000E+00 0.  1.
</event>
<event>
 8    1  0.3106980E-007  0.9118800E+02  0.7816164E-02  0.1184000E+00
        -11   -1    0    0    0    0  0.00000000000E+00  0.00000000000E+00  0.45593999997E+02  0.45594000000E+02  0.51100000000E-03 0.  1.
         11   -1    0    0    0    0 -0.00000000000E+00 -0.00000000000E+00 -0.45593999997E+02  0.45594000000E+02  0.51100000000E-03 0. -1.
         23    2    1    2    0    0  0.00000000000E+00  0.17763568394E-14  0.00000000000E+00  0.91188000000E+02  0.91188000000E+02 0.  0.
    9900012    2    3    3    0    0 -0.26985458435E+02 -0.14239544410E+02  0.20610673257E+02  0.54367089581E+02  0.40000012318E+02 0.  0.
         12    1    3    3    0    0  0.26985458435E+02  0.14239544410E+02 -0.20610673257E+02  0.36820910419E+02  0.00000000000E+00 0. -1.
         11    1    4    4    0    0 -0.88348370232E+01  0.25702349648E+01 -0.81710845229E+01  0.12305570915E+02  0.51100000000E-03 0. -1.
        -11    1    4    4    0    0 -0.79872281234E+01  0.10940539938E+01  0.15757980310E+02  0.17700472054E+02  0.51100000000E-03 0.  1.
        -12    1    4    4    0    0 -0.10163393288E+02 -0.17903833369E+02  0.13023777470E+02  0.24361046612E+02  0.00000000000E+00 0.  1.
</event>
<event>
 8    1  0.3106980E-007  0.9118800E+02  0.7816164E-02  0.1184000E+00
        -11   -1    0    0    0    0  0.00000000000E+00  0.00000000000E+00  0.45593999997E+02  0.45594000000E+02  0.51100000000E-03 0.  1.
         11   -1    0    0    0    0 -0.00000000000E+00 -0.00000000000E+00 -0.45593999997E+02  0.45594000000E+02  0.51100000000E-03 0. -1.
         23    2    1    2    0    0  0.35527136788E-14  0.22204460493E-15  0.35527136788E-14  0.91188000000E+02  0.91188000000E+02 0.  0.
    9900012    2    3    3    0    0  0.19972934602E+02  0.10073466725E+01  0.30916775218E+02  0.54367084018E+02  0.39999999635E+02 0.  0.
         12    1    3    3    0    0 -0.19972934602E+02 -0.10073466725E+01 -0.30916775218E+02  0.36820915982E+02  0.00000000000E+00 0. -1.
         11    1    4    4    0    0  0.14877468498E+01 -0.11056563568E+02  0.15120742970E+02  0.18790898245E+02  0.51100000000E-03 0. -1.
        -11    1    4    4    0    0  0.29251435511E+01  0.60450141263E+01 -0.53890369535E+01  0.86104808303E+01  0.51100000000E-03 0.  1.
        -12    1    4    4    0    0  0.15560044201E+02  0.60188961147E+01  0.21185069201E+02  0.26965704942E+02  0.00000000000E+00 0.  1.
</event>
<event>
 8    1  0.3106980E-007  0.9118800E+02  0.7816164E-02  0.1184000E+00
        -11   -1    0    0    0    0  0.00000000000E+00  0.00000000000E+00  0.45593999997E+02  0.45594000000E+02  0.51100000000E-03 0. -1.
         11   -1    0    0    0    0 -0.00000000000E+00 -0.00000000000E+00 -0.45593999997E+02  0.45594000000E+02  0.51100000000E-03 0.  1.
         23    2    1    2    0    0  0.00000000000E+00  0.00000000000E+00 -0.35527136788E-14  0.91188000000E+02  0.91188000000E+02 0.  0.
    9900012    2    3    3    0    0  0.31746070918E+02  0.11282044275E+02 -0.14855351253E+02  0.54367095576E+02  0.40000025985E+02 0.  0.
         12    1    3    3    0    0 -0.31746070918E+02 -0.11282044275E+02  0.14855351253E+02  0.36820904424E+02  0.00000000000E+00 0. -1.
         11    1    4    4    0    0  0.36981971257E+02  0.21582452880E+01 -0.16273938152E+02  0.40461899164E+02  0.51100000000E-03 0.  1.
        -11    1    4    4    0    0 -0.43269092791E+01 -0.25730784643E+00  0.11131567358E+01  0.44752060753E+01  0.51100000000E-03 0. -1.
        -12    1    4    4    0    0 -0.90899105997E+00  0.93811068331E+01  0.30543016293E+00  0.94299903364E+01  0.00000000000E+00 0.  1.
</event>
<event>
 8    1  0.3106980E-007  0.9118800E+02  0.7816164E-02  0.1184000E+00
        -11   -1    0    0    0    0  0.00000000000E+00  0.00000000000E+00  0.45593999997E+02  0.45594000000E+02  0.51100000000E-03 0.  1.
         11   -1    0    0    0    0 -0.00000000000E+00 -0.00000000000E+00 -0.45593999997E+02  0.45594000000E+02  0.51100000000E-03 0. -1.
         23    2    1    2    0    0  0.00000000000E+00  0.00000000000E+00 -0.35527136788E-14  0.91188000000E+02  0.91188000000E+02 0.  0.
    9900012    2    3    3    0    0 -0.19125335421E+02  0.15735924858E+02 -0.27246673242E+02  0.54367095763E+02  0.40000026410E+02 0.  0.
        -12    1    3    3    0    0  0.19125335421E+02 -0.15735924858E+02  0.27246673242E+02  0.36820904237E+02  0.00000000000E+00 0.  1.
         11    1    4    4    0    0 -0.18019259689E+02  0.11822362871E+02 -0.17280668648E+02  0.27623965913E+02  0.51100000000E-03 0. -1.
        -11    1    4    4    0    0  0.35121724875E+01  0.14213913187E+01  0.75556828667E+01  0.84524583824E+01  0.51100000000E-03 0.  1.
        -12    1    4    4    0    0 -0.46182482197E+01  0.24921706686E+01 -0.17521687460E+02  0.18290671467E+02  0.00000000000E+00 0.  1.
</event>
<event>
 8    1  0.3106980E-007  0.9118800E+02  0.7816164E-02  0.1184000E+00
        -11   -1    0    0    0    0  0.00000000000E+00  0.00000000000E+00  0.45593999997E+02  0.45594000000E+02  0.51100000000E-03 0.  1.
         11   -1    0    0    0    0 -0.00000000000E+00 -0.00000000000E+00 -0.45593999997E+02  0.45594000000E+02  0.51100000000E-03 0. -1.
         23    2    1    2    0    0  0.00000000000E+00  0.00000000000E+00  0.17763568394E-14  0.91188000000E+02  0.91188000000E+02 0.  0.
    9900012    2    3    3    0    0  0.32380408380E+02  0.10704367917E+02 -0.13881831393E+02  0.54367087705E+02  0.40000008042E+02 0.  0.
        -12    1    3    3    0    0 -0.32380408380E+02 -0.10704367917E+02  0.13881831393E+02  0.36820912295E+02  0.00000000000E+00 0.  1.
         11    1    4    4    0    0  0.59287850388E+01 -0.55177810991E+01  0.50972502620E+01  0.95696583423E+01  0.51100000000E-03 0. -1.
        -11    1    4    4    0    0  0.26455706609E+02  0.56806845137E+01 -0.20762021642E+02  0.34106247692E+02  0.51100000000E-03 0.  1.
        -12    1    4    4    0    0 -0.40832677534E-02  0.10541464502E+02  0.17829399866E+01  0.10691181671E+02  0.00000000000E+00 0.  1.
</event>
<event>
 8    1  0.3106980E-007  0.9118800E+02  0.7816164E-02  0.1184000E+00
        -11   -1    0    0    0    0  0.00000000000E+00  0.00000000000E+00  0.45593999997E+02  0.45594000000E+02  0.51100000000E-03 0.  1.
         11   -1    0    0    0    0 -0.00000000000E+00 -0.00000000000E+00 -0.45593999997E+02  0.45594000000E+02  0.51100000000E-03 0. -1.
         23    2    1    2    0    0  0.44408920985E-15  0.00000000000E+00  0.00000000000E+00  0.91188000000E+02  0.91188000000E+02 0.  0.
    9900012    2    3    3    0    0 -0.24947990397E+01 -0.28853827218E+02 -0.22737897140E+02  0.54367091080E+02  0.40000015735E+02 0.  0.
        -12    1    3    3    0    0  0.24947990397E+01  0.28853827218E+02  0.22737897140E+02  0.36820908920E+02  0.00000000000E+00 0.  1.
         11    1    4    4    0    0  0.86953861311E+01 -0.11250717849E+01 -0.41669862330E+01  0.97076928782E+01  0.51100000000E-03 0. -1.
        -11    1    4    4    0    0  0.50512019993E+01 -0.19143902816E+02 -0.17218640553E+02  0.26239002256E+02  0.51100000000E-03 0.  1.
        -12    1    4    4    0    0 -0.16241387170E+02 -0.85848526172E+01 -0.13522703539E+01  0.18420395945E+02  0.00000000000E+00 0.  1.
</event>
<event>
 8    1  0.3106980E-007  0.9118800E+02  0.7816164E-02  0.1184000E+00
        -11   -1    0    0    0    0  0.00000000000E+00  0.00000000000E+00  0.45593999997E+02  0.45594000000E+02  0.51100000000E-03 0.  1.
         11   -1    0    0    0    0 -0.00000000000E+00 -0.00000000000E+00 -0.45593999997E+02  0.45594000000E+02  0.51100000000E-03 0. -1.
         23    2    1    2    0    0  0.26645352591E-14  0.00000000000E+00  0.00000000000E+00  0.91188000000E+02  0.91188000000E+02 0.  0.
    9900012    2    3    3    0    0  0.48927738424E+01 -0.35835283192E+02 -0.69046254610E+01  0.54367073747E+02  0.39999976222E+02 0.  0.
         12    1    3    3    0    0 -0.48927738424E+01  0.35835283192E+02  0.69046254610E+01  0.36820926253E+02  0.00000000000E+00 0. -1.
         11    1    4    4    0    0 -0.82594780285E+01 -0.16243569482E+02  0.43646792898E+01  0.18738275064E+02  0.51100000000E-03 0.  1.
        -11    1    4    4    0    0  0.19554444607E+02 -0.17802369773E+02 -0.11805208445E+02  0.28959689573E+02  0.51100000000E-03 0. -1.
         12    1    4    4    0    0 -0.64021927365E+01 -0.17893439372E+01  0.53590369425E+00  0.66691091107E+01  0.00000000000E+00 0. -1.
</event>
<event>
 8    1  0.3106980E-007  0.9118800E+02  0.7816164E-02  0.1184000E+00
        -11   -1    0    0    0    0  0.00000000000E+00  0.00000000000E+00  0.45593999997E+02  0.45594000000E+02  0.51100000000E-03 0. -1.
         11   -1    0    0    0    0 -0.00000000000E+00 -0.00000000000E+00 -0.45593999997E+02  0.45594000000E+02  0.51100000000E-03 0.  1.
         23    2    1    2    0    0 -0.35527136788E-14  0.10633854908E-14  0.71054273576E-14  0.91188000000E+02  0.91188000000E+02 0.  0.
    9900012    2    3    3    0    0  0.20237632204E+02 -0.11715324503E-01 -0.30760664717E+02  0.54367076760E+02  0.39999983089E+02 0.  0.
         12    1    3    3    0    0 -0.20237632204E+02  0.11715324503E-01  0.30760664717E+02  0.36820923240E+02  0.00000000000E+00 0. -1.
         11    1    4    4    0    0  0.15832529350E+02 -0.24010392279E+01 -0.59900297676E+01  0.17097205382E+02  0.51100000000E-03 0. -1.
        -11    1    4    4    0    0  0.13805988816E+02 -0.58450690620E+01 -0.10516540379E+02  0.18313049482E+02  0.51100000000E-03 0.  1.
        -12    1    4    4    0    0 -0.94008859619E+01  0.82343929654E+01 -0.14254094570E+02  0.18956821896E+02  0.00000000000E+00 0.  1.
</event>
<event>
 8    1  0.3106980E-007  0.9118800E+02  0.7816164E-02  0.1184000E+00
        -11   -1    0    0    0    0  0.00000000000E+00  0.00000000000E+00  0.45593999997E+02  0.45594000000E+02  0.51100000000E-03 0.  1.
         11   -1    0    0    0    0 -0.00000000000E+00 -0.00000000000E+00 -0.45593999997E+02  0.45594000000E+02  0.51100000000E-03 0. -1.
         23    2    1    2    0    0 -0.88817841970E-15  0.35527136788E-14  0.35527136788E-14  0.91188000000E+02  0.91188000000E+02 0.  0.
    9900012    2    3    3    0    0 -0.63160318884E+01  0.20985012776E+02  0.29589162283E+02  0.54367061058E+02  0.39999947293E+02 0.  0.
         12    1    3    3    0    0  0.63160318884E+01 -0.20985012776E+02 -0.29589162283E+02  0.36820938942E+02  0.00000000000E+00 0. -1.
         11    1    4    4    0    0 -0.19959818315E+01  0.17292908440E+02  0.18295809677E+02  0.25254015083E+02  0.51100000000E-03 0.  1.
        -11    1    4    4    0    0 -0.26045411209E+01  0.40737611526E+01 -0.82114244507E+01  0.95292526543E+01  0.51100000000E-03 0. -1.
         12    1    4    4    0    0 -0.17155089361E+01 -0.38165681683E+00  0.19504777056E+02  0.19583793321E+02  0.00000000000E+00 0. -1.
</event>
<event>
 8    1  0.3106980E-007  0.9118800E+02  0.7816164E-02  0.1184000E+00
        -11   -1    0    0    0    0  0.00000000000E+00  0.00000000000E+00  0.45593999997E+02  0.45594000000E+02  0.51100000000E-03 0.  1.
         11   -1    0    0    0    0 -0.00000000000E+00 -0.00000000000E+00 -0.45593999997E+02  0.45594000000E+02  0.51100000000E-03 0. -1.
         23    2    1    2    0    0  0.35527136788E-14  0.00000000000E+00 -0.17763568394E-14  0.91188000000E+02  0.91188000000E+02 0.  0.
    9900012    2    3    3    0    0  0.25470312465E+02 -0.22866204616E+02  0.13571240270E+02  0.54367099779E+02  0.40000035566E+02 0.  0.
         12    1    3    3    0    0 -0.25470312465E+02  0.22866204616E+02 -0.13571240270E+02  0.36820900221E+02  0.00000000000E+00 0. -1.
         11    1    4    4    0    0  0.34303338639E+01  0.15719463702E+01  0.79308698119E+01  0.87827616411E+01  0.51100000000E-03 0. -1.
        -11    1    4    4    0    0  0.28955628378E+02 -0.25011601533E+02  0.41505005271E+01  0.38486819573E+02  0.51100000000E-03 0.  1.
         12    1    4    4    0    0 -0.69156497764E+01  0.57345054635E+00  0.14898699314E+01  0.70975185644E+01  0.00000000000E+00 0. -1.
</event>
<event>
 8    1  0.3106980E-007  0.9118800E+02  0.7816164E-02  0.1184000E+00
        -11   -1    0    0    0    0  0.00000000000E+00  0.00000000000E+00  0.45593999997E+02  0.45594000000E+02  0.51100000000E-03 0. -1.
         11   -1    0    0    0    0 -0.00000000000E+00 -0.00000000000E+00 -0.45593999997E+02  0.45594000000E+02  0.51100000000E-03 0.  1.
         23    2    1    2    0    0 -0.35527136788E-14  0.26645352591E-14 -0.71054273576E-14  0.91188000000E+02  0.91188000000E+02 0.  0.
    9900012    2    3    3    0    0  0.13719104042E+02 -0.70882001155E+01  0.33426350107E+02  0.54367118994E+02  0.40000079370E+02 0.  0.
        -12    1    3    3    0    0 -0.13719104042E+02  0.70882001155E+01 -0.33426350107E+02  0.36820881006E+02  0.00000000000E+00 0.  1.
         11    1    4    4    0    0  0.98458770126E+01  0.62554930300E+01  0.54261290438E+01  0.12865277450E+02  0.51100000000E-03 0. -1.
        -11    1    4    4    0    0  0.79043270629E+01 -0.14154790646E+02  0.34058622324E+01  0.16566121524E+02  0.51100000000E-03 0.  1.
        -12    1    4    4    0    0 -0.40311000335E+01  0.81109750035E+00  0.24594358831E+02  0.24935720020E+02  0.00000000000E+00 0.  1.
</event>
<event>
 8    1  0.3106980E-007  0.9118800E+02  0.7816164E-02  0.1184000E+00
        -11   -1    0    0    0    0  0.00000000000E+00  0.00000000000E+00  0.45593999997E+02  0.45594000000E+02  0.51100000000E-03 0.  1.
         11   -1    0    0    0    0 -0.00000000000E+00 -0.00000000000E+00 -0.45593999997E+02  0.45594000000E+02  0.51100000000E-03 0. -1.
         23    2    1    2    0    0  0.35527136788E-14 -0.35527136788E-14 -0.88817841970E-15  0.91188000000E+02  0.91188000000E+02 0.  0.
    9900012    2    3    3    0    0  0.18166821749E+02 -0.31898680665E+02  0.28672735208E+01  0.54367075268E+02  0.39999979689E+02 0.  0.
        -12    1    3    3    0    0 -0.18166821749E+02  0.31898680665E+02 -0.28672735208E+01  0.36820924732E+02  0.00000000000E+00 0.  1.
         11    1    4    4    0    0  0.22383982366E+02 -0.25201913973E+02  0.59178467463E+01  0.34222800073E+02  0.51100000000E-03 0. -1.
        -11    1    4    4    0    0 -0.17666152266E+01 -0.41332251325E+01  0.76491786778E+01  0.88721144075E+01  0.51100000000E-03 0.  1.
        -12    1    4    4    0    0 -0.24505453900E+01 -0.25635415598E+01 -0.10699751903E+02  0.11272160788E+02  0.00000000000E+00 0.  1.
</event>
<event>
 8    1  0.3106980E-007  0.9118800E+02  0.7816164E-02  0.1184000E+00
        -11   -1    0    0    0    0  0.00000000000E+00  0.00000000000E+00  0.45593999997E+02  0.45594000000E+02  0.51100000000E-03 0. -1.
         11   -1    0    0    0    0 -0.00000000000E+00 -0.00000000000E+00 -0.45593999997E+02  0.45594000000E+02  0.51100000000E-03 0.  1.
         23    2    1    2    0    0 -0.71054273576E-14  0.35527136788E-14  0.00000000000E+00  0.91188000000E+02  0.91188000000E+02 0.  0.
    9900012    2    3    3    0    0  0.34132691995E+02 -0.12918408368E+02  0.48841466378E+01  0.54367070816E+02  0.39999969540E+02 0.  0.
        -12    1    3    3    0    0 -0.34132691995E+02  0.12918408368E+02 -0.48841466378E+01  0.36820929184E+02  0.00000000000E+00 0.  1.
         11    1    4    4    0    0  0.30859777472E+02 -0.36566737717E+01  0.86652841893E+01  0.32261188432E+02  0.51100000000E-03 0. -1.
        -11    1    4    4    0    0  0.31388009018E+01 -0.91883843602E+01 -0.11121641844E+02  0.14763786636E+02  0.51100000000E-03 0.  1.
        -12    1    4    4    0    0  0.13411362099E+00 -0.73350236538E-01  0.73405042924E+01  0.73420957490E+01  0.00000000000E+00 0.  1.
</event>
<event>
 8    1  0.3106980E-007  0.9118800E+02  0.7816164E-02  0.1184000E+00
        -11   -1    0    0    0    0  0.00000000000E+00  0.00000000000E+00  0.45593999997E+02  0.45594000000E+02  0.51100000000E-03 0.  1.
         11   -1    0    0    0    0 -0.00000000000E+00 -0.00000000000E+00 -0.45593999997E+02  0.45594000000E+02  0.51100000000E-03 0. -1.
         23    2    1    2    0    0  0.00000000000E+00 -0.35527136788E-14  0.00000000000E+00  0.91188000000E+02  0.91188000000E+02 0.  0.
    9900012    2    3    3    0    0  0.22098766368E+02 -0.29409971195E+02  0.15739502568E+01  0.54367092894E+02  0.40000019870E+02 0.  0.
        -12    1    3    3    0    0 -0.22098766368E+02  0.29409971195E+02 -0.15739502568E+01  0.36820907106E+02  0.00000000000E+00 0.  1.
         11    1    4    4    0    0  0.15126391690E+02 -0.36294825436E+02 -0.59965341647E+01  0.39775375563E+02  0.51100000000E-03 0. -1.
        -11    1    4    4    0    0  0.30063007809E+01 -0.11300374020E+01  0.35493756456E+01  0.47867417572E+01  0.51100000000E-03 0.  1.
         12    1    4    4    0    0  0.39660738978E+01  0.80148916425E+01  0.40211087759E+01  0.98049755733E+01  0.00000000000E+00 0. -1.
</event>
<event>
 8    1  0.3106980E-007  0.9118800E+02  0.7816164E-02  0.1184000E+00
        -11   -1    0    0    0    0  0.00000000000E+00  0.00000000000E+00  0.45593999997E+02  0.45594000000E+02  0.51100000000E-03 0.  1.
         11   -1    0    0    0    0 -0.00000000000E+00 -0.00000000000E+00 -0.45593999997E+02  0.45594000000E+02  0.51100000000E-03 0. -1.
         23    2    1    2    0    0  0.00000000000E+00  0.00000000000E+00  0.00000000000E+00  0.91188000000E+02  0.91188000000E+02 0.  0.
    9900012    2    3    3    0    0 -0.23043738182E+02 -0.20123075715E+02 -0.20489707734E+02  0.54367079742E+02  0.39999989887E+02 0.  0.
        -12    1    3    3    0    0  0.23043738182E+02  0.20123075715E+02  0.20489707734E+02  0.36820920258E+02  0.00000000000E+00 0.  1.
         11    1    4    4    0    0 -0.87645774391E+01  0.59709096201E+01 -0.14691965380E+01  0.10706452172E+02  0.51100000000E-03 0.  1.
        -11    1    4    4    0    0 -0.13054402420E+02 -0.29667537155E+02 -0.10062502575E+02  0.33938682086E+02  0.51100000000E-03 0. -1.
         12    1    4    4    0    0 -0.12247583231E+01  0.35735518192E+01 -0.89580086204E+01  0.97219454841E+01  0.00000000000E+00 0. -1.
</event>
<event>
 8    1  0.3106980E-007  0.9118800E+02  0.7816164E-02  0.1184000E+00
        -11   -1    0    0    0    0  0.00000000000E+00  0.00000000000E+00  0.45593999997E+02  0.45594000000E+02  0.51100000000E-03 0. -1.
         11   -1    0    0    0    0 -0.00000000000E+00 -0.00000000000E+00 -0.45593999997E+02  0.45594000000E+02  0.51100000000E-03 0.  1.
         23    2    1    2    0    0  0.00000000000E+00  0.00000000000E+00  0.44408920985E-15  0.91188000000E+02  0.91188000000E+02 0.  0.
    9900012    2    3    3    0    0  0.16670882492E+02  0.32772455498E+02  0.19563803335E+01  0.54367087648E+02  0.40000007911E+02 0.  0.
        -12    1    3    3    0    0 -0.16670882492E+02 -0.32772455498E+02 -0.19563803335E+01  0.36820912352E+02  0.00000000000E+00 0.  1.
         11    1    4    4    0    0 -0.10716138573E+02  0.15191030622E+02  0.72372874831E+01  0.19949470360E+02  0.51100000000E-03 0. -1.
        -11    1    4    4    0    0  0.18246829858E+02  0.15405169918E+02 -0.52314119690E+00  0.23885973646E+02  0.51100000000E-03 0.  1.
         12    1    4    4    0    0  0.91401912068E+01  0.21762549579E+01 -0.47577659526E+01  0.10531643642E+02  0.00000000000E+00 0. -1.
</event>
<event>
 8    1  0.3106980E-007  0.9118800E+02  0.7816164E-02  0.1184000E+00
        -11   -1    0    0    0    0  0.00000000000E+00  0.00000000000E+00  0.45593999997E+02  0.45594000000E+02  0.51100000000E-03 0. -1.
         11   -1    0    0    0    0 -0.00000000000E+00 -0.00000000000E+00 -0.45593999997E+02  0.45594000000E+02  0.51100000000E-03 0.  1.
         23    2    1    2    0    0  0.00000000000E+00 -0.17763568394E-14 -0.35527136788E-14  0.91188000000E+02  0.91188000000E+02 0.  0.
    9900012    2    3    3    0    0 -0.25772045279E+02  0.10386177680E+02  0.24160066316E+02  0.54367084625E+02  0.40000001019E+02 0.  0.
        -12    1    3    3    0    0  0.25772045279E+02 -0.10386177680E+02 -0.24160066316E+02  0.36820915375E+02  0.00000000000E+00 0.  1.
         11    1    4    4    0    0  0.48969085643E+01 -0.88402737389E+01 -0.35419226837E+00  0.10112151388E+02  0.51100000000E-03 0. -1.
        -11    1    4    4    0    0 -0.18001548819E+02  0.97228296397E+01  0.99953804485E+01  0.22770524953E+02  0.51100000000E-03 0.  1.
         12    1    4    4    0    0 -0.12667405025E+02  0.95036217796E+01  0.14518878136E+02  0.21484408284E+02  0.00000000000E+00 0. -1.
</event>
<event>
 8    1  0.3106980E-007  0.9118800E+02  0.7816164E-02  0.1184000E+00
        -11   -1    0    0    0    0  0.00000000000E+00  0.00000000000E+00  0.45593999997E+02  0.45594000000E+02  0.51100000000E-03 0.  1.
         11   -1    0    0    0    0 -0.00000000000E+00 -0.00000000000E+00 -0.45593999997E+02  0.45594000000E+02  0.51100000000E-03 0. -1.
         23    2    1    2    0    0  0.00000000000E+00  0.00000000000E+00  0.35527136788E-14  0.91188000000E+02  0.91188000000E+02 0.  0.
    9900012    2    3    3    0    0 -0.26434556346E+02  0.13808085276E+02  0.21594661473E+02  0.54367103863E+02  0.40000044876E+02 0.  0.
         12    1    3    3    0    0  0.26434556346E+02 -0.13808085276E+02 -0.21594661473E+02  0.36820896137E+02  0.00000000000E+00 0. -1.
         11    1    4    4    0    0 -0.77347689988E+01 -0.59452114261E+01  0.59479844931E+01  0.11425878967E+02  0.51100000000E-03 0. -1.
        -11    1    4    4    0    0 -0.12245246778E+02  0.18145325264E+01  0.19873583401E+02  0.23413626682E+02  0.51100000000E-03 0.  1.
        -12    1    4    4    0    0 -0.64545405693E+01  0.17938764176E+02 -0.42269064212E+01  0.19527598214E+02  0.00000000000E+00 0.  1.
</event>
<event>
 8    1  0.3106980E-007  0.9118800E+02  0.7816164E-02  0.1184000E+00
        -11   -1    0    0    0    0  0.00000000000E+00  0.00000000000E+00  0.45593999997E+02  0.45594000000E+02  0.51100000000E-03 0. -1.
         11   -1    0    0    0    0 -0.00000000000E+00 -0.00000000000E+00 -0.45593999997E+02  0.45594000000E+02  0.51100000000E-03 0.  1.
         23    2    1    2    0    0  0.88817841970E-15 -0.17763568394E-14  0.00000000000E+00  0.91188000000E+02  0.91188000000E+02 0.  0.
    9900012    2    3    3    0    0  0.62117384522E+01 -0.84923806257E+01  0.35285613794E+02  0.54367071657E+02  0.39999971455E+02 0.  0.
        -12    1    3    3    0    0 -0.62117384522E+01  0.84923806257E+01 -0.35285613794E+02  0.36820928343E+02  0.00000000000E+00 0.  1.
         11    1    4    4    0    0  0.29697260432E+01 -0.82979050550E+01  0.29135967821E+02  0.30439762190E+02  0.51100000000E-03 0. -1.
        -11    1    4    4    0    0  0.45734844332E+01 -0.10878975029E+02  0.58122338927E+01  0.13154882008E+02  0.51100000000E-03 0.  1.
        -12    1    4    4    0    0 -0.13314720241E+01  0.10684499459E+02  0.33741207965E+00  0.10772427458E+02  0.00000000000E+00 0.  1.
</event>
<event>
 8    1  0.3106980E-007  0.9118800E+02  0.7816164E-02  0.1184000E+00
        -11   -1    0    0    0    0  0.00000000000E+00  0.00000000000E+00  0.45593999997E+02  0.45594000000E+02  0.51100000000E-03 0.  1.
         11   -1    0    0    0    0 -0.00000000000E+00 -0.00000000000E+00 -0.45593999997E+02  0.45594000000E+02  0.51100000000E-03 0. -1.
         23    2    1    2    0    0  0.00000000000E+00  0.35527136788E-14 -0.33306690739E-15  0.91188000000E+02  0.91188000000E+02 0.  0.
    9900012    2    3    3    0    0 -0.31847228927E+02  0.18457100133E+02 -0.93209564895E+00  0.54367091022E+02  0.40000015603E+02 0.  0.
         12    1    3    3    0    0  0.31847228927E+02 -0.18457100133E+02  0.93209564895E+00  0.36820908978E+02  0.00000000000E+00 0. -1.
         11    1    4    4    0    0 -0.58292321190E+01  0.92743138517E+01 -0.10686745432E+02  0.15303573854E+02  0.51100000000E-03 0. -1.
        -11    1    4    4    0    0 -0.29385857675E+02  0.74257040021E+01  0.19364836279E+01  0.30371362833E+02  0.51100000000E-03 0.  1.
         12    1    4    4    0    0  0.33678608674E+01  0.17570822792E+01  0.78181661549E+01  0.86921543351E+01  0.00000000000E+00 0. -1.
</event>
<event>
 8    1  0.3106980E-007  0.9118800E+02  0.7816164E-02  0.1184000E+00
        -11   -1    0    0    0    0  0.00000000000E+00  0.00000000000E+00  0.45593999997E+02  0.45594000000E+02  0.51100000000E-03 0.  1.
         11   -1    0    0    0    0 -0.00000000000E+00 -0.00000000000E+00 -0.45593999997E+02  0.45594000000E+02  0.51100000000E-03 0. -1.
         23    2    1    2    0    0 -0.35527136788E-14  0.26645352591E-14  0.00000000000E+00  0.91188000000E+02  0.91188000000E+02 0.  0.
    9900012    2    3    3    0    0 -0.21717536744E+02 -0.54666148953E+01  0.29227467343E+02  0.54367080295E+02  0.39999991149E+02 0.  0.
         12    1    3    3    0    0  0.21717536744E+02  0.54666148953E+01 -0.29227467343E+02  0.36820919705E+02  0.00000000000E+00 0. -1.
         11    1    4    4    0    0  0.39493298098E+01 -0.35485036402E+01  0.16636286978E+02  0.17462964488E+02  0.51100000000E-03 0. -1.
        -11    1    4    4    0    0 -0.27320814423E+01 -0.79408623112E+01 -0.25422483006E+01  0.87740862735E+01  0.51100000000E-03 0.  1.
         12    1    4    4    0    0 -0.22934785111E+02  0.60227510561E+01  0.15133428666E+02  0.28130029534E+02  0.00000000000E+00 0. -1.
</event>
<event>
 8    1  0.3106980E-007  0.9118800E+02  0.7816164E-02  0.1184000E+00
        -11   -1    0    0    0    0  0.00000000000E+00  0.00000000000E+00  0.45593999997E+02  0.45594000000E+02  0.51100000000E-03 0. -1.
         11   -1    0    0    0    0 -0.00000000000E+00 -0.00000000000E+00 -0.45593999997E+02  0.45594000000E+02  0.51100000000E-03 0.  1.
         23    2    1    2    0    0  0.00000000000E+00  0.88817841970E-15  0.35527136788E-14  0.91188000000E+02  0.91188000000E+02 0.  0.
    9900012    2    3    3    0    0  0.24972505296E+02 -0.61136297573E+01 -0.26358616578E+02  0.54367093473E+02  0.40000021191E+02 0.  0.
         12    1    3    3    0    0 -0.24972505296E+02  0.61136297573E+01  0.26358616578E+02  0.36820906527E+02  0.00000000000E+00 0. -1.
         11    1    4    4    0    0  0.52766638362E+01 -0.48665288505E+01  0.75211473115E+01  0.10396823622E+02  0.51100000000E-03 0. -1.
        -11    1    4    4    0    0  0.36135315848E+01  0.82986414586E+01 -0.14045479268E+02  0.16709295279E+02  0.51100000000E-03 0.  1.
        -12    1    4    4    0    0  0.16082309875E+02 -0.95457423654E+01 -0.19834284621E+02  0.27260974572E+02  0.00000000000E+00 0.  1.
</event>
<event>
 8    1  0.3106980E-007  0.9118800E+02  0.7816164E-02  0.1184000E+00
        -11   -1    0    0    0    0  0.00000000000E+00  0.00000000000E+00  0.45593999997E+02  0.45594000000E+02  0.51100000000E-03 0.  1.
         11   -1    0    0    0    0 -0.00000000000E+00 -0.00000000000E+00 -0.45593999997E+02  0.45594000000E+02  0.51100000000E-03 0. -1.
         23    2    1    2    0    0  0.00000000000E+00 -0.88817841970E-15  0.00000000000E+00  0.91188000000E+02  0.91188000000E+02 0.  0.
    9900012    2    3    3    0    0  0.20377315512E+02 -0.60226110940E+01  0.30071111149E+02  0.54367101619E+02  0.40000039760E+02 0.  0.
         12    1    3    3    0    0 -0.20377315512E+02  0.60226110940E+01 -0.30071111149E+02  0.36820898381E+02  0.00000000000E+00 0. -1.
         11    1    4    4    0    0 -0.74959224032E+00  0.60162801397E+01  0.19625002788E+02  0.20540161877E+02  0.51100000000E-03 0. -1.
        -11    1    4    4    0    0 -0.19205623855E+01 -0.85846923161E+01  0.38812217452E+01  0.96150602980E+01  0.51100000000E-03 0.  1.
         12    1    4    4    0    0  0.23047470138E+02 -0.34541989176E+01  0.65648866164E+01  0.24211879444E+02  0.00000000000E+00 0. -1.
</event>
<event>
 8    1  0.3106980E-007  0.9118800E+02  0.7816164E-02  0.1184000E+00
        -11   -1    0    0    0    0  0.00000000000E+00  0.00000000000E+00  0.45593999997E+02  0.45594000000E+02  0.51100000000E-03 0.  1.
         11   -1    0    0    0    0 -0.00000000000E+00 -0.00000000000E+00 -0.45593999997E+02  0.45594000000E+02  0.51100000000E-03 0. -1.
         23    2    1    2    0    0 -0.35527136788E-14  0.00000000000E+00 -0.35527136788E-14  0.91188000000E+02  0.91188000000E+02 0.  0.
    9900012    2    3    3    0    0  0.27632603560E+02  0.38140539284E+01  0.24034815294E+02  0.54367080224E+02  0.39999990988E+02 0.  0.
         12    1    3    3    0    0 -0.27632603560E+02 -0.38140539284E+01 -0.24034815294E+02  0.36820919776E+02  0.00000000000E+00 0. -1.
         11    1    4    4    0    0  0.52285934694E+01  0.43673302818E+00 -0.99195859930E+01  0.11221724998E+02  0.51100000000E-03 0. -1.
        -11    1    4    4    0    0  0.11590650904E+02  0.78384509487E+01  0.12757803264E+02  0.18935312145E+02  0.51100000000E-03 0.  1.
         12    1    4    4    0    0  0.10813359187E+02 -0.44611300485E+01  0.21196598023E+02  0.24210043081E+02  0.00000000000E+00 0. -1.
</event>
<event>
 8    1  0.3106980E-007  0.9118800E+02  0.7816164E-02  0.1184000E+00
        -11   -1    0    0    0    0  0.00000000000E+00  0.00000000000E+00  0.45593999997E+02  0.45594000000E+02  0.51100000000E-03 0. -1.
         11   -1    0    0    0    0 -0.00000000000E+00 -0.00000000000E+00 -0.45593999997E+02  0.45594000000E+02  0.51100000000E-03 0.  1.
         23    2    1    2    0    0  0.00000000000E+00  0.00000000000E+00 -0.17763568394E-14  0.91188000000E+02  0.91188000000E+02 0.  0.
    9900012    2    3    3    0    0 -0.32219971386E+01  0.34302511903E+02 -0.12989985534E+02  0.54367037049E+02  0.39999892561E+02 0.  0.
         12    1    3    3    0    0  0.32219971386E+01 -0.34302511903E+02  0.12989985534E+02  0.36820962951E+02  0.00000000000E+00 0. -1.
         11    1    4    4    0    0 -0.23458845457E+01  0.63510844131E+01  0.55763450732E+00  0.67934088666E+01  0.51100000000E-03 0. -1.
        -11    1    4    4    0    0  0.61625094453E+01 -0.14932581504E+01  0.81505687146E+01  0.10326573159E+02  0.51100000000E-03 0.  1.
        -12    1    4    4    0    0 -0.70386220381E+01  0.29444685640E+02 -0.21698188756E+02  0.37247055024E+02  0.00000000000E+00 0.  1.
</event>
<event>
 8    1  0.3106980E-007  0.9118800E+02  0.7816164E-02  0.1184000E+00
        -11   -1    0    0    0    0  0.00000000000E+00  0.00000000000E+00  0.45593999997E+02  0.45594000000E+02  0.51100000000E-03 0.  1.
         11   -1    0    0    0    0 -0.00000000000E+00 -0.00000000000E+00 -0.45593999997E+02  0.45594000000E+02  0.51100000000E-03 0. -1.
         23    2    1    2    0    0  0.00000000000E+00  0.88817841970E-15  0.00000000000E+00  0.91188000000E+02  0.91188000000E+02 0.  0.
    9900012    2    3    3    0    0 -0.36413642258E+02  0.42358973719E+01 -0.34475104394E+01  0.54367061700E+02  0.39999948758E+02 0.  0.
         12    1    3    3    0    0  0.36413642258E+02 -0.42358973719E+01  0.34475104394E+01  0.36820938300E+02  0.00000000000E+00 0. -1.
         11    1    4    4    0    0 -0.67312880084E+01  0.90557882599E+01 -0.78690988426E+00  0.11310913610E+02  0.51100000000E-03 0. -1.
        -11    1    4    4    0    0  0.52555008282E+01  0.18487106918E+01 -0.48968261703E+01  0.74173396161E+01  0.51100000000E-03 0.  1.
        -12    1    4    4    0    0 -0.34937855078E+02 -0.66686015798E+01  0.22362256151E+01  0.35638808474E+02  0.00000000000E+00 0.  1.
</event>
<event>
 8    1  0.3106980E-007  0.9118800E+02  0.7816164E-02  0.1184000E+00
        -11   -1    0    0    0    0  0.00000000000E+00  0.00000000000E+00  0.45593999997E+02  0.45594000000E+02  0.51100000000E-03 0.  1.
         11   -1    0    0    0    0 -0.00000000000E+00 -0.00000000000E+00 -0.45593999997E+02  0.45594000000E+02  0.51100000000E-03 0. -1.
         23    2    1    2    0    0 -0.44408920985E-15  0.00000000000E+00  0.35527136788E-14  0.91188000000E+02  0.91188000000E+02 0.  0.
    9900012    2    3    3    0    0  0.37453020394E+01  0.33816003534E+02 -0.14079435921E+02  0.54367083414E+02  0.39999998259E+02 0.  0.
        -12    1    3    3    0    0 -0.37453020394E+01 -0.33816003534E+02  0.14079435921E+02  0.36820916586E+02  0.00000000000E+00 0.  1.
         11    1    4    4    0    0  0.34919420078E+00 -0.15699614738E+01 -0.17130680098E+02  0.17206013963E+02  0.51100000000E-03 0. -1.
        -11    1    4    4    0    0 -0.27166427329E+01  0.22857201215E+02  0.73716164589E+00  0.23029876306E+02  0.51100000000E-03 0.  1.
        -12    1    4    4    0    0  0.61127505716E+01  0.12528763793E+02  0.23140825315E+01  0.14131193145E+02  0.00000000000E+00 0.  1.
</event>
<event>
 8    1  0.3106980E-007  0.9118800E+02  0.7816164E-02  0.1184000E+00
        -11   -1    0    0    0    0  0.00000000000E+00  0.00000000000E+00  0.45593999997E+02  0.45594000000E+02  0.51100000000E-03 0.  1.
         11   -1    0    0    0    0 -0.00000000000E+00 -0.00000000000E+00 -0.45593999997E+02  0.45594000000E+02  0.51100000000E-03 0. -1.
         23    2    1    2    0    0  0.00000000000E+00 -0.35527136788E-14  0.35527136788E-14  0.91188000000E+02  0.91188000000E+02 0.  0.
    9900012    2    3    3    0    0 -0.16868860316E+02 -0.28588418317E+02 -0.15935062700E+02  0.54367050345E+02  0.39999922871E+02 0.  0.
        -12    1    3    3    0    0  0.16868860316E+02  0.28588418317E+02  0.15935062700E+02  0.36820949655E+02  0.00000000000E+00 0.  1.
         11    1    4    4    0    0 -0.53232028800E+00  0.40964944716E+01  0.17218642113E+01  0.44754271827E+01  0.51100000000E-03 0. -1.
        -11    1    4    4    0    0 -0.21746971422E+01 -0.16964310605E+02  0.60258792474E+01  0.18133625201E+02  0.51100000000E-03 0.  1.
        -12    1    4    4    0    0 -0.14161842886E+02 -0.15720602183E+02 -0.23682806159E+02  0.31757997961E+02  0.00000000000E+00 0.  1.
</event>
<event>
 8    1  0.3106980E-007  0.9118800E+02  0.7816164E-02  0.1184000E+00
        -11   -1    0    0    0    0  0.00000000000E+00  0.00000000000E+00  0.45593999997E+02  0.45594000000E+02  0.51100000000E-03 0. -1.
         11   -1    0    0    0    0 -0.00000000000E+00 -0.00000000000E+00 -0.45593999997E+02  0.45594000000E+02  0.51100000000E-03 0.  1.
         23    2    1    2    0    0  0.00000000000E+00  0.00000000000E+00  0.00000000000E+00  0.91188000000E+02  0.91188000000E+02 0.  0.
    9900012    2    3    3    0    0  0.16223416893E+02 -0.16939607793E+01 -0.33010763732E+02  0.54367091796E+02  0.40000017368E+02 0.  0.
         12    1    3    3    0    0 -0.16223416893E+02  0.16939607793E+01  0.33010763732E+02  0.36820908204E+02  0.00000000000E+00 0. -1.
         11    1    4    4    0    0  0.15212210379E+02 -0.53208262938E+00 -0.29223477104E+02  0.32950054186E+02  0.51100000000E-03 0. -1.
        -11    1    4    4    0    0  0.10925521754E+02  0.62706491805E+00 -0.27888016735E+01  0.11293256884E+02  0.51100000000E-03 0.  1.
         12    1    4    4    0    0 -0.99143152406E+01 -0.17889430680E+01 -0.99848495380E+00  0.10123780726E+02  0.00000000000E+00 0. -1.
</event>
<event>
 8    1  0.3106980E-007  0.9118800E+02  0.7816164E-02  0.1184000E+00
        -11   -1    0    0    0    0  0.00000000000E+00  0.00000000000E+00  0.45593999997E+02  0.45594000000E+02  0.51100000000E-03 0. -1.
         11   -1    0    0    0    0 -0.00000000000E+00 -0.00000000000E+00 -0.45593999997E+02  0.45594000000E+02  0.51100000000E-03 0.  1.
         23    2    1    2    0    0  0.44408920985E-15 -0.10658141036E-13  0.35527136788E-14  0.91188000000E+02  0.91188000000E+02 0.  0.
    9900012    2    3    3    0    0 -0.18081589743E+01  0.28239784198E+02 -0.23559010976E+02  0.54367056929E+02  0.39999937882E+02 0.  0.
         12    1    3    3    0    0  0.18081589743E+01 -0.28239784198E+02  0.23559010976E+02  0.36820943071E+02  0.00000000000E+00 0. -1.
         11    1    4    4    0    0 -0.42606778654E+01  0.32088874693E+02 -0.20500037718E+02  0.38315803549E+02  0.51100000000E-03 0.  1.
        -11    1    4    4    0    0 -0.37838250599E+01  0.26907102083E+01  0.26658164682E+01  0.53538613366E+01  0.51100000000E-03 0. -1.
        -12    1    4    4    0    0  0.62363439510E+01 -0.65398007032E+01 -0.57247897270E+01  0.10697392043E+02  0.00000000000E+00 0.  1.
</event>
<event>
 8    1  0.3106980E-007  0.9118800E+02  0.7816164E-02  0.1184000E+00
        -11   -1    0    0    0    0  0.00000000000E+00  0.00000000000E+00  0.45593999997E+02  0.45594000000E+02  0.51100000000E-03 0.  1.
         11   -1    0    0    0    0 -0.00000000000E+00 -0.00000000000E+00 -0.45593999997E+02  0.45594000000E+02  0.51100000000E-03 0. -1.
         23    2    1    2    0    0 -0.35527136788E-14  0.00000000000E+00 -0.17763568394E-14  0.91188000000E+02  0.91188000000E+02 0.  0.
    9900012    2    3    3    0    0  0.29982469285E+02  0.17338813389E+02  0.12497856353E+02  0.54367091163E+02  0.40000015925E+02 0.  0.
        -12    1    3    3    0    0 -0.29982469285E+02 -0.17338813389E+02 -0.12497856353E+02  0.36820908837E+02  0.00000000000E+00 0.  1.
         11    1    4    4    0    0  0.45284800104E+01  0.18810005269E+02 -0.81839765366E+01  0.21007163103E+02  0.51100000000E-03 0.  1.
        -11    1    4    4    0    0  0.17316699902E+02 -0.37480948872E+01  0.13620833053E+02  0.22348230447E+02  0.51100000000E-03 0. -1.
        -12    1    4    4    0    0  0.81372893725E+01  0.22769030069E+01  0.70609998362E+01  0.11011697613E+02  0.00000000000E+00 0.  1.
</event>
<event>
 8    1  0.3106980E-007  0.9118800E+02  0.7816164E-02  0.1184000E+00
        -11   -1    0    0    0    0  0.00000000000E+00  0.00000000000E+00  0.45593999997E+02  0.45594000000E+02  0.51100000000E-03 0.  1.
         11   -1    0    0    0    0 -0.00000000000E+00 -0.00000000000E+00 -0.45593999997E+02  0.45594000000E+02  0.51100000000E-03 0. -1.
         23    2    1    2    0    0 -0.71054273576E-14  0.00000000000E+00 -0.17763568394E-14  0.91188000000E+02  0.91188000000E+02 0.  0.
    9900012    2    3    3    0    0 -0.32820885673E+02 -0.12685157098E+02  0.10847014271E+02  0.54367062130E+02  0.39999949739E+02 0.  0.
         12    1    3    3    0    0  0.32820885673E+02  0.12685157098E+02 -0.10847014271E+02  0.36820937870E+02  0.00000000000E+00 0. -1.
         11    1    4    4    0    0  0.37805466277E+01  0.48717637817E+01  0.17495090052E+01  0.64099451768E+01  0.51100000000E-03 0. -1.
        -11    1    4    4    0    0 -0.37025653149E+02 -0.13156518426E+02  0.13663661250E+02  0.41601545732E+02  0.51100000000E-03 0.  1.
        -12    1    4    4    0    0  0.42422084823E+00 -0.44004024539E+01 -0.45661559844E+01  0.63555712220E+01  0.00000000000E+00 0.  1.
</event>
<event>
 8    1  0.3106980E-007  0.9118800E+02  0.7816164E-02  0.1184000E+00
        -11   -1    0    0    0    0  0.00000000000E+00  0.00000000000E+00  0.45593999997E+02  0.45594000000E+02  0.51100000000E-03 0. -1.
         11   -1    0    0    0    0 -0.00000000000E+00 -0.00000000000E+00 -0.45593999997E+02  0.45594000000E+02  0.51100000000E-03 0.  1.
         23    2    1    2    0    0  0.00000000000E+00 -0.77715611724E-15 -0.35527136788E-14  0.91188000000E+02  0.91188000000E+02 0.  0.
    9900012    2    3    3    0    0  0.22723214603E+02  0.80134466923E+00 -0.28961924854E+02  0.54367085747E+02  0.40000003578E+02 0.  0.
        -12    1    3    3    0    0 -0.22723214603E+02 -0.80134466923E+00  0.28961924854E+02  0.36820914253E+02  0.00000000000E+00 0.  1.
         11    1    4    4    0    0 -0.15040946631E+01  0.23697959556E+00  0.60127805896E+01  0.62025793638E+01  0.51100000000E-03 0. -1.
        -11    1    4    4    0    0  0.44318714044E+01 -0.56266244684E+01 -0.23273131349E+02  0.24350339424E+02  0.51100000000E-03 0.  1.
         12    1    4    4    0    0  0.19795437862E+02  0.61909895421E+01 -0.11701574095E+02  0.23814166959E+02  0.00000000000E+00 0. -1.
</event>
<event>
 8    1  0.3106980E-007  0.9118800E+02  0.7816164E-02  0.1184000E+00
        -11   -1    0    0    0    0  0.00000000000E+00  0.00000000000E+00  0.45593999997E+02  0.45594000000E+02  0.51100000000E-03 0.  1.
         11   -1    0    0    0    0 -0.00000000000E+00 -0.00000000000E+00 -0.45593999997E+02  0.45594000000E+02  0.51100000000E-03 0. -1.
         23    2    1    2    0    0  0.35527136788E-14  0.00000000000E+00  0.00000000000E+00  0.91188000000E+02  0.91188000000E+02 0.  0.
    9900012    2    3    3    0    0  0.27741922280E+02  0.10128304760E+02  0.21990520852E+02  0.54367084525E+02  0.40000000791E+02 0.  0.
         12    1    3    3    0    0 -0.27741922280E+02 -0.10128304760E+02 -0.21990520852E+02  0.36820915475E+02  0.00000000000E+00 0. -1.
         11    1    4    4    0    0 -0.48181600705E+00  0.43672557815E+01  0.58966553196E+01  0.73536123058E+01  0.51100000000E-03 0. -1.
        -11    1    4    4    0    0  0.24554512510E+02 -0.34453979627E+01  0.23868959540E+02  0.34416886575E+02  0.51100000000E-03 0.  1.
         12    1    4    4    0    0  0.36692257762E+01  0.92064469409E+01 -0.77750940070E+01  0.12596585644E+02  0.00000000000E+00 0. -1.
</event>
<event>
 8    1  0.3106980E-007  0.9118800E+02  0.7816164E-02  0.1184000E+00
        -11   -1    0    0    0    0  0.00000000000E+00  0.00000000000E+00  0.45593999997E+02  0.45594000000E+02  0.51100000000E-03 0.  1.
         11   -1    0    0    0    0 -0.00000000000E+00 -0.00000000000E+00 -0.45593999997E+02  0.45594000000E+02  0.51100000000E-03 0. -1.
         23    2    1    2    0    0 -0.88817841970E-15  0.00000000000E+00  0.00000000000E+00  0.91188000000E+02  0.91188000000E+02 0.  0.
    9900012    2    3    3    0    0  0.29660460092E+01 -0.14125218380E+02 -0.33874190718E+02  0.54367081760E+02  0.39999994489E+02 0.  0.
        -12    1    3    3    0    0 -0.29660460092E+01  0.14125218380E+02  0.33874190718E+02  0.36820918240E+02  0.00000000000E+00 0.  1.
         11    1    4    4    0    0  0.96557516635E+01 -0.34936457156E+01 -0.39292987345E+01  0.10994475403E+02  0.51100000000E-03 0. -1.
        -11    1    4    4    0    0 -0.37786909537E+01 -0.11784735200E+02  0.86322196543E+00  0.12405790643E+02  0.51100000000E-03 0.  1.
         12    1    4    4    0    0 -0.29110147006E+01  0.11531625357E+01 -0.30808113949E+02  0.30966815715E+02  0.00000000000E+00 0. -1.
</event>
<event>
 8    1  0.3106980E-007  0.9118800E+02  0.7816164E-02  0.1184000E+00
        -11   -1    0    0    0    0  0.00000000000E+00  0.00000000000E+00  0.45593999997E+02  0.45594000000E+02  0.51100000000E-03 0. -1.
         11   -1    0    0    0    0 -0.00000000000E+00 -0.00000000000E+00 -0.45593999997E+02  0.45594000000E+02  0.51100000000E-03 0.  1.
         23    2    1    2    0    0  0.00000000000E+00  0.17763568394E-14  0.00000000000E+00  0.91188000000E+02  0.91188000000E+02 0.  0.
    9900012    2    3    3    0    0 -0.15015206874E+02  0.12405032383E+02  0.31248019832E+02  0.54367081905E+02  0.39999994819E+02 0.  0.
        -12    1    3    3    0    0  0.15015206874E+02 -0.12405032383E+02 -0.31248019832E+02  0.36820918095E+02  0.00000000000E+00 0.  1.
         11    1    4    4    0    0  0.55099130486E+00  0.15154836035E+01  0.18899699427E+02  0.18968366315E+02  0.51100000000E-03 0. -1.
        -11    1    4    4    0    0  0.48496395489E+01 -0.32816799855E+01  0.83929321412E+01  0.10233754808E+02  0.51100000000E-03 0.  1.
         12    1    4    4    0    0 -0.20415837728E+02  0.14171228765E+02  0.39553882642E+01  0.25164960782E+02  0.00000000000E+00 0. -1.
</event>
<event>
 8    1  0.3106980E-007  0.9118800E+02  0.7816164E-02  0.1184000E+00
        -11   -1    0    0    0    0  0.00000000000E+00  0.00000000000E+00  0.45593999997E+02  0.45594000000E+02  0.51100000000E-03 0. -1.
         11   -1    0    0    0    0 -0.00000000000E+00 -0.00000000000E+00 -0.45593999997E+02  0.45594000000E+02  0.51100000000E-03 0.  1.
         23    2    1    2    0    0  0.00000000000E+00  0.17763568394E-14  0.00000000000E+00  0.91188000000E+02  0.91188000000E+02 0.  0.
    9900012    2    3    3    0    0  0.13638994938E+02 -0.15859519925E+02 -0.30302367795E+02  0.54367081365E+02  0.39999993587E+02 0.  0.
         12    1    3    3    0    0 -0.13638994938E+02  0.15859519925E+02  0.30302367795E+02  0.36820918635E+02  0.00000000000E+00 0. -1.
         11    1    4    4    0    0  0.17937829217E+02 -0.83950199501E+01  0.16130581194E+01  0.19870682770E+02  0.51100000000E-03 0. -1.
        -11    1    4    4    0    0 -0.63243514215E+01 -0.73991698036E+01 -0.18268651741E+02  0.20699970324E+02  0.51100000000E-03 0.  1.
         12    1    4    4    0    0  0.20255171432E+01 -0.65330170827E-01 -0.13646774173E+02  0.13796428272E+02  0.00000000000E+00 0. -1.
</event>
<event>
 8    1  0.3106980E-007  0.9118800E+02  0.7816164E-02  0.1184000E+00
        -11   -1    0    0    0    0  0.00000000000E+00  0.00000000000E+00  0.45593999997E+02  0.45594000000E+02  0.51100000000E-03 0.  1.
         11   -1    0    0    0    0 -0.00000000000E+00 -0.00000000000E+00 -0.45593999997E+02  0.45594000000E+02  0.51100000000E-03 0. -1.
         23    2    1    2    0    0  0.17763568394E-14  0.00000000000E+00  0.00000000000E+00  0.91188000000E+02  0.91188000000E+02 0.  0.
    9900012    2    3    3    0    0  0.13102264380E+02 -0.38394596719E+01 -0.34195952554E+02  0.54367164138E+02  0.40000182285E+02 0.  0.
        -12    1    3    3    0    0 -0.13102264380E+02  0.38394596719E+01  0.34195952554E+02  0.36820835862E+02  0.00000000000E+00 0.  1.
         11    1    4    4    0    0  0.42296277546E+01  0.50825569994E+01  0.47534505523E+01  0.81435513757E+01  0.51100000000E-03 0. -1.
        -11    1    4    4    0    0  0.12533067360E+02 -0.27151121460E+01 -0.96444181414E+01  0.16045697646E+02  0.51100000000E-03 0.  1.
         12    1    4    4    0    0 -0.36604307340E+01 -0.62069045253E+01 -0.29304984965E+02  0.30177915116E+02  0.00000000000E+00 0. -1.
</event>
<event>
 8    1  0.3106980E-007  0.9118800E+02  0.7816164E-02  0.1184000E+00
        -11   -1    0    0    0    0  0.00000000000E+00  0.00000000000E+00  0.45593999997E+02  0.45594000000E+02  0.51100000000E-03 0.  1.
         11   -1    0    0    0    0 -0.00000000000E+00 -0.00000000000E+00 -0.45593999997E+02  0.45594000000E+02  0.51100000000E-03 0. -1.
         23    2    1    2    0    0  0.00000000000E+00  0.00000000000E+00  0.00000000000E+00  0.91188000000E+02  0.91188000000E+02 0.  0.
    9900012    2    3    3    0    0  0.98485891381E+01 -0.23959051398E+02  0.26167697518E+02  0.54367092280E+02  0.40000018471E+02 0.  0.
         12    1    3    3    0    0 -0.98485891381E+01  0.23959051398E+02 -0.26167697518E+02  0.36820907720E+02  0.00000000000E+00 0. -1.
         11    1    4    4    0    0 -0.78462669246E+01 -0.16734745978E+02  0.47611843887E+01  0.19086238620E+02  0.51100000000E-03 0. -1.
        -11    1    4    4    0    0  0.68109805900E+01 -0.13153153249E+02  0.73326778865E+01  0.16527645393E+02  0.51100000000E-03 0.  1.
        -12    1    4    4    0    0  0.10883875473E+02  0.59288478287E+01  0.14073835243E+02  0.18753208268E+02  0.00000000000E+00 0.  1.
</event>
<event>
 8    1  0.3106980E-007  0.9118800E+02  0.7816164E-02  0.1184000E+00
        -11   -1    0    0    0    0  0.00000000000E+00  0.00000000000E+00  0.45593999997E+02  0.45594000000E+02  0.51100000000E-03 0. -1.
         11   -1    0    0    0    0 -0.00000000000E+00 -0.00000000000E+00 -0.45593999997E+02  0.45594000000E+02  0.51100000000E-03 0.  1.
         23    2    1    2    0    0  0.44408920985E-15  0.00000000000E+00 -0.71054273576E-14  0.91188000000E+02  0.91188000000E+02 0.  0.
    9900012    2    3    3    0    0  0.21552445541E+01  0.90835645126E+01  0.35617746507E+02  0.54367080815E+02  0.39999992334E+02 0.  0.
        -12    1    3    3    0    0 -0.21552445541E+01 -0.90835645126E+01 -0.35617746507E+02  0.36820919185E+02  0.00000000000E+00 0.  1.
         11    1    4    4    0    0 -0.13359654434E+02  0.62420215020E+00  0.61127280986E+01  0.14704946106E+02  0.51100000000E-03 0. -1.
        -11    1    4    4    0    0  0.51455922102E+00 -0.43842691317E+01  0.13622876205E+02  0.14320242434E+02  0.51100000000E-03 0.  1.
         12    1    4    4    0    0  0.15000339767E+02  0.12843631494E+02  0.15882142204E+02  0.25341892275E+02  0.00000000000E+00 0. -1.
</event>
<event>
 8    1  0.3106980E-007  0.9118800E+02  0.7816164E-02  0.1184000E+00
        -11   -1    0    0    0    0  0.00000000000E+00  0.00000000000E+00  0.45593999997E+02  0.45594000000E+02  0.51100000000E-03 0. -1.
         11   -1    0    0    0    0 -0.00000000000E+00 -0.00000000000E+00 -0.45593999997E+02  0.45594000000E+02  0.51100000000E-03 0.  1.
         23    2    1    2    0    0  0.00000000000E+00 -0.17763568394E-14  0.00000000000E+00  0.91188000000E+02  0.91188000000E+02 0.  0.
    9900012    2    3    3    0    0  0.11496655530E+02 -0.13194678342E+02  0.32396303950E+02  0.54366903676E+02  0.39999588507E+02 0.  0.
        -12    1    3    3    0    0 -0.11496655530E+02  0.13194678342E+02 -0.32396303950E+02  0.36821096324E+02  0.00000000000E+00 0.  1.
         11    1    4    4    0    0 -0.13762989965E+01  0.26843651612E+01  0.11756933348E+02  0.12137771511E+02  0.51100000000E-03 0. -1.
        -11    1    4    4    0    0  0.16297238035E+01 -0.19509824490E+02  0.22975473454E+02  0.30185453981E+02  0.51100000000E-03 0.  1.
         12    1    4    4    0    0  0.11243230723E+02  0.36307809866E+01 -0.23361028523E+01  0.12043678184E+02  0.00000000000E+00 0. -1.
</event>
<event>
 8    1  0.3106980E-007  0.9118800E+02  0.7816164E-02  0.1184000E+00
        -11   -1    0    0    0    0  0.00000000000E+00  0.00000000000E+00  0.45593999997E+02  0.45594000000E+02  0.51100000000E-03 0.  1.
         11   -1    0    0    0    0 -0.00000000000E+00 -0.00000000000E+00 -0.45593999997E+02  0.45594000000E+02  0.51100000000E-03 0. -1.
         23    2    1    2    0    0  0.88817841970E-15  0.00000000000E+00  0.00000000000E+00  0.91188000000E+02  0.91188000000E+02 0.  0.
    9900012    2    3    3    0    0  0.62332781330E+01  0.13543478040E+02 -0.33667501159E+02  0.54367079480E+02  0.39999989290E+02 0.  0.
        -12    1    3    3    0    0 -0.62332781330E+01 -0.13543478040E+02  0.33667501159E+02  0.36820920520E+02  0.00000000000E+00 0.  1.
         11    1    4    4    0    0  0.14614846272E+02  0.19932371366E+02 -0.26266180560E+02  0.36066679932E+02  0.51100000000E-03 0. -1.
        -11    1    4    4    0    0 -0.53558635295E+01 -0.86355164852E+01 -0.95647419503E+01  0.13954988640E+02  0.51100000000E-03 0.  1.
         12    1    4    4    0    0 -0.30257046096E+01  0.22466231595E+01  0.21634213522E+01  0.43454109072E+01  0.00000000000E+00 0. -1.
</event>
<event>
 8    1  0.3106980E-007  0.9118800E+02  0.7816164E-02  0.1184000E+00
        -11   -1    0    0    0    0  0.00000000000E+00  0.00000000000E+00  0.45593999997E+02  0.45594000000E+02  0.51100000000E-03 0.  1.
         11   -1    0    0    0    0 -0.00000000000E+00 -0.00000000000E+00 -0.45593999997E+02  0.45594000000E+02  0.51100000000E-03 0. -1.
         23    2    1    2    0    0  0.00000000000E+00  0.17763568394E-14 -0.17763568394E-14  0.91188000000E+02  0.91188000000E+02 0.  0.
    9900012    2    3    3    0    0  0.33791920439E+02  0.50846405387E+01 -0.13712298545E+02  0.54367155526E+02  0.40000162653E+02 0.  0.
        -12    1    3    3    0    0 -0.33791920439E+02 -0.50846405387E+01  0.13712298545E+02  0.36820844474E+02  0.00000000000E+00 0.  1.
         11    1    4    4    0    0  0.79093572145E+01  0.11027542163E+02 -0.12677294173E+02  0.18570902119E+02  0.51100000000E-03 0. -1.
        -11    1    4    4    0    0 -0.18630944332E+01  0.54488034270E+01  0.36782783040E+00  0.57702579862E+01  0.51100000000E-03 0.  1.
        -12    1    4    4    0    0  0.27745657658E+02 -0.11391705051E+02 -0.14028322023E+01  0.30025995421E+02  0.00000000000E+00 0.  1.
</event>
<event>
 8    1  0.3106980E-007  0.9118800E+02  0.7816164E-02  0.1184000E+00
        -11   -1    0    0    0    0  0.00000000000E+00  0.00000000000E+00  0.45593999997E+02  0.45594000000E+02  0.51100000000E-03 0.  1.
         11   -1    0    0    0    0 -0.00000000000E+00 -0.00000000000E+00 -0.45593999997E+02  0.45594000000E+02  0.51100000000E-03 0. -1.
         23    2    1    2    0    0  0.00000000000E+00  0.00000000000E+00 -0.35527136788E-14  0.91188000000E+02  0.91188000000E+02 0.  0.
    9900012    2    3    3    0    0  0.32446762219E+02 -0.43997020825E+01  0.16841191595E+02  0.54367143258E+02  0.40000134684E+02 0.  0.
         12    1    3    3    0    0 -0.32446762219E+02  0.43997020825E+01 -0.16841191595E+02  0.36820856742E+02  0.00000000000E+00 0. -1.
         11    1    4    4    0    0  0.25821622421E+02 -0.39496703635E+01  0.25387196858E+02  0.36426169782E+02  0.51100000000E-03 0.  1.
        -11    1    4    4    0    0  0.61456521369E+00  0.12075248022E+01 -0.11115172509E+02  0.11197449116E+02  0.51100000000E-03 0. -1.
         12    1    4    4    0    0  0.60105745837E+01 -0.16575565211E+01  0.25691672460E+01  0.67435243593E+01  0.00000000000E+00 0. -1.
</event>
<event>
 8    1  0.3106980E-007  0.9118800E+02  0.7816164E-02  0.1184000E+00
        -11   -1    0    0    0    0  0.00000000000E+00  0.00000000000E+00  0.45593999997E+02  0.45594000000E+02  0.51100000000E-03 0. -1.
         11   -1    0    0    0    0 -0.00000000000E+00 -0.00000000000E+00 -0.45593999997E+02  0.45594000000E+02  0.51100000000E-03 0.  1.
         23    2    1    2    0    0  0.35527136788E-14  0.00000000000E+00  0.53290705182E-14  0.91188000000E+02  0.91188000000E+02 0.  0.
    9900012    2    3    3    0    0  0.28065566627E+02 -0.21355902487E+02 -0.10584478881E+02  0.54367057667E+02  0.39999939563E+02 0.  0.
        -12    1    3    3    0    0 -0.28065566627E+02  0.21355902487E+02  0.10584478881E+02  0.36820942333E+02  0.00000000000E+00 0.  1.
         11    1    4    4    0    0 -0.39541567886E+01 -0.52412938952E+01 -0.41798900326E+01  0.77831869148E+01  0.51100000000E-03 0. -1.
        -11    1    4    4    0    0  0.65880874372E+01 -0.67425752407E+01 -0.15374626948E+02  0.18034532736E+02  0.51100000000E-03 0.  1.
         12    1    4    4    0    0  0.25431635978E+02 -0.93720333510E+01  0.89700380990E+01  0.28549338016E+02  0.00000000000E+00 0. -1.
</event>
<event>
 8    1  0.3106980E-007  0.9118800E+02  0.7816164E-02  0.1184000E+00
        -11   -1    0    0    0    0  0.00000000000E+00  0.00000000000E+00  0.45593999997E+02  0.45594000000E+02  0.51100000000E-03 0.  1.
         11   -1    0    0    0    0 -0.00000000000E+00 -0.00000000000E+00 -0.45593999997E+02  0.45594000000E+02  0.51100000000E-03 0. -1.
         23    2    1    2    0    0 -0.88817841970E-15  0.00000000000E+00  0.00000000000E+00  0.91188000000E+02  0.91188000000E+02 0.  0.
    9900012    2    3    3    0    0 -0.57402729875E+01  0.20224493511E+02  0.30229134755E+02  0.54367062209E+02  0.39999949919E+02 0.  0.
         12    1    3    3    0    0  0.57402729875E+01 -0.20224493511E+02 -0.30229134755E+02  0.36820937791E+02  0.00000000000E+00 0. -1.
         11    1    4    4    0    0 -0.74259785211E+01 -0.94793539666E+01  0.72461030449E+01  0.14053800846E+02  0.51100000000E-03 0. -1.
        -11    1    4    4    0    0  0.48854150597E+01  0.16654316713E+02  0.53848220181E+01  0.18172227544E+02  0.51100000000E-03 0.  1.
         12    1    4    4    0    0 -0.31997095261E+01  0.13049530764E+02  0.17598209692E+02  0.22141033819E+02  0.00000000000E+00 0. -1.
</event>
<event>
 8    1  0.3106980E-007  0.9118800E+02  0.7816164E-02  0.1184000E+00
        -11   -1    0    0    0    0  0.00000000000E+00  0.00000000000E+00  0.45593999997E+02  0.45594000000E+02  0.51100000000E-03 0.  1.
         11   -1    0    0    0    0 -0.00000000000E+00 -0.00000000000E+00 -0.45593999997E+02  0.45594000000E+02  0.51100000000E-03 0. -1.
         23    2    1    2    0    0 -0.17763568394E-14  0.00000000000E+00  0.71054273576E-14  0.91188000000E+02  0.91188000000E+02 0.  0.
    9900012    2    3    3    0    0 -0.85406810624E+01  0.81412747041E+01  0.34879006085E+02  0.54367236125E+02  0.40000346393E+02 0.  0.
         12    1    3    3    0    0  0.85406810624E+01 -0.81412747041E+01 -0.34879006085E+02  0.36820763875E+02  0.00000000000E+00 0. -1.
         11    1    4    4    0    0  0.33858730928E+01  0.13394925729E+02  0.34848682264E+02  0.37487582313E+02  0.51100000000E-03 0.  1.
        -11    1    4    4    0    0 -0.13235284929E+02 -0.55281409349E+01  0.20173554839E+01  0.14484572232E+02  0.51100000000E-03 0. -1.
        -12    1    4    4    0    0  0.13087307736E+01  0.27448990986E+00 -0.19870316622E+01  0.23950815800E+01  0.00000000000E+00 0.  1.
</event>
<event>
 8    1  0.3106980E-007  0.9118800E+02  0.7816164E-02  0.1184000E+00
        -11   -1    0    0    0    0  0.00000000000E+00  0.00000000000E+00  0.45593999997E+02  0.45594000000E+02  0.51100000000E-03 0.  1.
         11   -1    0    0    0    0 -0.00000000000E+00 -0.00000000000E+00 -0.45593999997E+02  0.45594000000E+02  0.51100000000E-03 0. -1.
         23    2    1    2    0    0  0.00000000000E+00 -0.35527136788E-14 -0.44408920985E-15  0.91188000000E+02  0.91188000000E+02 0.  0.
    9900012    2    3    3    0    0 -0.23621679122E+02  0.28007835778E+02 -0.36549913969E+01  0.54367060962E+02  0.39999947076E+02 0.  0.
         12    1    3    3    0    0  0.23621679122E+02 -0.28007835778E+02  0.36549913969E+01  0.36820939038E+02  0.00000000000E+00 0. -1.
         11    1    4    4    0    0  0.20847253962E+00  0.13411567383E+02 -0.77856162145E+01  0.15509010947E+02  0.51100000000E-03 0. -1.
        -11    1    4    4    0    0 -0.21186582816E+02 -0.56713575725E+00  0.85350122441E+01  0.22848180861E+02  0.51100000000E-03 0.  1.
        -12    1    4    4    0    0 -0.26435688457E+01  0.15163404152E+02 -0.44043874265E+01  0.16009869154E+02  0.00000000000E+00 0.  1.
</event>
<event>
 8    1  0.3106980E-007  0.9118800E+02  0.7816164E-02  0.1184000E+00
        -11   -1    0    0    0    0  0.00000000000E+00  0.00000000000E+00  0.45593999997E+02  0.45594000000E+02  0.51100000000E-03 0. -1.
         11   -1    0    0    0    0 -0.00000000000E+00 -0.00000000000E+00 -0.45593999997E+02  0.45594000000E+02  0.51100000000E-03 0.  1.
         23    2    1    2    0    0  0.00000000000E+00  0.00000000000E+00  0.88817841970E-15  0.91188000000E+02  0.91188000000E+02 0.  0.
    9900012    2    3    3    0    0 -0.31677272703E+02  0.18281903600E+02 -0.42546514105E+01  0.54367086598E+02  0.40000005518E+02 0.  0.
         12    1    3    3    0    0  0.31677272703E+02 -0.18281903600E+02  0.42546514105E+01  0.36820913402E+02  0.00000000000E+00 0. -1.
         11    1    4    4    0    0 -0.90407447519E+01 -0.58045789891E+01  0.32838665905E+01  0.11234410663E+02  0.51100000000E-03 0. -1.
        -11    1    4    4    0    0  0.66786805952E+00  0.12950533978E+02 -0.11087654477E+02  0.17061607783E+02  0.51100000000E-03 0.  1.
         12    1    4    4    0    0 -0.23304396010E+02  0.11135948611E+02  0.35491364762E+01  0.26071068152E+02  0.00000000000E+00 0. -1.
</event>
<event>
 8    1  0.3106980E-007  0.9118800E+02  0.7816164E-02  0.1184000E+00
        -11   -1    0    0    0    0  0.00000000000E+00  0.00000000000E+00  0.45593999997E+02  0.45594000000E+02  0.51100000000E-03 0.  1.
         11   -1    0    0    0    0 -0.00000000000E+00 -0.00000000000E+00 -0.45593999997E+02  0.45594000000E+02  0.51100000000E-03 0. -1.
         23    2    1    2    0    0  0.88817841970E-15  0.00000000000E+00  0.00000000000E+00  0.91188000000E+02  0.91188000000E+02 0.  0.
    9900012    2    3    3    0    0 -0.79998951963E+01 -0.35645872940E+02 -0.46001842209E+01  0.54366969655E+02  0.39999738923E+02 0.  0.
        -12    1    3    3    0    0  0.79998951963E+01  0.35645872940E+02  0.46001842209E+01  0.36821030345E+02  0.00000000000E+00 0.  1.
         11    1    4    4    0    0 -0.24375105561E+01 -0.76853854563E+01  0.38951720935E+01  0.89542712278E+01  0.51100000000E-03 0. -1.
        -11    1    4    4    0    0  0.12692940480E+02 -0.41084861071E+01 -0.76192394739E+01  0.15363697685E+02  0.51100000000E-03 0.  1.
         12    1    4    4    0    0 -0.18255325121E+02 -0.23852001376E+02 -0.87611684052E+00  0.30049000743E+02  0.00000000000E+00 0. -1.
</event>
<event>
 8    1  0.3106980E-007  0.9118800E+02  0.7816164E-02  0.1184000E+00
        -11   -1    0    0    0    0  0.00000000000E+00  0.00000000000E+00  0.45593999997E+02  0.45594000000E+02  0.51100000000E-03 0. -1.
         11   -1    0    0    0    0 -0.00000000000E+00 -0.00000000000E+00 -0.45593999997E+02  0.45594000000E+02  0.51100000000E-03 0.  1.
         23    2    1    2    0    0  0.00000000000E+00 -0.35527136788E-14 -0.17763568394E-14  0.91188000000E+02  0.91188000000E+02 0.  0.
    9900012    2    3    3    0    0  0.28654453436E+02  0.16851121576E+02  0.15834850260E+02  0.54367075476E+02  0.39999980162E+02 0.  0.
        -12    1    3    3    0    0 -0.28654453436E+02 -0.16851121576E+02 -0.15834850260E+02  0.36820924524E+02  0.00000000000E+00 0.  1.
         11    1    4    4    0    0 -0.22393126358E+01  0.67636479673E+01 -0.10013575939E+02  0.12289554844E+02  0.51100000000E-03 0.  1.
        -11    1    4    4    0    0  0.27264011402E+02  0.67289767504E+01  0.23429298916E+02  0.36572359697E+02  0.51100000000E-03 0. -1.
        -12    1    4    4    0    0  0.36297546700E+01  0.33584968580E+01  0.24191272833E+01  0.55051609352E+01  0.00000000000E+00 0.  1.
</event>
<event>
 8    1  0.3106980E-007  0.9118800E+02  0.7816164E-02  0.1184000E+00
        -11   -1    0    0    0    0  0.00000000000E+00  0.00000000000E+00  0.45593999997E+02  0.45594000000E+02  0.51100000000E-03 0. -1.
         11   -1    0    0    0    0 -0.00000000000E+00 -0.00000000000E+00 -0.45593999997E+02  0.45594000000E+02  0.51100000000E-03 0.  1.
         23    2    1    2    0    0  0.00000000000E+00  0.00000000000E+00  0.00000000000E+00  0.91188000000E+02  0.91188000000E+02 0.  0.
    9900012    2    3    3    0    0 -0.26879325331E+02 -0.16676045040E+02  0.18846586329E+02  0.54367049107E+02  0.39999920049E+02 0.  0.
        -12    1    3    3    0    0  0.26879325331E+02  0.16676045040E+02 -0.18846586329E+02  0.36820950893E+02  0.00000000000E+00 0.  1.
         11    1    4    4    0    0  0.15686405370E+01  0.35694149394E+01  0.13393437203E+02  0.13949391260E+02  0.51100000000E-03 0. -1.
        -11    1    4    4    0    0 -0.29897078905E+00 -0.81513653406E+01 -0.29086645028E+01  0.86599347515E+01  0.51100000000E-03 0.  1.
        -12    1    4    4    0    0 -0.28148995079E+02 -0.12094094639E+02  0.83618136285E+01  0.31757723096E+02  0.00000000000E+00 0.  1.
</event>
<event>
 8    1  0.3106980E-007  0.9118800E+02  0.7816164E-02  0.1184000E+00
        -11   -1    0    0    0    0  0.00000000000E+00  0.00000000000E+00  0.45593999997E+02  0.45594000000E+02  0.51100000000E-03 0. -1.
         11   -1    0    0    0    0 -0.00000000000E+00 -0.00000000000E+00 -0.45593999997E+02  0.45594000000E+02  0.51100000000E-03 0.  1.
         23    2    1    2    0    0  0.00000000000E+00  0.35527136788E-14 -0.17763568394E-14  0.91188000000E+02  0.91188000000E+02 0.  0.
    9900012    2    3    3    0    0  0.16202216721E+02  0.30761889749E+02 -0.12123297814E+02  0.54367081523E+02  0.39999993948E+02 0.  0.
        -12    1    3    3    0    0 -0.16202216721E+02 -0.30761889749E+02  0.12123297814E+02  0.36820918477E+02  0.00000000000E+00 0.  1.
         11    1    4    4    0    0 -0.18704609130E+01  0.20421236889E+02  0.31954465590E+01  0.20754190398E+02  0.51100000000E-03 0. -1.
        -11    1    4    4    0    0 -0.13213238843E+01  0.90598595163E+01 -0.97931818993E+01  0.13406467217E+02  0.51100000000E-03 0.  1.
         12    1    4    4    0    0  0.19394001519E+02  0.12807933434E+01 -0.55255624742E+01  0.20206423908E+02  0.00000000000E+00 0. -1.
</event>
<event>
 8    1  0.3106980E-007  0.9118800E+02  0.7816164E-02  0.1184000E+00
        -11   -1    0    0    0    0  0.00000000000E+00  0.00000000000E+00  0.45593999997E+02  0.45594000000E+02  0.51100000000E-03 0. -1.
         11   -1    0    0    0    0 -0.00000000000E+00 -0.00000000000E+00 -0.45593999997E+02  0.45594000000E+02  0.51100000000E-03 0.  1.
         23    2    1    2    0    0  0.00000000000E+00  0.00000000000E+00  0.71054273576E-14  0.91188000000E+02  0.91188000000E+02 0.  0.
    9900012    2    3    3    0    0 -0.52693716600E+01 -0.75300290608E+01  0.35655496650E+02  0.54367054103E+02  0.39999931439E+02 0.  0.
        -12    1    3    3    0    0  0.52693716600E+01  0.75300290608E+01 -0.35655496650E+02  0.36820945897E+02  0.00000000000E+00 0.  1.
         11    1    4    4    0    0 -0.36131498368E+01  0.73335860110E+01 -0.18658161259E+01  0.83855593493E+01  0.51100000000E-03 0. -1.
        -11    1    4    4    0    0  0.48749454384E+01 -0.18224440271E+02  0.23339807726E+02  0.30010697112E+02  0.51100000000E-03 0.  1.
        -12    1    4    4    0    0 -0.65311672615E+01  0.33608251994E+01  0.14181505050E+02  0.15970797642E+02  0.00000000000E+00 0.  1.
</event>
<event>
 8    1  0.3106980E-007  0.9118800E+02  0.7816164E-02  0.1184000E+00
        -11   -1    0    0    0    0  0.00000000000E+00  0.00000000000E+00  0.45593999997E+02  0.45594000000E+02  0.51100000000E-03 0. -1.
         11   -1    0    0    0    0 -0.00000000000E+00 -0.00000000000E+00 -0.45593999997E+02  0.45594000000E+02  0.51100000000E-03 0.  1.
         23    2    1    2    0    0 -0.71054273576E-14  0.00000000000E+00  0.17763568394E-14  0.91188000000E+02  0.91188000000E+02 0.  0.
    9900012    2    3    3    0    0 -0.35065347685E+02 -0.55095884511E+01 -0.97901048538E+01  0.54367077602E+02  0.39999985010E+02 0.  0.
         12    1    3    3    0    0  0.35065347685E+02  0.55095884511E+01  0.97901048538E+01  0.36820922398E+02  0.00000000000E+00 0. -1.
         11    1    4    4    0    0 -0.94600454911E+01 -0.62323978896E+01 -0.80089249334E+00  0.11356789740E+02  0.51100000000E-03 0. -1.
        -11    1    4    4    0    0 -0.11147144843E+02  0.11615048489E+01 -0.21265612887E+02  0.24038182614E+02  0.51100000000E-03 0.  1.
         12    1    4    4    0    0 -0.14458157351E+02 -0.43869541038E+00  0.12276400527E+02  0.18972105248E+02  0.00000000000E+00 0. -1.
</event>
<event>
 8    1  0.3106980E-007  0.9118800E+02  0.7816164E-02  0.1184000E+00
        -11   -1    0    0    0    0  0.00000000000E+00  0.00000000000E+00  0.45593999997E+02  0.45594000000E+02  0.51100000000E-03 0.  1.
         11   -1    0    0    0    0 -0.00000000000E+00 -0.00000000000E+00 -0.45593999997E+02  0.45594000000E+02  0.51100000000E-03 0. -1.
         23    2    1    2    0    0  0.17763568394E-14  0.35527136788E-14  0.35527136788E-14  0.91188000000E+02  0.91188000000E+02 0.  0.
    9900012    2    3    3    0    0 -0.55460238669E+01 -0.17975410681E+02 -0.31652915254E+02  0.54367070979E+02  0.39999969910E+02 0.  0.
        -12    1    3    3    0    0  0.55460238669E+01  0.17975410681E+02  0.31652915254E+02  0.36820929021E+02  0.00000000000E+00 0.  1.
         11    1    4    4    0    0  0.96300941160E+01 -0.60159460211E+01  0.52645722577E+01  0.12515831596E+02  0.51100000000E-03 0.  1.
        -11    1    4    4    0    0 -0.80804660526E+01 -0.70128043419E+01 -0.16357884259E+02  0.19546194874E+02  0.51100000000E-03 0. -1.
        -12    1    4    4    0    0 -0.70956519303E+01 -0.49466603182E+01 -0.20559603253E+02  0.22305044509E+02  0.00000000000E+00 0.  1.
</event>
<event>
 8    1  0.3106980E-007  0.9118800E+02  0.7816164E-02  0.1184000E+00
        -11   -1    0    0    0    0  0.00000000000E+00  0.00000000000E+00  0.45593999997E+02  0.45594000000E+02  0.51100000000E-03 0.  1.
         11   -1    0    0    0    0 -0.00000000000E+00 -0.00000000000E+00 -0.45593999997E+02  0.45594000000E+02  0.51100000000E-03 0. -1.
         23    2    1    2    0    0 -0.17763568394E-14 -0.26645352591E-14  0.00000000000E+00  0.91188000000E+02  0.91188000000E+02 0.  0.
    9900012    2    3    3    0    0  0.12394296738E+02  0.74948194462E+01  0.33852444454E+02  0.54367096892E+02  0.40000028986E+02 0.  0.
         12    1    3    3    0    0 -0.12394296738E+02 -0.74948194462E+01 -0.33852444454E+02  0.36820903108E+02  0.00000000000E+00 0. -1.
         11    1    4    4    0    0  0.59669542939E+01  0.73485060221E+01  0.48472360554E+01  0.10634885140E+02  0.51100000000E-03 0. -1.
        -11    1    4    4    0    0  0.17241705133E+02  0.69757838594E+01  0.23064646584E+02  0.29629645267E+02  0.51100000000E-03 0.  1.
        -12    1    4    4    0    0 -0.10814362689E+02 -0.68294704353E+01  0.59405618139E+01  0.14102566485E+02  0.00000000000E+00 0.  1.
</event>
<event>
 8    1  0.3106980E-007  0.9118800E+02  0.7816164E-02  0.1184000E+00
        -11   -1    0    0    0    0  0.00000000000E+00  0.00000000000E+00  0.45593999997E+02  0.45594000000E+02  0.51100000000E-03 0.  1.
         11   -1    0    0    0    0 -0.00000000000E+00 -0.00000000000E+00 -0.45593999997E+02  0.45594000000E+02  0.51100000000E-03 0. -1.
         23    2    1    2    0    0 -0.35527136788E-14  0.17763568394E-14  0.00000000000E+00  0.91188000000E+02  0.91188000000E+02 0.  0.
    9900012    2    3    3    0    0  0.13598455575E+02  0.11116890920E+02 -0.32361647389E+02  0.54367089100E+02  0.40000011222E+02 0.  0.
        -12    1    3    3    0    0 -0.13598455575E+02 -0.11116890920E+02  0.32361647389E+02  0.36820910900E+02  0.00000000000E+00 0.  1.
         11    1    4    4    0    0  0.19298048790E+02 -0.65085485100E+01 -0.23869343934E+02  0.31377085124E+02  0.51100000000E-03 0. -1.
        -11    1    4    4    0    0 -0.57733269479E+01  0.18460700276E+02 -0.96056385278E+01  0.21596227692E+02  0.51100000000E-03 0.  1.
        -12    1    4    4    0    0  0.73733733256E-01 -0.83526084577E+00  0.11133350732E+01  0.13937762837E+01  0.00000000000E+00 0.  1.
</event>
<event>
 8    1  0.3106980E-007  0.9118800E+02  0.7816164E-02  0.1184000E+00
        -11   -1    0    0    0    0  0.00000000000E+00  0.00000000000E+00  0.45593999997E+02  0.45594000000E+02  0.51100000000E-03 0.  1.
         11   -1    0    0    0    0 -0.00000000000E+00 -0.00000000000E+00 -0.45593999997E+02  0.45594000000E+02  0.51100000000E-03 0. -1.
         23    2    1    2    0    0  0.00000000000E+00  0.00000000000E+00  0.00000000000E+00  0.91188000000E+02  0.91188000000E+02 0.  0.
    9900012    2    3    3    0    0  0.10581558717E+02 -0.17908490638E+02 -0.30382500996E+02  0.54367084903E+02  0.40000001653E+02 0.  0.
        -12    1    3    3    0    0 -0.10581558717E+02  0.17908490638E+02  0.30382500996E+02  0.36820915097E+02  0.00000000000E+00 0.  1.
         11    1    4    4    0    0  0.71167463781E+01 -0.41333220227E+00 -0.19374769593E+02  0.20644626893E+02  0.51100000000E-03 0.  1.
        -11    1    4    4    0    0 -0.10774794723E+02 -0.39629274861E+01 -0.76441801188E+01  0.13792551814E+02  0.51100000000E-03 0. -1.
        -12    1    4    4    0    0  0.14239607062E+02 -0.13532230949E+02 -0.33635512843E+01  0.19929906196E+02  0.00000000000E+00 0.  1.
</event>
<event>
 8    1  0.3106980E-007  0.9118800E+02  0.7816164E-02  0.1184000E+00
        -11   -1    0    0    0    0  0.00000000000E+00  0.00000000000E+00  0.45593999997E+02  0.45594000000E+02  0.51100000000E-03 0. -1.
         11   -1    0    0    0    0 -0.00000000000E+00 -0.00000000000E+00 -0.45593999997E+02  0.45594000000E+02  0.51100000000E-03 0.  1.
         23    2    1    2    0    0  0.00000000000E+00  0.00000000000E+00  0.00000000000E+00  0.91188000000E+02  0.91188000000E+02 0.  0.
    9900012    2    3    3    0    0 -0.10675213181E+02  0.31298623304E+02  0.16192932845E+02  0.54367148960E+02  0.40000147685E+02 0.  0.
        -12    1    3    3    0    0  0.10675213181E+02 -0.31298623304E+02 -0.16192932845E+02  0.36820851040E+02  0.00000000000E+00 0.  1.
         11    1    4    4    0    0  0.94406356040E+01  0.17032243646E+02  0.14715428151E+02  0.24408333621E+02  0.51100000000E-03 0. -1.
        -11    1    4    4    0    0 -0.17518422013E+02  0.27850088171E+01  0.33127430658E+01  0.18045100465E+02  0.51100000000E-03 0.  1.
         12    1    4    4    0    0 -0.25974267726E+01  0.11481370841E+02 -0.18352383721E+01  0.11913714874E+02  0.00000000000E+00 0. -1.
</event>
<event>
 8    1  0.3106980E-007  0.9118800E+02  0.7816164E-02  0.1184000E+00
        -11   -1    0    0    0    0  0.00000000000E+00  0.00000000000E+00  0.45593999997E+02  0.45594000000E+02  0.51100000000E-03 0.  1.
         11   -1    0    0    0    0 -0.00000000000E+00 -0.00000000000E+00 -0.45593999997E+02  0.45594000000E+02  0.51100000000E-03 0. -1.
         23    2    1    2    0    0  0.88817841970E-15  0.00000000000E+00  0.35527136788E-14  0.91188000000E+02  0.91188000000E+02 0.  0.
    9900012    2    3    3    0    0  0.72999039228E+01 -0.27351206315E+02  0.23545746087E+02  0.54367092312E+02  0.40000018545E+02 0.  0.
         12    1    3    3    0    0 -0.72999039228E+01  0.27351206315E+02 -0.23545746087E+02  0.36820907688E+02  0.00000000000E+00 0. -1.
         11    1    4    4    0    0  0.16907534022E+02 -0.15760225490E+02  0.67412312816E-01  0.23113934301E+02  0.51100000000E-03 0. -1.
        -11    1    4    4    0    0 -0.12658565488E+02 -0.96309266950E+01  0.14317034165E+02  0.21400268614E+02  0.51100000000E-03 0.  1.
        -12    1    4    4    0    0  0.30509353889E+01 -0.19600541299E+01  0.91612996093E+01  0.98528893971E+01  0.00000000000E+00 0.  1.
</event>
<event>
 8    1  0.3106980E-007  0.9118800E+02  0.7816164E-02  0.1184000E+00
        -11   -1    0    0    0    0  0.00000000000E+00  0.00000000000E+00  0.45593999997E+02  0.45594000000E+02  0.51100000000E-03 0. -1.
         11   -1    0    0    0    0 -0.00000000000E+00 -0.00000000000E+00 -0.45593999997E+02  0.45594000000E+02  0.51100000000E-03 0.  1.
         23    2    1    2    0    0  0.35527136788E-14 -0.88817841970E-15  0.35527136788E-14  0.91188000000E+02  0.91188000000E+02 0.  0.
    9900012    2    3    3    0    0 -0.23130655641E+02  0.37947362829E+01 -0.28396324999E+02  0.54367102030E+02  0.40000040698E+02 0.  0.
         12    1    3    3    0    0  0.23130655641E+02 -0.37947362829E+01  0.28396324999E+02  0.36820897970E+02  0.00000000000E+00 0. -1.
         11    1    4    4    0    0 -0.10415803309E+02  0.13253790129E+02  0.17444081775E+01  0.16946824821E+02  0.51100000000E-03 0. -1.
        -11    1    4    4    0    0 -0.10732124960E+02 -0.14373227879E+01 -0.71140204139E+01  0.12955836123E+02  0.51100000000E-03 0.  1.
        -12    1    4    4    0    0 -0.19827273726E+01 -0.80217310581E+01 -0.23026712763E+02  0.24464441086E+02  0.00000000000E+00 0.  1.
</event>
<event>
 8    1  0.3106980E-007  0.9118800E+02  0.7816164E-02  0.1184000E+00
        -11   -1    0    0    0    0  0.00000000000E+00  0.00000000000E+00  0.45593999997E+02  0.45594000000E+02  0.51100000000E-03 0.  1.
         11   -1    0    0    0    0 -0.00000000000E+00 -0.00000000000E+00 -0.45593999997E+02  0.45594000000E+02  0.51100000000E-03 0. -1.
         23    2    1    2    0    0  0.00000000000E+00  0.00000000000E+00  0.00000000000E+00  0.91188000000E+02  0.91188000000E+02 0.  0.
    9900012    2    3    3    0    0 -0.26573735962E+02 -0.20312061859E+02  0.15396090307E+02  0.54367042698E+02  0.39999905438E+02 0.  0.
         12    1    3    3    0    0  0.26573735962E+02  0.20312061859E+02 -0.15396090307E+02  0.36820957302E+02  0.00000000000E+00 0. -1.
         11    1    4    4    0    0 -0.64119377994E+01  0.61660577327E+01  0.71201509416E+01  0.11394286463E+02  0.51100000000E-03 0. -1.
        -11    1    4    4    0    0 -0.64881147275E+01  0.45370132384E+01 -0.58340278954E+00  0.79385440049E+01  0.51100000000E-03 0.  1.
        -12    1    4    4    0    0 -0.13673683435E+02 -0.31015132830E+02  0.88593421551E+01  0.35034212230E+02  0.00000000000E+00 0.  1.
</event>
<event>
 8    1  0.3106980E-007  0.9118800E+02  0.7816164E-02  0.1184000E+00
        -11   -1    0    0    0    0  0.00000000000E+00  0.00000000000E+00  0.45593999997E+02  0.45594000000E+02  0.51100000000E-03 0.  1.
         11   -1    0    0    0    0 -0.00000000000E+00 -0.00000000000E+00 -0.45593999997E+02  0.45594000000E+02  0.51100000000E-03 0. -1.
         23    2    1    2    0    0  0.88817841970E-15  0.00000000000E+00  0.00000000000E+00  0.91188000000E+02  0.91188000000E+02 0.  0.
    9900012    2    3    3    0    0  0.46143239091E+01 -0.36201546614E+02 -0.48923691785E+01  0.54367092372E+02  0.40000018679E+02 0.  0.
         12    1    3    3    0    0 -0.46143239091E+01  0.36201546614E+02  0.48923691785E+01  0.36820907628E+02  0.00000000000E+00 0. -1.
         11    1    4    4    0    0 -0.80805619723E+01 -0.35435979165E+01 -0.11350995444E+02  0.14376983891E+02  0.51100000000E-03 0. -1.
        -11    1    4    4    0    0  0.80445014083E+01 -0.20184444247E+02  0.12828042185E+02  0.25232607059E+02  0.51100000000E-03 0.  1.
         12    1    4    4    0    0  0.46503844730E+01 -0.12473504451E+02 -0.63694159188E+01  0.14757501421E+02  0.00000000000E+00 0. -1.
</event>
<event>
 8    1  0.3106980E-007  0.9118800E+02  0.7816164E-02  0.1184000E+00
        -11   -1    0    0    0    0  0.00000000000E+00  0.00000000000E+00  0.45593999997E+02  0.45594000000E+02  0.51100000000E-03 0.  1.
         11   -1    0    0    0    0 -0.00000000000E+00 -0.00000000000E+00 -0.45593999997E+02  0.45594000000E+02  0.51100000000E-03 0. -1.
         23    2    1    2    0    0  0.35527136788E-14 -0.35527136788E-14  0.17763568394E-14  0.91188000000E+02  0.91188000000E+02 0.  0.
    9900012    2    3    3    0    0  0.19704865807E+02  0.30668195718E+02 -0.51922773235E+01  0.54367085985E+02  0.40000004121E+02 0.  0.
        -12    1    3    3    0    0 -0.19704865807E+02 -0.30668195718E+02  0.51922773235E+01  0.36820914015E+02  0.00000000000E+00 0.  1.
         11    1    4    4    0    0 -0.14376928735E+01  0.19249411521E+02 -0.63609627704E+01  0.20324090443E+02  0.51100000000E-03 0. -1.
        -11    1    4    4    0    0 -0.29109060243E+01  0.91632339335E+01 -0.15236106448E+01  0.97344552832E+01  0.51100000000E-03 0.  1.
         12    1    4    4    0    0  0.24053464705E+02  0.22555502637E+01  0.26922960918E+01  0.24308540260E+02  0.00000000000E+00 0. -1.
</event>
<event>
 8    1  0.3106980E-007  0.9118800E+02  0.7816164E-02  0.1184000E+00
        -11   -1    0    0    0    0  0.00000000000E+00  0.00000000000E+00  0.45593999997E+02  0.45594000000E+02  0.51100000000E-03 0. -1.
         11   -1    0    0    0    0 -0.00000000000E+00 -0.00000000000E+00 -0.45593999997E+02  0.45594000000E+02  0.51100000000E-03 0.  1.
         23    2    1    2    0    0  0.00000000000E+00  0.00000000000E+00 -0.35527136788E-14  0.91188000000E+02  0.91188000000E+02 0.  0.
    9900012    2    3    3    0    0  0.31755593518E+02 -0.14745693182E+02  0.11398491367E+02  0.54367098428E+02  0.40000032486E+02 0.  0.
         12    1    3    3    0    0 -0.31755593518E+02  0.14745693182E+02 -0.11398491367E+02  0.36820901572E+02  0.00000000000E+00 0. -1.
         11    1    4    4    0    0 -0.22086033498E+01 -0.73352459356E+01  0.38974240672E+01  0.85949797157E+01  0.51100000000E-03 0. -1.
        -11    1    4    4    0    0  0.25764256814E+02 -0.33741392120E+01 -0.85047758768E+01  0.27340683195E+02  0.51100000000E-03 0.  1.
        -12    1    4    4    0    0  0.81999400543E+01 -0.40363080347E+01  0.16005843176E+02  0.18431435517E+02  0.00000000000E+00 0.  1.
</event>
<event>
 8    1  0.3106980E-007  0.9118800E+02  0.7816164E-02  0.1184000E+00
        -11   -1    0    0    0    0  0.00000000000E+00  0.00000000000E+00  0.45593999997E+02  0.45594000000E+02  0.51100000000E-03 0. -1.
         11   -1    0    0    0    0 -0.00000000000E+00 -0.00000000000E+00 -0.45593999997E+02  0.45594000000E+02  0.51100000000E-03 0.  1.
         23    2    1    2    0    0  0.35527136788E-14  0.00000000000E+00  0.00000000000E+00  0.91188000000E+02  0.91188000000E+02 0.  0.
    9900012    2    3    3    0    0 -0.16452477778E+02  0.21617253481E+02  0.24855387358E+02  0.54367082659E+02  0.39999996537E+02 0.  0.
        -12    1    3    3    0    0  0.16452477778E+02 -0.21617253481E+02 -0.24855387358E+02  0.36820917341E+02  0.00000000000E+00 0.  1.
         11    1    4    4    0    0 -0.20670662838E+02  0.74910320241E+01  0.10188785955E+02  0.24232276460E+02  0.51100000000E-03 0. -1.
        -11    1    4    4    0    0 -0.76273604099E+00 -0.32263559502E+01  0.11292258432E+02  0.11768867394E+02  0.51100000000E-03 0.  1.
         12    1    4    4    0    0  0.49809211007E+01  0.17352577407E+02  0.33743429713E+01  0.18365938805E+02  0.00000000000E+00 0. -1.
</event>
<event>
 8    1  0.3106980E-007  0.9118800E+02  0.7816164E-02  0.1184000E+00
        -11   -1    0    0    0    0  0.00000000000E+00  0.00000000000E+00  0.45593999997E+02  0.45594000000E+02  0.51100000000E-03 0.  1.
         11   -1    0    0    0    0 -0.00000000000E+00 -0.00000000000E+00 -0.45593999997E+02  0.45594000000E+02  0.51100000000E-03 0. -1.
         23    2    1    2    0    0  0.00000000000E+00  0.00000000000E+00  0.00000000000E+00  0.91188000000E+02  0.91188000000E+02 0.  0.
    9900012    2    3    3    0    0  0.15939034435E+02 -0.13155614309E+02 -0.30473883639E+02  0.54367074012E+02  0.39999976826E+02 0.  0.
        -12    1    3    3    0    0 -0.15939034435E+02  0.13155614309E+02  0.30473883639E+02  0.36820925988E+02  0.00000000000E+00 0.  1.
         11    1    4    4    0    0  0.34812789684E+01 -0.13223693635E+02 -0.63018241590E+01  0.15056505724E+02  0.51100000000E-03 0. -1.
        -11    1    4    4    0    0  0.77383055705E+01  0.14098562498E+02 -0.10893562227E+02  0.19424740303E+02  0.51100000000E-03 0.  1.
         12    1    4    4    0    0  0.47194498958E+01 -0.14030483172E+02 -0.13278497253E+02  0.19885827985E+02  0.00000000000E+00 0. -1.
</event>
<event>
 8    1  0.3106980E-007  0.9118800E+02  0.7816164E-02  0.1184000E+00
        -11   -1    0    0    0    0  0.00000000000E+00  0.00000000000E+00  0.45593999997E+02  0.45594000000E+02  0.51100000000E-03 0. -1.
         11   -1    0    0    0    0 -0.00000000000E+00 -0.00000000000E+00 -0.45593999997E+02  0.45594000000E+02  0.51100000000E-03 0.  1.
         23    2    1    2    0    0  0.35527136788E-14  0.00000000000E+00  0.00000000000E+00  0.91188000000E+02  0.91188000000E+02 0.  0.
    9900012    2    3    3    0    0  0.27449993572E+02  0.18489943772E+02  0.16136861434E+02  0.54367102879E+02  0.40000042633E+02 0.  0.
        -12    1    3    3    0    0 -0.27449993572E+02 -0.18489943772E+02 -0.16136861434E+02  0.36820897121E+02  0.00000000000E+00 0.  1.
         11    1    4    4    0    0  0.80555981085E+01  0.45260523264E+01  0.27488947247E+01  0.96402402986E+01  0.51100000000E-03 0. -1.
        -11    1    4    4    0    0  0.21516039115E+02 -0.61661356974E+01  0.81365847051E+01  0.23815229992E+02  0.51100000000E-03 0.  1.
        -12    1    4    4    0    0 -0.21216436507E+01  0.20130027144E+02  0.52513820044E+01  0.20911632589E+02  0.00000000000E+00 0.  1.
</event>
<event>
 8    1  0.3106980E-007  0.9118800E+02  0.7816164E-02  0.1184000E+00
        -11   -1    0    0    0    0  0.00000000000E+00  0.00000000000E+00  0.45593999997E+02  0.45594000000E+02  0.51100000000E-03 0.  1.
         11   -1    0    0    0    0 -0.00000000000E+00 -0.00000000000E+00 -0.45593999997E+02  0.45594000000E+02  0.51100000000E-03 0. -1.
         23    2    1    2    0    0 -0.71054273576E-14  0.26645352591E-14 -0.44408920985E-15  0.91188000000E+02  0.91188000000E+02 0.  0.
    9900012    2    3    3    0    0  0.36569892936E+02  0.23052756085E+01  0.36207353242E+01  0.54367067241E+02  0.39999961388E+02 0.  0.
         12    1    3    3    0    0 -0.36569892936E+02 -0.23052756085E+01 -0.36207353242E+01  0.36820932759E+02  0.00000000000E+00 0. -1.
         11    1    4    4    0    0  0.10032029298E+02  0.68650041758E+01  0.10770801559E+02  0.16241307234E+02  0.51100000000E-03 0. -1.
        -11    1    4    4    0    0  0.23061401795E+02  0.79466253916E+01 -0.35015279377E+01  0.24642195642E+02  0.51100000000E-03 0.  1.
         12    1    4    4    0    0  0.34764618429E+01 -0.12506353959E+02 -0.36485382971E+01  0.13483564365E+02  0.00000000000E+00 0. -1.
</event>
<event>
 8    1  0.3106980E-007  0.9118800E+02  0.7816164E-02  0.1184000E+00
        -11   -1    0    0    0    0  0.00000000000E+00  0.00000000000E+00  0.45593999997E+02  0.45594000000E+02  0.51100000000E-03 0.  1.
         11   -1    0    0    0    0 -0.00000000000E+00 -0.00000000000E+00 -0.45593999997E+02  0.45594000000E+02  0.51100000000E-03 0. -1.
         23    2    1    2    0    0  0.00000000000E+00 -0.35527136788E-14  0.00000000000E+00  0.91188000000E+02  0.91188000000E+02 0.  0.
    9900012    2    3    3    0    0 -0.17134023240E+02 -0.24754223745E+02 -0.21199851500E+02  0.54367081364E+02  0.39999993585E+02 0.  0.
        -12    1    3    3    0    0  0.17134023240E+02  0.24754223745E+02  0.21199851500E+02  0.36820918636E+02  0.00000000000E+00 0.  1.
         11    1    4    4    0    0  0.25025272444E+01 -0.13154958084E+02 -0.12658146087E+02  0.18426725901E+02  0.51100000000E-03 0. -1.
        -11    1    4    4    0    0 -0.16223468139E+02 -0.14442245482E+02  0.44836249777E+01  0.22178418930E+02  0.51100000000E-03 0.  1.
        -12    1    4    4    0    0 -0.34130823458E+01  0.28429798214E+01 -0.13025330391E+02  0.13761936533E+02  0.00000000000E+00 0.  1.
</event>
<event>
 8    1  0.3106980E-007  0.9118800E+02  0.7816164E-02  0.1184000E+00
        -11   -1    0    0    0    0  0.00000000000E+00  0.00000000000E+00  0.45593999997E+02  0.45594000000E+02  0.51100000000E-03 0.  1.
         11   -1    0    0    0    0 -0.00000000000E+00 -0.00000000000E+00 -0.45593999997E+02  0.45594000000E+02  0.51100000000E-03 0. -1.
         23    2    1    2    0    0  0.35527136788E-14  0.35527136788E-14  0.00000000000E+00  0.91188000000E+02  0.91188000000E+02 0.  0.
    9900012    2    3    3    0    0  0.12690967310E+02  0.28304600307E+02  0.19838592484E+02  0.54367071148E+02  0.39999970296E+02 0.  0.
         12    1    3    3    0    0 -0.12690967310E+02 -0.28304600307E+02 -0.19838592484E+02  0.36820928852E+02  0.00000000000E+00 0. -1.
         11    1    4    4    0    0  0.12251620301E+02  0.12073248386E+02 -0.35969818442E+01  0.17572814380E+02  0.51100000000E-03 0. -1.
        -11    1    4    4    0    0  0.96376075979E+01  0.16558173258E+02  0.16059840329E+02  0.24999501065E+02  0.51100000000E-03 0.  1.
         12    1    4    4    0    0 -0.91982605895E+01 -0.32682133714E+00  0.73757339992E+01  0.11794755703E+02  0.00000000000E+00 0. -1.
</event>
<event>
 8    1  0.3106980E-007  0.9118800E+02  0.7816164E-02  0.1184000E+00
        -11   -1    0    0    0    0  0.00000000000E+00  0.00000000000E+00  0.45593999997E+02  0.45594000000E+02  0.51100000000E-03 0.  1.
         11   -1    0    0    0    0 -0.00000000000E+00 -0.00000000000E+00 -0.45593999997E+02  0.45594000000E+02  0.51100000000E-03 0. -1.
         23    2    1    2    0    0  0.17763568394E-14 -0.17763568394E-14  0.00000000000E+00  0.91188000000E+02  0.91188000000E+02 0.  0.
    9900012    2    3    3    0    0 -0.12997914480E+02  0.10932233735E+02  0.32669856121E+02  0.54367095418E+02  0.40000025625E+02 0.  0.
         12    1    3    3    0    0  0.12997914480E+02 -0.10932233735E+02 -0.32669856121E+02  0.36820904582E+02  0.00000000000E+00 0. -1.
         11    1    4    4    0    0  0.66947130178E+00  0.10015827468E+02  0.52270127816E+01  0.11317537478E+02  0.51100000000E-03 0. -1.
        -11    1    4    4    0    0 -0.32879790163E+01  0.13011951274E+02  0.22785999720E+02  0.26444724719E+02  0.51100000000E-03 0.  1.
         12    1    4    4    0    0 -0.10379406766E+02 -0.12095545006E+02  0.46568436195E+01  0.16604833221E+02  0.00000000000E+00 0. -1.
</event>
<event>
 8    1  0.3106980E-007  0.9118800E+02  0.7816164E-02  0.1184000E+00
        -11   -1    0    0    0    0  0.00000000000E+00  0.00000000000E+00  0.45593999997E+02  0.45594000000E+02  0.51100000000E-03 0.  1.
         11   -1    0    0    0    0 -0.00000000000E+00 -0.00000000000E+00 -0.45593999997E+02  0.45594000000E+02  0.51100000000E-03 0. -1.
         23    2    1    2    0    0  0.71054273576E-14  0.00000000000E+00  0.44408920985E-15  0.91188000000E+02  0.91188000000E+02 0.  0.
    9900012    2    3    3    0    0  0.16851856250E+02  0.32497605412E+02 -0.39624821257E+01  0.54367072782E+02  0.39999974021E+02 0.  0.
         12    1    3    3    0    0 -0.16851856250E+02 -0.32497605412E+02  0.39624821257E+01  0.36820927218E+02  0.00000000000E+00 0. -1.
         11    1    4    4    0    0 -0.11153320380E+02  0.13479359448E+02 -0.24361947440E+00  0.17497115115E+02  0.51100000000E-03 0. -1.
        -11    1    4    4    0    0 -0.85769978987E+00  0.40557122401E+01  0.16198998099E-01  0.41454448944E+01  0.51100000000E-03 0.  1.
        -12    1    4    4    0    0  0.28862876420E+02  0.14962533724E+02 -0.37350616494E+01  0.32724512773E+02  0.00000000000E+00 0.  1.
</event>
<event>
 8    1  0.3106980E-007  0.9118800E+02  0.7816164E-02  0.1184000E+00
        -11   -1    0    0    0    0  0.00000000000E+00  0.00000000000E+00  0.45593999997E+02  0.45594000000E+02  0.51100000000E-03 0. -1.
         11   -1    0    0    0    0 -0.00000000000E+00 -0.00000000000E+00 -0.45593999997E+02  0.45594000000E+02  0.51100000000E-03 0.  1.
         23    2    1    2    0    0 -0.35527136788E-14  0.00000000000E+00  0.00000000000E+00  0.91188000000E+02  0.91188000000E+02 0.  0.
    9900012    2    3    3    0    0 -0.25018098630E+02 -0.60795825381E+01  0.26323257562E+02  0.54367075628E+02  0.39999980510E+02 0.  0.
        -12    1    3    3    0    0  0.25018098630E+02  0.60795825381E+01 -0.26323257562E+02  0.36820924372E+02  0.00000000000E+00 0.  1.
         11    1    4    4    0    0 -0.20312550830E+02 -0.15301959983E+02  0.15458851650E+02  0.29761145730E+02  0.51100000000E-03 0. -1.
        -11    1    4    4    0    0 -0.67763456733E+01  0.14718275157E+02  0.80844241042E+01  0.18108130706E+02  0.51100000000E-03 0.  1.
         12    1    4    4    0    0  0.20707978733E+01 -0.54958977122E+01  0.27799818084E+01  0.64977991928E+01  0.00000000000E+00 0. -1.
</event>
<event>
 8    1  0.3106980E-007  0.9118800E+02  0.7816164E-02  0.1184000E+00
        -11   -1    0    0    0    0  0.00000000000E+00  0.00000000000E+00  0.45593999997E+02  0.45594000000E+02  0.51100000000E-03 0. -1.
         11   -1    0    0    0    0 -0.00000000000E+00 -0.00000000000E+00 -0.45593999997E+02  0.45594000000E+02  0.51100000000E-03 0.  1.
         23    2    1    2    0    0  0.00000000000E+00  0.35527136788E-14 -0.44408920985E-15  0.91188000000E+02  0.91188000000E+02 0.  0.
    9900012    2    3    3    0    0  0.20412124138E+02  0.30490520916E+02 -0.30738017617E+01  0.54367150813E+02  0.40000151909E+02 0.  0.
        -12    1    3    3    0    0 -0.20412124138E+02 -0.30490520916E+02  0.30738017617E+01  0.36820849187E+02  0.00000000000E+00 0.  1.
         11    1    4    4    0    0  0.16312239206E+02  0.30841639552E+02  0.75752857164E+01  0.35702672619E+02  0.51100000000E-03 0. -1.
        -11    1    4    4    0    0  0.80367807946E+01  0.39086415163E+01 -0.38596623047E+01  0.97346965752E+01  0.51100000000E-03 0.  1.
        -12    1    4    4    0    0 -0.39368958625E+01 -0.42597601522E+01 -0.67894251733E+01  0.89297816194E+01  0.00000000000E+00 0.  1.
</event>
<event>
 8    1  0.3106980E-007  0.9118800E+02  0.7816164E-02  0.1184000E+00
        -11   -1    0    0    0    0  0.00000000000E+00  0.00000000000E+00  0.45593999997E+02  0.45594000000E+02  0.51100000000E-03 0. -1.
         11   -1    0    0    0    0 -0.00000000000E+00 -0.00000000000E+00 -0.45593999997E+02  0.45594000000E+02  0.51100000000E-03 0.  1.
         23    2    1    2    0    0  0.35527136788E-14 -0.35527136788E-14 -0.17763568394E-14  0.91188000000E+02  0.91188000000E+02 0.  0.
    9900012    2    3    3    0    0  0.30634627034E+02 -0.17497635267E+02 -0.10541878743E+02  0.54367098044E+02  0.40000031610E+02 0.  0.
         12    1    3    3    0    0 -0.30634627034E+02  0.17497635267E+02  0.10541878743E+02  0.36820901956E+02  0.00000000000E+00 0. -1.
         11    1    4    4    0    0  0.23324270697E+02 -0.20414267934E+02 -0.14046315309E+02  0.34030323431E+02  0.51100000000E-03 0.  1.
        -11    1    4    4    0    0  0.24275399856E+01  0.14595096262E+01  0.10952272093E+02  0.11312620518E+02  0.51100000000E-03 0. -1.
         12    1    4    4    0    0  0.48828163518E+01  0.14571230408E+01 -0.74478355266E+01  0.90241540940E+01  0.00000000000E+00 0. -1.
</event>
<event>
 8    1  0.3106980E-007  0.9118800E+02  0.7816164E-02  0.1184000E+00
        -11   -1    0    0    0    0  0.00000000000E+00  0.00000000000E+00  0.45593999997E+02  0.45594000000E+02  0.51100000000E-03 0.  1.
         11   -1    0    0    0    0 -0.00000000000E+00 -0.00000000000E+00 -0.45593999997E+02  0.45594000000E+02  0.51100000000E-03 0. -1.
         23    2    1    2    0    0  0.35527136788E-14 -0.88817841970E-15  0.00000000000E+00  0.91188000000E+02  0.91188000000E+02 0.  0.
    9900012    2    3    3    0    0  0.25312654143E+02 -0.49538438941E+01  0.26277727840E+02  0.54366946110E+02  0.39999685246E+02 0.  0.
        -12    1    3    3    0    0 -0.25312654143E+02  0.49538438941E+01 -0.26277727840E+02  0.36821053890E+02  0.00000000000E+00 0.  1.
         11    1    4    4    0    0  0.25366601307E+01 -0.10569219996E+02  0.56908887677E+01  0.12269037092E+02  0.51100000000E-03 0. -1.
        -11    1    4    4    0    0  0.16539289240E+02 -0.10303334988E+02  0.12779134224E+02  0.23302640885E+02  0.51100000000E-03 0.  1.
        -12    1    4    4    0    0  0.62367047723E+01  0.15918711090E+02  0.78077048490E+01  0.18795268133E+02  0.00000000000E+00 0.  1.
</event>
<event>
 8    1  0.3106980E-007  0.9118800E+02  0.7816164E-02  0.1184000E+00
        -11   -1    0    0    0    0  0.00000000000E+00  0.00000000000E+00  0.45593999997E+02  0.45594000000E+02  0.51100000000E-03 0.  1.
         11   -1    0    0    0    0 -0.00000000000E+00 -0.00000000000E+00 -0.45593999997E+02  0.45594000000E+02  0.51100000000E-03 0. -1.
         23    2    1    2    0    0 -0.88817841970E-15 -0.71054273576E-14 -0.71054273576E-14  0.91188000000E+02  0.91188000000E+02 0.  0.
    9900012    2    3    3    0    0 -0.56545844630E+01 -0.20333539347E+02 -0.30172051352E+02  0.54367084332E+02  0.40000000352E+02 0.  0.
        -12    1    3    3    0    0  0.56545844630E+01  0.20333539347E+02  0.30172051352E+02  0.36820915668E+02  0.00000000000E+00 0.  1.
         11    1    4    4    0    0  0.51348129599E+01 -0.24600486130E+02 -0.22106464691E+02  0.33470076238E+02  0.51100000000E-03 0. -1.
        -11    1    4    4    0    0 -0.28711236662E+01  0.81691037688E+01 -0.83989307468E+01  0.12063152384E+02  0.51100000000E-03 0.  1.
        -12    1    4    4    0    0 -0.79182737567E+01 -0.39021569861E+01  0.33334408553E+00  0.88338557103E+01  0.00000000000E+00 0.  1.
</event>
<event>
 8    1  0.3106980E-007  0.9118800E+02  0.7816164E-02  0.1184000E+00
        -11   -1    0    0    0    0  0.00000000000E+00  0.00000000000E+00  0.45593999997E+02  0.45594000000E+02  0.51100000000E-03 0. -1.
         11   -1    0    0    0    0 -0.00000000000E+00 -0.00000000000E+00 -0.45593999997E+02  0.45594000000E+02  0.51100000000E-03 0.  1.
         23    2    1    2    0    0  0.00000000000E+00 -0.35527136788E-14  0.35527136788E-14  0.91188000000E+02  0.91188000000E+02 0.  0.
    9900012    2    3    3    0    0 -0.11459938644E+02 -0.18752328029E+02  0.29543184327E+02  0.54367085557E+02  0.40000003145E+02 0.  0.
        -12    1    3    3    0    0  0.11459938644E+02  0.18752328029E+02 -0.29543184327E+02  0.36820914443E+02  0.00000000000E+00 0.  1.
         11    1    4    4    0    0  0.50797615868E+01  0.13844347366E+00 -0.24499122798E+00  0.50875500328E+01  0.51100000000E-03 0. -1.
        -11    1    4    4    0    0  0.63892917933E+01  0.32694750757E+01  0.74590908315E+01  0.10351355138E+02  0.51100000000E-03 0.  1.
         12    1    4    4    0    0 -0.22928992024E+02 -0.22160246578E+02  0.22329084723E+02  0.38928180387E+02  0.00000000000E+00 0. -1.
</event>
<event>
 8    1  0.3106980E-007  0.9118800E+02  0.7816164E-02  0.1184000E+00
        -11   -1    0    0    0    0  0.00000000000E+00  0.00000000000E+00  0.45593999997E+02  0.45594000000E+02  0.51100000000E-03 0.  1.
         11   -1    0    0    0    0 -0.00000000000E+00 -0.00000000000E+00 -0.45593999997E+02  0.45594000000E+02  0.51100000000E-03 0. -1.
         23    2    1    2    0    0  0.17763568394E-14  0.00000000000E+00  0.00000000000E+00  0.91188000000E+02  0.91188000000E+02 0.  0.
    9900012    2    3    3    0    0 -0.11759592600E+02  0.27713518532E+02  0.21200303644E+02  0.54367082003E+02  0.39999995042E+02 0.  0.
         12    1    3    3    0    0  0.11759592600E+02 -0.27713518532E+02 -0.21200303644E+02  0.36820917997E+02  0.00000000000E+00 0. -1.
         11    1    4    4    0    0 -0.91938473699E+01  0.21480061739E+02 -0.36736772895E+01  0.23651972156E+02  0.51100000000E-03 0. -1.
        -11    1    4    4    0    0 -0.45941138747E+01  0.11489844438E+02  0.17585566033E+02  0.21502896095E+02  0.51100000000E-03 0.  1.
        -12    1    4    4    0    0  0.20283686448E+01 -0.52563876455E+01  0.72884149009E+01  0.92122137517E+01  0.00000000000E+00 0.  1.
</event>
<event>
 8    1  0.3106980E-007  0.9118800E+02  0.7816164E-02  0.1184000E+00
        -11   -1    0    0    0    0  0.00000000000E+00  0.00000000000E+00  0.45593999997E+02  0.45594000000E+02  0.51100000000E-03 0. -1.
         11   -1    0    0    0    0 -0.00000000000E+00 -0.00000000000E+00 -0.45593999997E+02  0.45594000000E+02  0.51100000000E-03 0.  1.
         23    2    1    2    0    0  0.35527136788E-14  0.00000000000E+00  0.00000000000E+00  0.91188000000E+02  0.91188000000E+02 0.  0.
    9900012    2    3    3    0    0  0.26383388089E+02 -0.22149091229E+02  0.13004360041E+02  0.54367098471E+02  0.40000032585E+02 0.  0.
        -12    1    3    3    0    0 -0.26383388089E+02  0.22149091229E+02 -0.13004360041E+02  0.36820901529E+02  0.00000000000E+00 0.  1.
         11    1    4    4    0    0  0.12389681470E+02 -0.15183590067E+02  0.11089072470E+02  0.22516952342E+02  0.51100000000E-03 0. -1.
        -11    1    4    4    0    0  0.30577214013E+01  0.69157954417E+01  0.99007508069E+01  0.12458039716E+02  0.51100000000E-03 0.  1.
         12    1    4    4    0    0  0.10935985218E+02 -0.13881296603E+02 -0.79854632361E+01  0.19392106414E+02  0.00000000000E+00 0. -1.
</event>
<event>
 8    1  0.3106980E-007  0.9118800E+02  0.7816164E-02  0.1184000E+00
        -11   -1    0    0    0    0  0.00000000000E+00  0.00000000000E+00  0.45593999997E+02  0.45594000000E+02  0.51100000000E-03 0. -1.
         11   -1    0    0    0    0 -0.00000000000E+00 -0.00000000000E+00 -0.45593999997E+02  0.45594000000E+02  0.51100000000E-03 0.  1.
         23    2    1    2    0    0  0.00000000000E+00  0.88817841970E-15  0.88817841970E-15  0.91188000000E+02  0.91188000000E+02 0.  0.
    9900012    2    3    3    0    0 -0.36095744776E+02 -0.40216654926E+01 -0.60583481917E+01  0.54367079763E+02  0.39999989937E+02 0.  0.
         12    1    3    3    0    0  0.36095744776E+02  0.40216654926E+01  0.60583481917E+01  0.36820920237E+02  0.00000000000E+00 0. -1.
         11    1    4    4    0    0 -0.10040515846E+02  0.10063414538E+02  0.35347965321E+01  0.14648517243E+02  0.51100000000E-03 0. -1.
        -11    1    4    4    0    0 -0.74037865207E+01 -0.15927774998E+02  0.20041008896E+01  0.17678418817E+02  0.51100000000E-03 0.  1.
         12    1    4    4    0    0 -0.18651442409E+02  0.18426949677E+01 -0.11597245613E+02  0.22040143704E+02  0.00000000000E+00 0. -1.
</event>
<event>
 8    1  0.3106980E-007  0.9118800E+02  0.7816164E-02  0.1184000E+00
        -11   -1    0    0    0    0  0.00000000000E+00  0.00000000000E+00  0.45593999997E+02  0.45594000000E+02  0.51100000000E-03 0.  1.
         11   -1    0    0    0    0 -0.00000000000E+00 -0.00000000000E+00 -0.45593999997E+02  0.45594000000E+02  0.51100000000E-03 0. -1.
         23    2    1    2    0    0  0.00000000000E+00  0.11102230246E-15 -0.71054273576E-14  0.91188000000E+02  0.91188000000E+02 0.  0.
    9900012    2    3    3    0    0  0.16482396375E+02  0.47484987978E+00  0.32922442629E+02  0.54367053497E+02  0.39999930058E+02 0.  0.
         12    1    3    3    0    0 -0.16482396375E+02 -0.47484987978E+00 -0.32922442629E+02  0.36820946503E+02  0.00000000000E+00 0. -1.
         11    1    4    4    0    0  0.65729729593E+01 -0.44951782703E+01 -0.58861809161E+01  0.99024101734E+01  0.51100000000E-03 0. -1.
        -11    1    4    4    0    0  0.13243657336E+02  0.45761874220E+01  0.38640968734E+02  0.41103046309E+02  0.51100000000E-03 0.  1.
        -12    1    4    4    0    0 -0.33342339200E+01  0.39384072811E+00  0.16765481107E+00  0.33615970145E+01  0.00000000000E+00 0.  1.
</event>
<event>
 8    1  0.3106980E-007  0.9118800E+02  0.7816164E-02  0.1184000E+00
        -11   -1    0    0    0    0  0.00000000000E+00  0.00000000000E+00  0.45593999997E+02  0.45594000000E+02  0.51100000000E-03 0.  1.
         11   -1    0    0    0    0 -0.00000000000E+00 -0.00000000000E+00 -0.45593999997E+02  0.45594000000E+02  0.51100000000E-03 0. -1.
         23    2    1    2    0    0  0.00000000000E+00  0.00000000000E+00  0.00000000000E+00  0.91188000000E+02  0.91188000000E+02 0.  0.
    9900012    2    3    3    0    0  0.63097570037E+01  0.30288019611E+02  0.19965083028E+02  0.54367058870E+02  0.39999942306E+02 0.  0.
        -12    1    3    3    0    0 -0.63097570037E+01 -0.30288019611E+02 -0.19965083028E+02  0.36820941130E+02  0.00000000000E+00 0.  1.
         11    1    4    4    0    0  0.14456276204E+02  0.21513430158E+02  0.23069418614E+02  0.34698842550E+02  0.51100000000E-03 0. -1.
        -11    1    4    4    0    0 -0.11676902500E+02  0.94240862441E+01 -0.12931199350E+00  0.15006004645E+02  0.51100000000E-03 0.  1.
        -12    1    4    4    0    0  0.35303833004E+01 -0.64949679139E+00 -0.29750235931E+01  0.46622116757E+01  0.00000000000E+00 0.  1.
</event>
<event>
 8    1  0.3106980E-007  0.9118800E+02  0.7816164E-02  0.1184000E+00
        -11   -1    0    0    0    0  0.00000000000E+00  0.00000000000E+00  0.45593999997E+02  0.45594000000E+02  0.51100000000E-03 0.  1.
         11   -1    0    0    0    0 -0.00000000000E+00 -0.00000000000E+00 -0.45593999997E+02  0.45594000000E+02  0.51100000000E-03 0. -1.
         23    2    1    2    0    0  0.00000000000E+00  0.71054273576E-14 -0.44408920985E-15  0.91188000000E+02  0.91188000000E+02 0.  0.
    9900012    2    3    3    0    0 -0.16842330422E+02  0.32552223544E+02 -0.35310421848E+01  0.54367087320E+02  0.40000007163E+02 0.  0.
         12    1    3    3    0    0  0.16842330422E+02 -0.32552223544E+02  0.35310421848E+01  0.36820912680E+02  0.00000000000E+00 0. -1.
         11    1    4    4    0    0  0.19760345473E+01  0.17805737349E+02 -0.13248818110E+02  0.22281835127E+02  0.51100000000E-03 0. -1.
        -11    1    4    4    0    0 -0.12817998007E+02  0.86698100926E+01 -0.39481396071E+01  0.15970425372E+02  0.51100000000E-03 0.  1.
         12    1    4    4    0    0 -0.60003669622E+01  0.60766761026E+01  0.13665915532E+02  0.16114826821E+02  0.00000000000E+00 0. -1.
</event>
<event>
 8    1  0.3106980E-007  0.9118800E+02  0.7816164E-02  0.1184000E+00
        -11   -1    0    0    0    0  0.00000000000E+00  0.00000000000E+00  0.45593999997E+02  0.45594000000E+02  0.51100000000E-03 0. -1.
         11   -1    0    0    0    0 -0.00000000000E+00 -0.00000000000E+00 -0.45593999997E+02  0.45594000000E+02  0.51100000000E-03 0.  1.
         23    2    1    2    0    0 -0.35527136788E-14  0.35527136788E-14 -0.35527136788E-14  0.91188000000E+02  0.91188000000E+02 0.  0.
    9900012    2    3    3    0    0  0.19322615189E+02  0.21437769163E+02 -0.22865671144E+02  0.54367077669E+02  0.39999985162E+02 0.  0.
        -12    1    3    3    0    0 -0.19322615189E+02 -0.21437769163E+02  0.22865671144E+02  0.36820922331E+02  0.00000000000E+00 0.  1.
         11    1    4    4    0    0  0.17142029654E+02  0.22331671248E+02 -0.17642248362E+02  0.33223510484E+02  0.51100000000E-03 0. -1.
        -11    1    4    4    0    0 -0.20227050701E+00  0.71988747760E+01 -0.93094046949E+01  0.11769865226E+02  0.51100000000E-03 0.  1.
         12    1    4    4    0    0  0.23828560417E+01 -0.80927768602E+01  0.40859819125E+01  0.93737019589E+01  0.00000000000E+00 0. -1.
</event>
<event>
 8    1  0.3106980E-007  0.9118800E+02  0.7816164E-02  0.1184000E+00
        -11   -1    0    0    0    0  0.00000000000E+00  0.00000000000E+00  0.45593999997E+02  0.45594000000E+02  0.51100000000E-03 0.  1.
         11   -1    0    0    0    0 -0.00000000000E+00 -0.00000000000E+00 -0.45593999997E+02  0.45594000000E+02  0.51100000000E-03 0. -1.
         23    2    1    2    0    0  0.00000000000E+00  0.99920072216E-15  0.00000000000E+00  0.91188000000E+02  0.91188000000E+02 0.  0.
    9900012    2    3    3    0    0 -0.10367874956E+02  0.84817617944E+00  0.35320921616E+02  0.54367085593E+02  0.40000003227E+02 0.  0.
         12    1    3    3    0    0  0.10367874956E+02 -0.84817617944E+00 -0.35320921616E+02  0.36820914407E+02  0.00000000000E+00 0. -1.
         11    1    4    4    0    0  0.49024687921E+01  0.34931281654E-01  0.17337831269E+01  0.52001369832E+01  0.51100000000E-03 0. -1.
        -11    1    4    4    0    0  0.77937023254E+01 -0.79569547491E+01  0.88365151526E+01  0.14217556932E+02  0.51100000000E-03 0.  1.
         12    1    4    4    0    0 -0.23064046073E+02  0.87701996469E+01  0.24750623337E+02  0.34949391678E+02  0.00000000000E+00 0. -1.
</event>
<event>
 8    1  0.3106980E-007  0.9118800E+02  0.7816164E-02  0.1184000E+00
        -11   -1    0    0    0    0  0.00000000000E+00  0.00000000000E+00  0.45593999997E+02  0.45594000000E+02  0.51100000000E-03 0. -1.
         11   -1    0    0    0    0 -0.00000000000E+00 -0.00000000000E+00 -0.45593999997E+02  0.45594000000E+02  0.51100000000E-03 0.  1.
         23    2    1    2    0    0  0.00000000000E+00  0.00000000000E+00  0.71054273576E-14  0.91188000000E+02  0.91188000000E+02 0.  0.
    9900012    2    3    3    0    0 -0.74969371334E+01 -0.11069710578E+02  0.34307982203E+02  0.54367079296E+02  0.39999988870E+02 0.  0.
        -12    1    3    3    0    0  0.74969371334E+01  0.11069710578E+02 -0.34307982203E+02  0.36820920704E+02  0.00000000000E+00 0.  1.
         11    1    4    4    0    0 -0.36778703900E+01 -0.72380545929E+01  0.94467481084E+01  0.12456211903E+02  0.51100000000E-03 0. -1.
        -11    1    4    4    0    0  0.87491191149E+00 -0.12057715849E+01  0.32518929821E+02  0.32553036002E+02  0.51100000000E-03 0.  1.
         12    1    4    4    0    0 -0.46939786549E+01 -0.26258843997E+01 -0.76576957263E+01  0.93578313904E+01  0.00000000000E+00 0. -1.
</event>
<event>
 8    1  0.3106980E-007  0.9118800E+02  0.7816164E-02  0.1184000E+00
        -11   -1    0    0    0    0  0.00000000000E+00  0.00000000000E+00  0.45593999997E+02  0.45594000000E+02  0.51100000000E-03 0.  1.
         11   -1    0    0    0    0 -0.00000000000E+00 -0.00000000000E+00 -0.45593999997E+02  0.45594000000E+02  0.51100000000E-03 0. -1.
         23    2    1    2    0    0 -0.88817841970E-15 -0.35527136788E-14  0.00000000000E+00  0.91188000000E+02  0.91188000000E+02 0.  0.
    9900012    2    3    3    0    0  0.40740433965E+01  0.31429239417E+02 -0.18745279364E+02  0.54367076351E+02  0.39999982158E+02 0.  0.
        -12    1    3    3    0    0 -0.40740433965E+01 -0.31429239417E+02  0.18745279364E+02  0.36820923649E+02  0.00000000000E+00 0.  1.
         11    1    4    4    0    0  0.30201137563E+01  0.23367025365E+02 -0.13871401812E+02  0.27341447474E+02  0.51100000000E-03 0. -1.
        -11    1    4    4    0    0 -0.92055623483E+01  0.24750274095E+01 -0.10395353420E+02  0.14104308271E+02  0.51100000000E-03 0.  1.
        -12    1    4    4    0    0  0.10259491989E+02  0.55871866422E+01  0.55214758676E+01  0.12921320606E+02  0.00000000000E+00 0.  1.
</event>
<event>
 8    1  0.3106980E-007  0.9118800E+02  0.7816164E-02  0.1184000E+00
        -11   -1    0    0    0    0  0.00000000000E+00  0.00000000000E+00  0.45593999997E+02  0.45594000000E+02  0.51100000000E-03 0. -1.
         11   -1    0    0    0    0 -0.00000000000E+00 -0.00000000000E+00 -0.45593999997E+02  0.45594000000E+02  0.51100000000E-03 0.  1.
         23    2    1    2    0    0 -0.88817841970E-15 -0.35527136788E-14  0.00000000000E+00  0.91188000000E+02  0.91188000000E+02 0.  0.
    9900012    2    3    3    0    0 -0.78597426952E+01 -0.22308378864E+02 -0.28219548221E+02  0.54367051824E+02  0.39999926243E+02 0.  0.
         12    1    3    3    0    0  0.78597426952E+01  0.22308378864E+02  0.28219548221E+02  0.36820948176E+02  0.00000000000E+00 0. -1.
         11    1    4    4    0    0  0.76854196102E+01 -0.34743540077E+01 -0.21289359849E+02  0.22899206392E+02  0.51100000000E-03 0. -1.
        -11    1    4    4    0    0 -0.49709318211E+01  0.33298878163E+01 -0.12195877107E+00  0.59844122721E+01  0.51100000000E-03 0.  1.
        -12    1    4    4    0    0 -0.10574230484E+02 -0.22163912673E+02 -0.68082296013E+01  0.25483433159E+02  0.00000000000E+00 0.  1.
</event>
<event>
 8    1  0.3106980E-007  0.9118800E+02  0.7816164E-02  0.1184000E+00
        -11   -1    0    0    0    0  0.00000000000E+00  0.00000000000E+00  0.45593999997E+02  0.45594000000E+02  0.51100000000E-03 0.  1.
         11   -1    0    0    0    0 -0.00000000000E+00 -0.00000000000E+00 -0.45593999997E+02  0.45594000000E+02  0.51100000000E-03 0. -1.
         23    2    1    2    0    0  0.00000000000E+00  0.00000000000E+00  0.35527136788E-14  0.91188000000E+02  0.91188000000E+02 0.  0.
    9900012    2    3    3    0    0 -0.17161061691E+02  0.24599717357E+02 -0.21357255535E+02  0.54367075292E+02  0.39999979742E+02 0.  0.
        -12    1    3    3    0    0  0.17161061691E+02 -0.24599717357E+02  0.21357255535E+02  0.36820924708E+02  0.00000000000E+00 0.  1.
         11    1    4    4    0    0 -0.56973819257E+01 -0.37739016986E+01 -0.10021996555E+02  0.12130247732E+02  0.51100000000E-03 0. -1.
        -11    1    4    4    0    0 -0.19849448418E+01  0.92029373175E+00 -0.12964242138E+02  0.13147567115E+02  0.51100000000E-03 0.  1.
        -12    1    4    4    0    0 -0.94787349236E+01  0.27453325323E+02  0.16289831576E+01  0.29089260444E+02  0.00000000000E+00 0.  1.
</event>
<event>
 8    1  0.3106980E-007  0.9118800E+02  0.7816164E-02  0.1184000E+00
        -11   -1    0    0    0    0  0.00000000000E+00  0.00000000000E+00  0.45593999997E+02  0.45594000000E+02  0.51100000000E-03 0.  1.
         11   -1    0    0    0    0 -0.00000000000E+00 -0.00000000000E+00 -0.45593999997E+02  0.45594000000E+02  0.51100000000E-03 0. -1.
         23    2    1    2    0    0 -0.88817841970E-15 -0.44408920985E-15  0.14210854715E-13  0.91188000000E+02  0.91188000000E+02 0.  0.
    9900012    2    3    3    0    0  0.41691992479E+01 -0.23767863049E+01 -0.36506819394E+02  0.54367092926E+02  0.40000019943E+02 0.  0.
        -12    1    3    3    0    0 -0.41691992479E+01  0.23767863049E+01  0.36506819394E+02  0.36820907074E+02  0.00000000000E+00 0.  1.
         11    1    4    4    0    0  0.19728655034E+02  0.35767045178E+01 -0.24082480266E+02  0.31336536195E+02  0.51100000000E-03 0. -1.
        -11    1    4    4    0    0 -0.12829818746E+02 -0.61777664078E+00 -0.10900275416E+02  0.16846421028E+02  0.51100000000E-03 0.  1.
        -12    1    4    4    0    0 -0.27296370403E+01 -0.53357141820E+01 -0.15240637121E+01  0.61841357037E+01  0.00000000000E+00 0.  1.
</event>
<event>
 8    1  0.3106980E-007  0.9118800E+02  0.7816164E-02  0.1184000E+00
        -11   -1    0    0    0    0  0.00000000000E+00  0.00000000000E+00  0.45593999997E+02  0.45594000000E+02  0.51100000000E-03 0. -1.
         11   -1    0    0    0    0 -0.00000000000E+00 -0.00000000000E+00 -0.45593999997E+02  0.45594000000E+02  0.51100000000E-03 0.  1.
         23    2    1    2    0    0  0.44408920985E-15  0.99920072216E-15  0.00000000000E+00  0.91188000000E+02  0.91188000000E+02 0.  0.
    9900012    2    3    3    0    0  0.30719740184E+01 -0.47932763604E+00  0.36689419631E+02  0.54367078064E+02  0.39999986062E+02 0.  0.
        -12    1    3    3    0    0 -0.30719740184E+01  0.47932763604E+00 -0.36689419631E+02  0.36820921936E+02  0.00000000000E+00 0.  1.
         11    1    4    4    0    0 -0.62402760570E+01 -0.11513197081E+02  0.13408197034E+02  0.18742318434E+02  0.51100000000E-03 0. -1.
        -11    1    4    4    0    0 -0.53886704051E+01  0.71840080514E+01  0.15593357969E+01  0.91147829819E+01  0.51100000000E-03 0.  1.
         12    1    4    4    0    0  0.14700920481E+02  0.38498613938E+01  0.21721886800E+02  0.26509976648E+02  0.00000000000E+00 0. -1.
</event>
<event>
 8    1  0.3106980E-007  0.9118800E+02  0.7816164E-02  0.1184000E+00
        -11   -1    0    0    0    0  0.00000000000E+00  0.00000000000E+00  0.45593999997E+02  0.45594000000E+02  0.51100000000E-03 0. -1.
         11   -1    0    0    0    0 -0.00000000000E+00 -0.00000000000E+00 -0.45593999997E+02  0.45594000000E+02  0.51100000000E-03 0.  1.
         23    2    1    2    0    0 -0.44408920985E-15  0.88817841970E-15 -0.71054273576E-14  0.91188000000E+02  0.91188000000E+02 0.  0.
    9900012    2    3    3    0    0  0.35841132301E+01 -0.38728954509E+00  0.36644014422E+02  0.54367086734E+02  0.40000005827E+02 0.  0.
        -12    1    3    3    0    0 -0.35841132301E+01  0.38728954509E+00 -0.36644014422E+02  0.36820913266E+02  0.00000000000E+00 0.  1.
         11    1    4    4    0    0  0.74176904383E+01  0.18499999368E+01  0.41441998784E+02  0.42141237460E+02  0.51100000000E-03 0. -1.
        -11    1    4    4    0    0 -0.43385315163E+00 -0.60038334768E+01 -0.16011817923E+01  0.62288063356E+01  0.51100000000E-03 0.  1.
         12    1    4    4    0    0 -0.33997240565E+01  0.37665439949E+01 -0.31968025701E+01  0.59970429378E+01  0.00000000000E+00 0. -1.
</event>
<event>
 8    1  0.3106980E-007  0.9118800E+02  0.7816164E-02  0.1184000E+00
        -11   -1    0    0    0    0  0.00000000000E+00  0.00000000000E+00  0.45593999997E+02  0.45594000000E+02  0.51100000000E-03 0.  1.
         11   -1    0    0    0    0 -0.00000000000E+00 -0.00000000000E+00 -0.45593999997E+02  0.45594000000E+02  0.51100000000E-03 0. -1.
         23    2    1    2    0    0  0.35527136788E-14 -0.17763568394E-14  0.00000000000E+00  0.91188000000E+02  0.91188000000E+02 0.  0.
    9900012    2    3    3    0    0  0.27901406600E+02 -0.72415997238E+01 -0.22909644136E+02  0.54367067756E+02  0.39999962564E+02 0.  0.
        -12    1    3    3    0    0 -0.27901406600E+02  0.72415997238E+01  0.22909644136E+02  0.36820932244E+02  0.00000000000E+00 0.  1.
         11    1    4    4    0    0 -0.48000152698E+01 -0.30103975192E+01  0.13956623864E+01  0.58352817903E+01  0.51100000000E-03 0. -1.
        -11    1    4    4    0    0  0.74789259109E+01 -0.25551346383E+01 -0.21730224787E+02  0.23122839690E+02  0.51100000000E-03 0.  1.
        -12    1    4    4    0    0  0.25222495959E+02 -0.16760675663E+01 -0.25750817361E+01  0.25408946276E+02  0.00000000000E+00 0.  1.
</event>
<event>
 8    1  0.3106980E-007  0.9118800E+02  0.7816164E-02  0.1184000E+00
        -11   -1    0    0    0    0  0.00000000000E+00  0.00000000000E+00  0.45593999997E+02  0.45594000000E+02  0.51100000000E-03 0.  1.
         11   -1    0    0    0    0 -0.00000000000E+00 -0.00000000000E+00 -0.45593999997E+02  0.45594000000E+02  0.51100000000E-03 0. -1.
         23    2    1    2    0    0  0.00000000000E+00  0.44408920985E-15  0.00000000000E+00  0.91188000000E+02  0.91188000000E+02 0.  0.
    9900012    2    3    3    0    0 -0.34732424507E+02 -0.29452038911E+01  0.11864419683E+02  0.54367082134E+02  0.39999995341E+02 0.  0.
         12    1    3    3    0    0  0.34732424507E+02  0.29452038911E+01 -0.11864419683E+02  0.36820917866E+02  0.00000000000E+00 0. -1.
         11    1    4    4    0    0 -0.16895152835E+02  0.11120117557E+02  0.79389305866E+01  0.21728548569E+02  0.51100000000E-03 0.  1.
        -11    1    4    4    0    0 -0.41331794791E+00 -0.71390137710E+00 -0.77374962187E+01  0.77813453141E+01  0.51100000000E-03 0. -1.
        -12    1    4    4    0    0 -0.17423953724E+02 -0.13351420071E+02  0.11662985315E+02  0.24857188251E+02  0.00000000000E+00 0.  1.
</event>
<event>
 8    1  0.3106980E-007  0.9118800E+02  0.7816164E-02  0.1184000E+00
        -11   -1    0    0    0    0  0.00000000000E+00  0.00000000000E+00  0.45593999997E+02  0.45594000000E+02  0.51100000000E-03 0.  1.
         11   -1    0    0    0    0 -0.00000000000E+00 -0.00000000000E+00 -0.45593999997E+02  0.45594000000E+02  0.51100000000E-03 0. -1.
         23    2    1    2    0    0  0.00000000000E+00  0.00000000000E+00 -0.35527136788E-14  0.91188000000E+02  0.91188000000E+02 0.  0.
    9900012    2    3    3    0    0  0.22131386790E+02  0.11045351500E+02 -0.27276029488E+02  0.54367083992E+02  0.39999999577E+02 0.  0.
        -12    1    3    3    0    0 -0.22131386790E+02 -0.11045351500E+02  0.27276029488E+02  0.36820916008E+02  0.00000000000E+00 0.  1.
         11    1    4    4    0    0  0.16297108626E+02  0.16213986973E+02 -0.12337819808E+02  0.26090437347E+02  0.51100000000E-03 0. -1.
        -11    1    4    4    0    0  0.98508645519E+01 -0.16487819946E+01 -0.19068031584E+02  0.21525516097E+02  0.51100000000E-03 0.  1.
        -12    1    4    4    0    0 -0.40165863870E+01 -0.35198534778E+01  0.41298219045E+01  0.67511305477E+01  0.00000000000E+00 0.  1.
</event>
<event>
 8    1  0.3106980E-007  0.9118800E+02  0.7816164E-02  0.1184000E+00
        -11   -1    0    0    0    0  0.00000000000E+00  0.00000000000E+00  0.45593999997E+02  0.45594000000E+02  0.51100000000E-03 0. -1.
         11   -1    0    0    0    0 -0.00000000000E+00 -0.00000000000E+00 -0.45593999997E+02  0.45594000000E+02  0.51100000000E-03 0.  1.
         23    2    1    2    0    0  0.44408920985E-15  0.00000000000E+00 -0.71054273576E-14  0.91188000000E+02  0.91188000000E+02 0.  0.
    9900012    2    3    3    0    0  0.14681928044E+01  0.26448023915E+01 -0.36696474231E+02  0.54367057715E+02  0.39999939673E+02 0.  0.
         12    1    3    3    0    0 -0.14681928044E+01 -0.26448023915E+01  0.36696474231E+02  0.36820942285E+02  0.00000000000E+00 0. -1.
         11    1    4    4    0    0 -0.27476650914E+00 -0.40001464188E+01 -0.23477908092E+02  0.23817826027E+02  0.51100000000E-03 0.  1.
        -11    1    4    4    0    0 -0.85988245011E+01  0.36169652881E+01 -0.16781085245E+02  0.19199662574E+02  0.51100000000E-03 0. -1.
        -12    1    4    4    0    0  0.10341783815E+02  0.30279835222E+01  0.35625191069E+01  0.11349569114E+02  0.00000000000E+00 0.  1.
</event>
<event>
 8    1  0.3106980E-007  0.9118800E+02  0.7816164E-02  0.1184000E+00
        -11   -1    0    0    0    0  0.00000000000E+00  0.00000000000E+00  0.45593999997E+02  0.45594000000E+02  0.51100000000E-03 0.  1.
         11   -1    0    0    0    0 -0.00000000000E+00 -0.00000000000E+00 -0.45593999997E+02  0.45594000000E+02  0.51100000000E-03 0. -1.
         23    2    1    2    0    0 -0.35527136788E-14 -0.17763568394E-14  0.00000000000E+00  0.91188000000E+02  0.91188000000E+02 0.  0.
    9900012    2    3    3    0    0  0.26973652171E+02  0.82661218623E+01  0.23661670656E+02  0.54367063832E+02  0.39999953617E+02 0.  0.
         12    1    3    3    0    0 -0.26973652171E+02 -0.82661218623E+01 -0.23661670656E+02  0.36820936168E+02  0.00000000000E+00 0. -1.
         11    1    4    4    0    0  0.23836111592E+02  0.20783960073E+01  0.19069456000E+01  0.24002424619E+02  0.51100000000E-03 0. -1.
        -11    1    4    4    0    0  0.64645557150E+01  0.42701278026E+01 -0.51653365401E+00  0.77647459276E+01  0.51100000000E-03 0.  1.
         12    1    4    4    0    0 -0.33270151358E+01  0.19175980524E+01  0.22271258710E+02  0.22599893286E+02  0.00000000000E+00 0. -1.
</event>
<event>
 8    1  0.3106980E-007  0.9118800E+02  0.7816164E-02  0.1184000E+00
        -11   -1    0    0    0    0  0.00000000000E+00  0.00000000000E+00  0.45593999997E+02  0.45594000000E+02  0.51100000000E-03 0. -1.
         11   -1    0    0    0    0 -0.00000000000E+00 -0.00000000000E+00 -0.45593999997E+02  0.45594000000E+02  0.51100000000E-03 0.  1.
         23    2    1    2    0    0  0.35527136788E-14  0.11102230246E-15  0.00000000000E+00  0.91188000000E+02  0.91188000000E+02 0.  0.
    9900012    2    3    3    0    0  0.25810570920E+02 -0.45452452819E+00 -0.26255972153E+02  0.54367241759E+02  0.40000359236E+02 0.  0.
         12    1    3    3    0    0 -0.25810570920E+02  0.45452452819E+00  0.26255972153E+02  0.36820758241E+02  0.00000000000E+00 0. -1.
         11    1    4    4    0    0  0.25148689780E+02  0.39234210617E+01 -0.17323499973E+02  0.30788853211E+02  0.51100000000E-03 0. -1.
        -11    1    4    4    0    0  0.64575211940E+01 -0.11114387468E+02 -0.42818101702E+01  0.13548545581E+02  0.51100000000E-03 0.  1.
         12    1    4    4    0    0 -0.57956400538E+01  0.67364418783E+01 -0.46506620096E+01  0.10029842967E+02  0.00000000000E+00 0. -1.
</event>
<event>
 8    1  0.3106980E-007  0.9118800E+02  0.7816164E-02  0.1184000E+00
        -11   -1    0    0    0    0  0.00000000000E+00  0.00000000000E+00  0.45593999997E+02  0.45594000000E+02  0.51100000000E-03 0. -1.
         11   -1    0    0    0    0 -0.00000000000E+00 -0.00000000000E+00 -0.45593999997E+02  0.45594000000E+02  0.51100000000E-03 0.  1.
         23    2    1    2    0    0  0.00000000000E+00 -0.17763568394E-14  0.00000000000E+00  0.91188000000E+02  0.91188000000E+02 0.  0.
    9900012    2    3    3    0    0 -0.21827312495E+02 -0.87630655311E+01  0.28329430355E+02  0.54367088652E+02  0.40000010200E+02 0.  0.
         12    1    3    3    0    0  0.21827312495E+02  0.87630655311E+01 -0.28329430355E+02  0.36820911348E+02  0.00000000000E+00 0. -1.
         11    1    4    4    0    0  0.71518767311E+01  0.50559922517E+01  0.37808831402E+00  0.87667182834E+01  0.51100000000E-03 0. -1.
        -11    1    4    4    0    0 -0.18867324205E+02 -0.82860115606E+01  0.71371735568E+01  0.21807639874E+02  0.51100000000E-03 0.  1.
         12    1    4    4    0    0 -0.10111865021E+02 -0.55330462222E+01  0.20814168484E+02  0.23792730495E+02  0.00000000000E+00 0. -1.
</event>
<event>
 8    1  0.3106980E-007  0.9118800E+02  0.7816164E-02  0.1184000E+00
        -11   -1    0    0    0    0  0.00000000000E+00  0.00000000000E+00  0.45593999997E+02  0.45594000000E+02  0.51100000000E-03 0.  1.
         11   -1    0    0    0    0 -0.00000000000E+00 -0.00000000000E+00 -0.45593999997E+02  0.45594000000E+02  0.51100000000E-03 0. -1.
         23    2    1    2    0    0 -0.35527136788E-14  0.00000000000E+00  0.00000000000E+00  0.91188000000E+02  0.91188000000E+02 0.  0.
    9900012    2    3    3    0    0  0.16562162576E+02  0.10497866717E+02  0.31165182504E+02  0.54367095131E+02  0.40000024971E+02 0.  0.
         12    1    3    3    0    0 -0.16562162576E+02 -0.10497866717E+02 -0.31165182504E+02  0.36820904869E+02  0.00000000000E+00 0. -1.
         11    1    4    4    0    0  0.11028873678E+02  0.14681446037E+02  0.43757589183E+01  0.18876656980E+02  0.51100000000E-03 0. -1.
        -11    1    4    4    0    0  0.68637789920E+01 -0.87640603943E+01  0.34291028694E+01  0.11648131326E+02  0.51100000000E-03 0.  1.
        -12    1    4    4    0    0 -0.13304900940E+01  0.45804810741E+01  0.23360320717E+02  0.23842306825E+02  0.00000000000E+00 0.  1.
</event>
<event>
 8    1  0.3106980E-007  0.9118800E+02  0.7816164E-02  0.1184000E+00
        -11   -1    0    0    0    0  0.00000000000E+00  0.00000000000E+00  0.45593999997E+02  0.45594000000E+02  0.51100000000E-03 0. -1.
         11   -1    0    0    0    0 -0.00000000000E+00 -0.00000000000E+00 -0.45593999997E+02  0.45594000000E+02  0.51100000000E-03 0.  1.
         23    2    1    2    0    0  0.00000000000E+00  0.00000000000E+00 -0.17763568394E-14  0.91188000000E+02  0.91188000000E+02 0.  0.
    9900012    2    3    3    0    0  0.30499708319E+02  0.20250821000E+02 -0.39308411359E+01  0.54367089218E+02  0.40000011491E+02 0.  0.
        -12    1    3    3    0    0 -0.30499708319E+02 -0.20250821000E+02  0.39308411359E+01  0.36820910782E+02  0.00000000000E+00 0.  1.
         11    1    4    4    0    0  0.58219903065E+01 -0.23413035281E+01 -0.14153703005E+02  0.15482395886E+02  0.51100000000E-03 0.  1.
        -11    1    4    4    0    0  0.11445063791E+02  0.12850337106E+02 -0.33992302341E+01  0.17540678874E+02  0.51100000000E-03 0. -1.
         12    1    4    4    0    0  0.13232654222E+02  0.97417874219E+01  0.13622092103E+02  0.21344014459E+02  0.00000000000E+00 0. -1.
</event>
<event>
 8    1  0.3106980E-007  0.9118800E+02  0.7816164E-02  0.1184000E+00
        -11   -1    0    0    0    0  0.00000000000E+00  0.00000000000E+00  0.45593999997E+02  0.45594000000E+02  0.51100000000E-03 0. -1.
         11   -1    0    0    0    0 -0.00000000000E+00 -0.00000000000E+00 -0.45593999997E+02  0.45594000000E+02  0.51100000000E-03 0.  1.
         23    2    1    2    0    0  0.00000000000E+00  0.00000000000E+00 -0.17763568394E-14  0.91188000000E+02  0.91188000000E+02 0.  0.
    9900012    2    3    3    0    0 -0.18088067593E+02 -0.32007168365E+02 -0.20355763296E+01  0.54367074062E+02  0.39999976938E+02 0.  0.
         12    1    3    3    0    0  0.18088067593E+02  0.32007168365E+02  0.20355763296E+01  0.36820925938E+02  0.00000000000E+00 0. -1.
         11    1    4    4    0    0 -0.49222280687E+01  0.24644238994E+01  0.30555335186E+01  0.62958716363E+01  0.51100000000E-03 0. -1.
        -11    1    4    4    0    0  0.53981467907E+01 -0.14333296192E+02  0.84769182500E+01  0.17505470910E+02  0.51100000000E-03 0.  1.
        -12    1    4    4    0    0 -0.18563986315E+02 -0.20138296072E+02 -0.13568028098E+02  0.30565731515E+02  0.00000000000E+00 0.  1.
</event>
<event>
 8    1  0.3106980E-007  0.9118800E+02  0.7816164E-02  0.1184000E+00
        -11   -1    0    0    0    0  0.00000000000E+00  0.00000000000E+00  0.45593999997E+02  0.45594000000E+02  0.51100000000E-03 0.  1.
         11   -1    0    0    0    0 -0.00000000000E+00 -0.00000000000E+00 -0.45593999997E+02  0.45594000000E+02  0.51100000000E-03 0. -1.
         23    2    1    2    0    0  0.00000000000E+00  0.00000000000E+00  0.17763568394E-14  0.91188000000E+02  0.91188000000E+02 0.  0.
    9900012    2    3    3    0    0 -0.33774476493E+02  0.50406921150E+01  0.13771610654E+02  0.54367067104E+02  0.39999961076E+02 0.  0.
        -12    1    3    3    0    0  0.33774476493E+02 -0.50406921150E+01 -0.13771610654E+02  0.36820932896E+02  0.00000000000E+00 0.  1.
         11    1    4    4    0    0 -0.20352749596E+02  0.20158022141E+01 -0.11134367430E+02  0.23286734701E+02  0.51100000000E-03 0. -1.
        -11    1    4    4    0    0  0.17547036474E+01 -0.21956657444E+00  0.77380811611E+01  0.79375748619E+01  0.51100000000E-03 0.  1.
         12    1    4    4    0    0 -0.15176430544E+02  0.32444564753E+01  0.17167896922E+02  0.23142757541E+02  0.00000000000E+00 0. -1.
</event>
<event>
 8    1  0.3106980E-007  0.9118800E+02  0.7816164E-02  0.1184000E+00
        -11   -1    0    0    0    0  0.00000000000E+00  0.00000000000E+00  0.45593999997E+02  0.45594000000E+02  0.51100000000E-03 0. -1.
         11   -1    0    0    0    0 -0.00000000000E+00 -0.00000000000E+00 -0.45593999997E+02  0.45594000000E+02  0.51100000000E-03 0.  1.
         23    2    1    2    0    0  0.00000000000E+00 -0.88817841970E-15  0.71054273576E-14  0.91188000000E+02  0.91188000000E+02 0.  0.
    9900012    2    3    3    0    0  0.89500050298E+01  0.71741174164E+01  0.34988718195E+02  0.54367069110E+02  0.39999965649E+02 0.  0.
        -12    1    3    3    0    0 -0.89500050298E+01 -0.71741174164E+01 -0.34988718195E+02  0.36820930890E+02  0.00000000000E+00 0.  1.
         11    1    4    4    0    0 -0.40148901448E+01  0.45674725404E+01 -0.35350366584E+01  0.70340338868E+01  0.51100000000E-03 0.  1.
        -11    1    4    4    0    0  0.77520722914E+01  0.13401588904E+02  0.22834072868E+02  0.27587897599E+02  0.51100000000E-03 0. -1.
         12    1    4    4    0    0  0.52128228833E+01 -0.10794944028E+02  0.15689681985E+02  0.19745137623E+02  0.00000000000E+00 0. -1.
</event>
<event>
 8    1  0.3106980E-007  0.9118800E+02  0.7816164E-02  0.1184000E+00
        -11   -1    0    0    0    0  0.00000000000E+00  0.00000000000E+00  0.45593999997E+02  0.45594000000E+02  0.51100000000E-03 0. -1.
         11   -1    0    0    0    0 -0.00000000000E+00 -0.00000000000E+00 -0.45593999997E+02  0.45594000000E+02  0.51100000000E-03 0.  1.
         23    2    1    2    0    0  0.00000000000E+00 -0.35527136788E-14  0.17763568394E-14  0.91188000000E+02  0.91188000000E+02 0.  0.
    9900012    2    3    3    0    0  0.31599027895E+02  0.18080643989E+02 -0.55110488940E+01  0.54367083242E+02  0.39999997868E+02 0.  0.
         12    1    3    3    0    0 -0.31599027895E+02 -0.18080643989E+02  0.55110488940E+01  0.36820916758E+02  0.00000000000E+00 0. -1.
         11    1    4    4    0    0  0.30942339081E+02  0.69006523278E+01 -0.73809088680E+01  0.32550348175E+02  0.51100000000E-03 0. -1.
        -11    1    4    4    0    0 -0.41401110365E+01  0.70844428552E+01 -0.71003265837E+01  0.10851013216E+02  0.51100000000E-03 0.  1.
        -12    1    4    4    0    0  0.47967998499E+01  0.40955488064E+01  0.89701865577E+01  0.10965721851E+02  0.00000000000E+00 0.  1.
</event>
<event>
 8    1  0.3106980E-007  0.9118800E+02  0.7816164E-02  0.1184000E+00
        -11   -1    0    0    0    0  0.00000000000E+00  0.00000000000E+00  0.45593999997E+02  0.45594000000E+02  0.51100000000E-03 0.  1.
         11   -1    0    0    0    0 -0.00000000000E+00 -0.00000000000E+00 -0.45593999997E+02  0.45594000000E+02  0.51100000000E-03 0. -1.
         23    2    1    2    0    0  0.00000000000E+00 -0.26645352591E-14  0.00000000000E+00  0.91188000000E+02  0.91188000000E+02 0.  0.
    9900012    2    3    3    0    0  0.22012454958E+02 -0.53372691763E+01  0.29030117984E+02  0.54367049907E+02  0.39999921873E+02 0.  0.
         12    1    3    3    0    0 -0.22012454958E+02  0.53372691763E+01 -0.29030117984E+02  0.36820950093E+02  0.00000000000E+00 0. -1.
         11    1    4    4    0    0  0.15801980838E+01  0.10720355837E+02  0.19563686174E+01  0.11011377465E+02  0.51100000000E-03 0. -1.
        -11    1    4    4    0    0  0.12317423342E+02  0.28261935368E+01  0.62562309612E+01  0.14101301848E+02  0.51100000000E-03 0.  1.
        -12    1    4    4    0    0  0.81148335324E+01 -0.18883818550E+02  0.20817518406E+02  0.29254370594E+02  0.00000000000E+00 0.  1.
</event>
<event>
 8    1  0.3106980E-007  0.9118800E+02  0.7816164E-02  0.1184000E+00
        -11   -1    0    0    0    0  0.00000000000E+00  0.00000000000E+00  0.45593999997E+02  0.45594000000E+02  0.51100000000E-03 0.  1.
         11   -1    0    0    0    0 -0.00000000000E+00 -0.00000000000E+00 -0.45593999997E+02  0.45594000000E+02  0.51100000000E-03 0. -1.
         23    2    1    2    0    0 -0.35527136788E-14  0.17763568394E-14  0.00000000000E+00  0.91188000000E+02  0.91188000000E+02 0.  0.
    9900012    2    3    3    0    0 -0.19927611799E+02  0.14439737543E+02  0.27389126257E+02  0.54367082447E+02  0.39999996055E+02 0.  0.
         12    1    3    3    0    0  0.19927611799E+02 -0.14439737543E+02 -0.27389126257E+02  0.36820917553E+02  0.00000000000E+00 0. -1.
         11    1    4    4    0    0  0.30710263998E+01 -0.21762054287E+01  0.74366863536E+00  0.38366804032E+01  0.51100000000E-03 0. -1.
        -11    1    4    4    0    0 -0.15384386256E+02 -0.60257098242E+01  0.19580213221E+02  0.25619782774E+02  0.51100000000E-03 0.  1.
        -12    1    4    4    0    0 -0.76142519432E+01  0.22641652796E+02  0.70652444007E+01  0.24910619270E+02  0.00000000000E+00 0.  1.
</event>
<event>
 8    1  0.3106980E-007  0.9118800E+02  0.7816164E-02  0.1184000E+00
        -11   -1    0    0    0    0  0.00000000000E+00  0.00000000000E+00  0.45593999997E+02  0.45594000000E+02  0.51100000000E-03 0.  1.
         11   -1    0    0    0    0 -0.00000000000E+00 -0.00000000000E+00 -0.45593999997E+02  0.45594000000E+02  0.51100000000E-03 0. -1.
         23    2    1    2    0    0  0.88817841970E-15  0.88817841970E-15  0.71054273576E-14  0.91188000000E+02  0.91188000000E+02 0.  0.
    9900012    2    3    3    0    0 -0.65637584463E+01  0.17632573498E+01 -0.36188280999E+02  0.54367032019E+02  0.39999881093E+02 0.  0.
        -12    1    3    3    0    0  0.65637584463E+01 -0.17632573498E+01  0.36188280999E+02  0.36820967981E+02  0.00000000000E+00 0.  1.
         11    1    4    4    0    0  0.43311630398E+01  0.11564396754E+02 -0.26808507336E+00  0.12351765681E+02  0.51100000000E-03 0. -1.
        -11    1    4    4    0    0 -0.70834447324E+01 -0.98922929162E+01 -0.36202439105E+02  0.38192266832E+02  0.51100000000E-03 0.  1.
        -12    1    4    4    0    0 -0.38114767538E+01  0.91153512012E-01  0.28224317900E+00  0.38229995056E+01  0.00000000000E+00 0.  1.
</event>
<event>
 8    1  0.3106980E-007  0.9118800E+02  0.7816164E-02  0.1184000E+00
        -11   -1    0    0    0    0  0.00000000000E+00  0.00000000000E+00  0.45593999997E+02  0.45594000000E+02  0.51100000000E-03 0.  1.
         11   -1    0    0    0    0 -0.00000000000E+00 -0.00000000000E+00 -0.45593999997E+02  0.45594000000E+02  0.51100000000E-03 0. -1.
         23    2    1    2    0    0  0.17763568394E-14 -0.35527136788E-14  0.35527136788E-14  0.91188000000E+02  0.91188000000E+02 0.  0.
    9900012    2    3    3    0    0 -0.55988633293E+01  0.25295183089E+02 -0.26164621480E+02  0.54367068789E+02  0.39999964918E+02 0.  0.
         12    1    3    3    0    0  0.55988633293E+01 -0.25295183089E+02  0.26164621480E+02  0.36820931211E+02  0.00000000000E+00 0. -1.
         11    1    4    4    0    0  0.44030748206E+01 -0.89737614432E+01 -0.37629598914E+00  0.10002852655E+02  0.51100000000E-03 0. -1.
        -11    1    4    4    0    0 -0.65794189485E+01  0.27334331720E+02 -0.17968969566E+02  0.33366724619E+02  0.51100000000E-03 0.  1.
        -12    1    4    4    0    0 -0.34225192015E+01  0.69346128116E+01 -0.78193559244E+01  0.10997491514E+02  0.00000000000E+00 0.  1.
</event>
<event>
 8    1  0.3106980E-007  0.9118800E+02  0.7816164E-02  0.1184000E+00
        -11   -1    0    0    0    0  0.00000000000E+00  0.00000000000E+00  0.45593999997E+02  0.45594000000E+02  0.51100000000E-03 0. -1.
         11   -1    0    0    0    0 -0.00000000000E+00 -0.00000000000E+00 -0.45593999997E+02  0.45594000000E+02  0.51100000000E-03 0.  1.
         23    2    1    2    0    0 -0.17763568394E-14  0.35527136788E-14 -0.71054273576E-14  0.91188000000E+02  0.91188000000E+02 0.  0.
    9900012    2    3    3    0    0 -0.15550006268E+02  0.17632918554E+02 -0.28338253435E+02  0.54367093990E+02  0.40000022369E+02 0.  0.
         12    1    3    3    0    0  0.15550006268E+02 -0.17632918554E+02  0.28338253435E+02  0.36820906010E+02  0.00000000000E+00 0. -1.
         11    1    4    4    0    0 -0.52638559208E+01 -0.11773249538E+02 -0.32481281323E+01  0.13299169917E+02  0.51100000000E-03 0. -1.
        -11    1    4    4    0    0 -0.36827948200E+00  0.98176765609E+01 -0.11988403209E+02  0.15499813373E+02  0.51100000000E-03 0.  1.
         12    1    4    4    0    0 -0.99178708654E+01  0.19588491531E+02 -0.13101722094E+02  0.25568110701E+02  0.00000000000E+00 0. -1.
</event>
<event>
 8    1  0.3106980E-007  0.9118800E+02  0.7816164E-02  0.1184000E+00
        -11   -1    0    0    0    0  0.00000000000E+00  0.00000000000E+00  0.45593999997E+02  0.45594000000E+02  0.51100000000E-03 0. -1.
         11   -1    0    0    0    0 -0.00000000000E+00 -0.00000000000E+00 -0.45593999997E+02  0.45594000000E+02  0.51100000000E-03 0.  1.
         23    2    1    2    0    0 -0.35527136788E-14  0.71054273576E-14 -0.35527136788E-14  0.91188000000E+02  0.91188000000E+02 0.  0.
    9900012    2    3    3    0    0  0.17991467333E+02 -0.18165879108E+02  0.26496907953E+02  0.54367106588E+02  0.40000051089E+02 0.  0.
        -12    1    3    3    0    0 -0.17991467333E+02  0.18165879108E+02 -0.26496907953E+02  0.36820893412E+02  0.00000000000E+00 0.  1.
         11    1    4    4    0    0  0.10880228800E+02 -0.47988151444E+00  0.21734627979E+02  0.24310568045E+02  0.51100000000E-03 0.  1.
        -11    1    4    4    0    0  0.25716832677E+01 -0.22115768173E+02  0.23889781392E+00  0.22266069009E+02  0.51100000000E-03 0. -1.
         12    1    4    4    0    0  0.45395552652E+01  0.44297705789E+01  0.45233821603E+01  0.77904695337E+01  0.00000000000E+00 0. -1.
</event>
<event>
 8    1  0.3106980E-007  0.9118800E+02  0.7816164E-02  0.1184000E+00
        -11   -1    0    0    0    0  0.00000000000E+00  0.00000000000E+00  0.45593999997E+02  0.45594000000E+02  0.51100000000E-03 0.  1.
         11   -1    0    0    0    0 -0.00000000000E+00 -0.00000000000E+00 -0.45593999997E+02  0.45594000000E+02  0.51100000000E-03 0. -1.
         23    2    1    2    0    0  0.77715611724E-15  0.71054273576E-14  0.17763568394E-14  0.91188000000E+02  0.91188000000E+02 0.  0.
    9900012    2    3    3    0    0 -0.92440656838E+00  0.36586924292E+02  0.40401403489E+01  0.54367078085E+02  0.39999986110E+02 0.  0.
         12    1    3    3    0    0  0.92440656838E+00 -0.36586924292E+02 -0.40401403489E+01  0.36820921915E+02  0.00000000000E+00 0. -1.
         11    1    4    4    0    0  0.12063347472E+02  0.68104076395E+01  0.65425449275E+01  0.15320277375E+02  0.51100000000E-03 0. -1.
        -11    1    4    4    0    0 -0.47494015836E+01  0.24763915947E+02  0.62996629826E+01  0.25990269379E+02  0.51100000000E-03 0.  1.
         12    1    4    4    0    0 -0.82383524571E+01  0.50126007059E+01 -0.88020675613E+01  0.13056531331E+02  0.00000000000E+00 0. -1.
</event>
<event>
 8    1  0.3106980E-007  0.9118800E+02  0.7816164E-02  0.1184000E+00
        -11   -1    0    0    0    0  0.00000000000E+00  0.00000000000E+00  0.45593999997E+02  0.45594000000E+02  0.51100000000E-03 0.  1.
         11   -1    0    0    0    0 -0.00000000000E+00 -0.00000000000E+00 -0.45593999997E+02  0.45594000000E+02  0.51100000000E-03 0. -1.
         23    2    1    2    0    0  0.00000000000E+00  0.00000000000E+00  0.35527136788E-14  0.91188000000E+02  0.91188000000E+02 0.  0.
    9900012    2    3    3    0    0 -0.18680050350E+02  0.21464513526E+02 -0.23368981613E+02  0.54367096649E+02  0.40000028430E+02 0.  0.
        -12    1    3    3    0    0  0.18680050350E+02 -0.21464513526E+02  0.23368981613E+02  0.36820903351E+02  0.00000000000E+00 0.  1.
         11    1    4    4    0    0 -0.19012575350E+02  0.74664365477E+01 -0.64773392031E+01  0.21428523504E+02  0.51100000000E-03 0. -1.
        -11    1    4    4    0    0 -0.32925814625E+00  0.19652265404E+02 -0.18532197989E+02  0.27014113144E+02  0.51100000000E-03 0.  1.
        -12    1    4    4    0    0  0.66178314588E+00 -0.56541884257E+01  0.16405555793E+01  0.59244600002E+01  0.00000000000E+00 0.  1.
</event>
<event>
 8    1  0.3106980E-007  0.9118800E+02  0.7816164E-02  0.1184000E+00
        -11   -1    0    0    0    0  0.00000000000E+00  0.00000000000E+00  0.45593999997E+02  0.45594000000E+02  0.51100000000E-03 0.  1.
         11   -1    0    0    0    0 -0.00000000000E+00 -0.00000000000E+00 -0.45593999997E+02  0.45594000000E+02  0.51100000000E-03 0. -1.
         23    2    1    2    0    0 -0.44408920985E-15  0.00000000000E+00  0.00000000000E+00  0.91188000000E+02  0.91188000000E+02 0.  0.
    9900012    2    3    3    0    0  0.28086101647E+01 -0.35349388093E+02 -0.99152467597E+01  0.54367086813E+02  0.40000006008E+02 0.  0.
        -12    1    3    3    0    0 -0.28086101647E+01  0.35349388093E+02  0.99152467597E+01  0.36820913187E+02  0.00000000000E+00 0.  1.
         11    1    4    4    0    0  0.54395056728E+00 -0.11679355391E+02  0.11487003568E+02  0.16390682591E+02  0.51100000000E-03 0. -1.
        -11    1    4    4    0    0  0.54732073303E+01  0.16014879796E+01 -0.23610981130E+01  0.61721590055E+01  0.51100000000E-03 0.  1.
         12    1    4    4    0    0 -0.32085477328E+01 -0.25271520682E+02 -0.19041152215E+02  0.31804245217E+02  0.00000000000E+00 0. -1.
</event>
<event>
 8    1  0.3106980E-007  0.9118800E+02  0.7816164E-02  0.1184000E+00
        -11   -1    0    0    0    0  0.00000000000E+00  0.00000000000E+00  0.45593999997E+02  0.45594000000E+02  0.51100000000E-03 0.  1.
         11   -1    0    0    0    0 -0.00000000000E+00 -0.00000000000E+00 -0.45593999997E+02  0.45594000000E+02  0.51100000000E-03 0. -1.
         23    2    1    2    0    0  0.44408920985E-15 -0.35527136788E-14  0.00000000000E+00  0.91188000000E+02  0.91188000000E+02 0.  0.
    9900012    2    3    3    0    0  0.22937167685E+01  0.29531612763E+02 -0.21872410852E+02  0.54367086846E+02  0.40000006083E+02 0.  0.
        -12    1    3    3    0    0 -0.22937167685E+01 -0.29531612763E+02  0.21872410852E+02  0.36820913154E+02  0.00000000000E+00 0.  1.
         11    1    4    4    0    0  0.10766353973E+02  0.31597831800E+02 -0.20826428606E+02  0.39345615780E+02  0.51100000000E-03 0. -1.
        -11    1    4    4    0    0 -0.91820532150E+01 -0.59823893936E+01 -0.24470622931E+00  0.10961704498E+02  0.51100000000E-03 0.  1.
        -12    1    4    4    0    0  0.70941601012E+00  0.39161703565E+01 -0.80127601731E+00  0.40597665687E+01  0.00000000000E+00 0.  1.
</event>
<event>
 8    1  0.3106980E-007  0.9118800E+02  0.7816164E-02  0.1184000E+00
        -11   -1    0    0    0    0  0.00000000000E+00  0.00000000000E+00  0.45593999997E+02  0.45594000000E+02  0.51100000000E-03 0.  1.
         11   -1    0    0    0    0 -0.00000000000E+00 -0.00000000000E+00 -0.45593999997E+02  0.45594000000E+02  0.51100000000E-03 0. -1.
         23    2    1    2    0    0  0.00000000000E+00  0.00000000000E+00 -0.35527136788E-14  0.91188000000E+02  0.91188000000E+02 0.  0.
    9900012    2    3    3    0    0 -0.26840578307E+02 -0.17063816595E+02 -0.18552319647E+02  0.54367095002E+02  0.40000024675E+02 0.  0.
        -12    1    3    3    0    0  0.26840578307E+02  0.17063816595E+02  0.18552319647E+02  0.36820904998E+02  0.00000000000E+00 0.  1.
         11    1    4    4    0    0 -0.15104623234E+02 -0.92323536102E+01 -0.86627603983E-01  0.17702923511E+02  0.51100000000E-03 0.  1.
        -11    1    4    4    0    0 -0.66182554465E+01  0.21080673955E+01 -0.23425584617E+02  0.24433650325E+02  0.51100000000E-03 0. -1.
         12    1    4    4    0    0 -0.51176996260E+01 -0.99395303803E+01  0.49598925740E+01  0.12230521166E+02  0.00000000000E+00 0. -1.
</event>
<event>
 8    1  0.3106980E-007  0.9118800E+02  0.7816164E-02  0.1184000E+00
        -11   -1    0    0    0    0  0.00000000000E+00  0.00000000000E+00  0.45593999997E+02  0.45594000000E+02  0.51100000000E-03 0. -1.
         11   -1    0    0    0    0 -0.00000000000E+00 -0.00000000000E+00 -0.45593999997E+02  0.45594000000E+02  0.51100000000E-03 0.  1.
         23    2    1    2    0    0 -0.17763568394E-14  0.00000000000E+00  0.35527136788E-14  0.91188000000E+02  0.91188000000E+02 0.  0.
    9900012    2    3    3    0    0  0.77530455275E+01 -0.20852979375E+02  0.29339783435E+02  0.54367090780E+02  0.40000015052E+02 0.  0.
        -12    1    3    3    0    0 -0.77530455275E+01  0.20852979375E+02 -0.29339783435E+02  0.36820909220E+02  0.00000000000E+00 0.  1.
         11    1    4    4    0    0 -0.15126632418E+02 -0.10415893537E+02  0.55515859848E+01  0.19186608708E+02  0.51100000000E-03 0. -1.
        -11    1    4    4    0    0  0.29381661311E+01 -0.33297136180E+01  0.22432813262E+01  0.49751506873E+01  0.51100000000E-03 0.  1.
        -12    1    4    4    0    0  0.19941511815E+02 -0.71073722199E+01  0.21544916124E+02  0.30205331385E+02  0.00000000000E+00 0.  1.
</event>
<event>
 8    1  0.3106980E-007  0.9118800E+02  0.7816164E-02  0.1184000E+00
        -11   -1    0    0    0    0  0.00000000000E+00  0.00000000000E+00  0.45593999997E+02  0.45594000000E+02  0.51100000000E-03 0.  1.
         11   -1    0    0    0    0 -0.00000000000E+00 -0.00000000000E+00 -0.45593999997E+02  0.45594000000E+02  0.51100000000E-03 0. -1.
         23    2    1    2    0    0  0.44408920985E-15 -0.35527136788E-14 -0.14210854715E-13  0.91188000000E+02  0.91188000000E+02 0.  0.
    9900012    2    3    3    0    0 -0.19382422651E+01  0.13294999429E+02  0.34282125832E+02  0.54367109945E+02  0.40000058741E+02 0.  0.
         12    1    3    3    0    0  0.19382422651E+01 -0.13294999429E+02 -0.34282125832E+02  0.36820890055E+02  0.00000000000E+00 0. -1.
         11    1    4    4    0    0  0.94118612473E+01  0.97499071919E+01  0.33917964023E+02  0.36524951829E+02  0.51100000000E-03 0. -1.
        -11    1    4    4    0    0 -0.12259110024E+02  0.50997931202E+01  0.39303128918E+01  0.13847058465E+02  0.51100000000E-03 0.  1.
        -12    1    4    4    0    0  0.90900651170E+00 -0.15547008834E+01 -0.35661510824E+01  0.39950996505E+01  0.00000000000E+00 0.  1.
</event>
<event>
 8    1  0.3106980E-007  0.9118800E+02  0.7816164E-02  0.1184000E+00
        -11   -1    0    0    0    0  0.00000000000E+00  0.00000000000E+00  0.45593999997E+02  0.45594000000E+02  0.51100000000E-03 0.  1.
         11   -1    0    0    0    0 -0.00000000000E+00 -0.00000000000E+00 -0.45593999997E+02  0.45594000000E+02  0.51100000000E-03 0. -1.
         23    2    1    2    0    0  0.00000000000E+00 -0.53290705182E-14  0.00000000000E+00  0.91188000000E+02  0.91188000000E+02 0.  0.
    9900012    2    3    3    0    0 -0.27143679624E+02 -0.13720920807E+02  0.20754218898E+02  0.54367073703E+02  0.39999976120E+02 0.  0.
         12    1    3    3    0    0  0.27143679624E+02  0.13720920807E+02 -0.20754218898E+02  0.36820926297E+02  0.00000000000E+00 0. -1.
         11    1    4    4    0    0 -0.21636775852E+02 -0.24488200006E+02  0.21974552032E+02  0.39378965782E+02  0.51100000000E-03 0.  1.
        -11    1    4    4    0    0 -0.33904782349E+01  0.25534152597E+01 -0.42256651642E+01  0.59892836375E+01  0.51100000000E-03 0. -1.
        -12    1    4    4    0    0 -0.21164255369E+01  0.82138639393E+01  0.30053320300E+01  0.89988242830E+01  0.00000000000E+00 0.  1.
</event>
<event>
 8    1  0.3106980E-007  0.9118800E+02  0.7816164E-02  0.1184000E+00
        -11   -1    0    0    0    0  0.00000000000E+00  0.00000000000E+00  0.45593999997E+02  0.45594000000E+02  0.51100000000E-03 0.  1.
         11   -1    0    0    0    0 -0.00000000000E+00 -0.00000000000E+00 -0.45593999997E+02  0.45594000000E+02  0.51100000000E-03 0. -1.
         23    2    1    2    0    0  0.00000000000E+00  0.00000000000E+00 -0.88817841970E-15  0.91188000000E+02  0.91188000000E+02 0.  0.
    9900012    2    3    3    0    0  0.35532432744E+02 -0.66964761002E+01  0.69558264507E+01  0.54367080804E+02  0.39999992308E+02 0.  0.
        -12    1    3    3    0    0 -0.35532432744E+02  0.66964761002E+01 -0.69558264507E+01  0.36820919196E+02  0.00000000000E+00 0.  1.
         11    1    4    4    0    0  0.15100074064E+02 -0.77772486114E+01 -0.13094635324E+02  0.21446848422E+02  0.51100000000E-03 0. -1.
        -11    1    4    4    0    0  0.76537407265E+01  0.78652577483E+01  0.12382205188E+02  0.16545725495E+02  0.51100000000E-03 0.  1.
         12    1    4    4    0    0  0.12778617953E+02 -0.67844852371E+01  0.76682565864E+01  0.16374506887E+02  0.00000000000E+00 0. -1.
</event>
<event>
 8    1  0.3106980E-007  0.9118800E+02  0.7816164E-02  0.1184000E+00
        -11   -1    0    0    0    0  0.00000000000E+00  0.00000000000E+00  0.45593999997E+02  0.45594000000E+02  0.51100000000E-03 0.  1.
         11   -1    0    0    0    0 -0.00000000000E+00 -0.00000000000E+00 -0.45593999997E+02  0.45594000000E+02  0.51100000000E-03 0. -1.
         23    2    1    2    0    0  0.88817841970E-15  0.71054273576E-14  0.00000000000E+00  0.91188000000E+02  0.91188000000E+02 0.  0.
    9900012    2    3    3    0    0  0.57986322111E+01 -0.36327256254E+02  0.15768057997E+01  0.54367082045E+02  0.39999995139E+02 0.  0.
         12    1    3    3    0    0 -0.57986322111E+01  0.36327256254E+02 -0.15768057997E+01  0.36820917955E+02  0.00000000000E+00 0. -1.
         11    1    4    4    0    0  0.53250589861E+01 -0.11046028889E+01 -0.34786539655E+00  0.54495331307E+01  0.51100000000E-03 0. -1.
        -11    1    4    4    0    0  0.10122001750E+02 -0.36622191104E+02 -0.27711836564E+01  0.38096184320E+02  0.51100000000E-03 0.  1.
        -12    1    4    4    0    0 -0.96484285250E+01  0.13995377382E+01  0.46958548527E+01  0.10821364594E+02  0.00000000000E+00 0.  1.
</event>
<event>
 8    1  0.3106980E-007  0.9118800E+02  0.7816164E-02  0.1184000E+00
        -11   -1    0    0    0    0  0.00000000000E+00  0.00000000000E+00  0.45593999997E+02  0.45594000000E+02  0.51100000000E-03 0.  1.
         11   -1    0    0    0    0 -0.00000000000E+00 -0.00000000000E+00 -0.45593999997E+02  0.45594000000E+02  0.51100000000E-03 0. -1.
         23    2    1    2    0    0  0.00000000000E+00  0.00000000000E+00 -0.17763568394E-14  0.91188000000E+02  0.91188000000E+02 0.  0.
    9900012    2    3    3    0    0  0.14539203293E+02 -0.32347138399E+02 -0.99016585799E+01  0.54367236325E+02  0.40000346848E+02 0.  0.
        -12    1    3    3    0    0 -0.14539203293E+02  0.32347138399E+02  0.99016585799E+01  0.36820763675E+02  0.00000000000E+00 0.  1.
         11    1    4    4    0    0  0.14368913630E+02 -0.12208586994E+02  0.51441240884E+01  0.19544239259E+02  0.51100000000E-03 0. -1.
        -11    1    4    4    0    0 -0.25110124263E+01 -0.99162220887E+01 -0.20514767328E+02  0.22923619319E+02  0.51100000000E-03 0.  1.
        -12    1    4    4    0    0  0.26813020889E+01 -0.10222329317E+02  0.54689846595E+01  0.11899377747E+02  0.00000000000E+00 0.  1.
</event>
<event>
 8    1  0.3106980E-007  0.9118800E+02  0.7816164E-02  0.1184000E+00
        -11   -1    0    0    0    0  0.00000000000E+00  0.00000000000E+00  0.45593999997E+02  0.45594000000E+02  0.51100000000E-03 0.  1.
         11   -1    0    0    0    0 -0.00000000000E+00 -0.00000000000E+00 -0.45593999997E+02  0.45594000000E+02  0.51100000000E-03 0. -1.
         23    2    1    2    0    0  0.00000000000E+00  0.00000000000E+00  0.00000000000E+00  0.91188000000E+02  0.91188000000E+02 0.  0.
    9900012    2    3    3    0    0  0.10962296246E+02 -0.17767569168E+02  0.30330184833E+02  0.54367101517E+02  0.40000039529E+02 0.  0.
         12    1    3    3    0    0 -0.10962296246E+02  0.17767569168E+02 -0.30330184833E+02  0.36820898483E+02  0.00000000000E+00 0. -1.
         11    1    4    4    0    0 -0.18719071655E+00  0.26839193579E-01 -0.17288486007E+00  0.25622283785E+00  0.51100000000E-03 0.  1.
        -11    1    4    4    0    0 -0.11514459336E+02 -0.10963782140E+02  0.51687163619E+00  0.15907685223E+02  0.51100000000E-03 0. -1.
        -12    1    4    4    0    0  0.22663946298E+02 -0.68306262216E+01  0.29986198056E+02  0.38203193456E+02  0.00000000000E+00 0.  1.
</event>
<event>
 8    1  0.3106980E-007  0.9118800E+02  0.7816164E-02  0.1184000E+00
        -11   -1    0    0    0    0  0.00000000000E+00  0.00000000000E+00  0.45593999997E+02  0.45594000000E+02  0.51100000000E-03 0.  1.
         11   -1    0    0    0    0 -0.00000000000E+00 -0.00000000000E+00 -0.45593999997E+02  0.45594000000E+02  0.51100000000E-03 0. -1.
         23    2    1    2    0    0  0.00000000000E+00  0.00000000000E+00  0.88817841970E-15  0.91188000000E+02  0.91188000000E+02 0.  0.
    9900012    2    3    3    0    0 -0.17340426179E+02  0.32080243608E+02 -0.50938649408E+01  0.54367083796E+02  0.39999999131E+02 0.  0.
        -12    1    3    3    0    0  0.17340426179E+02 -0.32080243608E+02  0.50938649408E+01  0.36820916204E+02  0.00000000000E+00 0.  1.
         11    1    4    4    0    0  0.21148975520E+01  0.15345253531E+02 -0.35479914487E+00  0.15494369309E+02  0.51100000000E-03 0. -1.
        -11    1    4    4    0    0 -0.10531271766E+02 -0.19089734721E+01 -0.12801523404E+02  0.16686247824E+02  0.51100000000E-03 0.  1.
        -12    1    4    4    0    0 -0.89240519652E+01  0.18643963550E+02  0.80624576084E+01  0.22186466663E+02  0.00000000000E+00 0.  1.
</event>
<event>
 8    1  0.3106980E-007  0.9118800E+02  0.7816164E-02  0.1184000E+00
        -11   -1    0    0    0    0  0.00000000000E+00  0.00000000000E+00  0.45593999997E+02  0.45594000000E+02  0.51100000000E-03 0. -1.
         11   -1    0    0    0    0 -0.00000000000E+00 -0.00000000000E+00 -0.45593999997E+02  0.45594000000E+02  0.51100000000E-03 0.  1.
         23    2    1    2    0    0 -0.17763568394E-14  0.35527136788E-14 -0.71054273576E-14  0.91188000000E+02  0.91188000000E+02 0.  0.
    9900012    2    3    3    0    0 -0.12714449655E+02  0.25874888363E+02 -0.22904436526E+02  0.54367078088E+02  0.39999986117E+02 0.  0.
         12    1    3    3    0    0  0.12714449655E+02 -0.25874888363E+02  0.22904436526E+02  0.36820921912E+02  0.00000000000E+00 0. -1.
         11    1    4    4    0    0  0.40027733590E+01 -0.66364614303E+01 -0.10935491380E+02  0.13403349837E+02  0.51100000000E-03 0. -1.
        -11    1    4    4    0    0 -0.40054982696E+01  0.13517122896E+01 -0.50873175939E+01  0.66145251578E+01  0.51100000000E-03 0.  1.
        -12    1    4    4    0    0 -0.12711724745E+02  0.31159637504E+02 -0.68816275528E+01  0.34349203093E+02  0.00000000000E+00 0.  1.
</event>
<event>
 8    1  0.3106980E-007  0.9118800E+02  0.7816164E-02  0.1184000E+00
        -11   -1    0    0    0    0  0.00000000000E+00  0.00000000000E+00  0.45593999997E+02  0.45594000000E+02  0.51100000000E-03 0.  1.
         11   -1    0    0    0    0 -0.00000000000E+00 -0.00000000000E+00 -0.45593999997E+02  0.45594000000E+02  0.51100000000E-03 0. -1.
         23    2    1    2    0    0  0.22204460493E-15 -0.35527136788E-14  0.00000000000E+00  0.91188000000E+02  0.91188000000E+02 0.  0.
    9900012    2    3    3    0    0 -0.13031443288E+01 -0.17663635945E+02 -0.32281186763E+02  0.54367119527E+02  0.40000080585E+02 0.  0.
        -12    1    3    3    0    0  0.13031443288E+01  0.17663635945E+02  0.32281186763E+02  0.36820880473E+02  0.00000000000E+00 0.  1.
         11    1    4    4    0    0 -0.31957121922E+01 -0.16238002724E+02 -0.25572871882E+02  0.30460746633E+02  0.51100000000E-03 0. -1.
        -11    1    4    4    0    0  0.11918337898E+02 -0.35651027197E+01 -0.19041789070E+01  0.12585016218E+02  0.51100000000E-03 0.  1.
         12    1    4    4    0    0 -0.10025770034E+02  0.21394694983E+01 -0.48041359742E+01  0.11321356675E+02  0.00000000000E+00 0. -1.
</event>
<event>
 8    1  0.3106980E-007  0.9118800E+02  0.7816164E-02  0.1184000E+00
        -11   -1    0    0    0    0  0.00000000000E+00  0.00000000000E+00  0.45593999997E+02  0.45594000000E+02  0.51100000000E-03 0.  1.
         11   -1    0    0    0    0 -0.00000000000E+00 -0.00000000000E+00 -0.45593999997E+02  0.45594000000E+02  0.51100000000E-03 0. -1.
         23    2    1    2    0    0  0.00000000000E+00 -0.35527136788E-14  0.00000000000E+00  0.91188000000E+02  0.91188000000E+02 0.  0.
    9900012    2    3    3    0    0  0.14718974707E+02  0.31092355498E+02  0.13129978189E+02  0.54367094062E+02  0.40000022533E+02 0.  0.
         12    1    3    3    0    0 -0.14718974707E+02 -0.31092355498E+02 -0.13129978189E+02  0.36820905938E+02  0.00000000000E+00 0. -1.
         11    1    4    4    0    0  0.12126990188E+02  0.34805900509E+01  0.31337359283E+01  0.12999949971E+02  0.51100000000E-03 0. -1.
        -11    1    4    4    0    0  0.15154004391E+02  0.11170512395E+02  0.11406345289E+01  0.18860679830E+02  0.51100000000E-03 0.  1.
        -12    1    4    4    0    0 -0.12562019873E+02  0.16441253053E+02  0.88556077314E+01  0.22506464261E+02  0.00000000000E+00 0.  1.
</event>
<event>
 8    1  0.3106980E-007  0.9118800E+02  0.7816164E-02  0.1184000E+00
        -11   -1    0    0    0    0  0.00000000000E+00  0.00000000000E+00  0.45593999997E+02  0.45594000000E+02  0.51100000000E-03 0. -1.
         11   -1    0    0    0    0 -0.00000000000E+00 -0.00000000000E+00 -0.45593999997E+02  0.45594000000E+02  0.51100000000E-03 0.  1.
         23    2    1    2    0    0  0.00000000000E+00 -0.88817841970E-15 -0.71054273576E-14  0.91188000000E+02  0.91188000000E+02 0.  0.
    9900012    2    3    3    0    0  0.11587619546E+02 -0.26831085638E+01 -0.34846918927E+02  0.54367085332E+02  0.40000002631E+02 0.  0.
         12    1    3    3    0    0 -0.11587619546E+02  0.26831085638E+01  0.34846918927E+02  0.36820914668E+02  0.00000000000E+00 0. -1.
         11    1    4    4    0    0  0.32040360846E+01  0.71931473508E+01 -0.24970155291E+02  0.26182358021E+02  0.51100000000E-03 0.  1.
        -11    1    4    4    0    0  0.15098092118E+02 -0.11905057886E+02 -0.58531564689E+01  0.20098314103E+02  0.51100000000E-03 0. -1.
         12    1    4    4    0    0 -0.67145086564E+01  0.20288019709E+01 -0.40236071674E+01  0.80864132081E+01  0.00000000000E+00 0. -1.
</event>
<event>
 8    1  0.3106980E-007  0.9118800E+02  0.7816164E-02  0.1184000E+00
        -11   -1    0    0    0    0  0.00000000000E+00  0.00000000000E+00  0.45593999997E+02  0.45594000000E+02  0.51100000000E-03 0. -1.
         11   -1    0    0    0    0 -0.00000000000E+00 -0.00000000000E+00 -0.45593999997E+02  0.45594000000E+02  0.51100000000E-03 0.  1.
         23    2    1    2    0    0 -0.35527136788E-14  0.11102230246E-15  0.35527136788E-14  0.91188000000E+02  0.91188000000E+02 0.  0.
    9900012    2    3    3    0    0  0.29505987095E+02  0.43514257339E+00 -0.22022443826E+02  0.54367073130E+02  0.39999974814E+02 0.  0.
         12    1    3    3    0    0 -0.29505987095E+02 -0.43514257339E+00  0.22022443826E+02  0.36820926870E+02  0.00000000000E+00 0. -1.
         11    1    4    4    0    0  0.25459219110E+02  0.28252485161E+01 -0.21974089880E+02  0.33749288780E+02  0.51100000000E-03 0.  1.
        -11    1    4    4    0    0 -0.59411727548E+01  0.35045824647E+00  0.61413938757E+01  0.85520216138E+01  0.51100000000E-03 0. -1.
         12    1    4    4    0    0  0.99879407402E+01 -0.27405641892E+01 -0.61897478212E+01  0.12065762736E+02  0.00000000000E+00 0. -1.
</event>
<event>
 8    1  0.3106980E-007  0.9118800E+02  0.7816164E-02  0.1184000E+00
        -11   -1    0    0    0    0  0.00000000000E+00  0.00000000000E+00  0.45593999997E+02  0.45594000000E+02  0.51100000000E-03 0. -1.
         11   -1    0    0    0    0 -0.00000000000E+00 -0.00000000000E+00 -0.45593999997E+02  0.45594000000E+02  0.51100000000E-03 0.  1.
         23    2    1    2    0    0  0.00000000000E+00  0.00000000000E+00  0.00000000000E+00  0.91188000000E+02  0.91188000000E+02 0.  0.
    9900012    2    3    3    0    0 -0.14631841427E+02 -0.32159081662E+02  0.10367369471E+02  0.54367086559E+02  0.40000005429E+02 0.  0.
        -12    1    3    3    0    0  0.14631841427E+02  0.32159081662E+02 -0.10367369471E+02  0.36820913441E+02  0.00000000000E+00 0.  1.
         11    1    4    4    0    0 -0.12075098196E+01 -0.40165471723E+01  0.18039586069E+02  0.18520728845E+02  0.51100000000E-03 0. -1.
        -11    1    4    4    0    0  0.25175691864E+01 -0.17797093739E+00  0.63447026411E+00  0.26023798800E+01  0.51100000000E-03 0.  1.
        -12    1    4    4    0    0 -0.15941900794E+02 -0.27964563552E+02 -0.83066868627E+01  0.33243977834E+02  0.00000000000E+00 0.  1.
</event>
<event>
 8    1  0.3106980E-007  0.9118800E+02  0.7816164E-02  0.1184000E+00
        -11   -1    0    0    0    0  0.00000000000E+00  0.00000000000E+00  0.45593999997E+02  0.45594000000E+02  0.51100000000E-03 0. -1.
         11   -1    0    0    0    0 -0.00000000000E+00 -0.00000000000E+00 -0.45593999997E+02  0.45594000000E+02  0.51100000000E-03 0.  1.
         23    2    1    2    0    0  0.00000000000E+00  0.88817841970E-15  0.00000000000E+00  0.91188000000E+02  0.91188000000E+02 0.  0.
    9900012    2    3    3    0    0  0.95848091637E+01  0.52850080571E+01 -0.35156569570E+02  0.54367024173E+02  0.39999863208E+02 0.  0.
         12    1    3    3    0    0 -0.95848091637E+01 -0.52850080571E+01  0.35156569570E+02  0.36820975827E+02  0.00000000000E+00 0. -1.
         11    1    4    4    0    0  0.24506696432E-01  0.53666537399E+01  0.58875348800E+01  0.79664697430E+01  0.51100000000E-03 0. -1.
        -11    1    4    4    0    0  0.19274378045E+01  0.22307417214E+01 -0.37596388230E+02  0.37711797005E+02  0.51100000000E-03 0.  1.
        -12    1    4    4    0    0  0.76328646628E+01 -0.23123874042E+01 -0.34477162204E+01  0.86887574258E+01  0.00000000000E+00 0.  1.
</event>
<event>
 8    1  0.3106980E-007  0.9118800E+02  0.7816164E-02  0.1184000E+00
        -11   -1    0    0    0    0  0.00000000000E+00  0.00000000000E+00  0.45593999997E+02  0.45594000000E+02  0.51100000000E-03 0.  1.
         11   -1    0    0    0    0 -0.00000000000E+00 -0.00000000000E+00 -0.45593999997E+02  0.45594000000E+02  0.51100000000E-03 0. -1.
         23    2    1    2    0    0  0.00000000000E+00  0.00000000000E+00  0.00000000000E+00  0.91188000000E+02  0.91188000000E+02 0.  0.
    9900012    2    3    3    0    0 -0.25929151078E+02  0.13657062426E+02  0.22292231355E+02  0.54367084632E+02  0.40000001037E+02 0.  0.
         12    1    3    3    0    0  0.25929151078E+02 -0.13657062426E+02 -0.22292231355E+02  0.36820915368E+02  0.00000000000E+00 0. -1.
         11    1    4    4    0    0  0.51435795812E+01  0.12864506475E+02  0.95355679267E+01  0.16819006918E+02  0.51100000000E-03 0. -1.
        -11    1    4    4    0    0 -0.21716814191E+01 -0.13852461131E+00 -0.36886432621E+01  0.42826952530E+01  0.51100000000E-03 0.  1.
        -12    1    4    4    0    0 -0.28901049240E+02  0.93108056206E+00  0.16445306691E+02  0.33265382462E+02  0.00000000000E+00 0.  1.
</event>
<event>
 8    1  0.3106980E-007  0.9118800E+02  0.7816164E-02  0.1184000E+00
        -11   -1    0    0    0    0  0.00000000000E+00  0.00000000000E+00  0.45593999997E+02  0.45594000000E+02  0.51100000000E-03 0. -1.
         11   -1    0    0    0    0 -0.00000000000E+00 -0.00000000000E+00 -0.45593999997E+02  0.45594000000E+02  0.51100000000E-03 0.  1.
         23    2    1    2    0    0  0.00000000000E+00 -0.35527136788E-14  0.00000000000E+00  0.91188000000E+02  0.91188000000E+02 0.  0.
    9900012    2    3    3    0    0 -0.20113953371E+02 -0.26942441356E+02 -0.15010434471E+02  0.54367090052E+02  0.40000013392E+02 0.  0.
         12    1    3    3    0    0  0.20113953371E+02  0.26942441356E+02  0.15010434471E+02  0.36820909948E+02  0.00000000000E+00 0. -1.
         11    1    4    4    0    0 -0.20865602300E+02 -0.30899193162E+02 -0.77362500508E+01  0.38078643128E+02  0.51100000000E-03 0.  1.
        -11    1    4    4    0    0 -0.21454938045E+01  0.50679209028E+01  0.24919284090E+01  0.60412476691E+01  0.51100000000E-03 0. -1.
        -12    1    4    4    0    0  0.28971427337E+01 -0.11111690969E+01 -0.97661128290E+01  0.10247199255E+02  0.00000000000E+00 0.  1.
</event>
<event>
 8    1  0.3106980E-007  0.9118800E+02  0.7816164E-02  0.1184000E+00
        -11   -1    0    0    0    0  0.00000000000E+00  0.00000000000E+00  0.45593999997E+02  0.45594000000E+02  0.51100000000E-03 0.  1.
         11   -1    0    0    0    0 -0.00000000000E+00 -0.00000000000E+00 -0.45593999997E+02  0.45594000000E+02  0.51100000000E-03 0. -1.
         23    2    1    2    0    0 -0.35527136788E-14  0.88817841970E-15  0.00000000000E+00  0.91188000000E+02  0.91188000000E+02 0.  0.
    9900012    2    3    3    0    0  0.20170393951E+02 -0.36027749194E+01 -0.30593398362E+02  0.54367071134E+02  0.39999970264E+02 0.  0.
        -12    1    3    3    0    0 -0.20170393951E+02  0.36027749194E+01  0.30593398362E+02  0.36820928866E+02  0.00000000000E+00 0.  1.
         11    1    4    4    0    0  0.10801954050E+02 -0.19643410989E+01  0.51562449738E+01  0.12129621171E+02  0.51100000000E-03 0. -1.
        -11    1    4    4    0    0  0.84232485729E+01  0.83687765982E+01 -0.14585318110E+02  0.18807419889E+02  0.51100000000E-03 0.  1.
         12    1    4    4    0    0  0.94519132774E+00 -0.10007210419E+02 -0.21164325226E+02  0.23430030074E+02  0.00000000000E+00 0. -1.
</event>
<event>
 8    1  0.3106980E-007  0.9118800E+02  0.7816164E-02  0.1184000E+00
        -11   -1    0    0    0    0  0.00000000000E+00  0.00000000000E+00  0.45593999997E+02  0.45594000000E+02  0.51100000000E-03 0. -1.
         11   -1    0    0    0    0 -0.00000000000E+00 -0.00000000000E+00 -0.45593999997E+02  0.45594000000E+02  0.51100000000E-03 0.  1.
         23    2    1    2    0    0 -0.35527136788E-14  0.00000000000E+00  0.35527136788E-14  0.91188000000E+02  0.91188000000E+02 0.  0.
    9900012    2    3    3    0    0 -0.20865445769E+02  0.31757923388E+01  0.30171597414E+02  0.54367112251E+02  0.40000063999E+02 0.  0.
        -12    1    3    3    0    0  0.20865445769E+02 -0.31757923388E+01 -0.30171597414E+02  0.36820887749E+02  0.00000000000E+00 0.  1.
         11    1    4    4    0    0 -0.12884917017E+02  0.50084910364E+01 -0.43303135158E+00  0.13830892430E+02  0.51100000000E-03 0. -1.
        -11    1    4    4    0    0  0.38178814945E+00 -0.10335380630E+02  0.25586420789E+02  0.27597659032E+02  0.51100000000E-03 0.  1.
         12    1    4    4    0    0 -0.83623169020E+01  0.85026819328E+01  0.50182079759E+01  0.12938560790E+02  0.00000000000E+00 0. -1.
</event>
<event>
 8    1  0.3106980E-007  0.9118800E+02  0.7816164E-02  0.1184000E+00
        -11   -1    0    0    0    0  0.00000000000E+00  0.00000000000E+00  0.45593999997E+02  0.45594000000E+02  0.51100000000E-03 0. -1.
         11   -1    0    0    0    0 -0.00000000000E+00 -0.00000000000E+00 -0.45593999997E+02  0.45594000000E+02  0.51100000000E-03 0.  1.
         23    2    1    2    0    0  0.44408920985E-15  0.00000000000E+00  0.00000000000E+00  0.91188000000E+02  0.91188000000E+02 0.  0.
    9900012    2    3    3    0    0 -0.31257919803E+01 -0.16803604659E+02  0.32613608145E+02  0.54367093693E+02  0.40000021692E+02 0.  0.
        -12    1    3    3    0    0  0.31257919803E+01  0.16803604659E+02 -0.32613608145E+02  0.36820906307E+02  0.00000000000E+00 0.  1.
         11    1    4    4    0    0  0.51733046674E+01 -0.20103239154E+02  0.22122463771E+02  0.30336557307E+02  0.51100000000E-03 0. -1.
        -11    1    4    4    0    0 -0.62603568020E+01  0.39309798152E+01  0.16269774035E+02  0.17870372604E+02  0.51100000000E-03 0.  1.
        -12    1    4    4    0    0 -0.20387398457E+01 -0.63134531998E+00 -0.57786296608E+01  0.61601637826E+01  0.00000000000E+00 0.  1.
</event>
<event>
 8    1  0.3106980E-007  0.9118800E+02  0.7816164E-02  0.1184000E+00
        -11   -1    0    0    0    0  0.00000000000E+00  0.00000000000E+00  0.45593999997E+02  0.45594000000E+02  0.51100000000E-03 0.  1.
         11   -1    0    0    0    0 -0.00000000000E+00 -0.00000000000E+00 -0.45593999997E+02  0.45594000000E+02  0.51100000000E-03 0. -1.
         23    2    1    2    0    0  0.00000000000E+00  0.00000000000E+00 -0.35527136788E-14  0.91188000000E+02  0.91188000000E+02 0.  0.
    9900012    2    3    3    0    0  0.25554861418E+02  0.21088543921E+02  0.16062473751E+02  0.54367072665E+02  0.39999973754E+02 0.  0.
         12    1    3    3    0    0 -0.25554861418E+02 -0.21088543921E+02 -0.16062473751E+02  0.36820927335E+02  0.00000000000E+00 0. -1.
         11    1    4    4    0    0 -0.37172863082E+01  0.17507550024E+02  0.99017663698E+01  0.20454278351E+02  0.51100000000E-03 0. -1.
        -11    1    4    4    0    0  0.91140481439E+01  0.76734143906E+01  0.60071520391E+01  0.13342902153E+02  0.51100000000E-03 0.  1.
         12    1    4    4    0    0  0.20158099583E+02 -0.40924204932E+01  0.15355534187E+00  0.20569892161E+02  0.00000000000E+00 0. -1.
</event>
<event>
 8    1  0.3106980E-007  0.9118800E+02  0.7816164E-02  0.1184000E+00
        -11   -1    0    0    0    0  0.00000000000E+00  0.00000000000E+00  0.45593999997E+02  0.45594000000E+02  0.51100000000E-03 0.  1.
         11   -1    0    0    0    0 -0.00000000000E+00 -0.00000000000E+00 -0.45593999997E+02  0.45594000000E+02  0.51100000000E-03 0. -1.
         23    2    1    2    0    0  0.00000000000E+00  0.88817841970E-15  0.00000000000E+00  0.91188000000E+02  0.91188000000E+02 0.  0.
    9900012    2    3    3    0    0 -0.33428936537E+02  0.47159698001E+01  0.14698533566E+02  0.54367067664E+02  0.39999962353E+02 0.  0.
         12    1    3    3    0    0  0.33428936537E+02 -0.47159698001E+01 -0.14698533566E+02  0.36820932336E+02  0.00000000000E+00 0. -1.
         11    1    4    4    0    0 -0.20912586920E+02  0.84822593257E+01  0.68885367286E+01  0.23595273965E+02  0.51100000000E-03 0. -1.
        -11    1    4    4    0    0 -0.28320930557E+01 -0.11405063945E+02  0.12880693811E+02  0.17435839756E+02  0.51100000000E-03 0.  1.
         12    1    4    4    0    0 -0.96842565613E+01  0.76387744198E+01 -0.50706969734E+01  0.13335953943E+02  0.00000000000E+00 0. -1.
</event>
<event>
 8    1  0.3106980E-007  0.9118800E+02  0.7816164E-02  0.1184000E+00
        -11   -1    0    0    0    0  0.00000000000E+00  0.00000000000E+00  0.45593999997E+02  0.45594000000E+02  0.51100000000E-03 0.  1.
         11   -1    0    0    0    0 -0.00000000000E+00 -0.00000000000E+00 -0.45593999997E+02  0.45594000000E+02  0.51100000000E-03 0. -1.
         23    2    1    2    0    0  0.17763568394E-14  0.00000000000E+00 -0.71054273576E-14  0.91188000000E+02  0.91188000000E+02 0.  0.
    9900012    2    3    3    0    0 -0.14396760228E+02  0.82782237354E+01  0.32863171031E+02  0.54367031742E+02  0.39999880461E+02 0.  0.
         12    1    3    3    0    0  0.14396760228E+02 -0.82782237354E+01 -0.32863171031E+02  0.36820968258E+02  0.00000000000E+00 0. -1.
         11    1    4    4    0    0 -0.74654449824E+01 -0.12163715249E+01 -0.30471305644E+01  0.81545958459E+01  0.51100000000E-03 0. -1.
        -11    1    4    4    0    0  0.71090007613E+01  0.61121471346E+01  0.23333039469E+01  0.96612909069E+01  0.51100000000E-03 0.  1.
        -12    1    4    4    0    0 -0.14040316007E+02  0.33824481257E+01  0.33576997648E+02  0.36551144989E+02  0.00000000000E+00 0.  1.
</event>
<event>
 8    1  0.3106980E-007  0.9118800E+02  0.7816164E-02  0.1184000E+00
        -11   -1    0    0    0    0  0.00000000000E+00  0.00000000000E+00  0.45593999997E+02  0.45594000000E+02  0.51100000000E-03 0. -1.
         11   -1    0    0    0    0 -0.00000000000E+00 -0.00000000000E+00 -0.45593999997E+02  0.45594000000E+02  0.51100000000E-03 0.  1.
         23    2    1    2    0    0  0.00000000000E+00  0.00000000000E+00  0.35527136788E-14  0.91188000000E+02  0.91188000000E+02 0.  0.
    9900012    2    3    3    0    0  0.21776358402E+02 -0.44880481115E+01  0.29350017775E+02  0.54367137646E+02  0.40000121891E+02 0.  0.
        -12    1    3    3    0    0 -0.21776358402E+02  0.44880481115E+01 -0.29350017775E+02  0.36820862354E+02  0.00000000000E+00 0.  1.
         11    1    4    4    0    0 -0.11649182858E+01 -0.21820219758E+01 -0.33364594657E+01  0.41533380001E+01  0.51100000000E-03 0. -1.
        -11    1    4    4    0    0  0.46325212025E+01  0.13119902403E+02  0.14918622991E+02  0.20399936371E+02  0.51100000000E-03 0.  1.
         12    1    4    4    0    0  0.18308755486E+02 -0.15425928538E+02  0.17767854249E+02  0.29813863274E+02  0.00000000000E+00 0. -1.
</event>
<event>
 8    1  0.3106980E-007  0.9118800E+02  0.7816164E-02  0.1184000E+00
        -11   -1    0    0    0    0  0.00000000000E+00  0.00000000000E+00  0.45593999997E+02  0.45594000000E+02  0.51100000000E-03 0.  1.
         11   -1    0    0    0    0 -0.00000000000E+00 -0.00000000000E+00 -0.45593999997E+02  0.45594000000E+02  0.51100000000E-03 0. -1.
         23    2    1    2    0    0 -0.35527136788E-14  0.00000000000E+00 -0.35527136788E-14  0.91188000000E+02  0.91188000000E+02 0.  0.
    9900012    2    3    3    0    0  0.26532312319E+02  0.17510482875E+02  0.18579501161E+02  0.54367102796E+02  0.40000042445E+02 0.  0.
         12    1    3    3    0    0 -0.26532312319E+02 -0.17510482875E+02 -0.18579501161E+02  0.36820897204E+02  0.00000000000E+00 0. -1.
         11    1    4    4    0    0 -0.51787014534E+01 -0.24458569583E+01  0.10818210630E+00  0.57282517955E+01  0.51100000000E-03 0. -1.
        -11    1    4    4    0    0  0.10496283062E+02  0.21243807759E+02  0.10832088868E+02  0.26053895596E+02  0.51100000000E-03 0.  1.
         12    1    4    4    0    0  0.21214730710E+02 -0.12874679264E+01  0.76392301871E+01  0.22584955405E+02  0.00000000000E+00 0. -1.
</event>
<event>
 8    1  0.3106980E-007  0.9118800E+02  0.7816164E-02  0.1184000E+00
        -11   -1    0    0    0    0  0.00000000000E+00  0.00000000000E+00  0.45593999997E+02  0.45594000000E+02  0.51100000000E-03 0.  1.
         11   -1    0    0    0    0 -0.00000000000E+00 -0.00000000000E+00 -0.45593999997E+02  0.45594000000E+02  0.51100000000E-03 0. -1.
         23    2    1    2    0    0  0.00000000000E+00  0.00000000000E+00  0.00000000000E+00  0.91188000000E+02  0.91188000000E+02 0.  0.
    9900012    2    3    3    0    0 -0.20431388731E+02  0.89704036716E+01 -0.29289458874E+02  0.54367052312E+02  0.39999927355E+02 0.  0.
        -12    1    3    3    0    0  0.20431388731E+02 -0.89704036716E+01  0.29289458874E+02  0.36820947688E+02  0.00000000000E+00 0.  1.
         11    1    4    4    0    0 -0.15501670906E+02  0.47072024377E+01 -0.18682647599E+02  0.24728543775E+02  0.51100000000E-03 0. -1.
        -11    1    4    4    0    0  0.89284175877E+01  0.41231073638E+01 -0.12220300475E+02  0.15686057468E+02  0.51100000000E-03 0.  1.
         12    1    4    4    0    0 -0.13858135413E+02  0.14009387009E+00  0.16134891991E+01  0.13952451068E+02  0.00000000000E+00 0. -1.
</event>
<event>
 8    1  0.3106980E-007  0.9118800E+02  0.7816164E-02  0.1184000E+00
        -11   -1    0    0    0    0  0.00000000000E+00  0.00000000000E+00  0.45593999997E+02  0.45594000000E+02  0.51100000000E-03 0.  1.
         11   -1    0    0    0    0 -0.00000000000E+00 -0.00000000000E+00 -0.45593999997E+02  0.45594000000E+02  0.51100000000E-03 0. -1.
         23    2    1    2    0    0 -0.71054273576E-14  0.44408920985E-15 -0.17763568394E-14  0.91188000000E+02  0.91188000000E+02 0.  0.
    9900012    2    3    3    0    0  0.35390667715E+02  0.28347550135E+01 -0.97593608360E+01  0.54367077670E+02  0.39999985165E+02 0.  0.
        -12    1    3    3    0    0 -0.35390667715E+02 -0.28347550135E+01  0.97593608360E+01  0.36820922330E+02  0.00000000000E+00 0.  1.
         11    1    4    4    0    0  0.70183455008E+01 -0.12870327736E+02 -0.10433222070E+02  0.17993182948E+02  0.51100000000E-03 0. -1.
        -11    1    4    4    0    0  0.74402155783E-01  0.54278426528E+01 -0.27291642333E+01  0.60758002944E+01  0.51100000000E-03 0.  1.
         12    1    4    4    0    0  0.28297920058E+02  0.10277240097E+02  0.34030254669E+01  0.30298094428E+02  0.00000000000E+00 0. -1.
</event>
<event>
 8    1  0.3106980E-007  0.9118800E+02  0.7816164E-02  0.1184000E+00
        -11   -1    0    0    0    0  0.00000000000E+00  0.00000000000E+00  0.45593999997E+02  0.45594000000E+02  0.51100000000E-03 0.  1.
         11   -1    0    0    0    0 -0.00000000000E+00 -0.00000000000E+00 -0.45593999997E+02  0.45594000000E+02  0.51100000000E-03 0. -1.
         23    2    1    2    0    0  0.00000000000E+00 -0.35527136788E-14 -0.88817841970E-15  0.91188000000E+02  0.91188000000E+02 0.  0.
    9900012    2    3    3    0    0  0.18679466435E+02  0.31335038504E+02  0.49973198844E+01  0.54367077818E+02  0.39999985501E+02 0.  0.
         12    1    3    3    0    0 -0.18679466435E+02 -0.31335038504E+02 -0.49973198844E+01  0.36820922182E+02  0.00000000000E+00 0. -1.
         11    1    4    4    0    0  0.10134542103E+02  0.51436673570E+00  0.20137268699E+01  0.10345463399E+02  0.51100000000E-03 0.  1.
        -11    1    4    4    0    0 -0.98850118353E+01  0.14967693706E+02 -0.46699851710E+01  0.18535211777E+02  0.51100000000E-03 0. -1.
         12    1    4    4    0    0  0.18429936167E+02  0.15852978062E+02  0.76535781855E+01  0.25486402641E+02  0.00000000000E+00 0. -1.
</event>
<event>
 8    1  0.3106980E-007  0.9118800E+02  0.7816164E-02  0.1184000E+00
        -11   -1    0    0    0    0  0.00000000000E+00  0.00000000000E+00  0.45593999997E+02  0.45594000000E+02  0.51100000000E-03 0.  1.
         11   -1    0    0    0    0 -0.00000000000E+00 -0.00000000000E+00 -0.45593999997E+02  0.45594000000E+02  0.51100000000E-03 0. -1.
         23    2    1    2    0    0 -0.17763568394E-14  0.00000000000E+00  0.00000000000E+00  0.91188000000E+02  0.91188000000E+02 0.  0.
    9900012    2    3    3    0    0  0.78906252508E+01  0.18684172769E+02 -0.30731406288E+02  0.54367087309E+02  0.40000007139E+02 0.  0.
        -12    1    3    3    0    0 -0.78906252508E+01 -0.18684172769E+02  0.30731406288E+02  0.36820912691E+02  0.00000000000E+00 0.  1.
         11    1    4    4    0    0 -0.12055785748E+02  0.47240370702E+01 -0.11458542492E+02  0.17290364153E+02  0.51100000000E-03 0. -1.
        -11    1    4    4    0    0 -0.36836620489E+01  0.49631108902E+01 -0.21694503371E+01  0.65504466127E+01  0.51100000000E-03 0.  1.
        -12    1    4    4    0    0  0.23630073048E+02  0.89970248088E+01 -0.17103413459E+02  0.30526276543E+02  0.00000000000E+00 0.  1.
</event>
<event>
 8    1  0.3106980E-007  0.9118800E+02  0.7816164E-02  0.1184000E+00
        -11   -1    0    0    0    0  0.00000000000E+00  0.00000000000E+00  0.45593999997E+02  0.45594000000E+02  0.51100000000E-03 0.  1.
         11   -1    0    0    0    0 -0.00000000000E+00 -0.00000000000E+00 -0.45593999997E+02  0.45594000000E+02  0.51100000000E-03 0. -1.
         23    2    1    2    0    0  0.00000000000E+00  0.00000000000E+00 -0.35527136788E-14  0.91188000000E+02  0.91188000000E+02 0.  0.
    9900012    2    3    3    0    0 -0.11387325293E+02 -0.17540668070E+02 -0.30305635917E+02  0.54367112151E+02  0.40000063771E+02 0.  0.
        -12    1    3    3    0    0  0.11387325293E+02  0.17540668070E+02  0.30305635917E+02  0.36820887849E+02  0.00000000000E+00 0.  1.
         11    1    4    4    0    0 -0.53580757750E+01 -0.10647560995E+02 -0.85956868454E+01  0.14695760061E+02  0.51100000000E-03 0. -1.
        -11    1    4    4    0    0  0.11220849254E+01 -0.18129674247E+02 -0.61225704328E+01  0.19168464514E+02  0.51100000000E-03 0.  1.
        -12    1    4    4    0    0 -0.71513344435E+01  0.11236567172E+02 -0.15587378639E+02  0.20502887576E+02  0.00000000000E+00 0.  1.
</event>
<event>
 8    1  0.3106980E-007  0.9118800E+02  0.7816164E-02  0.1184000E+00
        -11   -1    0    0    0    0  0.00000000000E+00  0.00000000000E+00  0.45593999997E+02  0.45594000000E+02  0.51100000000E-03 0.  1.
         11   -1    0    0    0    0 -0.00000000000E+00 -0.00000000000E+00 -0.45593999997E+02  0.45594000000E+02  0.51100000000E-03 0. -1.
         23    2    1    2    0    0  0.00000000000E+00  0.35527136788E-14  0.35527136788E-14  0.91188000000E+02  0.91188000000E+02 0.  0.
    9900012    2    3    3    0    0  0.93731755891E+01 -0.29490023948E+02  0.19956541831E+02  0.54367061732E+02  0.39999948830E+02 0.  0.
         12    1    3    3    0    0 -0.93731755891E+01  0.29490023948E+02 -0.19956541831E+02  0.36820938268E+02  0.00000000000E+00 0. -1.
         11    1    4    4    0    0  0.11504570051E+02  0.41959894854E+01  0.43695710223E+01  0.13002100253E+02  0.51100000000E-03 0. -1.
        -11    1    4    4    0    0 -0.29604628486E+01 -0.70208362187E+00 -0.23184438912E+01  0.38252377740E+01  0.51100000000E-03 0.  1.
        -12    1    4    4    0    0  0.82906838682E+00 -0.32983929812E+02  0.17905414700E+02  0.37539723704E+02  0.00000000000E+00 0.  1.
</event>
<event>
 8    1  0.3106980E-007  0.9118800E+02  0.7816164E-02  0.1184000E+00
        -11   -1    0    0    0    0  0.00000000000E+00  0.00000000000E+00  0.45593999997E+02  0.45594000000E+02  0.51100000000E-03 0. -1.
         11   -1    0    0    0    0 -0.00000000000E+00 -0.00000000000E+00 -0.45593999997E+02  0.45594000000E+02  0.51100000000E-03 0.  1.
         23    2    1    2    0    0 -0.88817841970E-15  0.88817841970E-15  0.00000000000E+00  0.91188000000E+02  0.91188000000E+02 0.  0.
    9900012    2    3    3    0    0 -0.66640824172E+01 -0.48963271598E+01  0.35880295954E+02  0.54367086759E+02  0.40000005885E+02 0.  0.
        -12    1    3    3    0    0  0.66640824172E+01  0.48963271598E+01 -0.35880295954E+02  0.36820913241E+02  0.00000000000E+00 0.  1.
         11    1    4    4    0    0 -0.12357404816E+02 -0.71573082487E+01  0.30716647067E+02  0.33873956404E+02  0.51100000000E-03 0. -1.
        -11    1    4    4    0    0 -0.52352262371E+01 -0.14751862956E+01 -0.31289296957E+01  0.62748680992E+01  0.51100000000E-03 0.  1.
         12    1    4    4    0    0  0.10928548636E+02  0.37361673845E+01  0.82925785827E+01  0.14218262256E+02  0.00000000000E+00 0. -1.
</event>
<event>
 8    1  0.3106980E-007  0.9118800E+02  0.7816164E-02  0.1184000E+00
        -11   -1    0    0    0    0  0.00000000000E+00  0.00000000000E+00  0.45593999997E+02  0.45594000000E+02  0.51100000000E-03 0.  1.
         11   -1    0    0    0    0 -0.00000000000E+00 -0.00000000000E+00 -0.45593999997E+02  0.45594000000E+02  0.51100000000E-03 0. -1.
         23    2    1    2    0    0  0.00000000000E+00 -0.71054273576E-14  0.00000000000E+00  0.91188000000E+02  0.91188000000E+02 0.  0.
    9900012    2    3    3    0    0 -0.19329080246E+02 -0.21969460891E+02 -0.22349716152E+02  0.54367077048E+02  0.39999983746E+02 0.  0.
        -12    1    3    3    0    0  0.19329080246E+02  0.21969460891E+02  0.22349716152E+02  0.36820922952E+02  0.00000000000E+00 0.  1.
         11    1    4    4    0    0 -0.82448295648E+01 -0.11617129266E+02 -0.94428238490E+01  0.17090986789E+02  0.51100000000E-03 0. -1.
        -11    1    4    4    0    0 -0.12307838965E+02 -0.15481833013E+02 -0.20203853976E+02  0.28273057301E+02  0.51100000000E-03 0.  1.
        -12    1    4    4    0    0  0.12235882840E+01  0.51295013878E+01  0.72969616729E+01  0.90030329574E+01  0.00000000000E+00 0.  1.
</event>
<event>
 8    1  0.3106980E-007  0.9118800E+02  0.7816164E-02  0.1184000E+00
        -11   -1    0    0    0    0  0.00000000000E+00  0.00000000000E+00  0.45593999997E+02  0.45594000000E+02  0.51100000000E-03 0.  1.
         11   -1    0    0    0    0 -0.00000000000E+00 -0.00000000000E+00 -0.45593999997E+02  0.45594000000E+02  0.51100000000E-03 0. -1.
         23    2    1    2    0    0 -0.35527136788E-14  0.00000000000E+00 -0.35527136788E-14  0.91188000000E+02  0.91188000000E+02 0.  0.
    9900012    2    3    3    0    0 -0.19821028406E+02  0.94306327559E+01 -0.29562994556E+02  0.54367073227E+02  0.39999975037E+02 0.  0.
        -12    1    3    3    0    0  0.19821028406E+02 -0.94306327559E+01  0.29562994556E+02  0.36820926773E+02  0.00000000000E+00 0.  1.
         11    1    4    4    0    0 -0.25829331546E+02  0.18505524170E+00 -0.12738610636E+02  0.28800361365E+02  0.51100000000E-03 0. -1.
        -11    1    4    4    0    0 -0.19983335610E+01  0.79402813439E+01 -0.16390644624E+01  0.83503255873E+01  0.51100000000E-03 0.  1.
        -12    1    4    4    0    0  0.80066367006E+01  0.13052961702E+01 -0.15185319457E+02  0.17216386275E+02  0.00000000000E+00 0.  1.
</event>
<event>
 8    1  0.3106980E-007  0.9118800E+02  0.7816164E-02  0.1184000E+00
        -11   -1    0    0    0    0  0.00000000000E+00  0.00000000000E+00  0.45593999997E+02  0.45594000000E+02  0.51100000000E-03 0. -1.
         11   -1    0    0    0    0 -0.00000000000E+00 -0.00000000000E+00 -0.45593999997E+02  0.45594000000E+02  0.51100000000E-03 0.  1.
         23    2    1    2    0    0  0.00000000000E+00  0.00000000000E+00  0.00000000000E+00  0.91188000000E+02  0.91188000000E+02 0.  0.
    9900012    2    3    3    0    0 -0.18976839314E+02  0.29168906059E+02 -0.12034741974E+02  0.54367074898E+02  0.39999978844E+02 0.  0.
         12    1    3    3    0    0  0.18976839314E+02 -0.29168906059E+02  0.12034741974E+02  0.36820925102E+02  0.00000000000E+00 0. -1.
         11    1    4    4    0    0  0.12989842691E+01  0.23243603067E+02 -0.11770409482E+01  0.23309608948E+02  0.51100000000E-03 0. -1.
        -11    1    4    4    0    0 -0.17884887988E+02 -0.23175174100E+01 -0.11081113467E+01  0.18068425950E+02  0.51100000000E-03 0.  1.
        -12    1    4    4    0    0 -0.23909355947E+01  0.82428204021E+01 -0.97495896788E+01  0.12989039999E+02  0.00000000000E+00 0.  1.
</event>
<event>
 8    1  0.3106980E-007  0.9118800E+02  0.7816164E-02  0.1184000E+00
        -11   -1    0    0    0    0  0.00000000000E+00  0.00000000000E+00  0.45593999997E+02  0.45594000000E+02  0.51100000000E-03 0.  1.
         11   -1    0    0    0    0 -0.00000000000E+00 -0.00000000000E+00 -0.45593999997E+02  0.45594000000E+02  0.51100000000E-03 0. -1.
         23    2    1    2    0    0  0.00000000000E+00  0.17763568394E-14  0.17763568394E-14  0.91188000000E+02  0.91188000000E+02 0.  0.
    9900012    2    3    3    0    0  0.32740622316E+02 -0.10855628691E+02  0.12883606931E+02  0.54367077260E+02  0.39999984230E+02 0.  0.
         12    1    3    3    0    0 -0.32740622316E+02  0.10855628691E+02 -0.12883606931E+02  0.36820922740E+02  0.00000000000E+00 0. -1.
         11    1    4    4    0    0  0.12337452096E+02 -0.16699815356E+02  0.19120313332E+02  0.28225572436E+02  0.51100000000E-03 0. -1.
        -11    1    4    4    0    0  0.12437129858E+02  0.10148602063E+02 -0.58285351031E+01  0.17077708999E+02  0.51100000000E-03 0.  1.
         12    1    4    4    0    0  0.79660403620E+01 -0.43044153974E+01 -0.40817129826E+00  0.90637958258E+01  0.00000000000E+00 0. -1.
</event>
<event>
 8    1  0.3106980E-007  0.9118800E+02  0.7816164E-02  0.1184000E+00
        -11   -1    0    0    0    0  0.00000000000E+00  0.00000000000E+00  0.45593999997E+02  0.45594000000E+02  0.51100000000E-03 0.  1.
         11   -1    0    0    0    0 -0.00000000000E+00 -0.00000000000E+00 -0.45593999997E+02  0.45594000000E+02  0.51100000000E-03 0. -1.
         23    2    1    2    0    0  0.17763568394E-14 -0.35527136788E-14  0.00000000000E+00  0.91188000000E+02  0.91188000000E+02 0.  0.
    9900012    2    3    3    0    0 -0.14630265220E+02 -0.17404308373E+02  0.28962481413E+02  0.54367082847E+02  0.39999996967E+02 0.  0.
        -12    1    3    3    0    0  0.14630265220E+02  0.17404308373E+02 -0.28962481413E+02  0.36820917153E+02  0.00000000000E+00 0.  1.
         11    1    4    4    0    0 -0.18056366930E+02 -0.76892932480E+01  0.39381038785E+01  0.20016650064E+02  0.51100000000E-03 0. -1.
        -11    1    4    4    0    0 -0.42350841634E+01  0.39806616697E+01  0.14039224505E+02  0.15194782991E+02  0.51100000000E-03 0.  1.
         12    1    4    4    0    0  0.76611858734E+01 -0.13695676795E+02  0.10985153030E+02  0.19155649792E+02  0.00000000000E+00 0. -1.
</event>
<event>
 8    1  0.3106980E-007  0.9118800E+02  0.7816164E-02  0.1184000E+00
        -11   -1    0    0    0    0  0.00000000000E+00  0.00000000000E+00  0.45593999997E+02  0.45594000000E+02  0.51100000000E-03 0.  1.
         11   -1    0    0    0    0 -0.00000000000E+00 -0.00000000000E+00 -0.45593999997E+02  0.45594000000E+02  0.51100000000E-03 0. -1.
         23    2    1    2    0    0  0.00000000000E+00  0.35527136788E-14  0.00000000000E+00  0.91188000000E+02  0.91188000000E+02 0.  0.
    9900012    2    3    3    0    0 -0.29599410856E+02  0.53048620302E+01  0.21248845324E+02  0.54367080514E+02  0.39999991647E+02 0.  0.
         12    1    3    3    0    0  0.29599410856E+02 -0.53048620302E+01 -0.21248845324E+02  0.36820919486E+02  0.00000000000E+00 0. -1.
         11    1    4    4    0    0 -0.17017379676E+02  0.11939499852E+02  0.40385198014E+01  0.21176697340E+02  0.51100000000E-03 0. -1.
        -11    1    4    4    0    0 -0.11112086028E+01  0.84922964993E+01  0.18308562592E+01  0.87581915538E+01  0.51100000000E-03 0.  1.
        -12    1    4    4    0    0 -0.11470822577E+02 -0.15126934321E+02  0.15379469264E+02  0.24432191620E+02  0.00000000000E+00 0.  1.
</event>
<event>
 8    1  0.3106980E-007  0.9118800E+02  0.7816164E-02  0.1184000E+00
        -11   -1    0    0    0    0  0.00000000000E+00  0.00000000000E+00  0.45593999997E+02  0.45594000000E+02  0.51100000000E-03 0.  1.
         11   -1    0    0    0    0 -0.00000000000E+00 -0.00000000000E+00 -0.45593999997E+02  0.45594000000E+02  0.51100000000E-03 0. -1.
         23    2    1    2    0    0 -0.35527136788E-14 -0.35527136788E-14  0.17763568394E-14  0.91188000000E+02  0.91188000000E+02 0.  0.
    9900012    2    3    3    0    0 -0.17024946196E+02 -0.30219395895E+02  0.12357944435E+02  0.54367089203E+02  0.40000011457E+02 0.  0.
         12    1    3    3    0    0  0.17024946196E+02  0.30219395895E+02 -0.12357944435E+02  0.36820910797E+02  0.00000000000E+00 0. -1.
         11    1    4    4    0    0 -0.46233972621E+00 -0.37718690890E+01 -0.70471489593E+01  0.80064388565E+01  0.51100000000E-03 0. -1.
        -11    1    4    4    0    0 -0.73362304339E+01 -0.15842423897E+02  0.25610414884E+02  0.30995096753E+02  0.51100000000E-03 0.  1.
         12    1    4    4    0    0 -0.92263760355E+01 -0.10605102909E+02 -0.62053214898E+01  0.15365553594E+02  0.00000000000E+00 0. -1.
</event>
<event>
 8    1  0.3106980E-007  0.9118800E+02  0.7816164E-02  0.1184000E+00
        -11   -1    0    0    0    0  0.00000000000E+00  0.00000000000E+00  0.45593999997E+02  0.45594000000E+02  0.51100000000E-03 0.  1.
         11   -1    0    0    0    0 -0.00000000000E+00 -0.00000000000E+00 -0.45593999997E+02  0.45594000000E+02  0.51100000000E-03 0. -1.
         23    2    1    2    0    0  0.00000000000E+00 -0.71054273576E-14 -0.17763568394E-14  0.91188000000E+02  0.91188000000E+02 0.  0.
    9900012    2    3    3    0    0  0.43094558056E+01  0.34464591124E+02  0.12222953693E+02  0.54367081384E+02  0.39999993632E+02 0.  0.
         12    1    3    3    0    0 -0.43094558056E+01 -0.34464591124E+02 -0.12222953693E+02  0.36820918616E+02  0.00000000000E+00 0. -1.
         11    1    4    4    0    0  0.27652041407E+01  0.23164102024E+02  0.93524349571E+00  0.23347305137E+02  0.51100000000E-03 0. -1.
        -11    1    4    4    0    0  0.33711382533E+01 -0.66829202536E+01 -0.29139169340E+01  0.80322418040E+01  0.51100000000E-03 0.  1.
        -12    1    4    4    0    0 -0.18268865884E+01  0.17983409354E+02  0.14201627131E+02  0.22987534444E+02  0.00000000000E+00 0.  1.
</event>
<event>
 8    1  0.3106980E-007  0.9118800E+02  0.7816164E-02  0.1184000E+00
        -11   -1    0    0    0    0  0.00000000000E+00  0.00000000000E+00  0.45593999997E+02  0.45594000000E+02  0.51100000000E-03 0.  1.
         11   -1    0    0    0    0 -0.00000000000E+00 -0.00000000000E+00 -0.45593999997E+02  0.45594000000E+02  0.51100000000E-03 0. -1.
         23    2    1    2    0    0  0.00000000000E+00 -0.17763568394E-14  0.71054273576E-14  0.91188000000E+02  0.91188000000E+02 0.  0.
    9900012    2    3    3    0    0  0.99915974262E+01  0.14860560456E+02 -0.32173141113E+02  0.54367091737E+02  0.40000017234E+02 0.  0.
        -12    1    3    3    0    0 -0.99915974262E+01 -0.14860560456E+02  0.32173141113E+02  0.36820908263E+02  0.00000000000E+00 0.  1.
         11    1    4    4    0    0 -0.77813766750E+01  0.59377828616E+01 -0.15145984228E+00  0.97892813125E+01  0.51100000000E-03 0. -1.
        -11    1    4    4    0    0  0.12814870988E+02  0.34572416815E+01 -0.17122799678E+01  0.13383024376E+02  0.51100000000E-03 0.  1.
        -12    1    4    4    0    0  0.49581031129E+01  0.54655359127E+01 -0.30309401303E+02  0.31194786049E+02  0.00000000000E+00 0.  1.
</event>
<event>
 8    1  0.3106980E-007  0.9118800E+02  0.7816164E-02  0.1184000E+00
        -11   -1    0    0    0    0  0.00000000000E+00  0.00000000000E+00  0.45593999997E+02  0.45594000000E+02  0.51100000000E-03 0. -1.
         11   -1    0    0    0    0 -0.00000000000E+00 -0.00000000000E+00 -0.45593999997E+02  0.45594000000E+02  0.51100000000E-03 0.  1.
         23    2    1    2    0    0  0.44408920985E-15  0.35527136788E-14  0.00000000000E+00  0.91188000000E+02  0.91188000000E+02 0.  0.
    9900012    2    3    3    0    0 -0.25737977840E+01  0.23735280845E+02 -0.28031974750E+02  0.54367087461E+02  0.40000007484E+02 0.  0.
         12    1    3    3    0    0  0.25737977840E+01 -0.23735280845E+02  0.28031974750E+02  0.36820912539E+02  0.00000000000E+00 0. -1.
         11    1    4    4    0    0  0.63255051142E+01  0.25182863485E+02 -0.82151108290E+01  0.27233741470E+02  0.51100000000E-03 0. -1.
        -11    1    4    4    0    0 -0.95696259117E+01  0.55738187183E+01 -0.14768476679E+02  0.18459498879E+02  0.51100000000E-03 0.  1.
        -12    1    4    4    0    0  0.67032301343E+00 -0.70214013580E+01 -0.50483872416E+01  0.86738471114E+01  0.00000000000E+00 0.  1.
</event>
<event>
 8    1  0.3106980E-007  0.9118800E+02  0.7816164E-02  0.1184000E+00
        -11   -1    0    0    0    0  0.00000000000E+00  0.00000000000E+00  0.45593999997E+02  0.45594000000E+02  0.51100000000E-03 0. -1.
         11   -1    0    0    0    0 -0.00000000000E+00 -0.00000000000E+00 -0.45593999997E+02  0.45594000000E+02  0.51100000000E-03 0.  1.
         23    2    1    2    0    0 -0.35527136788E-14  0.35527136788E-14  0.35527136788E-14  0.91188000000E+02  0.91188000000E+02 0.  0.
    9900012    2    3    3    0    0 -0.22055958784E+02  0.23416832938E+02  0.17915537566E+02  0.54367083811E+02  0.39999999164E+02 0.  0.
        -12    1    3    3    0    0  0.22055958784E+02 -0.23416832938E+02 -0.17915537566E+02  0.36820916189E+02  0.00000000000E+00 0.  1.
         11    1    4    4    0    0  0.20170307433E+01  0.11163432643E+02  0.10659464874E+02  0.15566465015E+02  0.51100000000E-03 0. -1.
        -11    1    4    4    0    0 -0.17043006880E+02  0.14049642060E+02  0.16120986539E+02  0.27344884947E+02  0.51100000000E-03 0.  1.
        -12    1    4    4    0    0 -0.70299826474E+01 -0.17962417652E+01 -0.88649138469E+01  0.11455733849E+02  0.00000000000E+00 0.  1.
</event>
<event>
 8    1  0.3106980E-007  0.9118800E+02  0.7816164E-02  0.1184000E+00
        -11   -1    0    0    0    0  0.00000000000E+00  0.00000000000E+00  0.45593999997E+02  0.45594000000E+02  0.51100000000E-03 0.  1.
         11   -1    0    0    0    0 -0.00000000000E+00 -0.00000000000E+00 -0.45593999997E+02  0.45594000000E+02  0.51100000000E-03 0. -1.
         23    2    1    2    0    0 -0.71054273576E-14 -0.88817841970E-15  0.17763568394E-14  0.91188000000E+02  0.91188000000E+02 0.  0.
    9900012    2    3    3    0    0 -0.36498579185E+02 -0.25738373638E+01  0.41250797362E+01  0.54366984205E+02  0.39999772092E+02 0.  0.
         12    1    3    3    0    0  0.36498579185E+02  0.25738373638E+01 -0.41250797362E+01  0.36821015795E+02  0.00000000000E+00 0. -1.
         11    1    4    4    0    0 -0.31138792787E+02  0.28857496862E+01 -0.24287004042E+01  0.31366392101E+02  0.51100000000E-03 0.  1.
        -11    1    4    4    0    0  0.31023123684E+01  0.40287905214E+01 -0.40061493994E+01  0.64733861593E+01  0.51100000000E-03 0. -1.
        -12    1    4    4    0    0 -0.84620987664E+01 -0.94883775713E+01  0.10559929540E+02  0.16527205945E+02  0.00000000000E+00 0.  1.
</event>
<event>
 8    1  0.3106980E-007  0.9118800E+02  0.7816164E-02  0.1184000E+00
        -11   -1    0    0    0    0  0.00000000000E+00  0.00000000000E+00  0.45593999997E+02  0.45594000000E+02  0.51100000000E-03 0.  1.
         11   -1    0    0    0    0 -0.00000000000E+00 -0.00000000000E+00 -0.45593999997E+02  0.45594000000E+02  0.51100000000E-03 0. -1.
         23    2    1    2    0    0 -0.17763568394E-14 -0.71054273576E-14 -0.35527136788E-14  0.91188000000E+02  0.91188000000E+02 0.  0.
    9900012    2    3    3    0    0 -0.75744209963E+01 -0.32249483271E+02 -0.16074158656E+02  0.54367087447E+02  0.40000007454E+02 0.  0.
         12    1    3    3    0    0  0.75744209963E+01  0.32249483271E+02  0.16074158656E+02  0.36820912553E+02  0.00000000000E+00 0. -1.
         11    1    4    4    0    0 -0.12647648464E+02 -0.16082268772E+02 -0.43637277660E+01  0.20919954608E+02  0.51100000000E-03 0.  1.
        -11    1    4    4    0    0  0.95305495943E+01 -0.28737261111E+01  0.54008853880E+01  0.11325159627E+02  0.51100000000E-03 0. -1.
         12    1    4    4    0    0 -0.44573221270E+01 -0.13293488389E+02 -0.17111316278E+02  0.22121973213E+02  0.00000000000E+00 0. -1.
</event>
<event>
 8    1  0.3106980E-007  0.9118800E+02  0.7816164E-02  0.1184000E+00
        -11   -1    0    0    0    0  0.00000000000E+00  0.00000000000E+00  0.45593999997E+02  0.45594000000E+02  0.51100000000E-03 0. -1.
         11   -1    0    0    0    0 -0.00000000000E+00 -0.00000000000E+00 -0.45593999997E+02  0.45594000000E+02  0.51100000000E-03 0.  1.
         23    2    1    2    0    0  0.00000000000E+00  0.35527136788E-14  0.00000000000E+00  0.91188000000E+02  0.91188000000E+02 0.  0.
    9900012    2    3    3    0    0  0.28242600358E+00  0.25150769147E+02  0.26891291261E+02  0.54367048101E+02  0.39999917755E+02 0.  0.
        -12    1    3    3    0    0 -0.28242600358E+00 -0.25150769147E+02 -0.26891291261E+02  0.36820951899E+02  0.00000000000E+00 0.  1.
         11    1    4    4    0    0  0.74445272778E+01  0.16334435737E+02  0.16214357230E+02  0.24189670479E+02  0.51100000000E-03 0. -1.
        -11    1    4    4    0    0 -0.28944347307E+01 -0.54981924181E+01  0.13604278270E+02  0.14956077687E+02  0.51100000000E-03 0.  1.
        -12    1    4    4    0    0 -0.42676665436E+01  0.14314525827E+02 -0.29273442394E+01  0.15221299934E+02  0.00000000000E+00 0.  1.
</event>
<event>
 8    1  0.3106980E-007  0.9118800E+02  0.7816164E-02  0.1184000E+00
        -11   -1    0    0    0    0  0.00000000000E+00  0.00000000000E+00  0.45593999997E+02  0.45594000000E+02  0.51100000000E-03 0. -1.
         11   -1    0    0    0    0 -0.00000000000E+00 -0.00000000000E+00 -0.45593999997E+02  0.45594000000E+02  0.51100000000E-03 0.  1.
         23    2    1    2    0    0  0.00000000000E+00  0.00000000000E+00  0.00000000000E+00  0.91188000000E+02  0.91188000000E+02 0.  0.
    9900012    2    3    3    0    0  0.12799030293E+02 -0.27647648840E+02  0.20677824298E+02  0.54367080939E+02  0.39999992617E+02 0.  0.
        -12    1    3    3    0    0 -0.12799030293E+02  0.27647648840E+02 -0.20677824298E+02  0.36820919061E+02  0.00000000000E+00 0.  1.
         11    1    4    4    0    0 -0.10560245934E+02 -0.67308251139E+01  0.10212655273E+02  0.16159242831E+02  0.51100000000E-03 0. -1.
        -11    1    4    4    0    0  0.87647953774E+01  0.16942196276E+01  0.64145715150E+01  0.10992667835E+02  0.51100000000E-03 0.  1.
         12    1    4    4    0    0  0.14594480849E+02 -0.22611043354E+02  0.40505975097E+01  0.27215170273E+02  0.00000000000E+00 0. -1.
</event>
<event>
 8    1  0.3106980E-007  0.9118800E+02  0.7816164E-02  0.1184000E+00
        -11   -1    0    0    0    0  0.00000000000E+00  0.00000000000E+00  0.45593999997E+02  0.45594000000E+02  0.51100000000E-03 0. -1.
         11   -1    0    0    0    0 -0.00000000000E+00 -0.00000000000E+00 -0.45593999997E+02  0.45594000000E+02  0.51100000000E-03 0.  1.
         23    2    1    2    0    0 -0.35527136788E-14  0.00000000000E+00  0.00000000000E+00  0.91188000000E+02  0.91188000000E+02 0.  0.
    9900012    2    3    3    0    0 -0.24447682448E+02  0.17138997191E+02 -0.21548708346E+02  0.54367065286E+02  0.39999956933E+02 0.  0.
         12    1    3    3    0    0  0.24447682448E+02 -0.17138997191E+02  0.21548708346E+02  0.36820934714E+02  0.00000000000E+00 0. -1.
         11    1    4    4    0    0 -0.77040861665E+01 -0.11407484725E+02 -0.11165958750E+02  0.17724623733E+02  0.51100000000E-03 0. -1.
        -11    1    4    4    0    0 -0.45654836531E+01  0.20119306457E+01  0.13639753947E+01  0.51722272812E+01  0.51100000000E-03 0.  1.
        -12    1    4    4    0    0 -0.12178112628E+02  0.26534551270E+02 -0.11746724991E+02  0.31470214272E+02  0.00000000000E+00 0.  1.
</event>
<event>
 8    1  0.3106980E-007  0.9118800E+02  0.7816164E-02  0.1184000E+00
        -11   -1    0    0    0    0  0.00000000000E+00  0.00000000000E+00  0.45593999997E+02  0.45594000000E+02  0.51100000000E-03 0.  1.
         11   -1    0    0    0    0 -0.00000000000E+00 -0.00000000000E+00 -0.45593999997E+02  0.45594000000E+02  0.51100000000E-03 0. -1.
         23    2    1    2    0    0  0.35527136788E-14  0.13322676296E-14 -0.71054273576E-14  0.91188000000E+02  0.91188000000E+02 0.  0.
    9900012    2    3    3    0    0  0.21184462095E+02 -0.37685010067E+00 -0.30114060530E+02  0.54367080785E+02  0.39999992265E+02 0.  0.
        -12    1    3    3    0    0 -0.21184462095E+02  0.37685010067E+00  0.30114060530E+02  0.36820919215E+02  0.00000000000E+00 0.  1.
         11    1    4    4    0    0  0.12356726031E+02 -0.20111901170E+01  0.47640034941E+00  0.12528388622E+02  0.51100000000E-03 0. -1.
        -11    1    4    4    0    0  0.18253132973E+01  0.12889790892E+02 -0.70051614025E+01  0.14783462531E+02  0.51100000000E-03 0.  1.
         12    1    4    4    0    0  0.70024227664E+01 -0.11255450876E+02 -0.23585299477E+02  0.27055229632E+02  0.00000000000E+00 0. -1.
</event>
<event>
 8    1  0.3106980E-007  0.9118800E+02  0.7816164E-02  0.1184000E+00
        -11   -1    0    0    0    0  0.00000000000E+00  0.00000000000E+00  0.45593999997E+02  0.45594000000E+02  0.51100000000E-03 0. -1.
         11   -1    0    0    0    0 -0.00000000000E+00 -0.00000000000E+00 -0.45593999997E+02  0.45594000000E+02  0.51100000000E-03 0.  1.
         23    2    1    2    0    0  0.00000000000E+00  0.00000000000E+00 -0.88817841970E-15  0.91188000000E+02  0.91188000000E+02 0.  0.
    9900012    2    3    3    0    0  0.32267021379E+02 -0.16087802189E+02 -0.74699800668E+01  0.54367100362E+02  0.40000036894E+02 0.  0.
         12    1    3    3    0    0 -0.32267021379E+02  0.16087802189E+02  0.74699800668E+01  0.36820899638E+02  0.00000000000E+00 0. -1.
         11    1    4    4    0    0  0.73525882476E+01  0.24104487243E+01  0.14727937844E+01  0.78765435810E+01  0.51100000000E-03 0. -1.
        -11    1    4    4    0    0  0.24459503568E+02  0.70176783342E+00  0.17087652124E+01  0.24529159620E+02  0.51100000000E-03 0.  1.
        -12    1    4    4    0    0  0.45492956397E+00 -0.19200018747E+02 -0.10651539064E+02  0.21961397160E+02  0.00000000000E+00 0.  1.
</event>
<event>
 8    1  0.3106980E-007  0.9118800E+02  0.7816164E-02  0.1184000E+00
        -11   -1    0    0    0    0  0.00000000000E+00  0.00000000000E+00  0.45593999997E+02  0.45594000000E+02  0.51100000000E-03 0.  1.
         11   -1    0    0    0    0 -0.00000000000E+00 -0.00000000000E+00 -0.45593999997E+02  0.45594000000E+02  0.51100000000E-03 0. -1.
         23    2    1    2    0    0  0.35527136788E-14  0.35527136788E-14  0.00000000000E+00  0.91188000000E+02  0.91188000000E+02 0.  0.
    9900012    2    3    3    0    0  0.25939999208E+02  0.15031042462E+02  0.21376687009E+02  0.54367101805E+02  0.40000040185E+02 0.  0.
         12    1    3    3    0    0 -0.25939999208E+02 -0.15031042462E+02 -0.21376687009E+02  0.36820898195E+02  0.00000000000E+00 0. -1.
         11    1    4    4    0    0  0.81659315850E+01 -0.25847146719E+01 -0.33705257787E+00  0.85718605499E+01  0.51100000000E-03 0. -1.
        -11    1    4    4    0    0 -0.12817967529E+01 -0.77103327399E+00 -0.67529021185E+01  0.69165874902E+01  0.51100000000E-03 0.  1.
        -12    1    4    4    0    0  0.19055864375E+02  0.18386790408E+02  0.28466641706E+02  0.38878653765E+02  0.00000000000E+00 0.  1.
</event>
<event>
 8    1  0.3106980E-007  0.9118800E+02  0.7816164E-02  0.1184000E+00
        -11   -1    0    0    0    0  0.00000000000E+00  0.00000000000E+00  0.45593999997E+02  0.45594000000E+02  0.51100000000E-03 0.  1.
         11   -1    0    0    0    0 -0.00000000000E+00 -0.00000000000E+00 -0.45593999997E+02  0.45594000000E+02  0.51100000000E-03 0. -1.
         23    2    1    2    0    0  0.00000000000E+00  0.71054273576E-14  0.00000000000E+00  0.91188000000E+02  0.91188000000E+02 0.  0.
    9900012    2    3    3    0    0  0.88421351969E+01 -0.26717191352E+02 -0.23744336836E+02  0.54367011415E+02  0.39999834123E+02 0.  0.
        -12    1    3    3    0    0 -0.88421351969E+01  0.26717191352E+02  0.23744336836E+02  0.36820988585E+02  0.00000000000E+00 0.  1.
         11    1    4    4    0    0  0.61494320279E+01 -0.85917520103E+01 -0.24024039231E+02  0.26244774301E+02  0.51100000000E-03 0. -1.
        -11    1    4    4    0    0  0.10425924049E+02 -0.17358916030E+02  0.12659987652E+01  0.20288780426E+02  0.51100000000E-03 0.  1.
        -12    1    4    4    0    0 -0.77332208801E+01 -0.76652331136E+00 -0.98629637067E+00  0.78334566889E+01  0.00000000000E+00 0.  1.
</event>
<event>
 8    1  0.3106980E-007  0.9118800E+02  0.7816164E-02  0.1184000E+00
        -11   -1    0    0    0    0  0.00000000000E+00  0.00000000000E+00  0.45593999997E+02  0.45594000000E+02  0.51100000000E-03 0. -1.
         11   -1    0    0    0    0 -0.00000000000E+00 -0.00000000000E+00 -0.45593999997E+02  0.45594000000E+02  0.51100000000E-03 0.  1.
         23    2    1    2    0    0  0.00000000000E+00 -0.17763568394E-14  0.71054273576E-14  0.91188000000E+02  0.91188000000E+02 0.  0.
    9900012    2    3    3    0    0  0.14822931666E+02  0.82197005938E+01 -0.32687893495E+02  0.54367066251E+02  0.39999959132E+02 0.  0.
         12    1    3    3    0    0 -0.14822931666E+02 -0.82197005938E+01  0.32687893495E+02  0.36820933749E+02  0.00000000000E+00 0. -1.
         11    1    4    4    0    0  0.15122767284E+01 -0.31449831913E+01  0.34055534572E+01  0.48760326894E+01  0.51100000000E-03 0. -1.
        -11    1    4    4    0    0  0.16547394298E+02  0.77692379055E+01 -0.39533148038E+02  0.43555104290E+02  0.51100000000E-03 0.  1.
         12    1    4    4    0    0 -0.32367393597E+01  0.35954458796E+01  0.34397010859E+01  0.59359292715E+01  0.00000000000E+00 0. -1.
</event>
<event>
 8    1  0.3106980E-007  0.9118800E+02  0.7816164E-02  0.1184000E+00
        -11   -1    0    0    0    0  0.00000000000E+00  0.00000000000E+00  0.45593999997E+02  0.45594000000E+02  0.51100000000E-03 0. -1.
         11   -1    0    0    0    0 -0.00000000000E+00 -0.00000000000E+00 -0.45593999997E+02  0.45594000000E+02  0.51100000000E-03 0.  1.
         23    2    1    2    0    0 -0.88817841970E-15 -0.17763568394E-14  0.00000000000E+00  0.91188000000E+02  0.91188000000E+02 0.  0.
    9900012    2    3    3    0    0 -0.58569162359E+01  0.11859756129E+02  0.34363094018E+02  0.54367088635E+02  0.40000010162E+02 0.  0.
        -12    1    3    3    0    0  0.58569162359E+01 -0.11859756129E+02 -0.34363094018E+02  0.36820911365E+02  0.00000000000E+00 0.  1.
         11    1    4    4    0    0  0.87451744567E+00 -0.90788326739E+01  0.22242533663E+02  0.24039972702E+02  0.51100000000E-03 0. -1.
        -11    1    4    4    0    0 -0.10553621787E+02  0.18024567327E+02  0.45770403232E+01  0.21382545651E+02  0.51100000000E-03 0.  1.
        -12    1    4    4    0    0  0.38221881050E+01  0.29140214765E+01  0.75435200319E+01  0.89445702830E+01  0.00000000000E+00 0.  1.
</event>
<event>
 8    1  0.3106980E-007  0.9118800E+02  0.7816164E-02  0.1184000E+00
        -11   -1    0    0    0    0  0.00000000000E+00  0.00000000000E+00  0.45593999997E+02  0.45594000000E+02  0.51100000000E-03 0. -1.
         11   -1    0    0    0    0 -0.00000000000E+00 -0.00000000000E+00 -0.45593999997E+02  0.45594000000E+02  0.51100000000E-03 0.  1.
         23    2    1    2    0    0  0.00000000000E+00  0.00000000000E+00 -0.35527136788E-14  0.91188000000E+02  0.91188000000E+02 0.  0.
    9900012    2    3    3    0    0  0.17148301050E+02 -0.72888674474E+01 -0.31758334743E+02  0.54367032560E+02  0.39999882327E+02 0.  0.
         12    1    3    3    0    0 -0.17148301050E+02  0.72888674474E+01  0.31758334743E+02  0.36820967440E+02  0.00000000000E+00 0. -1.
         11    1    4    4    0    0 -0.38399178045E+01 -0.77470537213E+00  0.44587395660E+01  0.59351070704E+01  0.51100000000E-03 0. -1.
        -11    1    4    4    0    0  0.23173375287E+02 -0.10931919115E+00 -0.34306744254E+02  0.41400120464E+02  0.51100000000E-03 0.  1.
        -12    1    4    4    0    0 -0.21851564318E+01 -0.64048428841E+01 -0.19103300555E+01  0.70318050259E+01  0.00000000000E+00 0.  1.
</event>
<event>
 8    1  0.3106980E-007  0.9118800E+02  0.7816164E-02  0.1184000E+00
        -11   -1    0    0    0    0  0.00000000000E+00  0.00000000000E+00  0.45593999997E+02  0.45594000000E+02  0.51100000000E-03 0.  1.
         11   -1    0    0    0    0 -0.00000000000E+00 -0.00000000000E+00 -0.45593999997E+02  0.45594000000E+02  0.51100000000E-03 0. -1.
         23    2    1    2    0    0 -0.17763568394E-14 -0.71054273576E-14 -0.88817841970E-15  0.91188000000E+02  0.91188000000E+02 0.  0.
    9900012    2    3    3    0    0  0.11632050373E+02  0.34512811136E+02  0.54167494584E+01  0.54367083348E+02  0.39999998109E+02 0.  0.
         12    1    3    3    0    0 -0.11632050373E+02 -0.34512811136E+02 -0.54167494584E+01  0.36820916652E+02  0.00000000000E+00 0. -1.
         11    1    4    4    0    0  0.71573397485E+01  0.36491008862E+02  0.74256561398E+01  0.37920464256E+02  0.51100000000E-03 0.  1.
        -11    1    4    4    0    0 -0.32935331095E+01  0.48684754845E+01  0.10225620861E+00  0.58787643667E+01  0.51100000000E-03 0. -1.
        -12    1    4    4    0    0  0.77682437338E+01 -0.68466732100E+01 -0.21111628900E+01  0.10567854726E+02  0.00000000000E+00 0.  1.
</event>
<event>
 8    1  0.3106980E-007  0.9118800E+02  0.7816164E-02  0.1184000E+00
        -11   -1    0    0    0    0  0.00000000000E+00  0.00000000000E+00  0.45593999997E+02  0.45594000000E+02  0.51100000000E-03 0.  1.
         11   -1    0    0    0    0 -0.00000000000E+00 -0.00000000000E+00 -0.45593999997E+02  0.45594000000E+02  0.51100000000E-03 0. -1.
         23    2    1    2    0    0 -0.88817841970E-15 -0.55511151231E-15  0.00000000000E+00  0.91188000000E+02  0.91188000000E+02 0.  0.
    9900012    2    3    3    0    0  0.56927371307E+01 -0.45797672078E+00  0.36375293380E+02  0.54367096056E+02  0.40000027080E+02 0.  0.
         12    1    3    3    0    0 -0.56927371307E+01  0.45797672078E+00 -0.36375293380E+02  0.36820903944E+02  0.00000000000E+00 0. -1.
         11    1    4    4    0    0 -0.44893415288E+01 -0.12466933534E+02  0.25826060451E+02  0.29026953299E+02  0.51100000000E-03 0. -1.
        -11    1    4    4    0    0  0.10155156914E+02  0.15952589705E+02  0.98934223200E+01  0.21342261729E+02  0.51100000000E-03 0.  1.
         12    1    4    4    0    0  0.26921745396E-01 -0.39436328915E+01  0.65581060909E+00  0.39978810285E+01  0.00000000000E+00 0. -1.
</event>
<event>
 8    1  0.3106980E-007  0.9118800E+02  0.7816164E-02  0.1184000E+00
        -11   -1    0    0    0    0  0.00000000000E+00  0.00000000000E+00  0.45593999997E+02  0.45594000000E+02  0.51100000000E-03 0. -1.
         11   -1    0    0    0    0 -0.00000000000E+00 -0.00000000000E+00 -0.45593999997E+02  0.45594000000E+02  0.51100000000E-03 0.  1.
         23    2    1    2    0    0  0.35527136788E-14  0.00000000000E+00 -0.17763568394E-14  0.91188000000E+02  0.91188000000E+02 0.  0.
    9900012    2    3    3    0    0 -0.29965240185E+02 -0.17849560671E+02  0.11800733904E+02  0.54367085344E+02  0.40000002658E+02 0.  0.
         12    1    3    3    0    0  0.29965240185E+02  0.17849560671E+02 -0.11800733904E+02  0.36820914656E+02  0.00000000000E+00 0. -1.
         11    1    4    4    0    0 -0.36049635913E+01  0.64358781590E+01 -0.78828625368E+01  0.10796101713E+02  0.51100000000E-03 0. -1.
        -11    1    4    4    0    0 -0.16169801994E+02 -0.59187095183E+01  0.49566706413E+01  0.17918208699E+02  0.51100000000E-03 0.  1.
         12    1    4    4    0    0 -0.10190474600E+02 -0.18366729311E+02  0.14726925799E+02  0.25652774931E+02  0.00000000000E+00 0. -1.
</event>
<event>
 8    1  0.3106980E-007  0.9118800E+02  0.7816164E-02  0.1184000E+00
        -11   -1    0    0    0    0  0.00000000000E+00  0.00000000000E+00  0.45593999997E+02  0.45594000000E+02  0.51100000000E-03 0.  1.
         11   -1    0    0    0    0 -0.00000000000E+00 -0.00000000000E+00 -0.45593999997E+02  0.45594000000E+02  0.51100000000E-03 0. -1.
         23    2    1    2    0    0 -0.88817841970E-15  0.66613381478E-15  0.00000000000E+00  0.91188000000E+02  0.91188000000E+02 0.  0.
    9900012    2    3    3    0    0  0.19089102644E+01  0.60331963616E+00 -0.36766440618E+02  0.54367094407E+02  0.40000023319E+02 0.  0.
        -12    1    3    3    0    0 -0.19089102644E+01 -0.60331963616E+00  0.36766440618E+02  0.36820905593E+02  0.00000000000E+00 0.  1.
         11    1    4    4    0    0  0.10822530414E+01  0.84077362921E+01  0.20222601134E+01  0.87149777642E+01  0.51100000000E-03 0.  1.
        -11    1    4    4    0    0  0.24562170509E+01 -0.15699222741E+02 -0.27843859415E+02  0.32058994125E+02  0.51100000000E-03 0. -1.
        -12    1    4    4    0    0 -0.16295598279E+01  0.78948060853E+01 -0.10944841316E+02  0.13593122518E+02  0.00000000000E+00 0.  1.
</event>
<event>
 8    1  0.3106980E-007  0.9118800E+02  0.7816164E-02  0.1184000E+00
        -11   -1    0    0    0    0  0.00000000000E+00  0.00000000000E+00  0.45593999997E+02  0.45594000000E+02  0.51100000000E-03 0. -1.
         11   -1    0    0    0    0 -0.00000000000E+00 -0.00000000000E+00 -0.45593999997E+02  0.45594000000E+02  0.51100000000E-03 0.  1.
         23    2    1    2    0    0  0.00000000000E+00  0.11102230246E-15  0.00000000000E+00  0.91188000000E+02  0.91188000000E+02 0.  0.
    9900012    2    3    3    0    0  0.36582152779E+02 -0.54031740247E+00 -0.41513642194E+01  0.54367086517E+02  0.40000005332E+02 0.  0.
        -12    1    3    3    0    0 -0.36582152779E+02  0.54031740247E+00  0.41513642194E+01  0.36820913483E+02  0.00000000000E+00 0.  1.
         11    1    4    4    0    0 -0.52374885391E+00  0.97370982964E+01 -0.36785040665E+01  0.10421937849E+02  0.51100000000E-03 0. -1.
        -11    1    4    4    0    0  0.79645963860E+01 -0.10135417159E+02  0.58014453281E+01  0.14135708144E+02  0.51100000000E-03 0.  1.
        -12    1    4    4    0    0  0.29141305247E+02 -0.14199854002E+00 -0.62743054811E+01  0.29809440524E+02  0.00000000000E+00 0.  1.
</event>
<event>
 8    1  0.3106980E-007  0.9118800E+02  0.7816164E-02  0.1184000E+00
        -11   -1    0    0    0    0  0.00000000000E+00  0.00000000000E+00  0.45593999997E+02  0.45594000000E+02  0.51100000000E-03 0. -1.
         11   -1    0    0    0    0 -0.00000000000E+00 -0.00000000000E+00 -0.45593999997E+02  0.45594000000E+02  0.51100000000E-03 0.  1.
         23    2    1    2    0    0  0.17763568394E-14  0.00000000000E+00  0.71054273576E-14  0.91188000000E+02  0.91188000000E+02 0.  0.
    9900012    2    3    3    0    0 -0.57436013937E+01 -0.43861930781E+00  0.36367517711E+02  0.54367113423E+02  0.40000066670E+02 0.  0.
        -12    1    3    3    0    0  0.57436013937E+01  0.43861930781E+00 -0.36367517711E+02  0.36820886577E+02  0.00000000000E+00 0.  1.
         11    1    4    4    0    0 -0.23555402794E+01 -0.84633606629E+01  0.24270933164E+02  0.25811920514E+02  0.51100000000E-03 0. -1.
        -11    1    4    4    0    0  0.97192369027E+01  0.47264649788E+01  0.62207002700E+00  0.10825433412E+02  0.51100000000E-03 0.  1.
         12    1    4    4    0    0 -0.13107298017E+02  0.32982763762E+01  0.11474514520E+02  0.17729759497E+02  0.00000000000E+00 0. -1.
</event>
<event>
 8    1  0.3106980E-007  0.9118800E+02  0.7816164E-02  0.1184000E+00
        -11   -1    0    0    0    0  0.00000000000E+00  0.00000000000E+00  0.45593999997E+02  0.45594000000E+02  0.51100000000E-03 0.  1.
         11   -1    0    0    0    0 -0.00000000000E+00 -0.00000000000E+00 -0.45593999997E+02  0.45594000000E+02  0.51100000000E-03 0. -1.
         23    2    1    2    0    0  0.00000000000E+00  0.17763568394E-14  0.00000000000E+00  0.91188000000E+02  0.91188000000E+02 0.  0.
    9900012    2    3    3    0    0 -0.26000465871E+02 -0.12463756578E+02 -0.22900015312E+02  0.54367079930E+02  0.39999990316E+02 0.  0.
         12    1    3    3    0    0  0.26000465871E+02  0.12463756578E+02  0.22900015312E+02  0.36820920070E+02  0.00000000000E+00 0. -1.
         11    1    4    4    0    0 -0.43361695255E+01 -0.43208529030E+01 -0.21991740709E+02  0.22827807509E+02  0.51100000000E-03 0. -1.
        -11    1    4    4    0    0 -0.10503402373E+02 -0.19500250339E+01  0.10086955708E+02  0.14692540106E+02  0.51100000000E-03 0.  1.
        -12    1    4    4    0    0 -0.11160893972E+02 -0.61928786411E+01 -0.10995230311E+02  0.16846732315E+02  0.00000000000E+00 0.  1.
</event>
<event>
 8    1  0.3106980E-007  0.9118800E+02  0.7816164E-02  0.1184000E+00
        -11   -1    0    0    0    0  0.00000000000E+00  0.00000000000E+00  0.45593999997E+02  0.45594000000E+02  0.51100000000E-03 0.  1.
         11   -1    0    0    0    0 -0.00000000000E+00 -0.00000000000E+00 -0.45593999997E+02  0.45594000000E+02  0.51100000000E-03 0. -1.
         23    2    1    2    0    0 -0.35527136788E-14 -0.35527136788E-14 -0.35527136788E-14  0.91188000000E+02  0.91188000000E+02 0.  0.
    9900012    2    3    3    0    0  0.18277529430E+02  0.22333067524E+02  0.22867896076E+02  0.54367154572E+02  0.40000160478E+02 0.  0.
         12    1    3    3    0    0 -0.18277529430E+02 -0.22333067524E+02 -0.22867896076E+02  0.36820845428E+02  0.00000000000E+00 0. -1.
         11    1    4    4    0    0  0.26465487699E+02  0.12490144239E+02  0.10960908157E+02  0.31250076002E+02  0.51100000000E-03 0. -1.
        -11    1    4    4    0    0  0.21995598287E+01 -0.22564799503E+01 -0.10438479227E+00  0.31528814840E+01  0.51100000000E-03 0.  1.
        -12    1    4    4    0    0 -0.10387518098E+02  0.12099403236E+02  0.12011372711E+02  0.19964197086E+02  0.00000000000E+00 0.  1.
</event>
<event>
 8    1  0.3106980E-007  0.9118800E+02  0.7816164E-02  0.1184000E+00
        -11   -1    0    0    0    0  0.00000000000E+00  0.00000000000E+00  0.45593999997E+02  0.45594000000E+02  0.51100000000E-03 0.  1.
         11   -1    0    0    0    0 -0.00000000000E+00 -0.00000000000E+00 -0.45593999997E+02  0.45594000000E+02  0.51100000000E-03 0. -1.
         23    2    1    2    0    0  0.00000000000E+00  0.17763568394E-14  0.00000000000E+00  0.91188000000E+02  0.91188000000E+02 0.  0.
    9900012    2    3    3    0    0  0.19532463198E+02 -0.15274180777E+02 -0.27220650697E+02  0.54367061102E+02  0.39999947394E+02 0.  0.
        -12    1    3    3    0    0 -0.19532463198E+02  0.15274180777E+02  0.27220650697E+02  0.36820938898E+02  0.00000000000E+00 0.  1.
         11    1    4    4    0    0 -0.24471761454E+01  0.56529494025E+01 -0.38092024690E+01  0.72425500858E+01  0.51100000000E-03 0.  1.
        -11    1    4    4    0    0  0.11840450275E+02  0.35525366325E+01 -0.14756916174E+02  0.19250541667E+02  0.51100000000E-03 0. -1.
        -12    1    4    4    0    0  0.10139189068E+02 -0.24479666812E+02 -0.86545320532E+01  0.27873969349E+02  0.00000000000E+00 0.  1.
</event>
<event>
 8    1  0.3106980E-007  0.9118800E+02  0.7816164E-02  0.1184000E+00
        -11   -1    0    0    0    0  0.00000000000E+00  0.00000000000E+00  0.45593999997E+02  0.45594000000E+02  0.51100000000E-03 0.  1.
         11   -1    0    0    0    0 -0.00000000000E+00 -0.00000000000E+00 -0.45593999997E+02  0.45594000000E+02  0.51100000000E-03 0. -1.
         23    2    1    2    0    0  0.00000000000E+00 -0.35527136788E-14  0.00000000000E+00  0.91188000000E+02  0.91188000000E+02 0.  0.
    9900012    2    3    3    0    0 -0.12455176088E+02 -0.30580846620E+02  0.16292966720E+02  0.54367077199E+02  0.39999984091E+02 0.  0.
         12    1    3    3    0    0  0.12455176088E+02  0.30580846620E+02 -0.16292966720E+02  0.36820922801E+02  0.00000000000E+00 0. -1.
         11    1    4    4    0    0  0.27433337705E+00 -0.29217769823E+02  0.45042296909E+01  0.29564191475E+02  0.51100000000E-03 0. -1.
        -11    1    4    4    0    0 -0.23075138488E+01 -0.46581729001E+01  0.12810193981E+02  0.13824769981E+02  0.51100000000E-03 0.  1.
         12    1    4    4    0    0 -0.10421995617E+02  0.32950961030E+01 -0.10214569525E+01  0.10978115743E+02  0.00000000000E+00 0. -1.
</event>
<event>
 8    1  0.3106980E-007  0.9118800E+02  0.7816164E-02  0.1184000E+00
        -11   -1    0    0    0    0  0.00000000000E+00  0.00000000000E+00  0.45593999997E+02  0.45594000000E+02  0.51100000000E-03 0.  1.
         11   -1    0    0    0    0 -0.00000000000E+00 -0.00000000000E+00 -0.45593999997E+02  0.45594000000E+02  0.51100000000E-03 0. -1.
         23    2    1    2    0    0 -0.26645352591E-14  0.00000000000E+00  0.00000000000E+00  0.91188000000E+02  0.91188000000E+02 0.  0.
    9900012    2    3    3    0    0  0.53953668461E+01 -0.17153719219E+02  0.32131302495E+02  0.54367072981E+02  0.39999974476E+02 0.  0.
         12    1    3    3    0    0 -0.53953668461E+01  0.17153719219E+02 -0.32131302495E+02  0.36820927019E+02  0.00000000000E+00 0. -1.
         11    1    4    4    0    0  0.14363696957E+02 -0.90395528538E+01  0.40838215379E+01  0.17455855885E+02  0.51100000000E-03 0. -1.
        -11    1    4    4    0    0 -0.32846519009E+01  0.40292869217E+01  0.21254204461E+02  0.21880706084E+02  0.51100000000E-03 0.  1.
         12    1    4    4    0    0 -0.56836782102E+01 -0.12143453287E+02  0.67932764967E+01  0.15030511012E+02  0.00000000000E+00 0. -1.
</event>
<event>
 8    1  0.3106980E-007  0.9118800E+02  0.7816164E-02  0.1184000E+00
        -11   -1    0    0    0    0  0.00000000000E+00  0.00000000000E+00  0.45593999997E+02  0.45594000000E+02  0.51100000000E-03 0. -1.
         11   -1    0    0    0    0 -0.00000000000E+00 -0.00000000000E+00 -0.45593999997E+02  0.45594000000E+02  0.51100000000E-03 0.  1.
         23    2    1    2    0    0  0.00000000000E+00  0.00000000000E+00 -0.17763568394E-14  0.91188000000E+02  0.91188000000E+02 0.  0.
    9900012    2    3    3    0    0  0.81116337933E+01  0.34374066710E+02 -0.10411850764E+02  0.54367058930E+02  0.39999942443E+02 0.  0.
         12    1    3    3    0    0 -0.81116337933E+01 -0.34374066710E+02  0.10411850764E+02  0.36820941070E+02  0.00000000000E+00 0. -1.
         11    1    4    4    0    0 -0.43154296535E+01  0.12195919954E+02  0.30924637596E+01  0.13301380717E+02  0.51100000000E-03 0. -1.
        -11    1    4    4    0    0  0.57213349508E+01  0.18933517110E+02  0.56031402855E+01  0.20557405602E+02  0.51100000000E-03 0.  1.
         12    1    4    4    0    0  0.67057284960E+01  0.32446296453E+01 -0.19107454809E+02  0.20508272610E+02  0.00000000000E+00 0. -1.
</event>
<event>
 8    1  0.3106980E-007  0.9118800E+02  0.7816164E-02  0.1184000E+00
        -11   -1    0    0    0    0  0.00000000000E+00  0.00000000000E+00  0.45593999997E+02  0.45594000000E+02  0.51100000000E-03 0. -1.
         11   -1    0    0    0    0 -0.00000000000E+00 -0.00000000000E+00 -0.45593999997E+02  0.45594000000E+02  0.51100000000E-03 0.  1.
         23    2    1    2    0    0 -0.13322676296E-14 -0.35527136788E-14  0.00000000000E+00  0.91188000000E+02  0.91188000000E+02 0.  0.
    9900012    2    3    3    0    0  0.37316323476E+01  0.27664029470E+02  0.24011586016E+02  0.54367083804E+02  0.39999999148E+02 0.  0.
        -12    1    3    3    0    0 -0.37316323476E+01 -0.27664029470E+02 -0.24011586016E+02  0.36820916196E+02  0.00000000000E+00 0.  1.
         11    1    4    4    0    0 -0.11873176311E+02  0.18800295211E+02  0.14167374178E+02  0.26365468080E+02  0.51100000000E-03 0. -1.
        -11    1    4    4    0    0  0.19237338916E+00  0.77832775488E+01 -0.25518728723E+01  0.81931967107E+01  0.51100000000E-03 0.  1.
         12    1    4    4    0    0  0.15412435270E+02  0.10804567104E+01  0.12396084710E+02  0.19808419013E+02  0.00000000000E+00 0. -1.
</event>
<event>
 8    1  0.3106980E-007  0.9118800E+02  0.7816164E-02  0.1184000E+00
        -11   -1    0    0    0    0  0.00000000000E+00  0.00000000000E+00  0.45593999997E+02  0.45594000000E+02  0.51100000000E-03 0.  1.
         11   -1    0    0    0    0 -0.00000000000E+00 -0.00000000000E+00 -0.45593999997E+02  0.45594000000E+02  0.51100000000E-03 0. -1.
         23    2    1    2    0    0 -0.35527136788E-14  0.00000000000E+00  0.35527136788E-14  0.91188000000E+02  0.91188000000E+02 0.  0.
    9900012    2    3    3    0    0 -0.29368192600E+02 -0.94809942174E+01 -0.20084834296E+02  0.54367074473E+02  0.39999977877E+02 0.  0.
        -12    1    3    3    0    0  0.29368192600E+02  0.94809942174E+01  0.20084834296E+02  0.36820925527E+02  0.00000000000E+00 0.  1.
         11    1    4    4    0    0 -0.65612920205E+01 -0.43810240567E+01 -0.27848534491E+02  0.28944512404E+02  0.51100000000E-03 0. -1.
        -11    1    4    4    0    0 -0.23177192577E+02 -0.48344920443E+01  0.73082131021E+01  0.24778308015E+02  0.51100000000E-03 0.  1.
         12    1    4    4    0    0  0.37029199808E+00 -0.26547811641E+00  0.45548709253E+00  0.64425405361E+00  0.00000000000E+00 0. -1.
</event>
<event>
 8    1  0.3106980E-007  0.9118800E+02  0.7816164E-02  0.1184000E+00
        -11   -1    0    0    0    0  0.00000000000E+00  0.00000000000E+00  0.45593999997E+02  0.45594000000E+02  0.51100000000E-03 0.  1.
         11   -1    0    0    0    0 -0.00000000000E+00 -0.00000000000E+00 -0.45593999997E+02  0.45594000000E+02  0.51100000000E-03 0. -1.
         23    2    1    2    0    0  0.00000000000E+00  0.88817841970E-15  0.00000000000E+00  0.91188000000E+02  0.91188000000E+02 0.  0.
    9900012    2    3    3    0    0  0.26236674893E+02  0.51997330141E+01 -0.25305667828E+02  0.54367120637E+02  0.40000083115E+02 0.  0.
        -12    1    3    3    0    0 -0.26236674893E+02 -0.51997330141E+01  0.25305667828E+02  0.36820879363E+02  0.00000000000E+00 0.  1.
         11    1    4    4    0    0  0.19372481425E+01  0.73613706918E+01 -0.15278679180E+02  0.17069878341E+02  0.51100000000E-03 0. -1.
        -11    1    4    4    0    0  0.19071561692E+02 -0.12500751027E+02 -0.11635648706E+02  0.25600421142E+02  0.51100000000E-03 0.  1.
         12    1    4    4    0    0  0.52278650586E+01  0.10339113349E+02  0.16086600575E+01  0.11696821153E+02  0.00000000000E+00 0. -1.
</event>
<event>
 8    1  0.3106980E-007  0.9118800E+02  0.7816164E-02  0.1184000E+00
        -11   -1    0    0    0    0  0.00000000000E+00  0.00000000000E+00  0.45593999997E+02  0.45594000000E+02  0.51100000000E-03 0. -1.
         11   -1    0    0    0    0 -0.00000000000E+00 -0.00000000000E+00 -0.45593999997E+02  0.45594000000E+02  0.51100000000E-03 0.  1.
         23    2    1    2    0    0  0.18318679906E-14 -0.35527136788E-14  0.00000000000E+00  0.91188000000E+02  0.91188000000E+02 0.  0.
    9900012    2    3    3    0    0 -0.42165212636E+00 -0.31510056230E+02 -0.19045212849E+02  0.54367060759E+02  0.39999946612E+02 0.  0.
         12    1    3    3    0    0  0.42165212636E+00  0.31510056230E+02  0.19045212849E+02  0.36820939241E+02  0.00000000000E+00 0. -1.
         11    1    4    4    0    0 -0.16297566586E+02 -0.18881191244E+02 -0.13124694680E+02  0.28184528914E+02  0.51100000000E-03 0. -1.
        -11    1    4    4    0    0  0.15794671353E+02 -0.67410534293E+01 -0.91585357480E+01  0.19462585178E+02  0.51100000000E-03 0.  1.
        -12    1    4    4    0    0  0.81243106357E-01 -0.58878115571E+01  0.32380175791E+01  0.67199466677E+01  0.00000000000E+00 0.  1.
</event>
<event>
 8    1  0.3106980E-007  0.9118800E+02  0.7816164E-02  0.1184000E+00
        -11   -1    0    0    0    0  0.00000000000E+00  0.00000000000E+00  0.45593999997E+02  0.45594000000E+02  0.51100000000E-03 0. -1.
         11   -1    0    0    0    0 -0.00000000000E+00 -0.00000000000E+00 -0.45593999997E+02  0.45594000000E+02  0.51100000000E-03 0.  1.
         23    2    1    2    0    0  0.35527136788E-14  0.00000000000E+00 -0.44408920985E-15  0.91188000000E+02  0.91188000000E+02 0.  0.
    9900012    2    3    3    0    0 -0.31508552305E+02  0.18820409726E+02  0.29637170991E+01  0.54367077827E+02  0.39999985523E+02 0.  0.
         12    1    3    3    0    0  0.31508552305E+02 -0.18820409726E+02 -0.29637170991E+01  0.36820922173E+02  0.00000000000E+00 0. -1.
         11    1    4    4    0    0  0.35643187681E+01 -0.79130390367E+00  0.24178436176E+01  0.43790978716E+01  0.51100000000E-03 0. -1.
        -11    1    4    4    0    0 -0.35789477389E+02  0.14326957695E+02  0.93740777764E+01  0.39673942872E+02  0.51100000000E-03 0.  1.
        -12    1    4    4    0    0  0.71660631580E+00  0.52847559341E+01 -0.88282042949E+01  0.10314037084E+02  0.00000000000E+00 0.  1.
</event>
<event>
 8    1  0.3106980E-007  0.9118800E+02  0.7816164E-02  0.1184000E+00
        -11   -1    0    0    0    0  0.00000000000E+00  0.00000000000E+00  0.45593999997E+02  0.45594000000E+02  0.51100000000E-03 0.  1.
         11   -1    0    0    0    0 -0.00000000000E+00 -0.00000000000E+00 -0.45593999997E+02  0.45594000000E+02  0.51100000000E-03 0. -1.
         23    2    1    2    0    0  0.00000000000E+00  0.00000000000E+00  0.00000000000E+00  0.91188000000E+02  0.91188000000E+02 0.  0.
    9900012    2    3    3    0    0 -0.34898874996E+02 -0.88379855348E+01 -0.77288111090E+01  0.54367136547E+02  0.40000119386E+02 0.  0.
         12    1    3    3    0    0  0.34898874996E+02  0.88379855348E+01  0.77288111090E+01  0.36820863453E+02  0.00000000000E+00 0. -1.
         11    1    4    4    0    0 -0.39198955630E+01 -0.95828519093E+01 -0.54276704943E+01  0.11690005954E+02  0.51100000000E-03 0. -1.
        -11    1    4    4    0    0  0.15994426908E+01  0.78818561172E+01  0.35941648533E+01  0.88090802032E+01  0.51100000000E-03 0.  1.
        -12    1    4    4    0    0 -0.32578422124E+02 -0.71369897426E+01 -0.58953054680E+01  0.33868050390E+02  0.00000000000E+00 0.  1.
</event>
<event>
 8    1  0.3106980E-007  0.9118800E+02  0.7816164E-02  0.1184000E+00
        -11   -1    0    0    0    0  0.00000000000E+00  0.00000000000E+00  0.45593999997E+02  0.45594000000E+02  0.51100000000E-03 0. -1.
         11   -1    0    0    0    0 -0.00000000000E+00 -0.00000000000E+00 -0.45593999997E+02  0.45594000000E+02  0.51100000000E-03 0.  1.
         23    2    1    2    0    0  0.17763568394E-14  0.00000000000E+00  0.00000000000E+00  0.91188000000E+02  0.91188000000E+02 0.  0.
    9900012    2    3    3    0    0 -0.15134918943E+02  0.11826353314E+02  0.31414192899E+02  0.54367083123E+02  0.39999997596E+02 0.  0.
        -12    1    3    3    0    0  0.15134918943E+02 -0.11826353314E+02 -0.31414192899E+02  0.36820916877E+02  0.00000000000E+00 0.  1.
         11    1    4    4    0    0 -0.16139630432E+02  0.14246654513E+02  0.12800537967E+02  0.25046129597E+02  0.51100000000E-03 0. -1.
        -11    1    4    4    0    0 -0.10238607850E+02 -0.38241363073E+01  0.11869978939E+02  0.16135349685E+02  0.51100000000E-03 0.  1.
        -12    1    4    4    0    0  0.11243319338E+02  0.14038351089E+01  0.67436759936E+01  0.13185603841E+02  0.00000000000E+00 0.  1.
</event>
<event>
 8    1  0.3106980E-007  0.9118800E+02  0.7816164E-02  0.1184000E+00
        -11   -1    0    0    0    0  0.00000000000E+00  0.00000000000E+00  0.45593999997E+02  0.45594000000E+02  0.51100000000E-03 0. -1.
         11   -1    0    0    0    0 -0.00000000000E+00 -0.00000000000E+00 -0.45593999997E+02  0.45594000000E+02  0.51100000000E-03 0.  1.
         23    2    1    2    0    0  0.22204460493E-15  0.35527136788E-14  0.00000000000E+00  0.91188000000E+02  0.91188000000E+02 0.  0.
    9900012    2    3    3    0    0 -0.16746282749E+00  0.29941836175E+02  0.21429836265E+02  0.54367089098E+02  0.40000011216E+02 0.  0.
        -12    1    3    3    0    0  0.16746282749E+00 -0.29941836175E+02 -0.21429836265E+02  0.36820910902E+02  0.00000000000E+00 0.  1.
         11    1    4    4    0    0 -0.12419317225E+01  0.36048508302E+01 -0.34132573165E+01  0.51173889516E+01  0.51100000000E-03 0. -1.
        -11    1    4    4    0    0 -0.28512176087E+01 -0.39354330096E+01 -0.47058413889E+01  0.67647629865E+01  0.51100000000E-03 0.  1.
         12    1    4    4    0    0  0.39256865037E+01  0.30272418355E+02  0.29548934970E+02  0.42484937159E+02  0.00000000000E+00 0. -1.
</event>
<event>
 8    1  0.3106980E-007  0.9118800E+02  0.7816164E-02  0.1184000E+00
        -11   -1    0    0    0    0  0.00000000000E+00  0.00000000000E+00  0.45593999997E+02  0.45594000000E+02  0.51100000000E-03 0.  1.
         11   -1    0    0    0    0 -0.00000000000E+00 -0.00000000000E+00 -0.45593999997E+02  0.45594000000E+02  0.51100000000E-03 0. -1.
         23    2    1    2    0    0 -0.44408920985E-15 -0.13322676296E-14  0.00000000000E+00  0.91188000000E+02  0.91188000000E+02 0.  0.
    9900012    2    3    3    0    0  0.21439275062E+01 -0.25365783282E+01  0.36670767578E+02  0.54367138392E+02  0.40000123593E+02 0.  0.
         12    1    3    3    0    0 -0.21439275062E+01  0.25365783282E+01 -0.36670767578E+02  0.36820861608E+02  0.00000000000E+00 0. -1.
         11    1    4    4    0    0 -0.49504185069E+01  0.42207112167E+01  0.31094468063E+02  0.31767703584E+02  0.51100000000E-03 0. -1.
        -11    1    4    4    0    0  0.10649999319E+02 -0.11358767191E+02  0.18201212613E+01  0.15676636095E+02  0.51100000000E-03 0.  1.
         12    1    4    4    0    0 -0.35556533060E+01  0.46014776459E+01  0.37561782535E+01  0.69227987137E+01  0.00000000000E+00 0. -1.
</event>
<event>
 8    1  0.3106980E-007  0.9118800E+02  0.7816164E-02  0.1184000E+00
        -11   -1    0    0    0    0  0.00000000000E+00  0.00000000000E+00  0.45593999997E+02  0.45594000000E+02  0.51100000000E-03 0.  1.
         11   -1    0    0    0    0 -0.00000000000E+00 -0.00000000000E+00 -0.45593999997E+02  0.45594000000E+02  0.51100000000E-03 0. -1.
         23    2    1    2    0    0 -0.35527136788E-14  0.00000000000E+00  0.35527136788E-14  0.91188000000E+02  0.91188000000E+02 0.  0.
    9900012    2    3    3    0    0 -0.17918920391E+02  0.16149131470E+02  0.27819024117E+02  0.54367078528E+02  0.39999987120E+02 0.  0.
         12    1    3    3    0    0  0.17918920391E+02 -0.16149131470E+02 -0.27819024117E+02  0.36820921472E+02  0.00000000000E+00 0. -1.
         11    1    4    4    0    0 -0.25384484250E+01 -0.96547645546E+01  0.11471850707E+02  0.15207286343E+02  0.51100000000E-03 0. -1.
        -11    1    4    4    0    0 -0.74790234462E+01 -0.69030375973E+00  0.11121753333E+01  0.75927100052E+01  0.51100000000E-03 0.  1.
         12    1    4    4    0    0 -0.79014485197E+01  0.26494199785E+02  0.15234998078E+02  0.31567082180E+02  0.00000000000E+00 0. -1.
</event>
<event>
 8    1  0.3106980E-007  0.9118800E+02  0.7816164E-02  0.1184000E+00
        -11   -1    0    0    0    0  0.00000000000E+00  0.00000000000E+00  0.45593999997E+02  0.45594000000E+02  0.51100000000E-03 0. -1.
         11   -1    0    0    0    0 -0.00000000000E+00 -0.00000000000E+00 -0.45593999997E+02  0.45594000000E+02  0.51100000000E-03 0.  1.
         23    2    1    2    0    0  0.00000000000E+00  0.00000000000E+00  0.00000000000E+00  0.91188000000E+02  0.91188000000E+02 0.  0.
    9900012    2    3    3    0    0 -0.21650974640E+02  0.18233092128E+02 -0.23549332085E+02  0.54367063115E+02  0.39999951984E+02 0.  0.
         12    1    3    3    0    0  0.21650974640E+02 -0.18233092128E+02  0.23549332085E+02  0.36820936885E+02  0.00000000000E+00 0. -1.
         11    1    4    4    0    0 -0.15056797297E+02 -0.42566272642E+01 -0.11918036979E+02  0.19668899974E+02  0.51100000000E-03 0. -1.
        -11    1    4    4    0    0 -0.57971439969E+01  0.15003090247E+01 -0.12302992303E+02  0.13682888057E+02  0.51100000000E-03 0.  1.
         12    1    4    4    0    0 -0.79703334667E+00  0.20989410368E+02  0.67169719778E+00  0.21015275084E+02  0.00000000000E+00 0. -1.
</event>
<event>
 8    1  0.3106980E-007  0.9118800E+02  0.7816164E-02  0.1184000E+00
        -11   -1    0    0    0    0  0.00000000000E+00  0.00000000000E+00  0.45593999997E+02  0.45594000000E+02  0.51100000000E-03 0.  1.
         11   -1    0    0    0    0 -0.00000000000E+00 -0.00000000000E+00 -0.45593999997E+02  0.45594000000E+02  0.51100000000E-03 0. -1.
         23    2    1    2    0    0  0.35527136788E-14 -0.35527136788E-14  0.35527136788E-14  0.91188000000E+02  0.91188000000E+02 0.  0.
    9900012    2    3    3    0    0  0.18292158024E+02 -0.10379793453E+02  0.30223113734E+02  0.54367085277E+02  0.40000002506E+02 0.  0.
         12    1    3    3    0    0 -0.18292158024E+02  0.10379793453E+02 -0.30223113734E+02  0.36820914723E+02  0.00000000000E+00 0. -1.
         11    1    4    4    0    0 -0.57026282489E+01 -0.79495975651E+01  0.11648174006E+01  0.98525565327E+01  0.51100000000E-03 0. -1.
        -11    1    4    4    0    0  0.13511849571E+02 -0.11685227356E+02  0.88397989659E+01  0.19931298583E+02  0.51100000000E-03 0.  1.
         12    1    4    4    0    0  0.10482936701E+02  0.92550314682E+01  0.20218497367E+02  0.24583230161E+02  0.00000000000E+00 0. -1.
</event>
<event>
 8    1  0.3106980E-007  0.9118800E+02  0.7816164E-02  0.1184000E+00
        -11   -1    0    0    0    0  0.00000000000E+00  0.00000000000E+00  0.45593999997E+02  0.45594000000E+02  0.51100000000E-03 0. -1.
         11   -1    0    0    0    0 -0.00000000000E+00 -0.00000000000E+00 -0.45593999997E+02  0.45594000000E+02  0.51100000000E-03 0.  1.
         23    2    1    2    0    0  0.35527136788E-14  0.00000000000E+00 -0.35527136788E-14  0.91188000000E+02  0.91188000000E+02 0.  0.
    9900012    2    3    3    0    0  0.23101540018E+02 -0.12397262741E+02 -0.25853568114E+02  0.54367078516E+02  0.39999987093E+02 0.  0.
         12    1    3    3    0    0 -0.23101540018E+02  0.12397262741E+02  0.25853568114E+02  0.36820921484E+02  0.00000000000E+00 0. -1.
         11    1    4    4    0    0  0.12645654879E+02 -0.13127528128E+02 -0.20526001720E+02  0.27451071544E+02  0.51100000000E-03 0. -1.
        -11    1    4    4    0    0  0.13230358684E+02  0.79459602289E+01  0.28154351873E+01  0.15687808974E+02  0.51100000000E-03 0.  1.
         12    1    4    4    0    0 -0.27744735447E+01 -0.72156948425E+01 -0.81430015821E+01  0.11228197998E+02  0.00000000000E+00 0. -1.
</event>
<event>
 8    1  0.3106980E-007  0.9118800E+02  0.7816164E-02  0.1184000E+00
        -11   -1    0    0    0    0  0.00000000000E+00  0.00000000000E+00  0.45593999997E+02  0.45594000000E+02  0.51100000000E-03 0.  1.
         11   -1    0    0    0    0 -0.00000000000E+00 -0.00000000000E+00 -0.45593999997E+02  0.45594000000E+02  0.51100000000E-03 0. -1.
         23    2    1    2    0    0  0.44408920985E-15 -0.35527136788E-14  0.00000000000E+00  0.91188000000E+02  0.91188000000E+02 0.  0.
    9900012    2    3    3    0    0 -0.24367411649E+01  0.24914457163E+02 -0.27002062374E+02  0.54367092140E+02  0.40000018151E+02 0.  0.
        -12    1    3    3    0    0  0.24367411649E+01 -0.24914457163E+02  0.27002062374E+02  0.36820907860E+02  0.00000000000E+00 0.  1.
         11    1    4    4    0    0 -0.10345888258E+02 -0.30430907754E+01 -0.43705783426E+01  0.11636140281E+02  0.51100000000E-03 0. -1.
        -11    1    4    4    0    0  0.36981997860E+01 -0.37693818646E+00 -0.11350984861E+02  0.11944187776E+02  0.51100000000E-03 0.  1.
         12    1    4    4    0    0  0.42109473074E+01  0.28334486125E+02 -0.11280499171E+02  0.30786764083E+02  0.00000000000E+00 0. -1.
</event>
<event>
 8    1  0.3106980E-007  0.9118800E+02  0.7816164E-02  0.1184000E+00
        -11   -1    0    0    0    0  0.00000000000E+00  0.00000000000E+00  0.45593999997E+02  0.45594000000E+02  0.51100000000E-03 0. -1.
         11   -1    0    0    0    0 -0.00000000000E+00 -0.00000000000E+00 -0.45593999997E+02  0.45594000000E+02  0.51100000000E-03 0.  1.
         23    2    1    2    0    0  0.35527136788E-14  0.71054273576E-14 -0.17763568394E-14  0.91188000000E+02  0.91188000000E+02 0.  0.
    9900012    2    3    3    0    0  0.15408209693E+02  0.32254259426E+02 -0.88336090459E+01  0.54367043660E+02  0.39999907631E+02 0.  0.
         12    1    3    3    0    0 -0.15408209693E+02 -0.32254259426E+02  0.88336090459E+01  0.36820956340E+02  0.00000000000E+00 0. -1.
         11    1    4    4    0    0 -0.10110139719E+02  0.17122874804E+02  0.53926205945E+01  0.20603109567E+02  0.51100000000E-03 0. -1.
        -11    1    4    4    0    0  0.19294712704E+02  0.74748332513E+01 -0.86215136852E+01  0.22416279106E+02  0.51100000000E-03 0.  1.
        -12    1    4    4    0    0  0.62236367080E+01  0.76565513703E+01 -0.56047159552E+01  0.11347654987E+02  0.00000000000E+00 0.  1.
</event>
<event>
 8    1  0.3106980E-007  0.9118800E+02  0.7816164E-02  0.1184000E+00
        -11   -1    0    0    0    0  0.00000000000E+00  0.00000000000E+00  0.45593999997E+02  0.45594000000E+02  0.51100000000E-03 0.  1.
         11   -1    0    0    0    0 -0.00000000000E+00 -0.00000000000E+00 -0.45593999997E+02  0.45594000000E+02  0.51100000000E-03 0. -1.
         23    2    1    2    0    0  0.17763568394E-14  0.99920072216E-15  0.00000000000E+00  0.91188000000E+02  0.91188000000E+02 0.  0.
    9900012    2    3    3    0    0 -0.11509113091E+02 -0.44904592432E+00  0.34973128942E+02  0.54367067443E+02  0.39999961850E+02 0.  0.
         12    1    3    3    0    0  0.11509113091E+02  0.44904592432E+00 -0.34973128942E+02  0.36820932557E+02  0.00000000000E+00 0. -1.
         11    1    4    4    0    0  0.64768597896E+01 -0.33287965732E+00  0.12584491341E+02  0.14157328285E+02  0.51100000000E-03 0. -1.
        -11    1    4    4    0    0  0.11895906053E+01  0.92667038809E+01  0.14898946897E+02  0.17585947388E+02  0.51100000000E-03 0.  1.
        -12    1    4    4    0    0 -0.19175563486E+02 -0.93828701479E+01  0.74896907031E+01  0.22623791770E+02  0.00000000000E+00 0.  1.
</event>
<event>
 8    1  0.3106980E-007  0.9118800E+02  0.7816164E-02  0.1184000E+00
        -11   -1    0    0    0    0  0.00000000000E+00  0.00000000000E+00  0.45593999997E+02  0.45594000000E+02  0.51100000000E-03 0. -1.
         11   -1    0    0    0    0 -0.00000000000E+00 -0.00000000000E+00 -0.45593999997E+02  0.45594000000E+02  0.51100000000E-03 0.  1.
         23    2    1    2    0    0 -0.35527136788E-14 -0.71054273576E-14  0.17763568394E-14  0.91188000000E+02  0.91188000000E+02 0.  0.
    9900012    2    3    3    0    0 -0.16852272938E+02 -0.30283734086E+02  0.12436815918E+02  0.54367108599E+02  0.40000055674E+02 0.  0.
        -12    1    3    3    0    0  0.16852272938E+02  0.30283734086E+02 -0.12436815918E+02  0.36820891401E+02  0.00000000000E+00 0.  1.
         11    1    4    4    0    0 -0.12747345475E+02 -0.16849346846E+01  0.16217185242E+02  0.20696157107E+02  0.51100000000E-03 0. -1.
        -11    1    4    4    0    0  0.69164203577E+00 -0.27451661638E+02 -0.62390603608E+01  0.28160219634E+02  0.51100000000E-03 0.  1.
         12    1    4    4    0    0 -0.47965694984E+01 -0.11471377638E+01  0.24586910367E+01  0.55107318585E+01  0.00000000000E+00 0. -1.
</event>
<event>
 8    1  0.3106980E-007  0.9118800E+02  0.7816164E-02  0.1184000E+00
        -11   -1    0    0    0    0  0.00000000000E+00  0.00000000000E+00  0.45593999997E+02  0.45594000000E+02  0.51100000000E-03 0.  1.
         11   -1    0    0    0    0 -0.00000000000E+00 -0.00000000000E+00 -0.45593999997E+02  0.45594000000E+02  0.51100000000E-03 0. -1.
         23    2    1    2    0    0  0.35527136788E-14  0.00000000000E+00  0.35527136788E-14  0.91188000000E+02  0.91188000000E+02 0.  0.
    9900012    2    3    3    0    0  0.30400858530E+02  0.14454115121E+02  0.14921267153E+02  0.54367111136E+02  0.40000061456E+02 0.  0.
         12    1    3    3    0    0 -0.30400858530E+02 -0.14454115121E+02 -0.14921267153E+02  0.36820888864E+02  0.00000000000E+00 0. -1.
         11    1    4    4    0    0 -0.24960819890E+01  0.58221088045E+00  0.85074126039E+01  0.88851260137E+01  0.51100000000E-03 0. -1.
        -11    1    4    4    0    0  0.20091189463E+02 -0.46145135262E+01  0.96510347088E+01  0.22761636592E+02  0.51100000000E-03 0.  1.
        -12    1    4    4    0    0  0.12805751055E+02  0.18486417767E+02 -0.32371801593E+01  0.22720348530E+02  0.00000000000E+00 0.  1.
</event>
<event>
 8    1  0.3106980E-007  0.9118800E+02  0.7816164E-02  0.1184000E+00
        -11   -1    0    0    0    0  0.00000000000E+00  0.00000000000E+00  0.45593999997E+02  0.45594000000E+02  0.51100000000E-03 0.  1.
         11   -1    0    0    0    0 -0.00000000000E+00 -0.00000000000E+00 -0.45593999997E+02  0.45594000000E+02  0.51100000000E-03 0. -1.
         23    2    1    2    0    0  0.00000000000E+00  0.00000000000E+00  0.00000000000E+00  0.91188000000E+02  0.91188000000E+02 0.  0.
    9900012    2    3    3    0    0  0.30624083856E+02 -0.41183120732E+01  0.20024612367E+02  0.54367080582E+02  0.39999991802E+02 0.  0.
         12    1    3    3    0    0 -0.30624083856E+02  0.41183120732E+01 -0.20024612367E+02  0.36820919418E+02  0.00000000000E+00 0. -1.
         11    1    4    4    0    0  0.90780507743E+01  0.11776449953E+02 -0.63494387168E+01  0.16168214238E+02  0.51100000000E-03 0. -1.
        -11    1    4    4    0    0  0.74256840967E+01 -0.84883218730E+01  0.14222875816E+02  0.18151655276E+02  0.51100000000E-03 0.  1.
         12    1    4    4    0    0  0.14120348985E+02 -0.74064401531E+01  0.12151175268E+02  0.20047211068E+02  0.00000000000E+00 0. -1.
</event>
<event>
 8    1  0.3106980E-007  0.9118800E+02  0.7816164E-02  0.1184000E+00
        -11   -1    0    0    0    0  0.00000000000E+00  0.00000000000E+00  0.45593999997E+02  0.45594000000E+02  0.51100000000E-03 0.  1.
         11   -1    0    0    0    0 -0.00000000000E+00 -0.00000000000E+00 -0.45593999997E+02  0.45594000000E+02  0.51100000000E-03 0. -1.
         23    2    1    2    0    0 -0.17763568394E-14  0.00000000000E+00 -0.35527136788E-14  0.91188000000E+02  0.91188000000E+02 0.  0.
    9900012    2    3    3    0    0 -0.70346503215E+01 -0.25219877047E+02  0.25889210245E+02  0.54367085963E+02  0.40000004070E+02 0.  0.
         12    1    3    3    0    0  0.70346503215E+01  0.25219877047E+02 -0.25889210245E+02  0.36820914037E+02  0.00000000000E+00 0. -1.
         11    1    4    4    0    0 -0.21190731264E+01 -0.91169998887E+01  0.37627529394E+01  0.10088035876E+02  0.51100000000E-03 0. -1.
        -11    1    4    4    0    0  0.13573509358E+02 -0.11468099825E+02  0.45308595754E+01  0.18338106736E+02  0.51100000000E-03 0.  1.
        -12    1    4    4    0    0 -0.18489086553E+02 -0.46347773328E+01  0.17595597730E+02  0.25940943352E+02  0.00000000000E+00 0.  1.
</event>
<event>
 8    1  0.3106980E-007  0.9118800E+02  0.7816164E-02  0.1184000E+00
        -11   -1    0    0    0    0  0.00000000000E+00  0.00000000000E+00  0.45593999997E+02  0.45594000000E+02  0.51100000000E-03 0. -1.
         11   -1    0    0    0    0 -0.00000000000E+00 -0.00000000000E+00 -0.45593999997E+02  0.45594000000E+02  0.51100000000E-03 0.  1.
         23    2    1    2    0    0  0.00000000000E+00  0.35527136788E-14  0.00000000000E+00  0.91188000000E+02  0.91188000000E+02 0.  0.
    9900012    2    3    3    0    0  0.26867449234E+02 -0.15209238639E+02 -0.20064891579E+02  0.54367073308E+02  0.39999975221E+02 0.  0.
         12    1    3    3    0    0 -0.26867449234E+02  0.15209238639E+02  0.20064891579E+02  0.36820926692E+02  0.00000000000E+00 0. -1.
         11    1    4    4    0    0  0.11751181161E+02 -0.16086742062E+02  0.43783555650E+01  0.20397145060E+02  0.51100000000E-03 0. -1.
        -11    1    4    4    0    0  0.15409705852E+02  0.60422069473E+01 -0.23448841523E+02  0.28702185775E+02  0.51100000000E-03 0.  1.
        -12    1    4    4    0    0 -0.29343777895E+00 -0.51647035243E+01 -0.99440562075E+00  0.52677424731E+01  0.00000000000E+00 0.  1.
</event>
<event>
 8    1  0.3106980E-007  0.9118800E+02  0.7816164E-02  0.1184000E+00
        -11   -1    0    0    0    0  0.00000000000E+00  0.00000000000E+00  0.45593999997E+02  0.45594000000E+02  0.51100000000E-03 0.  1.
         11   -1    0    0    0    0 -0.00000000000E+00 -0.00000000000E+00 -0.45593999997E+02  0.45594000000E+02  0.51100000000E-03 0. -1.
         23    2    1    2    0    0 -0.88817841970E-15 -0.35527136788E-14  0.00000000000E+00  0.91188000000E+02  0.91188000000E+02 0.  0.
    9900012    2    3    3    0    0  0.53335556090E+01 -0.25074095990E+02  0.26431451843E+02  0.54367098983E+02  0.40000033752E+02 0.  0.
         12    1    3    3    0    0 -0.53335556090E+01  0.25074095990E+02 -0.26431451843E+02  0.36820901017E+02  0.00000000000E+00 0. -1.
         11    1    4    4    0    0 -0.12286342432E+02 -0.20369924216E+02  0.21795587030E+01  0.23888040927E+02  0.51100000000E-03 0. -1.
        -11    1    4    4    0    0  0.14196941844E+01 -0.18433959155E+00  0.34031927829E+01  0.36920501135E+01  0.51100000000E-03 0.  1.
         12    1    4    4    0    0  0.16200203857E+02 -0.45198321829E+01  0.20848700357E+02  0.26787007943E+02  0.00000000000E+00 0. -1.
</event>
<event>
 8    1  0.3106980E-007  0.9118800E+02  0.7816164E-02  0.1184000E+00
        -11   -1    0    0    0    0  0.00000000000E+00  0.00000000000E+00  0.45593999997E+02  0.45594000000E+02  0.51100000000E-03 0.  1.
         11   -1    0    0    0    0 -0.00000000000E+00 -0.00000000000E+00 -0.45593999997E+02  0.45594000000E+02  0.51100000000E-03 0. -1.
         23    2    1    2    0    0 -0.88817841970E-15  0.88817841970E-15  0.00000000000E+00  0.91188000000E+02  0.91188000000E+02 0.  0.
    9900012    2    3    3    0    0  0.50001401286E+01 -0.77433755235E+01 -0.35648506790E+02  0.54367118667E+02  0.40000078624E+02 0.  0.
        -12    1    3    3    0    0 -0.50001401286E+01  0.77433755235E+01  0.35648506790E+02  0.36820881333E+02  0.00000000000E+00 0.  1.
         11    1    4    4    0    0 -0.11108147299E+02  0.32745331208E+00 -0.35006975835E+01  0.11651310910E+02  0.51100000000E-03 0. -1.
        -11    1    4    4    0    0  0.85695967154E+01 -0.36158325148E+00  0.23969037990E+00  0.85805700307E+01  0.51100000000E-03 0.  1.
         12    1    4    4    0    0  0.75386907122E+01 -0.77092455840E+01 -0.32387499587E+02  0.34135237726E+02  0.00000000000E+00 0. -1.
</event>
<event>
 8    1  0.3106980E-007  0.9118800E+02  0.7816164E-02  0.1184000E+00
        -11   -1    0    0    0    0  0.00000000000E+00  0.00000000000E+00  0.45593999997E+02  0.45594000000E+02  0.51100000000E-03 0.  1.
         11   -1    0    0    0    0 -0.00000000000E+00 -0.00000000000E+00 -0.45593999997E+02  0.45594000000E+02  0.51100000000E-03 0. -1.
         23    2    1    2    0    0 -0.71054273576E-14  0.00000000000E+00 -0.35527136788E-14  0.91188000000E+02  0.91188000000E+02 0.  0.
    9900012    2    3    3    0    0  0.30461439465E+02 -0.16170068684E+02  0.12899772403E+02  0.54367156126E+02  0.40000164020E+02 0.  0.
         12    1    3    3    0    0 -0.30461439465E+02  0.16170068684E+02 -0.12899772403E+02  0.36820843874E+02  0.00000000000E+00 0. -1.
         11    1    4    4    0    0  0.64332207314E+01  0.61996840225E+01  0.18380229881E+02  0.20436615711E+02  0.51100000000E-03 0. -1.
        -11    1    4    4    0    0  0.20021307516E+02 -0.14880869187E+02 -0.48570004521E+01  0.25414237665E+02  0.51100000000E-03 0.  1.
        -12    1    4    4    0    0  0.40069112173E+01 -0.74888835197E+01 -0.62345702606E+00  0.85163027505E+01  0.00000000000E+00 0.  1.
</event>
<event>
 8    1  0.3106980E-007  0.9118800E+02  0.7816164E-02  0.1184000E+00
        -11   -1    0    0    0    0  0.00000000000E+00  0.00000000000E+00  0.45593999997E+02  0.45594000000E+02  0.51100000000E-03 0. -1.
         11   -1    0    0    0    0 -0.00000000000E+00 -0.00000000000E+00 -0.45593999997E+02  0.45594000000E+02  0.51100000000E-03 0.  1.
         23    2    1    2    0    0  0.00000000000E+00  0.00000000000E+00  0.35527136788E-14  0.91188000000E+02  0.91188000000E+02 0.  0.
    9900012    2    3    3    0    0 -0.14655757583E+02  0.23924156220E+02  0.23845789865E+02  0.54367106808E+02  0.40000051590E+02 0.  0.
        -12    1    3    3    0    0  0.14655757583E+02 -0.23924156220E+02 -0.23845789865E+02  0.36820893192E+02  0.00000000000E+00 0.  1.
         11    1    4    4    0    0 -0.66229713738E+01  0.35122571321E+01 -0.28835425845E+01  0.80320930074E+01  0.51100000000E-03 0. -1.
        -11    1    4    4    0    0 -0.73215159346E+01 -0.71729097666E+01  0.75564745765E+01  0.12734030720E+02  0.51100000000E-03 0.  1.
         12    1    4    4    0    0 -0.71127027409E+00  0.27584808854E+02  0.19172857873E+02  0.33600983080E+02  0.00000000000E+00 0. -1.
</event>
<event>
 8    1  0.3106980E-007  0.9118800E+02  0.7816164E-02  0.1184000E+00
        -11   -1    0    0    0    0  0.00000000000E+00  0.00000000000E+00  0.45593999997E+02  0.45594000000E+02  0.51100000000E-03 0.  1.
         11   -1    0    0    0    0 -0.00000000000E+00 -0.00000000000E+00 -0.45593999997E+02  0.45594000000E+02  0.51100000000E-03 0. -1.
         23    2    1    2    0    0  0.00000000000E+00  0.00000000000E+00 -0.17763568394E-14  0.91188000000E+02  0.91188000000E+02 0.  0.
    9900012    2    3    3    0    0  0.35528375011E+02  0.58474864888E+01  0.77020522926E+01  0.54367080149E+02  0.39999990815E+02 0.  0.
        -12    1    3    3    0    0 -0.35528375011E+02 -0.58474864888E+01 -0.77020522926E+01  0.36820919851E+02  0.00000000000E+00 0.  1.
         11    1    4    4    0    0  0.22164162665E+02  0.85063653743E+01  0.20355100056E+02  0.31272007564E+02  0.51100000000E-03 0. -1.
        -11    1    4    4    0    0 -0.82568028587E+00 -0.36421137182E+00 -0.79059019930E+01  0.79572410069E+01  0.51100000000E-03 0.  1.
         12    1    4    4    0    0  0.14189892632E+02 -0.22946675137E+01 -0.47471457709E+01  0.15137831578E+02  0.00000000000E+00 0. -1.
</event>
<event>
 8    1  0.3106980E-007  0.9118800E+02  0.7816164E-02  0.1184000E+00
        -11   -1    0    0    0    0  0.00000000000E+00  0.00000000000E+00  0.45593999997E+02  0.45594000000E+02  0.51100000000E-03 0. -1.
         11   -1    0    0    0    0 -0.00000000000E+00 -0.00000000000E+00 -0.45593999997E+02  0.45594000000E+02  0.51100000000E-03 0.  1.
         23    2    1    2    0    0  0.00000000000E+00 -0.35527136788E-14  0.00000000000E+00  0.91188000000E+02  0.91188000000E+02 0.  0.
    9900012    2    3    3    0    0  0.20346714943E+02  0.13129753768E+02  0.27738061682E+02  0.54367091418E+02  0.40000016505E+02 0.  0.
        -12    1    3    3    0    0 -0.20346714943E+02 -0.13129753768E+02 -0.27738061682E+02  0.36820908582E+02  0.00000000000E+00 0.  1.
         11    1    4    4    0    0  0.11386944354E+02  0.19838774023E+02  0.35397459632E+01  0.23146690005E+02  0.51100000000E-03 0. -1.
        -11    1    4    4    0    0  0.15352123722E+01  0.50775823468E+01  0.10057689481E+02  0.11370832752E+02  0.51100000000E-03 0.  1.
        -12    1    4    4    0    0  0.74245582167E+01 -0.11786602602E+02  0.14140626237E+02  0.19849568660E+02  0.00000000000E+00 0.  1.
</event>
<event>
 8    1  0.3106980E-007  0.9118800E+02  0.7816164E-02  0.1184000E+00
        -11   -1    0    0    0    0  0.00000000000E+00  0.00000000000E+00  0.45593999997E+02  0.45594000000E+02  0.51100000000E-03 0. -1.
         11   -1    0    0    0    0 -0.00000000000E+00 -0.00000000000E+00 -0.45593999997E+02  0.45594000000E+02  0.51100000000E-03 0.  1.
         23    2    1    2    0    0  0.22204460493E-14  0.35527136788E-14  0.00000000000E+00  0.91188000000E+02  0.91188000000E+02 0.  0.
    9900012    2    3    3    0    0 -0.34842072653E+01 -0.24438648147E+02  0.27320151223E+02  0.54367110734E+02  0.40000060540E+02 0.  0.
        -12    1    3    3    0    0  0.34842072653E+01  0.24438648147E+02 -0.27320151223E+02  0.36820889266E+02  0.00000000000E+00 0.  1.
         11    1    4    4    0    0 -0.10651351882E+02  0.80870960908E+01  0.65421325917E+01  0.14887979017E+02  0.51100000000E-03 0. -1.
        -11    1    4    4    0    0  0.21515134305E+01 -0.12868206626E+02  0.10439747188E+02  0.16709520443E+02  0.51100000000E-03 0.  1.
         12    1    4    4    0    0  0.50156311861E+01 -0.19657537612E+02  0.10338271443E+02  0.22769611274E+02  0.00000000000E+00 0. -1.
</event>
<event>
 8    1  0.3106980E-007  0.9118800E+02  0.7816164E-02  0.1184000E+00
        -11   -1    0    0    0    0  0.00000000000E+00  0.00000000000E+00  0.45593999997E+02  0.45594000000E+02  0.51100000000E-03 0.  1.
         11   -1    0    0    0    0 -0.00000000000E+00 -0.00000000000E+00 -0.45593999997E+02  0.45594000000E+02  0.51100000000E-03 0. -1.
         23    2    1    2    0    0  0.00000000000E+00  0.00000000000E+00  0.17763568394E-14  0.91188000000E+02  0.91188000000E+02 0.  0.
    9900012    2    3    3    0    0 -0.34445497741E+02  0.59586870937E+01 -0.11566415152E+02  0.54367078963E+02  0.39999988113E+02 0.  0.
        -12    1    3    3    0    0  0.34445497741E+02 -0.59586870937E+01  0.11566415152E+02  0.36820921037E+02  0.00000000000E+00 0.  1.
         11    1    4    4    0    0 -0.10763408532E+02  0.56225622798E+01  0.26159731820E+01  0.12422056422E+02  0.51100000000E-03 0. -1.
        -11    1    4    4    0    0  0.53312281308E+01 -0.73943238897E+01 -0.56733142203E+01  0.10737062618E+02  0.51100000000E-03 0.  1.
        -12    1    4    4    0    0 -0.29013317340E+02  0.77304487036E+01 -0.85090741139E+01  0.31207959922E+02  0.00000000000E+00 0.  1.
</event>
<event>
 8    1  0.3106980E-007  0.9118800E+02  0.7816164E-02  0.1184000E+00
        -11   -1    0    0    0    0  0.00000000000E+00  0.00000000000E+00  0.45593999997E+02  0.45594000000E+02  0.51100000000E-03 0. -1.
         11   -1    0    0    0    0 -0.00000000000E+00 -0.00000000000E+00 -0.45593999997E+02  0.45594000000E+02  0.51100000000E-03 0.  1.
         23    2    1    2    0    0  0.35527136788E-14  0.17763568394E-14  0.00000000000E+00  0.91188000000E+02  0.91188000000E+02 0.  0.
    9900012    2    3    3    0    0 -0.28438841097E+02  0.11489147183E+02 -0.20371812322E+02  0.54367096654E+02  0.40000028443E+02 0.  0.
         12    1    3    3    0    0  0.28438841097E+02 -0.11489147183E+02  0.20371812322E+02  0.36820903346E+02  0.00000000000E+00 0. -1.
         11    1    4    4    0    0 -0.24373378535E+02 -0.70909773497E+01 -0.21201549380E+02  0.33073391682E+02  0.51100000000E-03 0.  1.
        -11    1    4    4    0    0 -0.70860948547E+01  0.13584488462E+02 -0.40396112279E+00  0.15326912667E+02  0.51100000000E-03 0. -1.
        -12    1    4    4    0    0  0.30206322932E+01  0.49956360710E+01  0.12336981815E+01  0.59667923048E+01  0.00000000000E+00 0.  1.
</event>
<event>
 8    1  0.3106980E-007  0.9118800E+02  0.7816164E-02  0.1184000E+00
        -11   -1    0    0    0    0  0.00000000000E+00  0.00000000000E+00  0.45593999997E+02  0.45594000000E+02  0.51100000000E-03 0. -1.
         11   -1    0    0    0    0 -0.00000000000E+00 -0.00000000000E+00 -0.45593999997E+02  0.45594000000E+02  0.51100000000E-03 0.  1.
         23    2    1    2    0    0  0.00000000000E+00  0.35527136788E-14  0.00000000000E+00  0.91188000000E+02  0.91188000000E+02 0.  0.
    9900012    2    3    3    0    0 -0.21754263055E+02  0.16027246430E+02 -0.25013185223E+02  0.54367081704E+02  0.39999994360E+02 0.  0.
         12    1    3    3    0    0  0.21754263055E+02 -0.16027246430E+02  0.25013185223E+02  0.36820918296E+02  0.00000000000E+00 0. -1.
         11    1    4    4    0    0 -0.23391175443E+02  0.68824029007E+01 -0.45985383587E+00  0.24387005230E+02  0.51100000000E-03 0. -1.
        -11    1    4    4    0    0 -0.61455297987E+01  0.16456106826E+01 -0.82109862740E+01  0.10387293530E+02  0.51100000000E-03 0.  1.
         12    1    4    4    0    0  0.77824421866E+01  0.74992328464E+01 -0.16342345113E+02  0.19592782944E+02  0.00000000000E+00 0. -1.
</event>
<event>
 8    1  0.3106980E-007  0.9118800E+02  0.7816164E-02  0.1184000E+00
        -11   -1    0    0    0    0  0.00000000000E+00  0.00000000000E+00  0.45593999997E+02  0.45594000000E+02  0.51100000000E-03 0.  1.
         11   -1    0    0    0    0 -0.00000000000E+00 -0.00000000000E+00 -0.45593999997E+02  0.45594000000E+02  0.51100000000E-03 0. -1.
         23    2    1    2    0    0 -0.35527136788E-14  0.00000000000E+00  0.00000000000E+00  0.91188000000E+02  0.91188000000E+02 0.  0.
    9900012    2    3    3    0    0  0.17031967510E+02 -0.31097376057E+02  0.99320072264E+01  0.54367089060E+02  0.40000011130E+02 0.  0.
         12    1    3    3    0    0 -0.17031967510E+02  0.31097376057E+02 -0.99320072264E+01  0.36820910940E+02  0.00000000000E+00 0. -1.
         11    1    4    4    0    0  0.59262833496E+01  0.19846372516E+00 -0.10663454776E+02  0.12201208555E+02  0.51100000000E-03 0. -1.
        -11    1    4    4    0    0  0.58041083755E+01 -0.11716308371E+02 -0.25311827061E+00  0.13077600124E+02  0.51100000000E-03 0.  1.
        -12    1    4    4    0    0  0.53015757847E+01 -0.19579531411E+02  0.20848580273E+02  0.29088280381E+02  0.00000000000E+00 0.  1.
</event>
<event>
 8    1  0.3106980E-007  0.9118800E+02  0.7816164E-02  0.1184000E+00
        -11   -1    0    0    0    0  0.00000000000E+00  0.00000000000E+00  0.45593999997E+02  0.45594000000E+02  0.51100000000E-03 0.  1.
         11   -1    0    0    0    0 -0.00000000000E+00 -0.00000000000E+00 -0.45593999997E+02  0.45594000000E+02  0.51100000000E-03 0. -1.
         23    2    1    2    0    0  0.53290705182E-14  0.88817841970E-15 -0.71054273576E-14  0.91188000000E+02  0.91188000000E+02 0.  0.
    9900012    2    3    3    0    0 -0.82829915549E+01 -0.58230649452E+01  0.35401428080E+02  0.54367120807E+02  0.40000083504E+02 0.  0.
         12    1    3    3    0    0  0.82829915549E+01  0.58230649452E+01 -0.35401428080E+02  0.36820879193E+02  0.00000000000E+00 0. -1.
         11    1    4    4    0    0 -0.39755788825E+01 -0.11632861904E+02  0.85042051340E+01  0.14948251026E+02  0.51100000000E-03 0. -1.
        -11    1    4    4    0    0 -0.16194349567E+02  0.47057368878E+01  0.16354787071E+02  0.23492125872E+02  0.51100000000E-03 0.  1.
         12    1    4    4    0    0  0.11886936895E+02  0.11040600705E+01  0.10542435874E+02  0.15926743909E+02  0.00000000000E+00 0. -1.
</event>
<event>
 8    1  0.3106980E-007  0.9118800E+02  0.7816164E-02  0.1184000E+00
        -11   -1    0    0    0    0  0.00000000000E+00  0.00000000000E+00  0.45593999997E+02  0.45594000000E+02  0.51100000000E-03 0.  1.
         11   -1    0    0    0    0 -0.00000000000E+00 -0.00000000000E+00 -0.45593999997E+02  0.45594000000E+02  0.51100000000E-03 0. -1.
         23    2    1    2    0    0 -0.88817841970E-15  0.00000000000E+00  0.00000000000E+00  0.91188000000E+02  0.91188000000E+02 0.  0.
    9900012    2    3    3    0    0  0.67829305778E+01 -0.10393159477E+02  0.34666305799E+02  0.54367100108E+02  0.40000036316E+02 0.  0.
         12    1    3    3    0    0 -0.67829305778E+01  0.10393159477E+02 -0.34666305799E+02  0.36820899892E+02  0.00000000000E+00 0. -1.
         11    1    4    4    0    0  0.49792211317E+01  0.11712987933E+02  0.14016911733E+02  0.18933054275E+02  0.51100000000E-03 0. -1.
        -11    1    4    4    0    0  0.21949757806E+01 -0.85131742739E+01 -0.19997361224E+01  0.90161521569E+01  0.51100000000E-03 0.  1.
        -12    1    4    4    0    0 -0.39126633449E+00 -0.13592973135E+02  0.22649130188E+02  0.26417893676E+02  0.00000000000E+00 0.  1.
</event>
<event>
 8    1  0.3106980E-007  0.9118800E+02  0.7816164E-02  0.1184000E+00
        -11   -1    0    0    0    0  0.00000000000E+00  0.00000000000E+00  0.45593999997E+02  0.45594000000E+02  0.51100000000E-03 0.  1.
         11   -1    0    0    0    0 -0.00000000000E+00 -0.00000000000E+00 -0.45593999997E+02  0.45594000000E+02  0.51100000000E-03 0. -1.
         23    2    1    2    0    0 -0.35527136788E-14  0.00000000000E+00  0.00000000000E+00  0.91188000000E+02  0.91188000000E+02 0.  0.
    9900012    2    3    3    0    0  0.30335595368E+02 -0.16998601394E+02 -0.12107001209E+02  0.54367078312E+02  0.39999986628E+02 0.  0.
        -12    1    3    3    0    0 -0.30335595368E+02  0.16998601394E+02  0.12107001209E+02  0.36820921688E+02  0.00000000000E+00 0.  1.
         11    1    4    4    0    0  0.14003809225E+02 -0.10788935265E+02 -0.11716234654E+02  0.21207969061E+02  0.51100000000E-03 0. -1.
        -11    1    4    4    0    0 -0.30167964116E+01  0.80244927225E+01  0.25874445210E+01  0.89547983480E+01  0.51100000000E-03 0.  1.
        -12    1    4    4    0    0  0.19348582554E+02 -0.14234158852E+02 -0.29782110760E+01  0.24204310903E+02  0.00000000000E+00 0.  1.
</event>
<event>
 8    1  0.3106980E-007  0.9118800E+02  0.7816164E-02  0.1184000E+00
        -11   -1    0    0    0    0  0.00000000000E+00  0.00000000000E+00  0.45593999997E+02  0.45594000000E+02  0.51100000000E-03 0.  1.
         11   -1    0    0    0    0 -0.00000000000E+00 -0.00000000000E+00 -0.45593999997E+02  0.45594000000E+02  0.51100000000E-03 0. -1.
         23    2    1    2    0    0 -0.19428902931E-14 -0.35527136788E-14  0.00000000000E+00  0.91188000000E+02  0.91188000000E+02 0.  0.
    9900012    2    3    3    0    0 -0.13877625881E+00 -0.16199624956E+02 -0.33065577684E+02  0.54367088344E+02  0.40000009498E+02 0.  0.
        -12    1    3    3    0    0  0.13877625881E+00  0.16199624956E+02  0.33065577684E+02  0.36820911656E+02  0.00000000000E+00 0.  1.
         11    1    4    4    0    0 -0.24919842583E+00  0.60154087641E+01 -0.12739707896E+02  0.14090684866E+02  0.51100000000E-03 0. -1.
        -11    1    4    4    0    0  0.11374870313E+02 -0.46933976924E+01 -0.13706797957E+02  0.18419879669E+02  0.51100000000E-03 0.  1.
        -12    1    4    4    0    0 -0.11264448146E+02 -0.17521636028E+02 -0.66190718315E+01  0.21856523809E+02  0.00000000000E+00 0.  1.
</event>
<event>
 8    1  0.3106980E-007  0.9118800E+02  0.7816164E-02  0.1184000E+00
        -11   -1    0    0    0    0  0.00000000000E+00  0.00000000000E+00  0.45593999997E+02  0.45594000000E+02  0.51100000000E-03 0.  1.
         11   -1    0    0    0    0 -0.00000000000E+00 -0.00000000000E+00 -0.45593999997E+02  0.45594000000E+02  0.51100000000E-03 0. -1.
         23    2    1    2    0    0 -0.55511151231E-16  0.71054273576E-14 -0.17763568394E-14  0.91188000000E+02  0.91188000000E+02 0.  0.
    9900012    2    3    3    0    0 -0.33405449273E+00  0.35172471953E+02  0.10888749143E+02  0.54367092439E+02  0.40000018833E+02 0.  0.
         12    1    3    3    0    0  0.33405449273E+00 -0.35172471953E+02 -0.10888749143E+02  0.36820907561E+02  0.00000000000E+00 0. -1.
         11    1    4    4    0    0  0.31001678787E+01  0.19758070849E+02  0.12332100785E+02  0.23496236179E+02  0.51100000000E-03 0.  1.
        -11    1    4    4    0    0  0.96969930062E+01 -0.56127500522E+00  0.19709387043E+01  0.99111705984E+01  0.51100000000E-03 0. -1.
         12    1    4    4    0    0 -0.13131215378E+02  0.15975676110E+02 -0.34142903463E+01  0.20959685662E+02  0.00000000000E+00 0. -1.
</event>
<event>
 8    1  0.3106980E-007  0.9118800E+02  0.7816164E-02  0.1184000E+00
        -11   -1    0    0    0    0  0.00000000000E+00  0.00000000000E+00  0.45593999997E+02  0.45594000000E+02  0.51100000000E-03 0. -1.
         11   -1    0    0    0    0 -0.00000000000E+00 -0.00000000000E+00 -0.45593999997E+02  0.45594000000E+02  0.51100000000E-03 0.  1.
         23    2    1    2    0    0 -0.17763568394E-14 -0.88817841970E-15  0.00000000000E+00  0.91188000000E+02  0.91188000000E+02 0.  0.
    9900012    2    3    3    0    0 -0.82100715969E+01  0.30956205217E+01 -0.35760195163E+02  0.54367086104E+02  0.40000004391E+02 0.  0.
         12    1    3    3    0    0  0.82100715969E+01 -0.30956205217E+01  0.35760195163E+02  0.36820913896E+02  0.00000000000E+00 0. -1.
         11    1    4    4    0    0  0.12806844692E+02  0.12790420334E+01 -0.80681220480E+01  0.15190319718E+02  0.51100000000E-03 0. -1.
        -11    1    4    4    0    0 -0.72666513706E+01  0.42633300128E+01 -0.30071785711E+00  0.84303402322E+01  0.51100000000E-03 0.  1.
        -12    1    4    4    0    0 -0.13750264919E+02 -0.24467515245E+01 -0.27391355258E+02  0.30746426154E+02  0.00000000000E+00 0.  1.
</event>
<event>
 8    1  0.3106980E-007  0.9118800E+02  0.7816164E-02  0.1184000E+00
        -11   -1    0    0    0    0  0.00000000000E+00  0.00000000000E+00  0.45593999997E+02  0.45594000000E+02  0.51100000000E-03 0.  1.
         11   -1    0    0    0    0 -0.00000000000E+00 -0.00000000000E+00 -0.45593999997E+02  0.45594000000E+02  0.51100000000E-03 0. -1.
         23    2    1    2    0    0  0.35527136788E-14  0.26645352591E-14  0.71054273576E-14  0.91188000000E+02  0.91188000000E+02 0.  0.
    9900012    2    3    3    0    0  0.14874753980E+02  0.43434759483E+01  0.33401480170E+02  0.54367041745E+02  0.39999903265E+02 0.  0.
         12    1    3    3    0    0 -0.14874753980E+02 -0.43434759483E+01 -0.33401480170E+02  0.36820958255E+02  0.00000000000E+00 0. -1.
         11    1    4    4    0    0 -0.95508171843E+01  0.10480186661E+01  0.92205155723E+01  0.13316694774E+02  0.51100000000E-03 0. -1.
        -11    1    4    4    0    0  0.25736225825E+02  0.88170471109E+01  0.17798172192E+02  0.32509515116E+02  0.51100000000E-03 0.  1.
        -12    1    4    4    0    0 -0.13106546603E+01 -0.55215898286E+01  0.63827924061E+01  0.85408318549E+01  0.00000000000E+00 0.  1.
</event>
<event>
 8    1  0.3106980E-007  0.9118800E+02  0.7816164E-02  0.1184000E+00
        -11   -1    0    0    0    0  0.00000000000E+00  0.00000000000E+00  0.45593999997E+02  0.45594000000E+02  0.51100000000E-03 0. -1.
         11   -1    0    0    0    0 -0.00000000000E+00 -0.00000000000E+00 -0.45593999997E+02  0.45594000000E+02  0.51100000000E-03 0.  1.
         23    2    1    2    0    0  0.35527136788E-14  0.35527136788E-14  0.17763568394E-14  0.91188000000E+02  0.91188000000E+02 0.  0.
    9900012    2    3    3    0    0  0.23886014005E+02  0.23798992674E+02  0.14793439873E+02  0.54367087727E+02  0.40000008092E+02 0.  0.
        -12    1    3    3    0    0 -0.23886014005E+02 -0.23798992674E+02 -0.14793439873E+02  0.36820912273E+02  0.00000000000E+00 0.  1.
         11    1    4    4    0    0  0.27978388638E+02  0.65728985659E+01  0.50028786267E+01  0.29172281727E+02  0.51100000000E-03 0. -1.
        -11    1    4    4    0    0  0.33428270427E+01  0.15122352108E+02  0.64810286844E+01  0.16788798616E+02  0.51100000000E-03 0.  1.
        -12    1    4    4    0    0 -0.74352016758E+01  0.21037419999E+01  0.33095325615E+01  0.84060073839E+01  0.00000000000E+00 0.  1.
</event>
<event>
 8    1  0.3106980E-007  0.9118800E+02  0.7816164E-02  0.1184000E+00
        -11   -1    0    0    0    0  0.00000000000E+00  0.00000000000E+00  0.45593999997E+02  0.45594000000E+02  0.51100000000E-03 0.  1.
         11   -1    0    0    0    0 -0.00000000000E+00 -0.00000000000E+00 -0.45593999997E+02  0.45594000000E+02  0.51100000000E-03 0. -1.
         23    2    1    2    0    0 -0.17763568394E-14  0.00000000000E+00  0.00000000000E+00  0.91188000000E+02  0.91188000000E+02 0.  0.
    9900012    2    3    3    0    0 -0.15712783568E+02 -0.30406269052E+02  0.13577465769E+02  0.54367077390E+02  0.39999984527E+02 0.  0.
        -12    1    3    3    0    0  0.15712783568E+02  0.30406269052E+02 -0.13577465769E+02  0.36820922610E+02  0.00000000000E+00 0.  1.
         11    1    4    4    0    0 -0.21347649444E+01 -0.88710959071E+01 -0.36492827639E+01  0.98270457876E+01  0.51100000000E-03 0. -1.
        -11    1    4    4    0    0 -0.11915561769E+02 -0.23333130893E+02 -0.93278870377E+00  0.26216134433E+02  0.51100000000E-03 0.  1.
        -12    1    4    4    0    0 -0.16624568542E+01  0.17979577484E+01  0.18159537237E+02  0.18323897170E+02  0.00000000000E+00 0.  1.
</event>
<event>
 8    1  0.3106980E-007  0.9118800E+02  0.7816164E-02  0.1184000E+00
        -11   -1    0    0    0    0  0.00000000000E+00  0.00000000000E+00  0.45593999997E+02  0.45594000000E+02  0.51100000000E-03 0.  1.
         11   -1    0    0    0    0 -0.00000000000E+00 -0.00000000000E+00 -0.45593999997E+02  0.45594000000E+02  0.51100000000E-03 0. -1.
         23    2    1    2    0    0 -0.88817841970E-15 -0.35527136788E-14  0.35527136788E-14  0.91188000000E+02  0.91188000000E+02 0.  0.
    9900012    2    3    3    0    0  0.58825200565E+01 -0.24931856989E+02  0.26449537551E+02  0.54367087847E+02  0.40000008365E+02 0.  0.
         12    1    3    3    0    0 -0.58825200565E+01  0.24931856989E+02 -0.26449537551E+02  0.36820912153E+02  0.00000000000E+00 0. -1.
         11    1    4    4    0    0  0.73137034147E+00  0.44042966904E+01  0.45416967319E+01  0.63686530271E+01  0.51100000000E-03 0. -1.
        -11    1    4    4    0    0  0.31493916912E+01 -0.30032445197E+02  0.28225621662E+02  0.41334636215E+02  0.51100000000E-03 0.  1.
        -12    1    4    4    0    0  0.20017580238E+01  0.69629151760E+00 -0.63177808438E+01  0.66637986054E+01  0.00000000000E+00 0.  1.
</event>
<event>
 8    1  0.3106980E-007  0.9118800E+02  0.7816164E-02  0.1184000E+00
        -11   -1    0    0    0    0  0.00000000000E+00  0.00000000000E+00  0.45593999997E+02  0.45594000000E+02  0.51100000000E-03 0.  1.
         11   -1    0    0    0    0 -0.00000000000E+00 -0.00000000000E+00 -0.45593999997E+02  0.45594000000E+02  0.51100000000E-03 0. -1.
         23    2    1    2    0    0  0.00000000000E+00 -0.88817841970E-15  0.17763568394E-14  0.91188000000E+02  0.91188000000E+02 0.  0.
    9900012    2    3    3    0    0  0.32889136679E+02  0.50856770404E+01 -0.15755047098E+02  0.54367069383E+02  0.39999966272E+02 0.  0.
        -12    1    3    3    0    0 -0.32889136679E+02 -0.50856770404E+01  0.15755047098E+02  0.36820930617E+02  0.00000000000E+00 0.  1.
         11    1    4    4    0    0  0.35972452663E+02  0.79124789198E+01 -0.65403582706E+00  0.36838192632E+02  0.51100000000E-03 0. -1.
        -11    1    4    4    0    0  0.10208247760E+01 -0.12373893591E+01 -0.12090804860E+02  0.12196752767E+02  0.51100000000E-03 0.  1.
         12    1    4    4    0    0 -0.41041407600E+01 -0.15894125204E+01 -0.30102064115E+01  0.53321239837E+01  0.00000000000E+00 0. -1.
</event>
<event>
 8    1  0.3106980E-007  0.9118800E+02  0.7816164E-02  0.1184000E+00
        -11   -1    0    0    0    0  0.00000000000E+00  0.00000000000E+00  0.45593999997E+02  0.45594000000E+02  0.51100000000E-03 0. -1.
         11   -1    0    0    0    0 -0.00000000000E+00 -0.00000000000E+00 -0.45593999997E+02  0.45594000000E+02  0.51100000000E-03 0.  1.
         23    2    1    2    0    0  0.00000000000E+00  0.35527136788E-14  0.35527136788E-14  0.91188000000E+02  0.91188000000E+02 0.  0.
    9900012    2    3    3    0    0 -0.24072310615E+02  0.17181102541E+02  0.21934346730E+02  0.54367055018E+02  0.39999933524E+02 0.  0.
        -12    1    3    3    0    0  0.24072310615E+02 -0.17181102541E+02 -0.21934346730E+02  0.36820944982E+02  0.00000000000E+00 0.  1.
         11    1    4    4    0    0 -0.43385432549E+01 -0.59818993494E+01 -0.83274041886E+00  0.74363656626E+01  0.51100000000E-03 0.  1.
        -11    1    4    4    0    0 -0.10036167328E+02  0.28237048774E+02  0.15016094562E+02  0.33519228426E+02  0.51100000000E-03 0. -1.
         12    1    4    4    0    0 -0.96976000328E+01 -0.50740468838E+01  0.77509925871E+01  0.13411460929E+02  0.00000000000E+00 0. -1.
</event>
<event>
 8    1  0.3106980E-007  0.9118800E+02  0.7816164E-02  0.1184000E+00
        -11   -1    0    0    0    0  0.00000000000E+00  0.00000000000E+00  0.45593999997E+02  0.45594000000E+02  0.51100000000E-03 0. -1.
         11   -1    0    0    0    0 -0.00000000000E+00 -0.00000000000E+00 -0.45593999997E+02  0.45594000000E+02  0.51100000000E-03 0.  1.
         23    2    1    2    0    0  0.00000000000E+00  0.88817841970E-15 -0.17763568394E-14  0.91188000000E+02  0.91188000000E+02 0.  0.
    9900012    2    3    3    0    0 -0.34087687563E+02  0.71388230042E+01 -0.11951828972E+02  0.54367089459E+02  0.40000012039E+02 0.  0.
         12    1    3    3    0    0  0.34087687563E+02 -0.71388230042E+01  0.11951828972E+02  0.36820910541E+02  0.00000000000E+00 0. -1.
         11    1    4    4    0    0 -0.15337316458E+02  0.79485982194E+01  0.35079127330E+01  0.17627221613E+02  0.51100000000E-03 0. -1.
        -11    1    4    4    0    0 -0.18759169549E+02  0.98689674805E+01 -0.49715662776E+01  0.21771987342E+02  0.51100000000E-03 0.  1.
        -12    1    4    4    0    0  0.87984439528E-02 -0.10678742696E+02 -0.10488175428E+02  0.14967880504E+02  0.00000000000E+00 0.  1.
</event>
<event>
 8    1  0.3106980E-007  0.9118800E+02  0.7816164E-02  0.1184000E+00
        -11   -1    0    0    0    0  0.00000000000E+00  0.00000000000E+00  0.45593999997E+02  0.45594000000E+02  0.51100000000E-03 0. -1.
         11   -1    0    0    0    0 -0.00000000000E+00 -0.00000000000E+00 -0.45593999997E+02  0.45594000000E+02  0.51100000000E-03 0.  1.
         23    2    1    2    0    0  0.00000000000E+00  0.00000000000E+00 -0.35527136788E-14  0.91188000000E+02  0.91188000000E+02 0.  0.
    9900012    2    3    3    0    0 -0.19092690499E+02 -0.40709109609E+01 -0.31219820338E+02  0.54367077572E+02  0.39999984940E+02 0.  0.
         12    1    3    3    0    0  0.19092690499E+02  0.40709109609E+01  0.31219820338E+02  0.36820922428E+02  0.00000000000E+00 0. -1.
         11    1    4    4    0    0  0.89969330342E+01  0.42696298185E+01 -0.11769674055E+02  0.15417515053E+02  0.51100000000E-03 0. -1.
        -11    1    4    4    0    0 -0.53892697727E+01 -0.93354226972E+01 -0.41216546362E+01  0.11540467184E+02  0.51100000000E-03 0.  1.
         12    1    4    4    0    0 -0.22700353761E+02  0.99488191777E+00 -0.15328491647E+02  0.27409095335E+02  0.00000000000E+00 0. -1.
</event>
<event>
 8    1  0.3106980E-007  0.9118800E+02  0.7816164E-02  0.1184000E+00
        -11   -1    0    0    0    0  0.00000000000E+00  0.00000000000E+00  0.45593999997E+02  0.45594000000E+02  0.51100000000E-03 0.  1.
         11   -1    0    0    0    0 -0.00000000000E+00 -0.00000000000E+00 -0.45593999997E+02  0.45594000000E+02  0.51100000000E-03 0. -1.
         23    2    1    2    0    0  0.35527136788E-14  0.17763568394E-14  0.00000000000E+00  0.91188000000E+02  0.91188000000E+02 0.  0.
    9900012    2    3    3    0    0  0.26808724012E+02 -0.14955444243E+02  0.20332428899E+02  0.54367073061E+02  0.39999974658E+02 0.  0.
         12    1    3    3    0    0 -0.26808724012E+02  0.14955444243E+02 -0.20332428899E+02  0.36820926939E+02  0.00000000000E+00 0. -1.
         11    1    4    4    0    0  0.19720792181E+02 -0.15149014285E+02  0.17615031771E+02  0.30474442121E+02  0.51100000000E-03 0. -1.
        -11    1    4    4    0    0  0.55204040407E+01  0.10695454692E+02 -0.21251751819E+01  0.12222273997E+02  0.51100000000E-03 0.  1.
         12    1    4    4    0    0  0.15675277906E+01 -0.10501884651E+02  0.48425723103E+01  0.11670356943E+02  0.00000000000E+00 0. -1.
</event>
<event>
 8    1  0.3106980E-007  0.9118800E+02  0.7816164E-02  0.1184000E+00
        -11   -1    0    0    0    0  0.00000000000E+00  0.00000000000E+00  0.45593999997E+02  0.45594000000E+02  0.51100000000E-03 0. -1.
         11   -1    0    0    0    0 -0.00000000000E+00 -0.00000000000E+00 -0.45593999997E+02  0.45594000000E+02  0.51100000000E-03 0.  1.
         23    2    1    2    0    0  0.35527136788E-14  0.00000000000E+00  0.00000000000E+00  0.91188000000E+02  0.91188000000E+02 0.  0.
    9900012    2    3    3    0    0 -0.28095582152E+02 -0.17106280167E+02  0.16546720523E+02  0.54367075003E+02  0.39999979083E+02 0.  0.
        -12    1    3    3    0    0  0.28095582152E+02  0.17106280167E+02 -0.16546720523E+02  0.36820924997E+02  0.00000000000E+00 0.  1.
         11    1    4    4    0    0 -0.12930072889E+02 -0.77126247494E+01  0.59208637976E+00  0.15067246994E+02  0.51100000000E-03 0. -1.
        -11    1    4    4    0    0 -0.23239235528E+02  0.28274442034E+00  0.91453337119E+01  0.24975570890E+02  0.51100000000E-03 0.  1.
        -12    1    4    4    0    0  0.80737262650E+01 -0.96763998381E+01  0.68093004313E+01  0.14324257118E+02  0.00000000000E+00 0.  1.
</event>
<event>
 8    1  0.3106980E-007  0.9118800E+02  0.7816164E-02  0.1184000E+00
        -11   -1    0    0    0    0  0.00000000000E+00  0.00000000000E+00  0.45593999997E+02  0.45594000000E+02  0.51100000000E-03 0.  1.
         11   -1    0    0    0    0 -0.00000000000E+00 -0.00000000000E+00 -0.45593999997E+02  0.45594000000E+02  0.51100000000E-03 0. -1.
         23    2    1    2    0    0  0.00000000000E+00  0.00000000000E+00  0.88817841970E-15  0.91188000000E+02  0.91188000000E+02 0.  0.
    9900012    2    3    3    0    0 -0.27008654359E+02 -0.23912578123E+02 -0.73824643274E+01  0.54367087704E+02  0.40000008038E+02 0.  0.
         12    1    3    3    0    0  0.27008654359E+02  0.23912578123E+02  0.73824643274E+01  0.36820912296E+02  0.00000000000E+00 0. -1.
         11    1    4    4    0    0  0.13272653725E+01 -0.11229216188E+02 -0.45101936037E+01  0.12173691969E+02  0.51100000000E-03 0. -1.
        -11    1    4    4    0    0 -0.19811657774E+02  0.44584583332E+01 -0.88295023285E+01  0.22143616373E+02  0.51100000000E-03 0.  1.
        -12    1    4    4    0    0 -0.85242619580E+01 -0.17141820268E+02  0.59572316049E+01  0.20049779361E+02  0.00000000000E+00 0.  1.
</event>
<event>
 8    1  0.3106980E-007  0.9118800E+02  0.7816164E-02  0.1184000E+00
        -11   -1    0    0    0    0  0.00000000000E+00  0.00000000000E+00  0.45593999997E+02  0.45594000000E+02  0.51100000000E-03 0.  1.
         11   -1    0    0    0    0 -0.00000000000E+00 -0.00000000000E+00 -0.45593999997E+02  0.45594000000E+02  0.51100000000E-03 0. -1.
         23    2    1    2    0    0 -0.17763568394E-14  0.35527136788E-14  0.00000000000E+00  0.91188000000E+02  0.91188000000E+02 0.  0.
    9900012    2    3    3    0    0  0.82305371566E+01 -0.30828454684E+02 -0.18375128268E+02  0.54367072540E+02  0.39999973470E+02 0.  0.
        -12    1    3    3    0    0 -0.82305371566E+01  0.30828454684E+02  0.18375128268E+02  0.36820927460E+02  0.00000000000E+00 0.  1.
         11    1    4    4    0    0  0.78602461763E+01  0.14193346770E+01  0.27708918346E+00  0.79921686390E+01  0.51100000000E-03 0. -1.
        -11    1    4    4    0    0  0.45098179134E+01 -0.34609291023E+02 -0.96862760192E+01  0.36221063293E+02  0.51100000000E-03 0.  1.
         12    1    4    4    0    0 -0.41395269331E+01  0.23615016610E+01 -0.89659414326E+01  0.10153840608E+02  0.00000000000E+00 0. -1.
</event>
<event>
 8    1  0.3106980E-007  0.9118800E+02  0.7816164E-02  0.1184000E+00
        -11   -1    0    0    0    0  0.00000000000E+00  0.00000000000E+00  0.45593999997E+02  0.45594000000E+02  0.51100000000E-03 0.  1.
         11   -1    0    0    0    0 -0.00000000000E+00 -0.00000000000E+00 -0.45593999997E+02  0.45594000000E+02  0.51100000000E-03 0. -1.
         23    2    1    2    0    0  0.00000000000E+00  0.17763568394E-14  0.00000000000E+00  0.91188000000E+02  0.91188000000E+02 0.  0.
    9900012    2    3    3    0    0 -0.34296734100E+02  0.12124951552E+02 -0.57013057567E+01  0.54367009962E+02  0.39999830810E+02 0.  0.
         12    1    3    3    0    0  0.34296734100E+02 -0.12124951552E+02  0.57013057567E+01  0.36820990038E+02  0.00000000000E+00 0. -1.
         11    1    4    4    0    0  0.78599625617E+00 -0.10884981274E+02  0.92901766142E+00  0.10952793321E+02  0.51100000000E-03 0. -1.
        -11    1    4    4    0    0  0.81366042802E-01  0.91820327089E+00  0.80765640108E+00  0.12255720309E+01  0.51100000000E-03 0.  1.
        -12    1    4    4    0    0 -0.35164096399E+02  0.22091729555E+02 -0.74379798192E+01  0.42188644610E+02  0.00000000000E+00 0.  1.
</event>
<event>
 8    1  0.3106980E-007  0.9118800E+02  0.7816164E-02  0.1184000E+00
        -11   -1    0    0    0    0  0.00000000000E+00  0.00000000000E+00  0.45593999997E+02  0.45594000000E+02  0.51100000000E-03 0.  1.
         11   -1    0    0    0    0 -0.00000000000E+00 -0.00000000000E+00 -0.45593999997E+02  0.45594000000E+02  0.51100000000E-03 0. -1.
         23    2    1    2    0    0  0.00000000000E+00  0.00000000000E+00  0.17763568394E-14  0.91188000000E+02  0.91188000000E+02 0.  0.
    9900012    2    3    3    0    0 -0.21327496116E+02 -0.26100570712E+02 -0.14821571854E+02  0.54367070160E+02  0.39999968044E+02 0.  0.
        -12    1    3    3    0    0  0.21327496116E+02  0.26100570712E+02  0.14821571854E+02  0.36820929840E+02  0.00000000000E+00 0.  1.
         11    1    4    4    0    0 -0.15261226975E+02  0.49323641454E+01  0.72533067989E+00  0.16054886163E+02  0.51100000000E-03 0. -1.
        -11    1    4    4    0    0 -0.45262556554E+01 -0.33834146114E+01 -0.76593607768E+01  0.95184185903E+01  0.51100000000E-03 0.  1.
        -12    1    4    4    0    0 -0.15400134854E+01 -0.27649520246E+02 -0.78875417571E+01  0.28793765407E+02  0.00000000000E+00 0.  1.
</event>
<event>
 8    1  0.3106980E-007  0.9118800E+02  0.7816164E-02  0.1184000E+00
        -11   -1    0    0    0    0  0.00000000000E+00  0.00000000000E+00  0.45593999997E+02  0.45594000000E+02  0.51100000000E-03 0.  1.
         11   -1    0    0    0    0 -0.00000000000E+00 -0.00000000000E+00 -0.45593999997E+02  0.45594000000E+02  0.51100000000E-03 0. -1.
         23    2    1    2    0    0  0.00000000000E+00 -0.88817841970E-15  0.00000000000E+00  0.91188000000E+02  0.91188000000E+02 0.  0.
    9900012    2    3    3    0    0  0.35002555203E+02  0.60606196961E+01 -0.96885941265E+01  0.54367097811E+02  0.40000031081E+02 0.  0.
         12    1    3    3    0    0 -0.35002555203E+02 -0.60606196961E+01  0.96885941265E+01  0.36820902189E+02  0.00000000000E+00 0. -1.
         11    1    4    4    0    0  0.16265425193E+02  0.19240143523E+01 -0.20379112337E+02  0.26145250197E+02  0.51100000000E-03 0. -1.
        -11    1    4    4    0    0  0.14924679021E+02 -0.23216816821E+01  0.13455895571E+02  0.20228627625E+02  0.51100000000E-03 0.  1.
        -12    1    4    4    0    0  0.38124509885E+01  0.64582870258E+01 -0.27653773606E+01  0.79932199891E+01  0.00000000000E+00 0.  1.
</event>
<event>
 8    1  0.3106980E-007  0.9118800E+02  0.7816164E-02  0.1184000E+00
        -11   -1    0    0    0    0  0.00000000000E+00  0.00000000000E+00  0.45593999997E+02  0.45594000000E+02  0.51100000000E-03 0. -1.
         11   -1    0    0    0    0 -0.00000000000E+00 -0.00000000000E+00 -0.45593999997E+02  0.45594000000E+02  0.51100000000E-03 0.  1.
         23    2    1    2    0    0  0.00000000000E+00  0.17763568394E-14 -0.35527136788E-14  0.91188000000E+02  0.91188000000E+02 0.  0.
    9900012    2    3    3    0    0  0.20477222786E+02  0.14282017833E+02 -0.27064559812E+02  0.54367040151E+02  0.39999899631E+02 0.  0.
         12    1    3    3    0    0 -0.20477222786E+02 -0.14282017833E+02  0.27064559812E+02  0.36820959849E+02  0.00000000000E+00 0. -1.
         11    1    4    4    0    0  0.31412735974E+02  0.11089078022E+02 -0.25809192862E+02  0.42140741204E+02  0.51100000000E-03 0. -1.
        -11    1    4    4    0    0 -0.39075052472E+01  0.31614074935E+01  0.27414996986E+00  0.50337116588E+01  0.51100000000E-03 0.  1.
        -12    1    4    4    0    0 -0.70280079400E+01  0.31532317462E-01 -0.15295169196E+01  0.71925872882E+01  0.00000000000E+00 0.  1.
</event>
<event>
 8    1  0.3106980E-007  0.9118800E+02  0.7816164E-02  0.1184000E+00
        -11   -1    0    0    0    0  0.00000000000E+00  0.00000000000E+00  0.45593999997E+02  0.45594000000E+02  0.51100000000E-03 0. -1.
         11   -1    0    0    0    0 -0.00000000000E+00 -0.00000000000E+00 -0.45593999997E+02  0.45594000000E+02  0.51100000000E-03 0.  1.
         23    2    1    2    0    0 -0.35527136788E-14  0.00000000000E+00  0.00000000000E+00  0.91188000000E+02  0.91188000000E+02 0.  0.
    9900012    2    3    3    0    0  0.29877078938E+02 -0.14322374190E+02 -0.16062692828E+02  0.54367077291E+02  0.39999984299E+02 0.  0.
        -12    1    3    3    0    0 -0.29877078938E+02  0.14322374190E+02  0.16062692828E+02  0.36820922709E+02  0.00000000000E+00 0.  1.
         11    1    4    4    0    0  0.88654185901E+01  0.16505129131E+00 -0.19553973738E+01  0.90800037366E+01  0.51100000000E-03 0. -1.
        -11    1    4    4    0    0  0.26832353544E+02 -0.55522678234E+00 -0.40425680136E+01  0.27140851680E+02  0.51100000000E-03 0.  1.
        -12    1    4    4    0    0 -0.58206931963E+01 -0.13932198698E+02 -0.10064727441E+02  0.18146221874E+02  0.00000000000E+00 0.  1.
</event>
<event>
 8    1  0.3106980E-007  0.9118800E+02  0.7816164E-02  0.1184000E+00
        -11   -1    0    0    0    0  0.00000000000E+00  0.00000000000E+00  0.45593999997E+02  0.45594000000E+02  0.51100000000E-03 0. -1.
         11   -1    0    0    0    0 -0.00000000000E+00 -0.00000000000E+00 -0.45593999997E+02  0.45594000000E+02  0.51100000000E-03 0.  1.
         23    2    1    2    0    0  0.00000000000E+00 -0.17763568394E-14  0.00000000000E+00  0.91188000000E+02  0.91188000000E+02 0.  0.
    9900012    2    3    3    0    0 -0.13606457196E+02 -0.11719049528E+02  0.32145107724E+02  0.54367085429E+02  0.40000002852E+02 0.  0.
        -12    1    3    3    0    0  0.13606457196E+02  0.11719049528E+02 -0.32145107724E+02  0.36820914571E+02  0.00000000000E+00 0.  1.
         11    1    4    4    0    0 -0.22259531952E+01 -0.48821904656E+01  0.12618167078E+02  0.13711629810E+02  0.51100000000E-03 0. -1.
        -11    1    4    4    0    0  0.10433637708E+02 -0.80074257354E+01  0.36482315493E+01  0.13648782233E+02  0.51100000000E-03 0.  1.
        -12    1    4    4    0    0 -0.21814141709E+02  0.11705666725E+01  0.15878709097E+02  0.27006673387E+02  0.00000000000E+00 0.  1.
</event>
<event>
 8    1  0.3106980E-007  0.9118800E+02  0.7816164E-02  0.1184000E+00
        -11   -1    0    0    0    0  0.00000000000E+00  0.00000000000E+00  0.45593999997E+02  0.45594000000E+02  0.51100000000E-03 0.  1.
         11   -1    0    0    0    0 -0.00000000000E+00 -0.00000000000E+00 -0.45593999997E+02  0.45594000000E+02  0.51100000000E-03 0. -1.
         23    2    1    2    0    0  0.35527136788E-14  0.00000000000E+00  0.71054273576E-14  0.91188000000E+02  0.91188000000E+02 0.  0.
    9900012    2    3    3    0    0  0.16498480847E+02 -0.18509281458E+02  0.27221068376E+02  0.54367082930E+02  0.39999997156E+02 0.  0.
         12    1    3    3    0    0 -0.16498480847E+02  0.18509281458E+02 -0.27221068376E+02  0.36820917070E+02  0.00000000000E+00 0. -1.
         11    1    4    4    0    0  0.10640867801E+02 -0.98212093392E+01  0.26198652387E+02  0.29934154533E+02  0.51100000000E-03 0.  1.
        -11    1    4    4    0    0 -0.32370558687E+01 -0.12658901163E+02 -0.35006330115E+01  0.13527037410E+02  0.51100000000E-03 0. -1.
        -12    1    4    4    0    0  0.90946689143E+01  0.39708290449E+01  0.45230490005E+01  0.10905890987E+02  0.00000000000E+00 0.  1.
</event>
<event>
 8    1  0.3106980E-007  0.9118800E+02  0.7816164E-02  0.1184000E+00
        -11   -1    0    0    0    0  0.00000000000E+00  0.00000000000E+00  0.45593999997E+02  0.45594000000E+02  0.51100000000E-03 0.  1.
         11   -1    0    0    0    0 -0.00000000000E+00 -0.00000000000E+00 -0.45593999997E+02  0.45594000000E+02  0.51100000000E-03 0. -1.
         23    2    1    2    0    0 -0.17763568394E-14  0.00000000000E+00  0.00000000000E+00  0.91188000000E+02  0.91188000000E+02 0.  0.
    9900012    2    3    3    0    0 -0.11642775746E+02  0.32166271709E+02  0.13621661719E+02  0.54367178028E+02  0.40000213949E+02 0.  0.
        -12    1    3    3    0    0  0.11642775746E+02 -0.32166271709E+02 -0.13621661719E+02  0.36820821972E+02  0.00000000000E+00 0.  1.
         11    1    4    4    0    0 -0.49994874274E+01 -0.40697387338E+01 -0.87925951973E+01  0.10902631722E+02  0.51100000000E-03 0.  1.
        -11    1    4    4    0    0 -0.69926528056E+01  0.25317275111E+02  0.16841474016E+02  0.31200911198E+02  0.51100000000E-03 0. -1.
        -12    1    4    4    0    0  0.34936448722E+00  0.10918735332E+02  0.55727829006E+01  0.12263635107E+02  0.00000000000E+00 0.  1.
</event>
<event>
 8    1  0.3106980E-007  0.9118800E+02  0.7816164E-02  0.1184000E+00
        -11   -1    0    0    0    0  0.00000000000E+00  0.00000000000E+00  0.45593999997E+02  0.45594000000E+02  0.51100000000E-03 0. -1.
         11   -1    0    0    0    0 -0.00000000000E+00 -0.00000000000E+00 -0.45593999997E+02  0.45594000000E+02  0.51100000000E-03 0.  1.
         23    2    1    2    0    0  0.00000000000E+00 -0.35527136788E-14  0.00000000000E+00  0.91188000000E+02  0.91188000000E+02 0.  0.
    9900012    2    3    3    0    0 -0.25719870852E+02  0.26065020125E+02 -0.38579288923E+01  0.54367073259E+02  0.39999975108E+02 0.  0.
        -12    1    3    3    0    0  0.25719870852E+02 -0.26065020125E+02  0.38579288923E+01  0.36820926741E+02  0.00000000000E+00 0.  1.
         11    1    4    4    0    0 -0.72297969338E+01 -0.47369587434E+01 -0.42320128107E+01  0.96238596484E+01  0.51100000000E-03 0. -1.
        -11    1    4    4    0    0 -0.11606057515E+02  0.33426277699E+02 -0.48458551944E+01  0.35714127803E+02  0.51100000000E-03 0.  1.
         12    1    4    4    0    0 -0.68840164023E+01 -0.26242988311E+01  0.52199391129E+01  0.90290858078E+01  0.00000000000E+00 0. -1.
</event>
<event>
 8    1  0.3106980E-007  0.9118800E+02  0.7816164E-02  0.1184000E+00
        -11   -1    0    0    0    0  0.00000000000E+00  0.00000000000E+00  0.45593999997E+02  0.45594000000E+02  0.51100000000E-03 0. -1.
         11   -1    0    0    0    0 -0.00000000000E+00 -0.00000000000E+00 -0.45593999997E+02  0.45594000000E+02  0.51100000000E-03 0.  1.
         23    2    1    2    0    0  0.00000000000E+00  0.00000000000E+00  0.00000000000E+00  0.91188000000E+02  0.91188000000E+02 0.  0.
    9900012    2    3    3    0    0 -0.81291261798E+01 -0.13118920138E+02 -0.33430385384E+02  0.54367089841E+02  0.40000012910E+02 0.  0.
         12    1    3    3    0    0  0.81291261798E+01  0.13118920138E+02  0.33430385384E+02  0.36820910159E+02  0.00000000000E+00 0. -1.
         11    1    4    4    0    0  0.72531670251E+00 -0.42014249339E+01 -0.33097730124E+01  0.53974673180E+01  0.51100000000E-03 0. -1.
        -11    1    4    4    0    0  0.27430907183E+01 -0.13620741346E+02  0.24218114142E+01  0.14103698532E+02  0.51100000000E-03 0.  1.
        -12    1    4    4    0    0 -0.11597533601E+02  0.47032461415E+01 -0.32542423785E+02  0.34865923991E+02  0.00000000000E+00 0.  1.
</event>
<event>
 8    1  0.3106980E-007  0.9118800E+02  0.7816164E-02  0.1184000E+00
        -11   -1    0    0    0    0  0.00000000000E+00  0.00000000000E+00  0.45593999997E+02  0.45594000000E+02  0.51100000000E-03 0.  1.
         11   -1    0    0    0    0 -0.00000000000E+00 -0.00000000000E+00 -0.45593999997E+02  0.45594000000E+02  0.51100000000E-03 0. -1.
         23    2    1    2    0    0  0.00000000000E+00 -0.35527136788E-14 -0.35527136788E-14  0.91188000000E+02  0.91188000000E+02 0.  0.
    9900012    2    3    3    0    0  0.87433386594E+01 -0.30896002989E+02 -0.18021414044E+02  0.54367077472E+02  0.39999984714E+02 0.  0.
        -12    1    3    3    0    0 -0.87433386594E+01  0.30896002989E+02  0.18021414044E+02  0.36820922528E+02  0.00000000000E+00 0.  1.
         11    1    4    4    0    0 -0.13426930210E+01  0.38611569361E+01  0.60820120272E+01  0.73281804013E+01  0.51100000000E-03 0.  1.
        -11    1    4    4    0    0 -0.22930878302E+01 -0.28014212798E+01 -0.87843454338E+01  0.95011019332E+01  0.51100000000E-03 0. -1.
        -12    1    4    4    0    0  0.12379119511E+02 -0.31955738646E+02 -0.15319080637E+02  0.37537795138E+02  0.00000000000E+00 0.  1.
</event>
<event>
 8    1  0.3106980E-007  0.9118800E+02  0.7816164E-02  0.1184000E+00
        -11   -1    0    0    0    0  0.00000000000E+00  0.00000000000E+00  0.45593999997E+02  0.45594000000E+02  0.51100000000E-03 0. -1.
         11   -1    0    0    0    0 -0.00000000000E+00 -0.00000000000E+00 -0.45593999997E+02  0.45594000000E+02  0.51100000000E-03 0.  1.
         23    2    1    2    0    0  0.17763568394E-14 -0.17763568394E-14  0.00000000000E+00  0.91188000000E+02  0.91188000000E+02 0.  0.
    9900012    2    3    3    0    0 -0.13087647451E+02  0.85508864252E+01  0.33337310705E+02  0.54367075792E+02  0.39999980883E+02 0.  0.
        -12    1    3    3    0    0  0.13087647451E+02 -0.85508864252E+01 -0.33337310705E+02  0.36820924208E+02  0.00000000000E+00 0.  1.
         11    1    4    4    0    0  0.33141371274E+01 -0.62835191820E+01  0.97146005831E+01  0.12034931780E+02  0.51100000000E-03 0. -1.
        -11    1    4    4    0    0 -0.45041862725E+01  0.83533447295E+01 -0.49546702900E+01  0.10705831126E+02  0.51100000000E-03 0.  1.
        -12    1    4    4    0    0 -0.11897598305E+02  0.64810608776E+01  0.28577380412E+02  0.31626312886E+02  0.00000000000E+00 0.  1.
</event>
<event>
 8    1  0.3106980E-007  0.9118800E+02  0.7816164E-02  0.1184000E+00
        -11   -1    0    0    0    0  0.00000000000E+00  0.00000000000E+00  0.45593999997E+02  0.45594000000E+02  0.51100000000E-03 0. -1.
         11   -1    0    0    0    0 -0.00000000000E+00 -0.00000000000E+00 -0.45593999997E+02  0.45594000000E+02  0.51100000000E-03 0.  1.
         23    2    1    2    0    0  0.00000000000E+00  0.00000000000E+00  0.00000000000E+00  0.91188000000E+02  0.91188000000E+02 0.  0.
    9900012    2    3    3    0    0  0.29129403386E+02 -0.49252571105E+01 -0.21977229633E+02  0.54367096676E+02  0.40000028493E+02 0.  0.
         12    1    3    3    0    0 -0.29129403386E+02  0.49252571105E+01  0.21977229633E+02  0.36820903324E+02  0.00000000000E+00 0. -1.
         11    1    4    4    0    0  0.96674356116E+01 -0.94854848260E+01 -0.12516191237E+02  0.18441496063E+02  0.51100000000E-03 0. -1.
        -11    1    4    4    0    0  0.24547295046E+02  0.21309468243E+01 -0.14307660772E+02  0.28492451377E+02  0.51100000000E-03 0.  1.
         12    1    4    4    0    0 -0.50853272714E+01  0.24292808913E+01  0.48466223766E+01  0.74331492362E+01  0.00000000000E+00 0. -1.
</event>
<event>
 8    1  0.3106980E-007  0.9118800E+02  0.7816164E-02  0.1184000E+00
        -11   -1    0    0    0    0  0.00000000000E+00  0.00000000000E+00  0.45593999997E+02  0.45594000000E+02  0.51100000000E-03 0.  1.
         11   -1    0    0    0    0 -0.00000000000E+00 -0.00000000000E+00 -0.45593999997E+02  0.45594000000E+02  0.51100000000E-03 0. -1.
         23    2    1    2    0    0  0.00000000000E+00  0.00000000000E+00 -0.71054273576E-14  0.91188000000E+02  0.91188000000E+02 0.  0.
    9900012    2    3    3    0    0 -0.26386397945E+02  0.11233581801E+02 -0.23094237191E+02  0.54367093601E+02  0.40000021483E+02 0.  0.
        -12    1    3    3    0    0  0.26386397945E+02 -0.11233581801E+02  0.23094237191E+02  0.36820906399E+02  0.00000000000E+00 0.  1.
         11    1    4    4    0    0  0.26408355549E+01  0.43785862285E+00  0.64768640682E+01  0.70082452169E+01  0.51100000000E-03 0. -1.
        -11    1    4    4    0    0 -0.32158281484E+02  0.91598588657E+01 -0.27212096740E+02  0.43110976464E+02  0.51100000000E-03 0.  1.
         12    1    4    4    0    0  0.31310479841E+01  0.16358643126E+01 -0.23590045194E+01  0.42478719202E+01  0.00000000000E+00 0. -1.
</event>
<event>
 8    1  0.3106980E-007  0.9118800E+02  0.7816164E-02  0.1184000E+00
        -11   -1    0    0    0    0  0.00000000000E+00  0.00000000000E+00  0.45593999997E+02  0.45594000000E+02  0.51100000000E-03 0.  1.
         11   -1    0    0    0    0 -0.00000000000E+00 -0.00000000000E+00 -0.45593999997E+02  0.45594000000E+02  0.51100000000E-03 0. -1.
         23    2    1    2    0    0  0.35527136788E-14  0.35527136788E-14 -0.35527136788E-14  0.91188000000E+02  0.91188000000E+02 0.  0.
    9900012    2    3    3    0    0  0.18425783287E+02 -0.19270905495E+02 -0.25394921803E+02  0.54367090971E+02  0.40000015487E+02 0.  0.
        -12    1    3    3    0    0 -0.18425783287E+02  0.19270905495E+02  0.25394921803E+02  0.36820909029E+02  0.00000000000E+00 0.  1.
         11    1    4    4    0    0  0.90731710191E+01  0.71183388597E+01 -0.74347235423E+01  0.13721089420E+02  0.51100000000E-03 0. -1.
        -11    1    4    4    0    0  0.14709119841E+02 -0.97420140952E+01 -0.14460113719E+02  0.22811399215E+02  0.51100000000E-03 0.  1.
        -12    1    4    4    0    0 -0.53565075729E+01 -0.16647230259E+02 -0.35000845419E+01  0.17834602336E+02  0.00000000000E+00 0.  1.
</event>
<event>
 8    1  0.3106980E-007  0.9118800E+02  0.7816164E-02  0.1184000E+00
        -11   -1    0    0    0    0  0.00000000000E+00  0.00000000000E+00  0.45593999997E+02  0.45594000000E+02  0.51100000000E-03 0. -1.
         11   -1    0    0    0    0 -0.00000000000E+00 -0.00000000000E+00 -0.45593999997E+02  0.45594000000E+02  0.51100000000E-03 0.  1.
         23    2    1    2    0    0  0.00000000000E+00 -0.17763568394E-14  0.00000000000E+00  0.91188000000E+02  0.91188000000E+02 0.  0.
    9900012    2    3    3    0    0 -0.33036504613E+02  0.13286179844E+02  0.93726858101E+01  0.54367075905E+02  0.39999981141E+02 0.  0.
        -12    1    3    3    0    0  0.33036504613E+02 -0.13286179844E+02 -0.93726858101E+01  0.36820924095E+02  0.00000000000E+00 0.  1.
         11    1    4    4    0    0 -0.47951031698E+01 -0.38142064855E+01 -0.50457383388E+01  0.79372955827E+01  0.51100000000E-03 0. -1.
        -11    1    4    4    0    0 -0.45958760773E+01 -0.82580887575E+01  0.26609207286E+01  0.98182791888E+01  0.51100000000E-03 0.  1.
         12    1    4    4    0    0 -0.23645525366E+02  0.25358475087E+02  0.11757503420E+02  0.36611501134E+02  0.00000000000E+00 0. -1.
</event>
<event>
 8    1  0.3106980E-007  0.9118800E+02  0.7816164E-02  0.1184000E+00
        -11   -1    0    0    0    0  0.00000000000E+00  0.00000000000E+00  0.45593999997E+02  0.45594000000E+02  0.51100000000E-03 0.  1.
         11   -1    0    0    0    0 -0.00000000000E+00 -0.00000000000E+00 -0.45593999997E+02  0.45594000000E+02  0.51100000000E-03 0. -1.
         23    2    1    2    0    0  0.17763568394E-14 -0.71054273576E-14  0.17763568394E-14  0.91188000000E+02  0.91188000000E+02 0.  0.
    9900012    2    3    3    0    0 -0.15468443446E+02  0.32772070326E+02 -0.65190356195E+01  0.54367093418E+02  0.40000021065E+02 0.  0.
        -12    1    3    3    0    0  0.15468443446E+02 -0.32772070326E+02  0.65190356195E+01  0.36820906582E+02  0.00000000000E+00 0.  1.
         11    1    4    4    0    0 -0.10271709521E+00  0.40161548777E+01 -0.14809049003E+02  0.15344314368E+02  0.51100000000E-03 0. -1.
        -11    1    4    4    0    0 -0.89373206757E+01  0.10661715687E+02 -0.59353840857E+01  0.15125365012E+02  0.51100000000E-03 0.  1.
        -12    1    4    4    0    0 -0.64284056752E+01  0.18094199762E+02  0.14225397469E+02  0.23897414038E+02  0.00000000000E+00 0.  1.
</event>
<event>
 8    1  0.3106980E-007  0.9118800E+02  0.7816164E-02  0.1184000E+00
        -11   -1    0    0    0    0  0.00000000000E+00  0.00000000000E+00  0.45593999997E+02  0.45594000000E+02  0.51100000000E-03 0. -1.
         11   -1    0    0    0    0 -0.00000000000E+00 -0.00000000000E+00 -0.45593999997E+02  0.45594000000E+02  0.51100000000E-03 0.  1.
         23    2    1    2    0    0  0.00000000000E+00  0.71054273576E-14  0.17763568394E-14  0.91188000000E+02  0.91188000000E+02 0.  0.
    9900012    2    3    3    0    0  0.16811065861E+01 -0.34941586199E+02 -0.11490837609E+02  0.54367083195E+02  0.39999997759E+02 0.  0.
         12    1    3    3    0    0 -0.16811065861E+01  0.34941586199E+02  0.11490837609E+02  0.36820916805E+02  0.00000000000E+00 0. -1.
         11    1    4    4    0    0  0.48018325787E+01 -0.12004978157E+02 -0.17917753907E+02  0.22095768871E+02  0.51100000000E-03 0. -1.
        -11    1    4    4    0    0  0.75783914204E+01 -0.14313721971E+02 -0.17349358010E+01  0.16288789264E+02  0.51100000000E-03 0.  1.
        -12    1    4    4    0    0 -0.10699117413E+02 -0.86228860703E+01  0.81618520990E+01  0.15982525060E+02  0.00000000000E+00 0.  1.
</event>
<event>
 8    1  0.3106980E-007  0.9118800E+02  0.7816164E-02  0.1184000E+00
        -11   -1    0    0    0    0  0.00000000000E+00  0.00000000000E+00  0.45593999997E+02  0.45594000000E+02  0.51100000000E-03 0.  1.
         11   -1    0    0    0    0 -0.00000000000E+00 -0.00000000000E+00 -0.45593999997E+02  0.45594000000E+02  0.51100000000E-03 0. -1.
         23    2    1    2    0    0  0.35527136788E-14  0.00000000000E+00  0.00000000000E+00  0.91188000000E+02  0.91188000000E+02 0.  0.
    9900012    2    3    3    0    0  0.23328919387E+02 -0.14556625099E+02  0.24487843830E+02  0.54366969196E+02  0.39999737875E+02 0.  0.
         12    1    3    3    0    0 -0.23328919387E+02  0.14556625099E+02 -0.24487843830E+02  0.36821030804E+02  0.00000000000E+00 0. -1.
         11    1    4    4    0    0 -0.37555970214E+01 -0.50786392926E+01  0.17151372290E+02  0.18277490466E+02  0.51100000000E-03 0. -1.
        -11    1    4    4    0    0  0.15793006812E+02 -0.12281481590E+02 -0.33585272146E+01  0.20286289940E+02  0.51100000000E-03 0.  1.
        -12    1    4    4    0    0  0.11291509597E+02  0.28034957833E+01  0.10694998754E+02  0.15803188790E+02  0.00000000000E+00 0.  1.
</event>
<event>
 8    1  0.3106980E-007  0.9118800E+02  0.7816164E-02  0.1184000E+00
        -11   -1    0    0    0    0  0.00000000000E+00  0.00000000000E+00  0.45593999997E+02  0.45594000000E+02  0.51100000000E-03 0.  1.
         11   -1    0    0    0    0 -0.00000000000E+00 -0.00000000000E+00 -0.45593999997E+02  0.45594000000E+02  0.51100000000E-03 0. -1.
         23    2    1    2    0    0  0.00000000000E+00  0.00000000000E+00  0.37470027081E-14  0.91188000000E+02  0.91188000000E+02 0.  0.
    9900012    2    3    3    0    0  0.28113645360E+02 -0.23777776040E+02  0.14821450488E+00  0.54367059540E+02  0.39999943834E+02 0.  0.
        -12    1    3    3    0    0 -0.28113645360E+02  0.23777776040E+02 -0.14821450488E+00  0.36820940460E+02  0.00000000000E+00 0.  1.
         11    1    4    4    0    0  0.12666905987E+02 -0.11339124236E+01 -0.11274151653E+02  0.16995374678E+02  0.51100000000E-03 0. -1.
        -11    1    4    4    0    0 -0.22994990845E+01 -0.31423557176E+01 -0.49779565548E+01  0.63199800014E+01  0.51100000000E-03 0.  1.
         12    1    4    4    0    0  0.17746238457E+02 -0.19501507899E+02  0.16400322713E+02  0.31051704861E+02  0.00000000000E+00 0. -1.
</event>
<event>
 8    1  0.3106980E-007  0.9118800E+02  0.7816164E-02  0.1184000E+00
        -11   -1    0    0    0    0  0.00000000000E+00  0.00000000000E+00  0.45593999997E+02  0.45594000000E+02  0.51100000000E-03 0. -1.
         11   -1    0    0    0    0 -0.00000000000E+00 -0.00000000000E+00 -0.45593999997E+02  0.45594000000E+02  0.51100000000E-03 0.  1.
         23    2    1    2    0    0  0.00000000000E+00  0.00000000000E+00  0.00000000000E+00  0.91188000000E+02  0.91188000000E+02 0.  0.
    9900012    2    3    3    0    0  0.33194750687E+01  0.23802098922E+02  0.27896621544E+02  0.54367077667E+02  0.39999985158E+02 0.  0.
        -12    1    3    3    0    0 -0.33194750687E+01 -0.23802098922E+02 -0.27896621544E+02  0.36820922333E+02  0.00000000000E+00 0.  1.
         11    1    4    4    0    0  0.12720742424E+02  0.62505355608E+01  0.10535039850E+02  0.17659941889E+02  0.51100000000E-03 0. -1.
        -11    1    4    4    0    0 -0.13721693647E+02  0.10835061348E+02 -0.12390062425E+00  0.17484243838E+02  0.51100000000E-03 0.  1.
        -12    1    4    4    0    0  0.43204262912E+01  0.67165020140E+01  0.17485482319E+02  0.19222891941E+02  0.00000000000E+00 0.  1.
</event>
<event>
 8    1  0.3106980E-007  0.9118800E+02  0.7816164E-02  0.1184000E+00
        -11   -1    0    0    0    0  0.00000000000E+00  0.00000000000E+00  0.45593999997E+02  0.45594000000E+02  0.51100000000E-03 0.  1.
         11   -1    0    0    0    0 -0.00000000000E+00 -0.00000000000E+00 -0.45593999997E+02  0.45594000000E+02  0.51100000000E-03 0. -1.
         23    2    1    2    0    0 -0.35527136788E-14  0.00000000000E+00  0.17763568394E-14  0.91188000000E+02  0.91188000000E+02 0.  0.
    9900012    2    3    3    0    0 -0.21509290957E+02 -0.25713688903E+02  0.15229539700E+02  0.54367051154E+02  0.39999924715E+02 0.  0.
         12    1    3    3    0    0  0.21509290957E+02  0.25713688903E+02 -0.15229539700E+02  0.36820948846E+02  0.00000000000E+00 0. -1.
         11    1    4    4    0    0 -0.23865144927E+02 -0.19949991681E+02  0.10616002548E+02  0.32867108495E+02  0.51100000000E-03 0. -1.
        -11    1    4    4    0    0  0.68454080161E+01 -0.87740721361E+01  0.91781392258E+01  0.14425054338E+02  0.51100000000E-03 0.  1.
        -12    1    4    4    0    0 -0.44895540453E+01  0.30103749144E+01 -0.45646020734E+01  0.70748883199E+01  0.00000000000E+00 0.  1.
</event>
<event>
 8    1  0.3106980E-007  0.9118800E+02  0.7816164E-02  0.1184000E+00
        -11   -1    0    0    0    0  0.00000000000E+00  0.00000000000E+00  0.45593999997E+02  0.45594000000E+02  0.51100000000E-03 0.  1.
         11   -1    0    0    0    0 -0.00000000000E+00 -0.00000000000E+00 -0.45593999997E+02  0.45594000000E+02  0.51100000000E-03 0. -1.
         23    2    1    2    0    0 -0.88817841970E-15  0.00000000000E+00  0.00000000000E+00  0.91188000000E+02  0.91188000000E+02 0.  0.
    9900012    2    3    3    0    0  0.49406893533E+01  0.19390127920E+02  0.30909409222E+02  0.54367094926E+02  0.40000024503E+02 0.  0.
         12    1    3    3    0    0 -0.49406893533E+01 -0.19390127920E+02 -0.30909409222E+02  0.36820905074E+02  0.00000000000E+00 0. -1.
         11    1    4    4    0    0 -0.19778676913E+01 -0.47346236635E+01  0.32793423318E+01  0.60895573098E+01  0.51100000000E-03 0. -1.
        -11    1    4    4    0    0 -0.11999926816E+02  0.63363811317E+01  0.10658230077E+02  0.17255313329E+02  0.51100000000E-03 0.  1.
        -12    1    4    4    0    0  0.18918483861E+02  0.17788370451E+02  0.16971836813E+02  0.31022224287E+02  0.00000000000E+00 0.  1.
</event>
<event>
 8    1  0.3106980E-007  0.9118800E+02  0.7816164E-02  0.1184000E+00
        -11   -1    0    0    0    0  0.00000000000E+00  0.00000000000E+00  0.45593999997E+02  0.45594000000E+02  0.51100000000E-03 0.  1.
         11   -1    0    0    0    0 -0.00000000000E+00 -0.00000000000E+00 -0.45593999997E+02  0.45594000000E+02  0.51100000000E-03 0. -1.
         23    2    1    2    0    0  0.00000000000E+00 -0.17763568394E-14 -0.88817841970E-15  0.91188000000E+02  0.91188000000E+02 0.  0.
    9900012    2    3    3    0    0 -0.35862794920E+02  0.67186479542E+01 -0.49495652153E+01  0.54367102597E+02  0.40000041989E+02 0.  0.
        -12    1    3    3    0    0  0.35862794920E+02 -0.67186479542E+01  0.49495652153E+01  0.36820897403E+02  0.00000000000E+00 0.  1.
         11    1    4    4    0    0 -0.51367920393E+01  0.64577340968E+01 -0.15417774116E+02  0.17487044377E+02  0.51100000000E-03 0. -1.
        -11    1    4    4    0    0 -0.19587068032E+02 -0.83363517936E+01  0.59964669267E+01  0.22115732210E+02  0.51100000000E-03 0.  1.
         12    1    4    4    0    0 -0.11138934849E+02  0.85972656510E+01  0.44717419735E+01  0.14764326010E+02  0.00000000000E+00 0. -1.
</event>
<event>
 8    1  0.3106980E-007  0.9118800E+02  0.7816164E-02  0.1184000E+00
        -11   -1    0    0    0    0  0.00000000000E+00  0.00000000000E+00  0.45593999997E+02  0.45594000000E+02  0.51100000000E-03 0.  1.
         11   -1    0    0    0    0 -0.00000000000E+00 -0.00000000000E+00 -0.45593999997E+02  0.45594000000E+02  0.51100000000E-03 0. -1.
         23    2    1    2    0    0 -0.17763568394E-14  0.35527136788E-14  0.00000000000E+00  0.91188000000E+02  0.91188000000E+02 0.  0.
    9900012    2    3    3    0    0 -0.11075723563E+02  0.23930486260E+02 -0.25699032723E+02  0.54367080566E+02  0.39999991767E+02 0.  0.
        -12    1    3    3    0    0  0.11075723563E+02 -0.23930486260E+02  0.25699032723E+02  0.36820919434E+02  0.00000000000E+00 0.  1.
         11    1    4    4    0    0 -0.37327356947E+01 -0.22016788732E+00 -0.25688528781E+02  0.25959243071E+02  0.51100000000E-03 0. -1.
        -11    1    4    4    0    0 -0.89077958149E+01  0.13848188280E+02 -0.44873267519E+01  0.17066260473E+02  0.51100000000E-03 0.  1.
        -12    1    4    4    0    0  0.15648079466E+01  0.10302465867E+02  0.44768228099E+01  0.11341577021E+02  0.00000000000E+00 0.  1.
</event>
<event>
 8    1  0.3106980E-007  0.9118800E+02  0.7816164E-02  0.1184000E+00
        -11   -1    0    0    0    0  0.00000000000E+00  0.00000000000E+00  0.45593999997E+02  0.45594000000E+02  0.51100000000E-03 0.  1.
         11   -1    0    0    0    0 -0.00000000000E+00 -0.00000000000E+00 -0.45593999997E+02  0.45594000000E+02  0.51100000000E-03 0. -1.
         23    2    1    2    0    0 -0.35527136788E-14 -0.72164496601E-15  0.00000000000E+00  0.91188000000E+02  0.91188000000E+02 0.  0.
    9900012    2    3    3    0    0  0.23063605985E+02 -0.26252311883E+00  0.28701588233E+02  0.54367081943E+02  0.39999994906E+02 0.  0.
        -12    1    3    3    0    0 -0.23063605985E+02  0.26252311883E+00 -0.28701588233E+02  0.36820918057E+02  0.00000000000E+00 0.  1.
         11    1    4    4    0    0 -0.11296156723E+01  0.95582624032E+01 -0.62718895435E+00  0.96451945538E+01  0.51100000000E-03 0. -1.
        -11    1    4    4    0    0  0.13317460442E+02 -0.57656564192E+01  0.29756764268E+02  0.33106835646E+02  0.51100000000E-03 0.  1.
         12    1    4    4    0    0  0.10875761215E+02 -0.40551291029E+01 -0.42798708024E+00  0.11615051743E+02  0.00000000000E+00 0. -1.
</event>
<event>
 8    1  0.3106980E-007  0.9118800E+02  0.7816164E-02  0.1184000E+00
        -11   -1    0    0    0    0  0.00000000000E+00  0.00000000000E+00  0.45593999997E+02  0.45594000000E+02  0.51100000000E-03 0.  1.
         11   -1    0    0    0    0 -0.00000000000E+00 -0.00000000000E+00 -0.45593999997E+02  0.45594000000E+02  0.51100000000E-03 0. -1.
         23    2    1    2    0    0  0.71054273576E-14  0.00000000000E+00  0.00000000000E+00  0.91188000000E+02  0.91188000000E+02 0.  0.
    9900012    2    3    3    0    0  0.35951240796E+02  0.66697755632E+01 -0.43361118683E+01  0.54367088998E+02  0.40000010990E+02 0.  0.
         12    1    3    3    0    0 -0.35951240796E+02 -0.66697755632E+01  0.43361118683E+01  0.36820911002E+02  0.00000000000E+00 0. -1.
         11    1    4    4    0    0  0.24051011332E+02 -0.54097696302E+01 -0.13031499946E+02  0.27884345871E+02  0.51100000000E-03 0. -1.
        -11    1    4    4    0    0 -0.14480476529E+01  0.65679654404E+01  0.99248930747E+01  0.11989099834E+02  0.51100000000E-03 0.  1.
         12    1    4    4    0    0  0.13348277117E+02  0.55115797530E+01 -0.12295049966E+01  0.14493643293E+02  0.00000000000E+00 0. -1.
</event>
<event>
 8    1  0.3106980E-007  0.9118800E+02  0.7816164E-02  0.1184000E+00
        -11   -1    0    0    0    0  0.00000000000E+00  0.00000000000E+00  0.45593999997E+02  0.45594000000E+02  0.51100000000E-03 0.  1.
         11   -1    0    0    0    0 -0.00000000000E+00 -0.00000000000E+00 -0.45593999997E+02  0.45594000000E+02  0.51100000000E-03 0. -1.
         23    2    1    2    0    0  0.00000000000E+00  0.17763568394E-14  0.35527136788E-14  0.91188000000E+02  0.91188000000E+02 0.  0.
    9900012    2    3    3    0    0  0.18955881159E+02 -0.14633603546E+02 -0.27969847759E+02  0.54367079766E+02  0.39999989942E+02 0.  0.
        -12    1    3    3    0    0 -0.18955881159E+02  0.14633603546E+02  0.27969847759E+02  0.36820920234E+02  0.00000000000E+00 0.  1.
         11    1    4    4    0    0 -0.56214644671E+01  0.31203298847E+01 -0.46309073625E+01  0.79235487382E+01  0.51100000000E-03 0. -1.
        -11    1    4    4    0    0 -0.15071381224E+01 -0.68266037097E+00 -0.13719584528E+02  0.13818990209E+02  0.51100000000E-03 0.  1.
        -12    1    4    4    0    0  0.26084483749E+02 -0.17071273060E+02 -0.96193558679E+01  0.32624540819E+02  0.00000000000E+00 0.  1.
</event>
<event>
 8    1  0.3106980E-007  0.9118800E+02  0.7816164E-02  0.1184000E+00
        -11   -1    0    0    0    0  0.00000000000E+00  0.00000000000E+00  0.45593999997E+02  0.45594000000E+02  0.51100000000E-03 0.  1.
         11   -1    0    0    0    0 -0.00000000000E+00 -0.00000000000E+00 -0.45593999997E+02  0.45594000000E+02  0.51100000000E-03 0. -1.
         23    2    1    2    0    0 -0.35527136788E-14  0.00000000000E+00  0.00000000000E+00  0.91188000000E+02  0.91188000000E+02 0.  0.
    9900012    2    3    3    0    0 -0.18094514807E+02  0.24199753617E+02  0.21041412272E+02  0.54367074270E+02  0.39999977412E+02 0.  0.
         12    1    3    3    0    0  0.18094514807E+02 -0.24199753617E+02 -0.21041412272E+02  0.36820925730E+02  0.00000000000E+00 0. -1.
         11    1    4    4    0    0 -0.23082412314E+01  0.18745893924E+01  0.11311466641E+02  0.11695783035E+02  0.51100000000E-03 0.  1.
        -11    1    4    4    0    0  0.52031891898E+01  0.93870828742E-01 -0.62823338265E+01  0.81578004417E+01  0.51100000000E-03 0. -1.
         12    1    4    4    0    0 -0.20989462766E+02  0.22231293396E+02  0.16012279457E+02  0.34513490792E+02  0.00000000000E+00 0. -1.
</event>
<event>
 8    1  0.3106980E-007  0.9118800E+02  0.7816164E-02  0.1184000E+00
        -11   -1    0    0    0    0  0.00000000000E+00  0.00000000000E+00  0.45593999997E+02  0.45594000000E+02  0.51100000000E-03 0. -1.
         11   -1    0    0    0    0 -0.00000000000E+00 -0.00000000000E+00 -0.45593999997E+02  0.45594000000E+02  0.51100000000E-03 0.  1.
         23    2    1    2    0    0  0.00000000000E+00  0.00000000000E+00 -0.44408920985E-15  0.91188000000E+02  0.91188000000E+02 0.  0.
    9900012    2    3    3    0    0 -0.21368689220E+02 -0.29929016882E+02 -0.18470384263E+01  0.54367102653E+02  0.40000042117E+02 0.  0.
         12    1    3    3    0    0  0.21368689220E+02  0.29929016882E+02  0.18470384263E+01  0.36820897347E+02  0.00000000000E+00 0. -1.
         11    1    4    4    0    0  0.49714149208E+01 -0.16245146547E+02 -0.47182244490E+01  0.17631829028E+02  0.51100000000E-03 0. -1.
        -11    1    4    4    0    0 -0.14024238708E+02 -0.40446018337E+01  0.11761998727E+02  0.18745204444E+02  0.51100000000E-03 0.  1.
        -12    1    4    4    0    0 -0.12315865433E+02 -0.96392685009E+01 -0.88908127040E+01  0.17990069181E+02  0.00000000000E+00 0.  1.
</event>
<event>
 8    1  0.3106980E-007  0.9118800E+02  0.7816164E-02  0.1184000E+00
        -11   -1    0    0    0    0  0.00000000000E+00  0.00000000000E+00  0.45593999997E+02  0.45594000000E+02  0.51100000000E-03 0. -1.
         11   -1    0    0    0    0 -0.00000000000E+00 -0.00000000000E+00 -0.45593999997E+02  0.45594000000E+02  0.51100000000E-03 0.  1.
         23    2    1    2    0    0  0.44408920985E-15 -0.35527136788E-14  0.00000000000E+00  0.91188000000E+02  0.91188000000E+02 0.  0.
    9900012    2    3    3    0    0 -0.16571014281E+01  0.30974468026E+02 -0.19839762664E+02  0.54367084243E+02  0.40000000149E+02 0.  0.
        -12    1    3    3    0    0  0.16571014281E+01 -0.30974468026E+02  0.19839762664E+02  0.36820915757E+02  0.00000000000E+00 0.  1.
         11    1    4    4    0    0 -0.13431126231E+02  0.26745374855E+02 -0.11258408326E+02  0.31975959505E+02  0.51100000000E-03 0. -1.
        -11    1    4    4    0    0  0.96083124146E+01  0.97582327175E+01 -0.25554177636E+01  0.13931006189E+02  0.51100000000E-03 0.  1.
         12    1    4    4    0    0  0.21657123885E+01 -0.55291395463E+01 -0.60259365736E+01  0.84601185489E+01  0.00000000000E+00 0. -1.
</event>
<event>
 8    1  0.3106980E-007  0.9118800E+02  0.7816164E-02  0.1184000E+00
        -11   -1    0    0    0    0  0.00000000000E+00  0.00000000000E+00  0.45593999997E+02  0.45594000000E+02  0.51100000000E-03 0. -1.
         11   -1    0    0    0    0 -0.00000000000E+00 -0.00000000000E+00 -0.45593999997E+02  0.45594000000E+02  0.51100000000E-03 0.  1.
         23    2    1    2    0    0  0.00000000000E+00  0.00000000000E+00  0.00000000000E+00  0.91188000000E+02  0.91188000000E+02 0.  0.
    9900012    2    3    3    0    0  0.31366739907E+02  0.58870106368E+01  0.18364346077E+02  0.54367102762E+02  0.40000042366E+02 0.  0.
        -12    1    3    3    0    0 -0.31366739907E+02 -0.58870106368E+01 -0.18364346077E+02  0.36820897238E+02  0.00000000000E+00 0.  1.
         11    1    4    4    0    0 -0.21984576756E+01 -0.43300438202E+01  0.15232921105E+02  0.15988257606E+02  0.51100000000E-03 0. -1.
        -11    1    4    4    0    0  0.51489167837E+01  0.63759270133E+01  0.50730912264E+01  0.96384668997E+01  0.51100000000E-03 0.  1.
        -12    1    4    4    0    0  0.28416280799E+02  0.38411274437E+01 -0.19416662544E+01  0.28740378256E+02  0.00000000000E+00 0.  1.
</event>
<event>
 8    1  0.3106980E-007  0.9118800E+02  0.7816164E-02  0.1184000E+00
        -11   -1    0    0    0    0  0.00000000000E+00  0.00000000000E+00  0.45593999997E+02  0.45594000000E+02  0.51100000000E-03 0.  1.
         11   -1    0    0    0    0 -0.00000000000E+00 -0.00000000000E+00 -0.45593999997E+02  0.45594000000E+02  0.51100000000E-03 0. -1.
         23    2    1    2    0    0  0.00000000000E+00 -0.88817841970E-15 -0.35527136788E-14  0.91188000000E+02  0.91188000000E+02 0.  0.
    9900012    2    3    3    0    0  0.32528038818E+02 -0.59502906080E+01 -0.16195696330E+02  0.54367084106E+02  0.39999999837E+02 0.  0.
        -12    1    3    3    0    0 -0.32528038818E+02  0.59502906080E+01  0.16195696330E+02  0.36820915894E+02  0.00000000000E+00 0.  1.
         11    1    4    4    0    0 -0.75514991320E+01 -0.18800214547E+01 -0.87143251656E+01  0.11683282208E+02  0.51100000000E-03 0. -1.
        -11    1    4    4    0    0  0.38578321020E+02 -0.11922853068E+01 -0.79417527477E+01  0.39405327482E+02  0.51100000000E-03 0.  1.
         12    1    4    4    0    0  0.15012169293E+01 -0.28779838466E+01  0.46038158314E+00  0.32784744153E+01  0.00000000000E+00 0. -1.
</event>
<event>
 8    1  0.3106980E-007  0.9118800E+02  0.7816164E-02  0.1184000E+00
        -11   -1    0    0    0    0  0.00000000000E+00  0.00000000000E+00  0.45593999997E+02  0.45594000000E+02  0.51100000000E-03 0.  1.
         11   -1    0    0    0    0 -0.00000000000E+00 -0.00000000000E+00 -0.45593999997E+02  0.45594000000E+02  0.51100000000E-03 0. -1.
         23    2    1    2    0    0  0.00000000000E+00  0.00000000000E+00  0.00000000000E+00  0.91188000000E+02  0.91188000000E+02 0.  0.
    9900012    2    3    3    0    0  0.13919985040E+02  0.14032381226E+02  0.31066138900E+02  0.54367099786E+02  0.40000035583E+02 0.  0.
         12    1    3    3    0    0 -0.13919985040E+02 -0.14032381226E+02 -0.31066138900E+02  0.36820900214E+02  0.00000000000E+00 0. -1.
         11    1    4    4    0    0  0.48515837288E+01 -0.36954311010E+01 -0.72842002753E+01  0.95001920829E+01  0.51100000000E-03 0. -1.
        -11    1    4    4    0    0  0.10902591521E+02  0.96350856808E+01  0.28403268194E+02  0.31913116775E+02  0.51100000000E-03 0.  1.
         12    1    4    4    0    0 -0.18341902101E+01  0.80927266465E+01  0.99470709819E+01  0.12953790929E+02  0.00000000000E+00 0. -1.
</event>
<event>
 8    1  0.3106980E-007  0.9118800E+02  0.7816164E-02  0.1184000E+00
        -11   -1    0    0    0    0  0.00000000000E+00  0.00000000000E+00  0.45593999997E+02  0.45594000000E+02  0.51100000000E-03 0.  1.
         11   -1    0    0    0    0 -0.00000000000E+00 -0.00000000000E+00 -0.45593999997E+02  0.45594000000E+02  0.51100000000E-03 0. -1.
         23    2    1    2    0    0 -0.17763568394E-14  0.00000000000E+00  0.71054273576E-14  0.91188000000E+02  0.91188000000E+02 0.  0.
    9900012    2    3    3    0    0 -0.14440358575E+02 -0.10622487797E+02 -0.32162315261E+02  0.54367140074E+02  0.40000127425E+02 0.  0.
        -12    1    3    3    0    0  0.14440358575E+02  0.10622487797E+02  0.32162315261E+02  0.36820859926E+02  0.00000000000E+00 0.  1.
         11    1    4    4    0    0 -0.17013509632E+02 -0.10476999815E+02 -0.18560083699E+02  0.27270932186E+02  0.51100000000E-03 0. -1.
        -11    1    4    4    0    0 -0.58655415093E+01  0.16838007879E+00 -0.17007203945E+02  0.17991050979E+02  0.51100000000E-03 0.  1.
        -12    1    4    4    0    0  0.84386925667E+01 -0.31386806053E+00  0.34049723827E+01  0.91051569082E+01  0.00000000000E+00 0.  1.
</event>
<event>
 8    1  0.3106980E-007  0.9118800E+02  0.7816164E-02  0.1184000E+00
        -11   -1    0    0    0    0  0.00000000000E+00  0.00000000000E+00  0.45593999997E+02  0.45594000000E+02  0.51100000000E-03 0.  1.
         11   -1    0    0    0    0 -0.00000000000E+00 -0.00000000000E+00 -0.45593999997E+02  0.45594000000E+02  0.51100000000E-03 0. -1.
         23    2    1    2    0    0  0.88817841970E-15  0.00000000000E+00  0.00000000000E+00  0.91188000000E+02  0.91188000000E+02 0.  0.
    9900012    2    3    3    0    0  0.61182289806E+01 -0.21868018726E+02  0.28985118606E+02  0.54367081089E+02  0.39999992958E+02 0.  0.
         12    1    3    3    0    0 -0.61182289806E+01  0.21868018726E+02 -0.28985118606E+02  0.36820918911E+02  0.00000000000E+00 0. -1.
         11    1    4    4    0    0 -0.43566865169E+01 -0.90290966791E+01  0.32128152449E+02  0.33655957635E+02  0.51100000000E-03 0. -1.
        -11    1    4    4    0    0  0.77540657938E-03 -0.69363481309E+01  0.25736326940E+01  0.73984127689E+01  0.51100000000E-03 0.  1.
         12    1    4    4    0    0  0.10474140091E+02 -0.59025739161E+01 -0.57166665372E+01  0.13312710685E+02  0.00000000000E+00 0. -1.
</event>
<event>
 8    1  0.3106980E-007  0.9118800E+02  0.7816164E-02  0.1184000E+00
        -11   -1    0    0    0    0  0.00000000000E+00  0.00000000000E+00  0.45593999997E+02  0.45594000000E+02  0.51100000000E-03 0.  1.
         11   -1    0    0    0    0 -0.00000000000E+00 -0.00000000000E+00 -0.45593999997E+02  0.45594000000E+02  0.51100000000E-03 0. -1.
         23    2    1    2    0    0 -0.35527136788E-14 -0.35527136788E-14  0.88817841970E-15  0.91188000000E+02  0.91188000000E+02 0.  0.
    9900012    2    3    3    0    0  0.27305980300E+02  0.24187789688E+02 -0.50113674924E+01  0.54367088356E+02  0.40000009526E+02 0.  0.
        -12    1    3    3    0    0 -0.27305980300E+02 -0.24187789688E+02  0.50113674924E+01  0.36820911644E+02  0.00000000000E+00 0.  1.
         11    1    4    4    0    0  0.15933035309E+02 -0.41503063263E+01 -0.30856734664E+01  0.16751359281E+02  0.51100000000E-03 0. -1.
        -11    1    4    4    0    0 -0.21181804564E+01 -0.21148590237E+01  0.26470241618E+01  0.39957545358E+01  0.51100000000E-03 0.  1.
        -12    1    4    4    0    0  0.13491125447E+02  0.30452955038E+02 -0.45727181877E+01  0.33619974539E+02  0.00000000000E+00 0.  1.
</event>
<event>
 8    1  0.3106980E-007  0.9118800E+02  0.7816164E-02  0.1184000E+00
        -11   -1    0    0    0    0  0.00000000000E+00  0.00000000000E+00  0.45593999997E+02  0.45594000000E+02  0.51100000000E-03 0.  1.
         11   -1    0    0    0    0 -0.00000000000E+00 -0.00000000000E+00 -0.45593999997E+02  0.45594000000E+02  0.51100000000E-03 0. -1.
         23    2    1    2    0    0  0.00000000000E+00  0.88817841970E-15  0.71054273576E-14  0.91188000000E+02  0.91188000000E+02 0.  0.
    9900012    2    3    3    0    0 -0.22739571546E+02  0.66893055612E+01 -0.28176996575E+02  0.54367108390E+02  0.40000055197E+02 0.  0.
        -12    1    3    3    0    0  0.22739571546E+02 -0.66893055612E+01  0.28176996575E+02  0.36820891610E+02  0.00000000000E+00 0.  1.
         11    1    4    4    0    0  0.40332932006E+01 -0.57378427817E+01 -0.24363133257E+01  0.74246829368E+01  0.51100000000E-03 0.  1.
        -11    1    4    4    0    0 -0.30371467772E+02  0.15820224630E+02 -0.23358179399E+02  0.41452504232E+02  0.51100000000E-03 0. -1.
         12    1    4    4    0    0  0.35986030256E+01 -0.33930762873E+01 -0.23825038499E+01  0.54899212219E+01  0.00000000000E+00 0. -1.
</event>
<event>
 8    1  0.3106980E-007  0.9118800E+02  0.7816164E-02  0.1184000E+00
        -11   -1    0    0    0    0  0.00000000000E+00  0.00000000000E+00  0.45593999997E+02  0.45594000000E+02  0.51100000000E-03 0. -1.
         11   -1    0    0    0    0 -0.00000000000E+00 -0.00000000000E+00 -0.45593999997E+02  0.45594000000E+02  0.51100000000E-03 0.  1.
         23    2    1    2    0    0 -0.13322676296E-14  0.44408920985E-15  0.00000000000E+00  0.91188000000E+02  0.91188000000E+02 0.  0.
    9900012    2    3    3    0    0 -0.95247121149E+00  0.29812315916E+01  0.36687595502E+02  0.54367155266E+02  0.40000162059E+02 0.  0.
        -12    1    3    3    0    0  0.95247121149E+00 -0.29812315916E+01 -0.36687595502E+02  0.36820844734E+02  0.00000000000E+00 0.  1.
         11    1    4    4    0    0  0.16032218263E+01  0.17014972492E+01  0.46495310468E+01  0.52041860391E+01  0.51100000000E-03 0. -1.
        -11    1    4    4    0    0  0.14809433536E+02 -0.49732311088E+01  0.24857065496E+02  0.29358577191E+02  0.51100000000E-03 0.  1.
        -12    1    4    4    0    0 -0.17365126574E+02  0.62529654512E+01  0.71809989589E+01  0.19804392036E+02  0.00000000000E+00 0.  1.
</event>
<event>
 8    1  0.3106980E-007  0.9118800E+02  0.7816164E-02  0.1184000E+00
        -11   -1    0    0    0    0  0.00000000000E+00  0.00000000000E+00  0.45593999997E+02  0.45594000000E+02  0.51100000000E-03 0.  1.
         11   -1    0    0    0    0 -0.00000000000E+00 -0.00000000000E+00 -0.45593999997E+02  0.45594000000E+02  0.51100000000E-03 0. -1.
         23    2    1    2    0    0  0.17763568394E-14 -0.35527136788E-14  0.00000000000E+00  0.91188000000E+02  0.91188000000E+02 0.  0.
    9900012    2    3    3    0    0  0.11266482694E+02 -0.24051463852E+02 -0.25502411295E+02  0.54367088448E+02  0.40000009735E+02 0.  0.
        -12    1    3    3    0    0 -0.11266482694E+02  0.24051463852E+02  0.25502411295E+02  0.36820911552E+02  0.00000000000E+00 0.  1.
         11    1    4    4    0    0  0.20483878276E+02 -0.45465570316E+00 -0.17804911471E+02  0.27144260052E+02  0.51100000000E-03 0. -1.
        -11    1    4    4    0    0 -0.56102395345E+01 -0.18883395629E+02 -0.80421248682E+01  0.21277527835E+02  0.51100000000E-03 0.  1.
         12    1    4    4    0    0 -0.36071560482E+01 -0.47134125194E+01  0.34462504416E+00  0.59453005605E+01  0.00000000000E+00 0. -1.
</event>
<event>
 8    1  0.3106980E-007  0.9118800E+02  0.7816164E-02  0.1184000E+00
        -11   -1    0    0    0    0  0.00000000000E+00  0.00000000000E+00  0.45593999997E+02  0.45594000000E+02  0.51100000000E-03 0.  1.
         11   -1    0    0    0    0 -0.00000000000E+00 -0.00000000000E+00 -0.45593999997E+02  0.45594000000E+02  0.51100000000E-03 0. -1.
         23    2    1    2    0    0 -0.17763568394E-14  0.00000000000E+00  0.00000000000E+00  0.91188000000E+02  0.91188000000E+02 0.  0.
    9900012    2    3    3    0    0  0.12370828104E+02 -0.34476842474E+02 -0.37535099216E+01  0.54367097082E+02  0.40000029419E+02 0.  0.
         12    1    3    3    0    0 -0.12370828104E+02  0.34476842474E+02  0.37535099216E+01  0.36820902918E+02  0.00000000000E+00 0. -1.
         11    1    4    4    0    0  0.15293252794E+02 -0.29382777444E+02  0.11068751017E+02  0.34924897147E+02  0.51100000000E-03 0. -1.
        -11    1    4    4    0    0 -0.33926290150E+01  0.28671677125E+01 -0.38524886443E+01  0.58798172880E+01  0.51100000000E-03 0.  1.
         12    1    4    4    0    0  0.47020432519E+00 -0.79612327417E+01 -0.10969772295E+02  0.13562382647E+02  0.00000000000E+00 0. -1.
</event>
<event>
 8    1  0.3106980E-007  0.9118800E+02  0.7816164E-02  0.1184000E+00
        -11   -1    0    0    0    0  0.00000000000E+00  0.00000000000E+00  0.45593999997E+02  0.45594000000E+02  0.51100000000E-03 0. -1.
         11   -1    0    0    0    0 -0.00000000000E+00 -0.00000000000E+00 -0.45593999997E+02  0.45594000000E+02  0.51100000000E-03 0.  1.
         23    2    1    2    0    0  0.88817841970E-15 -0.26645352591E-14  0.00000000000E+00  0.91188000000E+02  0.91188000000E+02 0.  0.
    9900012    2    3    3    0    0  0.60466150927E+01  0.70019857892E+01  0.35639737861E+02  0.54367078313E+02  0.39999986630E+02 0.  0.
        -12    1    3    3    0    0 -0.60466150927E+01 -0.70019857892E+01 -0.35639737861E+02  0.36820921687E+02  0.00000000000E+00 0.  1.
         11    1    4    4    0    0 -0.19688568804E+01  0.19706460888E+02  0.97154521774E+01  0.22059261307E+02  0.51100000000E-03 0. -1.
        -11    1    4    4    0    0  0.18343228514E+01 -0.13832416478E-01  0.13126793878E+02  0.13254344550E+02  0.51100000000E-03 0.  1.
        -12    1    4    4    0    0  0.61811491217E+01 -0.12690642682E+02  0.12797491805E+02  0.19053472457E+02  0.00000000000E+00 0.  1.
</event>
<event>
 8    1  0.3106980E-007  0.9118800E+02  0.7816164E-02  0.1184000E+00
        -11   -1    0    0    0    0  0.00000000000E+00  0.00000000000E+00  0.45593999997E+02  0.45594000000E+02  0.51100000000E-03 0.  1.
         11   -1    0    0    0    0 -0.00000000000E+00 -0.00000000000E+00 -0.45593999997E+02  0.45594000000E+02  0.51100000000E-03 0. -1.
         23    2    1    2    0    0  0.00000000000E+00  0.00000000000E+00  0.88817841970E-15  0.91188000000E+02  0.91188000000E+02 0.  0.
    9900012    2    3    3    0    0  0.31208520292E+02  0.19087855360E+02  0.41787373741E+01  0.54367084652E+02  0.40000001080E+02 0.  0.
        -12    1    3    3    0    0 -0.31208520292E+02 -0.19087855360E+02 -0.41787373741E+01  0.36820915348E+02  0.00000000000E+00 0.  1.
         11    1    4    4    0    0 -0.62655301982E+01 -0.23285003202E+01 -0.21032738744E+01  0.70073207189E+01  0.51100000000E-03 0.  1.
        -11    1    4    4    0    0  0.12148742295E+02  0.36273859029E+01 -0.60455393834E+01  0.14046295403E+02  0.51100000000E-03 0. -1.
        -12    1    4    4    0    0  0.25325308195E+02  0.17788969777E+02  0.12327550632E+02  0.33313468530E+02  0.00000000000E+00 0.  1.
</event>
<event>
 8    1  0.3106980E-007  0.9118800E+02  0.7816164E-02  0.1184000E+00
        -11   -1    0    0    0    0  0.00000000000E+00  0.00000000000E+00  0.45593999997E+02  0.45594000000E+02  0.51100000000E-03 0.  1.
         11   -1    0    0    0    0 -0.00000000000E+00 -0.00000000000E+00 -0.45593999997E+02  0.45594000000E+02  0.51100000000E-03 0. -1.
         23    2    1    2    0    0  0.00000000000E+00  0.00000000000E+00  0.17763568394E-14  0.91188000000E+02  0.91188000000E+02 0.  0.
    9900012    2    3    3    0    0 -0.35574768389E+02 -0.83588098891E+01 -0.45107030676E+01  0.54367078082E+02  0.39999986104E+02 0.  0.
        -12    1    3    3    0    0  0.35574768389E+02  0.83588098891E+01  0.45107030676E+01  0.36820921918E+02  0.00000000000E+00 0.  1.
         11    1    4    4    0    0 -0.25953086011E+02 -0.36082409882E+01 -0.18370806169E+02  0.32001071796E+02  0.51100000000E-03 0. -1.
        -11    1    4    4    0    0 -0.11036146845E+02  0.93821033702E+00  0.11719923333E+02  0.16125550503E+02  0.51100000000E-03 0.  1.
        -12    1    4    4    0    0  0.14144644667E+01 -0.56887792379E+01  0.21401797693E+01  0.62404557839E+01  0.00000000000E+00 0.  1.
</event>
<event>
 8    1  0.3106980E-007  0.9118800E+02  0.7816164E-02  0.1184000E+00
        -11   -1    0    0    0    0  0.00000000000E+00  0.00000000000E+00  0.45593999997E+02  0.45594000000E+02  0.51100000000E-03 0.  1.
         11   -1    0    0    0    0 -0.00000000000E+00 -0.00000000000E+00 -0.45593999997E+02  0.45594000000E+02  0.51100000000E-03 0. -1.
         23    2    1    2    0    0  0.13322676296E-14  0.66613381478E-15  0.00000000000E+00  0.91188000000E+02  0.91188000000E+02 0.  0.
    9900012    2    3    3    0    0  0.12174853462E+01  0.24355032791E+00  0.36799976991E+02  0.54367083474E+02  0.39999998395E+02 0.  0.
         12    1    3    3    0    0 -0.12174853462E+01 -0.24355032791E+00 -0.36799976991E+02  0.36820916526E+02  0.00000000000E+00 0. -1.
         11    1    4    4    0    0  0.88431744093E+01  0.40405451826E+01  0.55190810701E+00  0.97381898639E+01  0.51100000000E-03 0. -1.
        -11    1    4    4    0    0  0.35692004324E+01 -0.74268696262E+01  0.30381438072E+02  0.31479030540E+02  0.51100000000E-03 0.  1.
         12    1    4    4    0    0 -0.11194889495E+02  0.36298747714E+01  0.58666308120E+01  0.13149863070E+02  0.00000000000E+00 0. -1.
</event>
<event>
 8    1  0.3106980E-007  0.9118800E+02  0.7816164E-02  0.1184000E+00
        -11   -1    0    0    0    0  0.00000000000E+00  0.00000000000E+00  0.45593999997E+02  0.45594000000E+02  0.51100000000E-03 0.  1.
         11   -1    0    0    0    0 -0.00000000000E+00 -0.00000000000E+00 -0.45593999997E+02  0.45594000000E+02  0.51100000000E-03 0. -1.
         23    2    1    2    0    0  0.17763568394E-14  0.00000000000E+00  0.00000000000E+00  0.91188000000E+02  0.91188000000E+02 0.  0.
    9900012    2    3    3    0    0 -0.11852679189E+02 -0.32937974663E+02 -0.11418554862E+02  0.54367087817E+02  0.40000008296E+02 0.  0.
         12    1    3    3    0    0  0.11852679189E+02  0.32937974663E+02  0.11418554862E+02  0.36820912183E+02  0.00000000000E+00 0. -1.
         11    1    4    4    0    0 -0.57921815755E+01 -0.32277491131E+02 -0.97301693551E+01  0.34206168992E+02  0.51100000000E-03 0. -1.
        -11    1    4    4    0    0 -0.11341755141E+02  0.14481188962E+01  0.40040888151E+01  0.12114668197E+02  0.51100000000E-03 0.  1.
        -12    1    4    4    0    0  0.52812575278E+01 -0.21086024282E+01 -0.56924743216E+01  0.80462506286E+01  0.00000000000E+00 0.  1.
</event>
<event>
 8    1  0.3106980E-007  0.9118800E+02  0.7816164E-02  0.1184000E+00
        -11   -1    0    0    0    0  0.00000000000E+00  0.00000000000E+00  0.45593999997E+02  0.45594000000E+02  0.51100000000E-03 0.  1.
         11   -1    0    0    0    0 -0.00000000000E+00 -0.00000000000E+00 -0.45593999997E+02  0.45594000000E+02  0.51100000000E-03 0. -1.
         23    2    1    2    0    0  0.35527136788E-14  0.00000000000E+00  0.00000000000E+00  0.91188000000E+02  0.91188000000E+02 0.  0.
    9900012    2    3    3    0    0  0.24205759104E+02  0.10705634069E+02  0.25597865421E+02  0.54367080828E+02  0.39999992363E+02 0.  0.
         12    1    3    3    0    0 -0.24205759104E+02 -0.10705634069E+02 -0.25597865421E+02  0.36820919172E+02  0.00000000000E+00 0. -1.
         11    1    4    4    0    0 -0.26128862876E+01 -0.10093380635E+02  0.11311431811E+02  0.15383497563E+02  0.51100000000E-03 0. -1.
        -11    1    4    4    0    0  0.96167780451E+01  0.31667795373E+01 -0.70128704986E+00  0.10149025391E+02  0.51100000000E-03 0.  1.
         12    1    4    4    0    0  0.17201867346E+02  0.17632235167E+02  0.14987720660E+02  0.28834557873E+02  0.00000000000E+00 0. -1.
</event>
<event>
 8    1  0.3106980E-007  0.9118800E+02  0.7816164E-02  0.1184000E+00
        -11   -1    0    0    0    0  0.00000000000E+00  0.00000000000E+00  0.45593999997E+02  0.45594000000E+02  0.51100000000E-03 0.  1.
         11   -1    0    0    0    0 -0.00000000000E+00 -0.00000000000E+00 -0.45593999997E+02  0.45594000000E+02  0.51100000000E-03 0. -1.
         23    2    1    2    0    0  0.35527136788E-14  0.00000000000E+00  0.13322676296E-14  0.91188000000E+02  0.91188000000E+02 0.  0.
    9900012    2    3    3    0    0 -0.20808049055E+02 -0.30364331075E+02  0.90200383128E+00  0.54367066850E+02  0.39999960498E+02 0.  0.
        -12    1    3    3    0    0  0.20808049055E+02  0.30364331075E+02 -0.90200383128E+00  0.36820933150E+02  0.00000000000E+00 0.  1.
         11    1    4    4    0    0 -0.48112536426E+01 -0.50738383925E+01  0.16665443353E+02  0.18072880237E+02  0.51100000000E-03 0.  1.
        -11    1    4    4    0    0 -0.11399720650E+02 -0.64635878290E+01 -0.83821023248E+01  0.15556067568E+02  0.51100000000E-03 0. -1.
        -12    1    4    4    0    0 -0.45970747618E+01 -0.18826904854E+02 -0.73813371966E+01  0.20738119046E+02  0.00000000000E+00 0.  1.
</event>
<event>
 8    1  0.3106980E-007  0.9118800E+02  0.7816164E-02  0.1184000E+00
        -11   -1    0    0    0    0  0.00000000000E+00  0.00000000000E+00  0.45593999997E+02  0.45594000000E+02  0.51100000000E-03 0.  1.
         11   -1    0    0    0    0 -0.00000000000E+00 -0.00000000000E+00 -0.45593999997E+02  0.45594000000E+02  0.51100000000E-03 0. -1.
         23    2    1    2    0    0  0.00000000000E+00  0.17763568394E-14  0.00000000000E+00  0.91188000000E+02  0.91188000000E+02 0.  0.
    9900012    2    3    3    0    0  0.21552230358E+02 -0.15520497921E+02 -0.25502869035E+02  0.54367070923E+02  0.39999969782E+02 0.  0.
        -12    1    3    3    0    0 -0.21552230358E+02  0.15520497921E+02  0.25502869035E+02  0.36820929077E+02  0.00000000000E+00 0.  1.
         11    1    4    4    0    0 -0.20897125657E+00 -0.38026820593E-01 -0.17094813966E+00  0.27265097237E+00  0.51100000000E-03 0. -1.
        -11    1    4    4    0    0  0.32038101793E+02 -0.40375552272E+01 -0.18949917080E+02  0.37441169537E+02  0.51100000000E-03 0.  1.
         12    1    4    4    0    0 -0.10276900178E+02 -0.11444915873E+02 -0.63820038154E+01  0.16653250413E+02  0.00000000000E+00 0. -1.
</event>
<event>
 8    1  0.3106980E-007  0.9118800E+02  0.7816164E-02  0.1184000E+00
        -11   -1    0    0    0    0  0.00000000000E+00  0.00000000000E+00  0.45593999997E+02  0.45594000000E+02  0.51100000000E-03 0.  1.
         11   -1    0    0    0    0 -0.00000000000E+00 -0.00000000000E+00 -0.45593999997E+02  0.45594000000E+02  0.51100000000E-03 0. -1.
         23    2    1    2    0    0  0.00000000000E+00 -0.35527136788E-14 -0.17763568394E-14  0.91188000000E+02  0.91188000000E+02 0.  0.
    9900012    2    3    3    0    0 -0.23307758593E+02  0.23966665736E+02  0.15431355485E+02  0.54367090054E+02  0.40000013396E+02 0.  0.
         12    1    3    3    0    0  0.23307758593E+02 -0.23966665736E+02 -0.15431355485E+02  0.36820909946E+02  0.00000000000E+00 0. -1.
         11    1    4    4    0    0 -0.71497095329E+01  0.22455090181E+01 -0.74325021762E+01  0.10554749927E+02  0.51100000000E-03 0. -1.
        -11    1    4    4    0    0 -0.40729921202E+01 -0.59127907872E+01  0.36881750343E+01  0.80717405217E+01  0.51100000000E-03 0.  1.
        -12    1    4    4    0    0 -0.12085056940E+02  0.27633947505E+02  0.19175682627E+02  0.35740599606E+02  0.00000000000E+00 0.  1.
</event>
<event>
 8    1  0.3106980E-007  0.9118800E+02  0.7816164E-02  0.1184000E+00
        -11   -1    0    0    0    0  0.00000000000E+00  0.00000000000E+00  0.45593999997E+02  0.45594000000E+02  0.51100000000E-03 0. -1.
         11   -1    0    0    0    0 -0.00000000000E+00 -0.00000000000E+00 -0.45593999997E+02  0.45594000000E+02  0.51100000000E-03 0.  1.
         23    2    1    2    0    0  0.00000000000E+00 -0.35527136788E-14  0.00000000000E+00  0.91188000000E+02  0.91188000000E+02 0.  0.
    9900012    2    3    3    0    0  0.26447638960E+02 -0.25556578813E+02 -0.17785048602E+01  0.54367090088E+02  0.40000013474E+02 0.  0.
         12    1    3    3    0    0 -0.26447638960E+02  0.25556578813E+02  0.17785048602E+01  0.36820909912E+02  0.00000000000E+00 0. -1.
         11    1    4    4    0    0  0.18930848137E+01 -0.13572583057E+02  0.39964459958E+01  0.14274815649E+02  0.51100000000E-03 0. -1.
        -11    1    4    4    0    0  0.13583659633E+02 -0.18840169588E+02 -0.11532400152E+02  0.25931911858E+02  0.51100000000E-03 0.  1.
        -12    1    4    4    0    0  0.10970894513E+02  0.68561738313E+01  0.57574492957E+01  0.14160362581E+02  0.00000000000E+00 0.  1.
</event>
<event>
 8    1  0.3106980E-007  0.9118800E+02  0.7816164E-02  0.1184000E+00
        -11   -1    0    0    0    0  0.00000000000E+00  0.00000000000E+00  0.45593999997E+02  0.45594000000E+02  0.51100000000E-03 0.  1.
         11   -1    0    0    0    0 -0.00000000000E+00 -0.00000000000E+00 -0.45593999997E+02  0.45594000000E+02  0.51100000000E-03 0. -1.
         23    2    1    2    0    0 -0.55511151231E-16 -0.35527136788E-14  0.00000000000E+00  0.91188000000E+02  0.91188000000E+02 0.  0.
    9900012    2    3    3    0    0 -0.32084156060E+00  0.28902745961E+02 -0.22810210774E+02  0.54367117623E+02  0.40000076246E+02 0.  0.
        -12    1    3    3    0    0  0.32084156060E+00 -0.28902745961E+02  0.22810210774E+02  0.36820882377E+02  0.00000000000E+00 0.  1.
         11    1    4    4    0    0 -0.23897062572E+01  0.10980888640E+02 -0.32606714048E+01  0.11701392635E+02  0.51100000000E-03 0. -1.
        -11    1    4    4    0    0 -0.78274675614E+01  0.23512519391E+02 -0.70360842286E+01  0.25760712297E+02  0.51100000000E-03 0.  1.
         12    1    4    4    0    0  0.98963322580E+01 -0.55906620694E+01 -0.12513455141E+02  0.16905012691E+02  0.00000000000E+00 0. -1.
</event>
<event>
 8    1  0.3106980E-007  0.9118800E+02  0.7816164E-02  0.1184000E+00
        -11   -1    0    0    0    0  0.00000000000E+00  0.00000000000E+00  0.45593999997E+02  0.45594000000E+02  0.51100000000E-03 0.  1.
         11   -1    0    0    0    0 -0.00000000000E+00 -0.00000000000E+00 -0.45593999997E+02  0.45594000000E+02  0.51100000000E-03 0. -1.
         23    2    1    2    0    0  0.88817841970E-15  0.66613381478E-15 -0.71054273576E-14  0.91188000000E+02  0.91188000000E+02 0.  0.
    9900012    2    3    3    0    0  0.20511900788E+01 -0.11627213419E+01  0.36745355986E+02  0.54367075402E+02  0.39999979995E+02 0.  0.
         12    1    3    3    0    0 -0.20511900788E+01  0.11627213419E+01 -0.36745355986E+02  0.36820924598E+02  0.00000000000E+00 0. -1.
         11    1    4    4    0    0  0.62935642578E+01 -0.82249823827E+01  0.33899005992E+02  0.35445759884E+02  0.51100000000E-03 0.  1.
        -11    1    4    4    0    0 -0.89272463648E+01  0.91810712426E+01 -0.44999302330E+00  0.12813675929E+02  0.51100000000E-03 0. -1.
         12    1    4    4    0    0  0.46848721858E+01 -0.21188102018E+01  0.32963430179E+01  0.61076395898E+01  0.00000000000E+00 0. -1.
</event>
<event>
 8    1  0.3106980E-007  0.9118800E+02  0.7816164E-02  0.1184000E+00
        -11   -1    0    0    0    0  0.00000000000E+00  0.00000000000E+00  0.45593999997E+02  0.45594000000E+02  0.51100000000E-03 0. -1.
         11   -1    0    0    0    0 -0.00000000000E+00 -0.00000000000E+00 -0.45593999997E+02  0.45594000000E+02  0.51100000000E-03 0.  1.
         23    2    1    2    0    0  0.22204460493E-15  0.71054273576E-14  0.17763568394E-14  0.91188000000E+02  0.91188000000E+02 0.  0.
    9900012    2    3    3    0    0 -0.71675457849E+00 -0.36298826213E+02 -0.61368503989E+01  0.54367089441E+02  0.40000011998E+02 0.  0.
         12    1    3    3    0    0  0.71675457849E+00  0.36298826213E+02  0.61368503989E+01  0.36820910559E+02  0.00000000000E+00 0. -1.
         11    1    4    4    0    0 -0.23128819160E+01 -0.34625211783E+02 -0.10228969312E+02  0.36178536831E+02  0.51100000000E-03 0. -1.
        -11    1    4    4    0    0  0.87957010108E+01  0.27972634260E+01  0.25383510827E+01  0.95724743628E+01  0.51100000000E-03 0.  1.
         12    1    4    4    0    0 -0.71995736733E+01 -0.44708778564E+01  0.15537678309E+01  0.86160782469E+01  0.00000000000E+00 0. -1.
</event>
<event>
 8    1  0.3106980E-007  0.9118800E+02  0.7816164E-02  0.1184000E+00
        -11   -1    0    0    0    0  0.00000000000E+00  0.00000000000E+00  0.45593999997E+02  0.45594000000E+02  0.51100000000E-03 0. -1.
         11   -1    0    0    0    0 -0.00000000000E+00 -0.00000000000E+00 -0.45593999997E+02  0.45594000000E+02  0.51100000000E-03 0.  1.
         23    2    1    2    0    0  0.00000000000E+00  0.00000000000E+00  0.35527136788E-14  0.91188000000E+02  0.91188000000E+02 0.  0.
    9900012    2    3    3    0    0 -0.10597149374E+02  0.18005091794E+02 -0.30319876160E+02  0.54367111964E+02  0.40000063345E+02 0.  0.
         12    1    3    3    0    0  0.10597149374E+02 -0.18005091794E+02  0.30319876160E+02  0.36820888036E+02  0.00000000000E+00 0. -1.
         11    1    4    4    0    0  0.42226012169E+01 -0.56876153728E+01 -0.22705715805E+00  0.70873750345E+01  0.51100000000E-03 0. -1.
        -11    1    4    4    0    0 -0.21401581681E+01  0.21985295782E+02 -0.12053016014E+02  0.25163638507E+02  0.51100000000E-03 0.  1.
         12    1    4    4    0    0 -0.12679592423E+02  0.17074113857E+01 -0.18039802988E+02  0.22116098423E+02  0.00000000000E+00 0. -1.
</event>
<event>
 8    1  0.3106980E-007  0.9118800E+02  0.7816164E-02  0.1184000E+00
        -11   -1    0    0    0    0  0.00000000000E+00  0.00000000000E+00  0.45593999997E+02  0.45594000000E+02  0.51100000000E-03 0. -1.
         11   -1    0    0    0    0 -0.00000000000E+00 -0.00000000000E+00 -0.45593999997E+02  0.45594000000E+02  0.51100000000E-03 0.  1.
         23    2    1    2    0    0  0.00000000000E+00  0.00000000000E+00  0.88817841970E-15  0.91188000000E+02  0.91188000000E+02 0.  0.
    9900012    2    3    3    0    0  0.55409753229E+01  0.35737034011E+02  0.69240103999E+01  0.54367083018E+02  0.39999997355E+02 0.  0.
        -12    1    3    3    0    0 -0.55409753229E+01 -0.35737034011E+02 -0.69240103999E+01  0.36820916982E+02  0.00000000000E+00 0.  1.
         11    1    4    4    0    0 -0.82366050361E+01 -0.10809877960E+01  0.11003527058E+02  0.13787233410E+02  0.51100000000E-03 0. -1.
        -11    1    4    4    0    0  0.13073052002E+02  0.30067564293E+02 -0.64030486033E+01  0.33406019560E+02  0.51100000000E-03 0.  1.
         12    1    4    4    0    0  0.70452835665E+00  0.67504575138E+01  0.23235319456E+01  0.71738300477E+01  0.00000000000E+00 0. -1.
</event>
<event>
 8    1  0.3106980E-007  0.9118800E+02  0.7816164E-02  0.1184000E+00
        -11   -1    0    0    0    0  0.00000000000E+00  0.00000000000E+00  0.45593999997E+02  0.45594000000E+02  0.51100000000E-03 0. -1.
         11   -1    0    0    0    0 -0.00000000000E+00 -0.00000000000E+00 -0.45593999997E+02  0.45594000000E+02  0.51100000000E-03 0.  1.
         23    2    1    2    0    0  0.00000000000E+00  0.00000000000E+00  0.00000000000E+00  0.91188000000E+02  0.91188000000E+02 0.  0.
    9900012    2    3    3    0    0  0.27242525198E+02  0.17972098154E+02 -0.17047839315E+02  0.54367077734E+02  0.39999985310E+02 0.  0.
         12    1    3    3    0    0 -0.27242525198E+02 -0.17972098154E+02  0.17047839315E+02  0.36820922266E+02  0.00000000000E+00 0. -1.
         11    1    4    4    0    0  0.75652130813E+01  0.66787813563E+01 -0.81599088800E+01  0.12977776488E+02  0.51100000000E-03 0. -1.
        -11    1    4    4    0    0  0.62806161860E+01  0.21228807858E+02 -0.10743434538E+02  0.24607515288E+02  0.51100000000E-03 0.  1.
         12    1    4    4    0    0  0.13396695931E+02 -0.99354910604E+01  0.18555041024E+01  0.16781785958E+02  0.00000000000E+00 0. -1.
</event>
<event>
 8    1  0.3106980E-007  0.9118800E+02  0.7816164E-02  0.1184000E+00
        -11   -1    0    0    0    0  0.00000000000E+00  0.00000000000E+00  0.45593999997E+02  0.45594000000E+02  0.51100000000E-03 0.  1.
         11   -1    0    0    0    0 -0.00000000000E+00 -0.00000000000E+00 -0.45593999997E+02  0.45594000000E+02  0.51100000000E-03 0. -1.
         23    2    1    2    0    0  0.17763568394E-14  0.00000000000E+00  0.00000000000E+00  0.91188000000E+02  0.91188000000E+02 0.  0.
    9900012    2    3    3    0    0 -0.10969365013E+02 -0.13678900025E+02 -0.32378091836E+02  0.54367080598E+02  0.39999991840E+02 0.  0.
        -12    1    3    3    0    0  0.10969365013E+02  0.13678900025E+02  0.32378091836E+02  0.36820919402E+02  0.00000000000E+00 0.  1.
         11    1    4    4    0    0  0.10920313032E+02 -0.83540587259E+01 -0.15566130311E+02  0.20768917810E+02  0.51100000000E-03 0. -1.
        -11    1    4    4    0    0 -0.25007234176E+02 -0.34203470684E+01 -0.15907217034E+02  0.29834545232E+02  0.51100000000E-03 0.  1.
        -12    1    4    4    0    0  0.31175561317E+01 -0.19044942305E+01 -0.90474449133E+00  0.37636175554E+01  0.00000000000E+00 0.  1.
</event>
<event>
 8    1  0.3106980E-007  0.9118800E+02  0.7816164E-02  0.1184000E+00
        -11   -1    0    0    0    0  0.00000000000E+00  0.00000000000E+00  0.45593999997E+02  0.45594000000E+02  0.51100000000E-03 0.  1.
         11   -1    0    0    0    0 -0.00000000000E+00 -0.00000000000E+00 -0.45593999997E+02  0.45594000000E+02  0.51100000000E-03 0. -1.
         23    2    1    2    0    0 -0.35527136788E-14 -0.17763568394E-14  0.00000000000E+00  0.91188000000E+02  0.91188000000E+02 0.  0.
    9900012    2    3    3    0    0 -0.28498191044E+02 -0.80794233102E+01 -0.21871369342E+02  0.54367071566E+02  0.39999971250E+02 0.  0.
         12    1    3    3    0    0  0.28498191044E+02  0.80794233102E+01  0.21871369342E+02  0.36820928434E+02  0.00000000000E+00 0. -1.
         11    1    4    4    0    0  0.45568874332E+01  0.38344444185E+01 -0.23815211693E+01  0.64140338648E+01  0.51100000000E-03 0. -1.
        -11    1    4    4    0    0 -0.18983008052E+02  0.33978225364E+01  0.24124015335E+00  0.19286212426E+02  0.51100000000E-03 0.  1.
         12    1    4    4    0    0 -0.14072070426E+02 -0.15311690265E+02 -0.19731088326E+02  0.28666825275E+02  0.00000000000E+00 0. -1.
</event>
<event>
 8    1  0.3106980E-007  0.9118800E+02  0.7816164E-02  0.1184000E+00
        -11   -1    0    0    0    0  0.00000000000E+00  0.00000000000E+00  0.45593999997E+02  0.45594000000E+02  0.51100000000E-03 0. -1.
         11   -1    0    0    0    0 -0.00000000000E+00 -0.00000000000E+00 -0.45593999997E+02  0.45594000000E+02  0.51100000000E-03 0.  1.
         23    2    1    2    0    0 -0.17763568394E-14 -0.71054273576E-14  0.00000000000E+00  0.91188000000E+02  0.91188000000E+02 0.  0.
    9900012    2    3    3    0    0 -0.13452161225E+02 -0.32151611014E+02  0.11878254002E+02  0.54367086777E+02  0.40000005926E+02 0.  0.
        -12    1    3    3    0    0  0.13452161225E+02  0.32151611014E+02 -0.11878254002E+02  0.36820913223E+02  0.00000000000E+00 0.  1.
         11    1    4    4    0    0 -0.34958901553E+01  0.16537636542E+00  0.78439559011E+01  0.85893097371E+01  0.51100000000E-03 0. -1.
        -11    1    4    4    0    0 -0.12461366769E+02  0.66432526298E+00  0.20066933450E+01  0.12639375311E+02  0.51100000000E-03 0.  1.
         12    1    4    4    0    0  0.25050956998E+01 -0.32981312643E+02  0.20276047555E+01  0.33138401729E+02  0.00000000000E+00 0. -1.
</event>
<event>
 8    1  0.3106980E-007  0.9118800E+02  0.7816164E-02  0.1184000E+00
        -11   -1    0    0    0    0  0.00000000000E+00  0.00000000000E+00  0.45593999997E+02  0.45594000000E+02  0.51100000000E-03 0.  1.
         11   -1    0    0    0    0 -0.00000000000E+00 -0.00000000000E+00 -0.45593999997E+02  0.45594000000E+02  0.51100000000E-03 0. -1.
         23    2    1    2    0    0  0.44408920985E-15  0.00000000000E+00  0.00000000000E+00  0.91188000000E+02  0.91188000000E+02 0.  0.
    9900012    2    3    3    0    0  0.33150789887E+01 -0.34252656347E+02  0.13097543841E+02  0.54367083795E+02  0.39999999127E+02 0.  0.
         12    1    3    3    0    0 -0.33150789887E+01  0.34252656347E+02 -0.13097543841E+02  0.36820916205E+02  0.00000000000E+00 0. -1.
         11    1    4    4    0    0  0.18042150871E+02 -0.24809007081E+02  0.15847368673E+02  0.34527454793E+02  0.51100000000E-03 0. -1.
        -11    1    4    4    0    0 -0.53238892473E+00  0.40072034963E+00  0.18475538044E+01  0.19640443191E+01  0.51100000000E-03 0.  1.
         12    1    4    4    0    0 -0.14194682958E+02 -0.98443696157E+01 -0.45973786365E+01  0.17875584682E+02  0.00000000000E+00 0. -1.
</event>
<event>
 8    1  0.3106980E-007  0.9118800E+02  0.7816164E-02  0.1184000E+00
        -11   -1    0    0    0    0  0.00000000000E+00  0.00000000000E+00  0.45593999997E+02  0.45594000000E+02  0.51100000000E-03 0. -1.
         11   -1    0    0    0    0 -0.00000000000E+00 -0.00000000000E+00 -0.45593999997E+02  0.45594000000E+02  0.51100000000E-03 0.  1.
         23    2    1    2    0    0  0.00000000000E+00  0.00000000000E+00  0.88817841970E-15  0.91188000000E+02  0.91188000000E+02 0.  0.
    9900012    2    3    3    0    0  0.96580856274E+01  0.35297588378E+02 -0.40719234410E+01  0.54367096646E+02  0.40000028424E+02 0.  0.
        -12    1    3    3    0    0 -0.96580856274E+01 -0.35297588378E+02  0.40719234410E+01  0.36820903354E+02  0.00000000000E+00 0.  1.
         11    1    4    4    0    0  0.73620950033E+01  0.94520764060E+01 -0.66659967247E+01  0.13710496119E+02  0.51100000000E-03 0. -1.
        -11    1    4    4    0    0  0.33247758991E+01  0.85287951248E+01  0.16201828065E+02  0.18608968643E+02  0.51100000000E-03 0.  1.
        -12    1    4    4    0    0 -0.10287852750E+01  0.17316716847E+02 -0.13607754781E+02  0.22047631884E+02  0.00000000000E+00 0.  1.
</event>
<event>
 8    1  0.3106980E-007  0.9118800E+02  0.7816164E-02  0.1184000E+00
        -11   -1    0    0    0    0  0.00000000000E+00  0.00000000000E+00  0.45593999997E+02  0.45594000000E+02  0.51100000000E-03 0. -1.
         11   -1    0    0    0    0 -0.00000000000E+00 -0.00000000000E+00 -0.45593999997E+02  0.45594000000E+02  0.51100000000E-03 0.  1.
         23    2    1    2    0    0  0.00000000000E+00  0.00000000000E+00  0.00000000000E+00  0.91188000000E+02  0.91188000000E+02 0.  0.
    9900012    2    3    3    0    0  0.10038879620E+02 -0.29422401528E+01  0.35303564409E+02  0.54367115422E+02  0.40000071226E+02 0.  0.
        -12    1    3    3    0    0 -0.10038879620E+02  0.29422401528E+01 -0.35303564409E+02  0.36820884578E+02  0.00000000000E+00 0.  1.
         11    1    4    4    0    0  0.13332350370E+00 -0.52497710236E+01 -0.60415274085E+01  0.80048688087E+01  0.51100000000E-03 0.  1.
        -11    1    4    4    0    0  0.11022149374E+02  0.74473771588E+01  0.37659328846E+02  0.39939657645E+02  0.51100000000E-03 0. -1.
         12    1    4    4    0    0 -0.11165932583E+01 -0.51398462880E+01  0.36857629717E+01  0.64225889681E+01  0.00000000000E+00 0. -1.
</event>
<event>
 8    1  0.3106980E-007  0.9118800E+02  0.7816164E-02  0.1184000E+00
        -11   -1    0    0    0    0  0.00000000000E+00  0.00000000000E+00  0.45593999997E+02  0.45594000000E+02  0.51100000000E-03 0.  1.
         11   -1    0    0    0    0 -0.00000000000E+00 -0.00000000000E+00 -0.45593999997E+02  0.45594000000E+02  0.51100000000E-03 0. -1.
         23    2    1    2    0    0 -0.88817841970E-15  0.66613381478E-15 -0.71054273576E-14  0.91188000000E+02  0.91188000000E+02 0.  0.
    9900012    2    3    3    0    0 -0.71875006414E+01 -0.67465479404E+00  0.36106283004E+02  0.54367095653E+02  0.40000026161E+02 0.  0.
         12    1    3    3    0    0  0.71875006414E+01  0.67465479404E+00 -0.36106283004E+02  0.36820904347E+02  0.00000000000E+00 0. -1.
         11    1    4    4    0    0 -0.67928450096E+01 -0.26268320581E+01  0.89904119929E+01  0.11570241918E+02  0.51100000000E-03 0. -1.
        -11    1    4    4    0    0  0.13329665679E+02 -0.55375466367E+01  0.41587916412E+01  0.15021316788E+02  0.51100000000E-03 0.  1.
        -12    1    4    4    0    0 -0.13724321310E+02  0.74897239008E+01  0.22957079370E+02  0.27775536947E+02  0.00000000000E+00 0.  1.
</event>
<event>
 8    1  0.3106980E-007  0.9118800E+02  0.7816164E-02  0.1184000E+00
        -11   -1    0    0    0    0  0.00000000000E+00  0.00000000000E+00  0.45593999997E+02  0.45594000000E+02  0.51100000000E-03 0. -1.
         11   -1    0    0    0    0 -0.00000000000E+00 -0.00000000000E+00 -0.45593999997E+02  0.45594000000E+02  0.51100000000E-03 0.  1.
         23    2    1    2    0    0  0.71054273576E-14 -0.71054273576E-14  0.00000000000E+00  0.91188000000E+02  0.91188000000E+02 0.  0.
    9900012    2    3    3    0    0 -0.27758454193E+02  0.20715347449E+02 -0.12495213639E+02  0.54366976616E+02  0.39999754791E+02 0.  0.
         12    1    3    3    0    0  0.27758454193E+02 -0.20715347449E+02  0.12495213639E+02  0.36821023384E+02  0.00000000000E+00 0. -1.
         11    1    4    4    0    0 -0.20336142873E+02  0.15625194597E+01  0.48326846174E+01  0.20960797095E+02  0.51100000000E-03 0. -1.
        -11    1    4    4    0    0 -0.98869212813E+01  0.18791058665E+02 -0.20404039762E+02  0.29447919061E+02  0.51100000000E-03 0.  1.
        -12    1    4    4    0    0  0.24646099607E+01  0.36176932438E+00  0.30761415054E+01  0.39582604593E+01  0.00000000000E+00 0.  1.
</event>
<event>
 8    1  0.3106980E-007  0.9118800E+02  0.7816164E-02  0.1184000E+00
        -11   -1    0    0    0    0  0.00000000000E+00  0.00000000000E+00  0.45593999997E+02  0.45594000000E+02  0.51100000000E-03 0.  1.
         11   -1    0    0    0    0 -0.00000000000E+00 -0.00000000000E+00 -0.45593999997E+02  0.45594000000E+02  0.51100000000E-03 0. -1.
         23    2    1    2    0    0  0.00000000000E+00  0.00000000000E+00  0.00000000000E+00  0.91188000000E+02  0.91188000000E+02 0.  0.
    9900012    2    3    3    0    0 -0.14275265471E+01 -0.79311712788E+01  0.35928211241E+02  0.54367113633E+02  0.40000067149E+02 0.  0.
         12    1    3    3    0    0  0.14275265471E+01  0.79311712788E+01 -0.35928211241E+02  0.36820886367E+02  0.00000000000E+00 0. -1.
         11    1    4    4    0    0  0.69180485372E+01 -0.22811473209E+00  0.17639788625E+02  0.18949236789E+02  0.51100000000E-03 0.  1.
        -11    1    4    4    0    0 -0.33728845029E+00  0.10456720287E+02  0.69508590107E+01  0.12560700773E+02  0.51100000000E-03 0. -1.
         12    1    4    4    0    0 -0.80082866340E+01 -0.18159776834E+02  0.11337563605E+02  0.22857176071E+02  0.00000000000E+00 0. -1.
</event>
<event>
 8    1  0.3106980E-007  0.9118800E+02  0.7816164E-02  0.1184000E+00
        -11   -1    0    0    0    0  0.00000000000E+00  0.00000000000E+00  0.45593999997E+02  0.45594000000E+02  0.51100000000E-03 0.  1.
         11   -1    0    0    0    0 -0.00000000000E+00 -0.00000000000E+00 -0.45593999997E+02  0.45594000000E+02  0.51100000000E-03 0. -1.
         23    2    1    2    0    0 -0.17763568394E-14  0.00000000000E+00 -0.35527136788E-14  0.91188000000E+02  0.91188000000E+02 0.  0.
    9900012    2    3    3    0    0  0.10457309499E+02  0.29840303262E+02  0.18867376851E+02  0.54367123721E+02  0.40000090146E+02 0.  0.
         12    1    3    3    0    0 -0.10457309499E+02 -0.29840303262E+02 -0.18867376851E+02  0.36820876279E+02  0.00000000000E+00 0. -1.
         11    1    4    4    0    0  0.20335658624E+02  0.10516981475E+02  0.93723178462E+01  0.24738355910E+02  0.51100000000E-03 0.  1.
        -11    1    4    4    0    0 -0.12443574188E+02  0.18987183637E+02  0.12294541223E+02  0.25816882561E+02  0.51100000000E-03 0. -1.
         12    1    4    4    0    0  0.25652250616E+01  0.33613814987E+00 -0.27994822179E+01  0.38118852502E+01  0.00000000000E+00 0. -1.
</event>
<event>
 8    1  0.3106980E-007  0.9118800E+02  0.7816164E-02  0.1184000E+00
        -11   -1    0    0    0    0  0.00000000000E+00  0.00000000000E+00  0.45593999997E+02  0.45594000000E+02  0.51100000000E-03 0.  1.
         11   -1    0    0    0    0 -0.00000000000E+00 -0.00000000000E+00 -0.45593999997E+02  0.45594000000E+02  0.51100000000E-03 0. -1.
         23    2    1    2    0    0 -0.17763568394E-14  0.00000000000E+00  0.00000000000E+00  0.91188000000E+02  0.91188000000E+02 0.  0.
    9900012    2    3    3    0    0 -0.96452301008E+01  0.10229056127E+02  0.34031366022E+02  0.54366838608E+02  0.39999440171E+02 0.  0.
         12    1    3    3    0    0  0.96452301008E+01 -0.10229056127E+02 -0.34031366022E+02  0.36821161392E+02  0.00000000000E+00 0. -1.
         11    1    4    4    0    0 -0.55163714823E+01  0.10505203940E+02  0.22869482955E+02  0.25764372980E+02  0.51100000000E-03 0. -1.
        -11    1    4    4    0    0  0.42768631839E+01  0.92001244937E+01  0.12229921347E+02  0.15890400430E+02  0.51100000000E-03 0.  1.
         12    1    4    4    0    0 -0.84057218024E+01 -0.94762723070E+01 -0.10680382800E+01  0.12712065199E+02  0.00000000000E+00 0. -1.
</event>
<event>
 8    1  0.3106980E-007  0.9118800E+02  0.7816164E-02  0.1184000E+00
        -11   -1    0    0    0    0  0.00000000000E+00  0.00000000000E+00  0.45593999997E+02  0.45594000000E+02  0.51100000000E-03 0.  1.
         11   -1    0    0    0    0 -0.00000000000E+00 -0.00000000000E+00 -0.45593999997E+02  0.45594000000E+02  0.51100000000E-03 0. -1.
         23    2    1    2    0    0  0.00000000000E+00  0.35527136788E-14 -0.17763568394E-14  0.91188000000E+02  0.91188000000E+02 0.  0.
    9900012    2    3    3    0    0  0.34083169920E+02 -0.72614724490E+01 -0.11890796341E+02  0.54367048198E+02  0.39999917978E+02 0.  0.
        -12    1    3    3    0    0 -0.34083169920E+02  0.72614724490E+01  0.11890796341E+02  0.36820951802E+02  0.00000000000E+00 0.  1.
         11    1    4    4    0    0  0.43143269535E+01 -0.16864767367E+00  0.33429201811E+01  0.54604921663E+01  0.51100000000E-03 0. -1.
        -11    1    4    4    0    0  0.19822071791E+02 -0.17976370266E+02  0.12529409669E+01  0.26788696858E+02  0.51100000000E-03 0.  1.
        -12    1    4    4    0    0  0.99467711758E+01  0.10883545491E+02 -0.16486657489E+02  0.22117859174E+02  0.00000000000E+00 0.  1.
</event>
<event>
 8    1  0.3106980E-007  0.9118800E+02  0.7816164E-02  0.1184000E+00
        -11   -1    0    0    0    0  0.00000000000E+00  0.00000000000E+00  0.45593999997E+02  0.45594000000E+02  0.51100000000E-03 0. -1.
         11   -1    0    0    0    0 -0.00000000000E+00 -0.00000000000E+00 -0.45593999997E+02  0.45594000000E+02  0.51100000000E-03 0.  1.
         23    2    1    2    0    0  0.00000000000E+00  0.00000000000E+00  0.00000000000E+00  0.91188000000E+02  0.91188000000E+02 0.  0.
    9900012    2    3    3    0    0 -0.32697412816E+02  0.98298628614E+01 -0.13785202818E+02  0.54367097981E+02  0.40000031467E+02 0.  0.
        -12    1    3    3    0    0  0.32697412816E+02 -0.98298628614E+01  0.13785202818E+02  0.36820902019E+02  0.00000000000E+00 0.  1.
         11    1    4    4    0    0 -0.49209648043E+01  0.64657303797E+01  0.58674287514E+01  0.10022389154E+02  0.51100000000E-03 0. -1.
        -11    1    4    4    0    0  0.68410868482E+00 -0.65010785317E+01 -0.11352790495E+02  0.13100300724E+02  0.51100000000E-03 0.  1.
        -12    1    4    4    0    0 -0.28460556697E+02  0.98652110134E+01 -0.82998410750E+01  0.31244408103E+02  0.00000000000E+00 0.  1.
</event>
<event>
 8    1  0.3106980E-007  0.9118800E+02  0.7816164E-02  0.1184000E+00
        -11   -1    0    0    0    0  0.00000000000E+00  0.00000000000E+00  0.45593999997E+02  0.45594000000E+02  0.51100000000E-03 0. -1.
         11   -1    0    0    0    0 -0.00000000000E+00 -0.00000000000E+00 -0.45593999997E+02  0.45594000000E+02  0.51100000000E-03 0.  1.
         23    2    1    2    0    0  0.17763568394E-14  0.00000000000E+00 -0.35527136788E-14  0.91188000000E+02  0.91188000000E+02 0.  0.
    9900012    2    3    3    0    0 -0.13076836957E+02 -0.22327659291E+02  0.26196395199E+02  0.54367093498E+02  0.40000021247E+02 0.  0.
         12    1    3    3    0    0  0.13076836957E+02  0.22327659291E+02 -0.26196395199E+02  0.36820906502E+02  0.00000000000E+00 0. -1.
         11    1    4    4    0    0 -0.59568155344E+01 -0.24628343690E+02  0.13846003366E+02  0.28874742833E+02  0.51100000000E-03 0.  1.
        -11    1    4    4    0    0 -0.45648077710E+01  0.56728068338E+01 -0.42026488936E+01  0.84071674983E+01  0.51100000000E-03 0. -1.
         12    1    4    4    0    0 -0.25552136519E+01 -0.33721224345E+01  0.16553040727E+02  0.17085183167E+02  0.00000000000E+00 0. -1.
</event>
<event>
 8    1  0.3106980E-007  0.9118800E+02  0.7816164E-02  0.1184000E+00
        -11   -1    0    0    0    0  0.00000000000E+00  0.00000000000E+00  0.45593999997E+02  0.45594000000E+02  0.51100000000E-03 0.  1.
         11   -1    0    0    0    0 -0.00000000000E+00 -0.00000000000E+00 -0.45593999997E+02  0.45594000000E+02  0.51100000000E-03 0. -1.
         23    2    1    2    0    0  0.00000000000E+00 -0.17763568394E-14  0.00000000000E+00  0.91188000000E+02  0.91188000000E+02 0.  0.
    9900012    2    3    3    0    0  0.27295646206E+02 -0.53059986451E+01  0.24136574650E+02  0.54367079869E+02  0.39999990177E+02 0.  0.
         12    1    3    3    0    0 -0.27295646206E+02  0.53059986451E+01 -0.24136574650E+02  0.36820920131E+02  0.00000000000E+00 0. -1.
         11    1    4    4    0    0  0.12069056894E+02  0.42256408932E+01 -0.61061013149E+01  0.14170485129E+02  0.51100000000E-03 0. -1.
        -11    1    4    4    0    0  0.15597310770E+02 -0.13171208973E+02  0.17338837071E+02  0.26784176677E+02  0.51100000000E-03 0.  1.
         12    1    4    4    0    0 -0.37072145747E+00  0.36395694343E+01  0.12903838894E+02  0.13412418062E+02  0.00000000000E+00 0. -1.
</event>
<event>
 8    1  0.3106980E-007  0.9118800E+02  0.7816164E-02  0.1184000E+00
        -11   -1    0    0    0    0  0.00000000000E+00  0.00000000000E+00  0.45593999997E+02  0.45594000000E+02  0.51100000000E-03 0.  1.
         11   -1    0    0    0    0 -0.00000000000E+00 -0.00000000000E+00 -0.45593999997E+02  0.45594000000E+02  0.51100000000E-03 0. -1.
         23    2    1    2    0    0  0.00000000000E+00  0.00000000000E+00  0.00000000000E+00  0.91188000000E+02  0.91188000000E+02 0.  0.
    9900012    2    3    3    0    0  0.27513848074E+02  0.23819905528E+02  0.56018242988E+01  0.54367079715E+02  0.39999989825E+02 0.  0.
         12    1    3    3    0    0 -0.27513848074E+02 -0.23819905528E+02 -0.56018242988E+01  0.36820920285E+02  0.00000000000E+00 0. -1.
         11    1    4    4    0    0  0.20094844797E+02 -0.22640675410E+00 -0.12004132541E+02  0.23408401179E+02  0.51100000000E-03 0. -1.
        -11    1    4    4    0    0  0.53282976195E+01  0.10874022495E+02  0.77879871903E+01  0.14397495112E+02  0.51100000000E-03 0.  1.
         12    1    4    4    0    0  0.20907056573E+01  0.13172289787E+02  0.98179696493E+01  0.16561183424E+02  0.00000000000E+00 0. -1.
</event>
<event>
 8    1  0.3106980E-007  0.9118800E+02  0.7816164E-02  0.1184000E+00
        -11   -1    0    0    0    0  0.00000000000E+00  0.00000000000E+00  0.45593999997E+02  0.45594000000E+02  0.51100000000E-03 0. -1.
         11   -1    0    0    0    0 -0.00000000000E+00 -0.00000000000E+00 -0.45593999997E+02  0.45594000000E+02  0.51100000000E-03 0.  1.
         23    2    1    2    0    0  0.00000000000E+00  0.00000000000E+00  0.00000000000E+00  0.91188000000E+02  0.91188000000E+02 0.  0.
    9900012    2    3    3    0    0  0.21012757859E+02  0.18476571145E+02  0.23934881540E+02  0.54366834504E+02  0.39999430815E+02 0.  0.
        -12    1    3    3    0    0 -0.21012757859E+02 -0.18476571145E+02 -0.23934881540E+02  0.36821165496E+02  0.00000000000E+00 0.  1.
         11    1    4    4    0    0  0.96477370344E+00  0.76165332097E+01  0.81957271099E+01  0.11229973711E+02  0.51100000000E-03 0.  1.
        -11    1    4    4    0    0  0.15203218193E+01  0.14346466977E+02 -0.48499369774E+01  0.15220196520E+02  0.51100000000E-03 0. -1.
         12    1    4    4    0    0  0.18527662336E+02 -0.34864290415E+01  0.20589091408E+02  0.27916664273E+02  0.00000000000E+00 0. -1.
</event>
<event>
 8    1  0.3106980E-007  0.9118800E+02  0.7816164E-02  0.1184000E+00
        -11   -1    0    0    0    0  0.00000000000E+00  0.00000000000E+00  0.45593999997E+02  0.45594000000E+02  0.51100000000E-03 0. -1.
         11   -1    0    0    0    0 -0.00000000000E+00 -0.00000000000E+00 -0.45593999997E+02  0.45594000000E+02  0.51100000000E-03 0.  1.
         23    2    1    2    0    0 -0.35527136788E-14  0.00000000000E+00  0.17763568394E-14  0.91188000000E+02  0.91188000000E+02 0.  0.
    9900012    2    3    3    0    0 -0.19354748283E+02  0.28034773630E+02  0.13972318719E+02  0.54367075189E+02  0.39999979508E+02 0.  0.
        -12    1    3    3    0    0  0.19354748283E+02 -0.28034773630E+02 -0.13972318719E+02  0.36820924811E+02  0.00000000000E+00 0.  1.
         11    1    4    4    0    0  0.21095464345E+01 -0.30125915032E+00  0.11755740902E+02  0.11947317174E+02  0.51100000000E-03 0. -1.
        -11    1    4    4    0    0  0.47623896002E+01  0.55358912724E+01 -0.15477232842E+01  0.74647099415E+01  0.51100000000E-03 0.  1.
        -12    1    4    4    0    0 -0.26226684318E+02  0.22800141508E+02  0.37643011011E+01  0.34955048074E+02  0.00000000000E+00 0.  1.
</event>
<event>
 8    1  0.3106980E-007  0.9118800E+02  0.7816164E-02  0.1184000E+00
        -11   -1    0    0    0    0  0.00000000000E+00  0.00000000000E+00  0.45593999997E+02  0.45594000000E+02  0.51100000000E-03 0. -1.
         11   -1    0    0    0    0 -0.00000000000E+00 -0.00000000000E+00 -0.45593999997E+02  0.45594000000E+02  0.51100000000E-03 0.  1.
         23    2    1    2    0    0  0.00000000000E+00  0.00000000000E+00  0.00000000000E+00  0.91188000000E+02  0.91188000000E+02 0.  0.
    9900012    2    3    3    0    0 -0.22931553472E+02  0.14809302944E+02 -0.24710483200E+02  0.54367087758E+02  0.40000008162E+02 0.  0.
         12    1    3    3    0    0  0.22931553472E+02 -0.14809302944E+02  0.24710483200E+02  0.36820912242E+02  0.00000000000E+00 0. -1.
         11    1    4    4    0    0 -0.11091390505E+00 -0.36463510960E+00 -0.10894206136E+02  0.10900870986E+02  0.51100000000E-03 0. -1.
        -11    1    4    4    0    0 -0.12896908762E+00  0.18071335886E+02 -0.85483203456E+01  0.19991588099E+02  0.51100000000E-03 0.  1.
         12    1    4    4    0    0 -0.22691670480E+02 -0.28973978325E+01 -0.52679567185E+01  0.23474628673E+02  0.00000000000E+00 0. -1.
</event>
<event>
 8    1  0.3106980E-007  0.9118800E+02  0.7816164E-02  0.1184000E+00
        -11   -1    0    0    0    0  0.00000000000E+00  0.00000000000E+00  0.45593999997E+02  0.45594000000E+02  0.51100000000E-03 0. -1.
         11   -1    0    0    0    0 -0.00000000000E+00 -0.00000000000E+00 -0.45593999997E+02  0.45594000000E+02  0.51100000000E-03 0.  1.
         23    2    1    2    0    0  0.00000000000E+00 -0.44408920985E-15  0.00000000000E+00  0.91188000000E+02  0.91188000000E+02 0.  0.
    9900012    2    3    3    0    0 -0.28633933789E+01  0.30057154924E+01  0.36586125155E+02  0.54367110533E+02  0.40000060083E+02 0.  0.
        -12    1    3    3    0    0  0.28633933789E+01 -0.30057154924E+01 -0.36586125155E+02  0.36820889467E+02  0.00000000000E+00 0.  1.
         11    1    4    4    0    0  0.11707728334E+01 -0.75684222034E+01  0.54972894548E+01  0.94271902117E+01  0.51100000000E-03 0. -1.
        -11    1    4    4    0    0 -0.30771496003E+01  0.93655953363E+01 -0.33914298333E+01  0.10425210897E+02  0.51100000000E-03 0.  1.
        -12    1    4    4    0    0 -0.95701661191E+00  0.12085423595E+01  0.34480265533E+02  0.34514709425E+02  0.00000000000E+00 0.  1.
</event>
<event>
 8    1  0.3106980E-007  0.9118800E+02  0.7816164E-02  0.1184000E+00
        -11   -1    0    0    0    0  0.00000000000E+00  0.00000000000E+00  0.45593999997E+02  0.45594000000E+02  0.51100000000E-03 0. -1.
         11   -1    0    0    0    0 -0.00000000000E+00 -0.00000000000E+00 -0.45593999997E+02  0.45594000000E+02  0.51100000000E-03 0.  1.
         23    2    1    2    0    0  0.00000000000E+00  0.00000000000E+00 -0.44408920985E-15  0.91188000000E+02  0.91188000000E+02 0.  0.
    9900012    2    3    3    0    0  0.10594066405E+02 -0.35095143562E+02 -0.34461886953E+01  0.54367087991E+02  0.40000008693E+02 0.  0.
         12    1    3    3    0    0 -0.10594066405E+02  0.35095143562E+02  0.34461886953E+01  0.36820912009E+02  0.00000000000E+00 0. -1.
         11    1    4    4    0    0  0.53984040761E+00 -0.23260415199E+01  0.26874676854E+01  0.35950493236E+01  0.51100000000E-03 0. -1.
        -11    1    4    4    0    0  0.75691783482E+01  0.70721558612E+01  0.16046603953E+00  0.10360193000E+02  0.51100000000E-03 0.  1.
        -12    1    4    4    0    0  0.24850476490E+01 -0.39841257904E+02 -0.62941224202E+01  0.40411845667E+02  0.00000000000E+00 0.  1.
</event>
<event>
 8    1  0.3106980E-007  0.9118800E+02  0.7816164E-02  0.1184000E+00
        -11   -1    0    0    0    0  0.00000000000E+00  0.00000000000E+00  0.45593999997E+02  0.45594000000E+02  0.51100000000E-03 0.  1.
         11   -1    0    0    0    0 -0.00000000000E+00 -0.00000000000E+00 -0.45593999997E+02  0.45594000000E+02  0.51100000000E-03 0. -1.
         23    2    1    2    0    0 -0.35527136788E-14  0.35527136788E-14  0.00000000000E+00  0.91188000000E+02  0.91188000000E+02 0.  0.
    9900012    2    3    3    0    0  0.14665647054E+02 -0.18500201003E+02  0.28256682993E+02  0.54367098675E+02  0.40000033048E+02 0.  0.
         12    1    3    3    0    0 -0.14665647054E+02  0.18500201003E+02 -0.28256682993E+02  0.36820901325E+02  0.00000000000E+00 0. -1.
         11    1    4    4    0    0  0.18521105414E+02  0.42199781385E+01  0.11445174594E+02  0.22177276276E+02  0.51100000000E-03 0. -1.
        -11    1    4    4    0    0 -0.69883263920E+01 -0.17964640657E+02  0.17998672830E+02  0.26372660912E+02  0.51100000000E-03 0.  1.
        -12    1    4    4    0    0  0.31328680312E+01 -0.47555384841E+01 -0.11871644307E+01  0.58171614865E+01  0.00000000000E+00 0.  1.
</event>
<event>
 8    1  0.3106980E-007  0.9118800E+02  0.7816164E-02  0.1184000E+00
        -11   -1    0    0    0    0  0.00000000000E+00  0.00000000000E+00  0.45593999997E+02  0.45594000000E+02  0.51100000000E-03 0.  1.
         11   -1    0    0    0    0 -0.00000000000E+00 -0.00000000000E+00 -0.45593999997E+02  0.45594000000E+02  0.51100000000E-03 0. -1.
         23    2    1    2    0    0  0.11102230246E-15  0.00000000000E+00  0.71054273576E-14  0.91188000000E+02  0.91188000000E+02 0.  0.
    9900012    2    3    3    0    0 -0.88302374882E+00  0.16880796175E+02 -0.32711255026E+02  0.54367255632E+02  0.40000390863E+02 0.  0.
        -12    1    3    3    0    0  0.88302374882E+00 -0.16880796175E+02  0.32711255026E+02  0.36820744368E+02  0.00000000000E+00 0.  1.
         11    1    4    4    0    0 -0.65154397971E+01  0.14792004891E+02 -0.21286948440E+01  0.16302935516E+02  0.51100000000E-03 0. -1.
        -11    1    4    4    0    0  0.39618738933E+01  0.11378128104E+02 -0.22972303575E+02  0.25940026517E+02  0.51100000000E-03 0.  1.
        -12    1    4    4    0    0  0.16705421549E+01 -0.92893368205E+01 -0.76102566069E+01  0.12124293599E+02  0.00000000000E+00 0.  1.
</event>
<event>
 8    1  0.3106980E-007  0.9118800E+02  0.7816164E-02  0.1184000E+00
        -11   -1    0    0    0    0  0.00000000000E+00  0.00000000000E+00  0.45593999997E+02  0.45594000000E+02  0.51100000000E-03 0.  1.
         11   -1    0    0    0    0 -0.00000000000E+00 -0.00000000000E+00 -0.45593999997E+02  0.45594000000E+02  0.51100000000E-03 0. -1.
         23    2    1    2    0    0 -0.35527136788E-14  0.00000000000E+00 -0.17763568394E-14  0.91188000000E+02  0.91188000000E+02 0.  0.
    9900012    2    3    3    0    0 -0.27291144976E+02 -0.22612406957E+02  0.99825765591E+01  0.54367090489E+02  0.40000014387E+02 0.  0.
        -12    1    3    3    0    0  0.27291144976E+02  0.22612406957E+02 -0.99825765591E+01  0.36820909511E+02  0.00000000000E+00 0.  1.
         11    1    4    4    0    0  0.26060389721E+01 -0.25666917473E+01 -0.90392816202E+01  0.97513054572E+01  0.51100000000E-03 0. -1.
        -11    1    4    4    0    0 -0.20110450904E+02 -0.26132217671E+01  0.81206006264E+01  0.21844983826E+02  0.51100000000E-03 0.  1.
        -12    1    4    4    0    0 -0.97867330441E+01 -0.17432493443E+02  0.10901257553E+02  0.22770801206E+02  0.00000000000E+00 0.  1.
</event>
<event>
 8    1  0.3106980E-007  0.9118800E+02  0.7816164E-02  0.1184000E+00
        -11   -1    0    0    0    0  0.00000000000E+00  0.00000000000E+00  0.45593999997E+02  0.45594000000E+02  0.51100000000E-03 0.  1.
         11   -1    0    0    0    0 -0.00000000000E+00 -0.00000000000E+00 -0.45593999997E+02  0.45594000000E+02  0.51100000000E-03 0. -1.
         23    2    1    2    0    0  0.17763568394E-14  0.00000000000E+00 -0.71054273576E-14  0.91188000000E+02  0.91188000000E+02 0.  0.
    9900012    2    3    3    0    0  0.15028951770E+02  0.12592155049E+02 -0.31166424290E+02  0.54367112408E+02  0.40000064355E+02 0.  0.
        -12    1    3    3    0    0 -0.15028951770E+02 -0.12592155049E+02  0.31166424290E+02  0.36820887592E+02  0.00000000000E+00 0.  1.
         11    1    4    4    0    0  0.18740391720E+02  0.47793970761E+01 -0.35186489307E+02  0.40151387875E+02  0.51100000000E-03 0. -1.
        -11    1    4    4    0    0  0.16349473430E+01  0.56040708934E+01  0.57337506136E+01  0.81825765963E+01  0.51100000000E-03 0.  1.
         12    1    4    4    0    0 -0.53463872931E+01  0.22086870795E+01 -0.17136855961E+01  0.60331479366E+01  0.00000000000E+00 0. -1.
</event>
<event>
 8    1  0.3106980E-007  0.9118800E+02  0.7816164E-02  0.1184000E+00
        -11   -1    0    0    0    0  0.00000000000E+00  0.00000000000E+00  0.45593999997E+02  0.45594000000E+02  0.51100000000E-03 0. -1.
         11   -1    0    0    0    0 -0.00000000000E+00 -0.00000000000E+00 -0.45593999997E+02  0.45594000000E+02  0.51100000000E-03 0.  1.
         23    2    1    2    0    0 -0.35527136788E-14  0.00000000000E+00  0.35527136788E-14  0.91188000000E+02  0.91188000000E+02 0.  0.
    9900012    2    3    3    0    0 -0.23834757014E+02 -0.94296591214E+01  0.26434169283E+02  0.54367089925E+02  0.40000013102E+02 0.  0.
        -12    1    3    3    0    0  0.23834757014E+02  0.94296591214E+01 -0.26434169283E+02  0.36820910075E+02  0.00000000000E+00 0.  1.
         11    1    4    4    0    0 -0.13269852254E+02 -0.29177311077E+01  0.22272892199E+02  0.26089918759E+02  0.51100000000E-03 0. -1.
        -11    1    4    4    0    0  0.82525120426E+01 -0.13812835273E+01  0.17212378538E+00  0.83690815539E+01  0.51100000000E-03 0.  1.
        -12    1    4    4    0    0 -0.18817416803E+02 -0.51306444864E+01  0.39891532980E+01  0.19908089613E+02  0.00000000000E+00 0.  1.
</event>
<event>
 8    1  0.3106980E-007  0.9118800E+02  0.7816164E-02  0.1184000E+00
        -11   -1    0    0    0    0  0.00000000000E+00  0.00000000000E+00  0.45593999997E+02  0.45594000000E+02  0.51100000000E-03 0. -1.
         11   -1    0    0    0    0 -0.00000000000E+00 -0.00000000000E+00 -0.45593999997E+02  0.45594000000E+02  0.51100000000E-03 0.  1.
         23    2    1    2    0    0  0.00000000000E+00  0.17763568394E-14 -0.35527136788E-14  0.91188000000E+02  0.91188000000E+02 0.  0.
    9900012    2    3    3    0    0  0.21238401810E+02  0.10894353685E+02 -0.28036178479E+02  0.54367028294E+02  0.39999872602E+02 0.  0.
         12    1    3    3    0    0 -0.21238401810E+02 -0.10894353685E+02  0.28036178479E+02  0.36820971706E+02  0.00000000000E+00 0. -1.
         11    1    4    4    0    0  0.10296916248E+01  0.13061678634E+02 -0.19908716659E+02  0.23833269035E+02  0.51100000000E-03 0. -1.
        -11    1    4    4    0    0  0.14999685890E+02  0.87223209824E+01 -0.51734650684E+01  0.18106192344E+02  0.51100000000E-03 0.  1.
        -12    1    4    4    0    0  0.52090242950E+01 -0.10889645932E+02 -0.29539967514E+01  0.12427566915E+02  0.00000000000E+00 0.  1.
</event>
<event>
 8    1  0.3106980E-007  0.9118800E+02  0.7816164E-02  0.1184000E+00
        -11   -1    0    0    0    0  0.00000000000E+00  0.00000000000E+00  0.45593999997E+02  0.45594000000E+02  0.51100000000E-03 0. -1.
         11   -1    0    0    0    0 -0.00000000000E+00 -0.00000000000E+00 -0.45593999997E+02  0.45594000000E+02  0.51100000000E-03 0.  1.
         23    2    1    2    0    0 -0.44408920985E-15  0.00000000000E+00  0.00000000000E+00  0.91188000000E+02  0.91188000000E+02 0.  0.
    9900012    2    3    3    0    0  0.13285780179E+01  0.34171705286E+02 -0.13649475111E+02  0.54367099244E+02  0.40000034346E+02 0.  0.
        -12    1    3    3    0    0 -0.13285780179E+01 -0.34171705286E+02  0.13649475111E+02  0.36820900756E+02  0.00000000000E+00 0.  1.
         11    1    4    4    0    0  0.73736508782E+01  0.16569919509E+01 -0.35097608392E-01  0.75576174620E+01  0.51100000000E-03 0. -1.
        -11    1    4    4    0    0  0.80443816517E+01  0.10239776427E+00  0.18131330231E+01  0.82468183611E+01  0.51100000000E-03 0.  1.
        -12    1    4    4    0    0 -0.14089454512E+02  0.32412315571E+02 -0.15427510526E+02  0.38562663421E+02  0.00000000000E+00 0.  1.
</event>
<event>
 8    1  0.3106980E-007  0.9118800E+02  0.7816164E-02  0.1184000E+00
        -11   -1    0    0    0    0  0.00000000000E+00  0.00000000000E+00  0.45593999997E+02  0.45594000000E+02  0.51100000000E-03 0.  1.
         11   -1    0    0    0    0 -0.00000000000E+00 -0.00000000000E+00 -0.45593999997E+02  0.45594000000E+02  0.51100000000E-03 0. -1.
         23    2    1    2    0    0  0.00000000000E+00  0.17763568394E-14  0.00000000000E+00  0.91188000000E+02  0.91188000000E+02 0.  0.
    9900012    2    3    3    0    0  0.12493121972E+02 -0.56278131537E+01  0.34176437155E+02  0.54367092432E+02  0.40000018818E+02 0.  0.
         12    1    3    3    0    0 -0.12493121972E+02  0.56278131537E+01 -0.34176437155E+02  0.36820907568E+02  0.00000000000E+00 0. -1.
         11    1    4    4    0    0 -0.85935715849E+01 -0.18394544087E+01  0.10704476149E+02  0.13849869133E+02  0.51100000000E-03 0. -1.
        -11    1    4    4    0    0  0.98263168636E+01 -0.11567408444E+02  0.22034336733E+02  0.26755811270E+02  0.51100000000E-03 0.  1.
         12    1    4    4    0    0  0.11260376693E+02  0.77790496986E+01  0.14376242724E+01  0.13761412029E+02  0.00000000000E+00 0. -1.
</event>
<event>
 8    1  0.3106980E-007  0.9118800E+02  0.7816164E-02  0.1184000E+00
        -11   -1    0    0    0    0  0.00000000000E+00  0.00000000000E+00  0.45593999997E+02  0.45594000000E+02  0.51100000000E-03 0.  1.
         11   -1    0    0    0    0 -0.00000000000E+00 -0.00000000000E+00 -0.45593999997E+02  0.45594000000E+02  0.51100000000E-03 0. -1.
         23    2    1    2    0    0 -0.71054273576E-14  0.22204460493E-15  0.00000000000E+00  0.91188000000E+02  0.91188000000E+02 0.  0.
    9900012    2    3    3    0    0  0.32872505657E+02 -0.13683249406E+01 -0.16531906632E+02  0.54367110845E+02  0.40000060792E+02 0.  0.
        -12    1    3    3    0    0 -0.32872505657E+02  0.13683249406E+01  0.16531906632E+02  0.36820889155E+02  0.00000000000E+00 0.  1.
         11    1    4    4    0    0  0.12207570915E+01 -0.39600676335E+01  0.24253904166E+01  0.48015520899E+01  0.51100000000E-03 0. -1.
        -11    1    4    4    0    0  0.10984683503E+02 -0.29618109516E+01  0.88948004366E+01  0.14441366654E+02  0.51100000000E-03 0.  1.
         12    1    4    4    0    0  0.20667065063E+02  0.55535536445E+01 -0.27852097485E+02  0.35124192101E+02  0.00000000000E+00 0. -1.
</event>
<event>
 8    1  0.3106980E-007  0.9118800E+02  0.7816164E-02  0.1184000E+00
        -11   -1    0    0    0    0  0.00000000000E+00  0.00000000000E+00  0.45593999997E+02  0.45594000000E+02  0.51100000000E-03 0. -1.
         11   -1    0    0    0    0 -0.00000000000E+00 -0.00000000000E+00 -0.45593999997E+02  0.45594000000E+02  0.51100000000E-03 0.  1.
         23    2    1    2    0    0  0.00000000000E+00  0.00000000000E+00  0.88817841970E-15  0.91188000000E+02  0.91188000000E+02 0.  0.
    9900012    2    3    3    0    0  0.43600235766E+01 -0.35965270258E+02 -0.65779439864E+01  0.54367084512E+02  0.40000000762E+02 0.  0.
         12    1    3    3    0    0 -0.43600235766E+01  0.35965270258E+02  0.65779439864E+01  0.36820915488E+02  0.00000000000E+00 0. -1.
         11    1    4    4    0    0  0.25396883904E+01 -0.16674511322E+02  0.12982776220E+02  0.21284779153E+02  0.51100000000E-03 0. -1.
        -11    1    4    4    0    0 -0.66457285217E+01 -0.13252891347E+01 -0.58099139599E+01  0.89262085657E+01  0.51100000000E-03 0.  1.
        -12    1    4    4    0    0  0.84660637079E+01 -0.17965469801E+02 -0.13750806246E+02  0.24156096794E+02  0.00000000000E+00 0.  1.
</event>
<event>
 8    1  0.3106980E-007  0.9118800E+02  0.7816164E-02  0.1184000E+00
        -11   -1    0    0    0    0  0.00000000000E+00  0.00000000000E+00  0.45593999997E+02  0.45594000000E+02  0.51100000000E-03 0. -1.
         11   -1    0    0    0    0 -0.00000000000E+00 -0.00000000000E+00 -0.45593999997E+02  0.45594000000E+02  0.51100000000E-03 0.  1.
         23    2    1    2    0    0  0.17763568394E-14  0.88817841970E-15  0.71054273576E-14  0.91188000000E+02  0.91188000000E+02 0.  0.
    9900012    2    3    3    0    0  0.92907434804E+01  0.49267527474E+01  0.35287247947E+02  0.54367072870E+02  0.39999974222E+02 0.  0.
        -12    1    3    3    0    0 -0.92907434804E+01 -0.49267527474E+01 -0.35287247947E+02  0.36820927130E+02  0.00000000000E+00 0.  1.
         11    1    4    4    0    0 -0.12831124286E+01  0.10288883681E+02  0.32028918937E+02  0.33665399945E+02  0.51100000000E-03 0. -1.
        -11    1    4    4    0    0 -0.40524983518E+01 -0.40693525645E+01  0.12995058147E+01  0.58882160974E+01  0.51100000000E-03 0.  1.
        -12    1    4    4    0    0  0.14626354261E+02 -0.12927783695E+01  0.19588231951E+01  0.14813456828E+02  0.00000000000E+00 0.  1.
</event>
<event>
 8    1  0.3106980E-007  0.9118800E+02  0.7816164E-02  0.1184000E+00
        -11   -1    0    0    0    0  0.00000000000E+00  0.00000000000E+00  0.45593999997E+02  0.45594000000E+02  0.51100000000E-03 0.  1.
         11   -1    0    0    0    0 -0.00000000000E+00 -0.00000000000E+00 -0.45593999997E+02  0.45594000000E+02  0.51100000000E-03 0. -1.
         23    2    1    2    0    0  0.00000000000E+00  0.00000000000E+00  0.00000000000E+00  0.91188000000E+02  0.91188000000E+02 0.  0.
    9900012    2    3    3    0    0  0.86367143934E+01  0.28936131331E+02  0.21068646376E+02  0.54367076708E+02  0.39999982972E+02 0.  0.
         12    1    3    3    0    0 -0.86367143934E+01 -0.28936131331E+02 -0.21068646376E+02  0.36820923292E+02  0.00000000000E+00 0. -1.
         11    1    4    4    0    0 -0.44245622685E+00  0.10491100973E+02  0.23466309956E+02  0.25708494128E+02  0.51100000000E-03 0. -1.
        -11    1    4    4    0    0 -0.14443983539E+00 -0.18891346575E+01 -0.57735827705E+01  0.60765081165E+01  0.51100000000E-03 0.  1.
        -12    1    4    4    0    0  0.92236104556E+01  0.20334165015E+02  0.33759191909E+01  0.22582074464E+02  0.00000000000E+00 0.  1.
</event>
<event>
 8    1  0.3106980E-007  0.9118800E+02  0.7816164E-02  0.1184000E+00
        -11   -1    0    0    0    0  0.00000000000E+00  0.00000000000E+00  0.45593999997E+02  0.45594000000E+02  0.51100000000E-03 0.  1.
         11   -1    0    0    0    0 -0.00000000000E+00 -0.00000000000E+00 -0.45593999997E+02  0.45594000000E+02  0.51100000000E-03 0. -1.
         23    2    1    2    0    0 -0.35527136788E-14  0.00000000000E+00 -0.35527136788E-14  0.91188000000E+02  0.91188000000E+02 0.  0.
    9900012    2    3    3    0    0 -0.21145582488E+02  0.14795908243E+02 -0.26262624927E+02  0.54367081658E+02  0.39999994256E+02 0.  0.
        -12    1    3    3    0    0  0.21145582488E+02 -0.14795908243E+02  0.26262624927E+02  0.36820918342E+02  0.00000000000E+00 0.  1.
         11    1    4    4    0    0  0.14294598466E+01  0.99814251803E+01 -0.15938545674E+02  0.18860260935E+02  0.51100000000E-03 0. -1.
        -11    1    4    4    0    0 -0.22692967413E+02 -0.25945867877E+01 -0.51879618053E-01  0.22840870000E+02  0.51100000000E-03 0.  1.
        -12    1    4    4    0    0  0.11792507839E+00  0.74090698505E+01 -0.10272199635E+02  0.12665950723E+02  0.00000000000E+00 0.  1.
</event>
<event>
 8    1  0.3106980E-007  0.9118800E+02  0.7816164E-02  0.1184000E+00
        -11   -1    0    0    0    0  0.00000000000E+00  0.00000000000E+00  0.45593999997E+02  0.45594000000E+02  0.51100000000E-03 0.  1.
         11   -1    0    0    0    0 -0.00000000000E+00 -0.00000000000E+00 -0.45593999997E+02  0.45594000000E+02  0.51100000000E-03 0. -1.
         23    2    1    2    0    0 -0.53290705182E-14  0.00000000000E+00  0.00000000000E+00  0.91188000000E+02  0.91188000000E+02 0.  0.
    9900012    2    3    3    0    0 -0.15198559720E+02  0.19596919577E+02 -0.27216608048E+02  0.54367092514E+02  0.40000019005E+02 0.  0.
        -12    1    3    3    0    0  0.15198559720E+02 -0.19596919577E+02  0.27216608048E+02  0.36820907486E+02  0.00000000000E+00 0.  1.
         11    1    4    4    0    0 -0.14984795257E+02  0.10369701795E+02 -0.15588287045E+02  0.23980606695E+02  0.51100000000E-03 0. -1.
        -11    1    4    4    0    0 -0.10862699570E+02 -0.17771286340E+01 -0.10200386856E+02  0.15006809135E+02  0.51100000000E-03 0.  1.
        -12    1    4    4    0    0  0.10648935108E+02  0.11004346416E+02 -0.14279341465E+01  0.15379676684E+02  0.00000000000E+00 0.  1.
</event>
<event>
 8    1  0.3106980E-007  0.9118800E+02  0.7816164E-02  0.1184000E+00
        -11   -1    0    0    0    0  0.00000000000E+00  0.00000000000E+00  0.45593999997E+02  0.45594000000E+02  0.51100000000E-03 0.  1.
         11   -1    0    0    0    0 -0.00000000000E+00 -0.00000000000E+00 -0.45593999997E+02  0.45594000000E+02  0.51100000000E-03 0. -1.
         23    2    1    2    0    0  0.00000000000E+00  0.00000000000E+00  0.00000000000E+00  0.91188000000E+02  0.91188000000E+02 0.  0.
    9900012    2    3    3    0    0  0.23920014958E+02 -0.11526738569E+02  0.25509726275E+02  0.54367096259E+02  0.40000027542E+02 0.  0.
         12    1    3    3    0    0 -0.23920014958E+02  0.11526738569E+02 -0.25509726275E+02  0.36820903741E+02  0.00000000000E+00 0. -1.
         11    1    4    4    0    0 -0.29283887332E+00  0.62131372915E+01  0.16900011220E+02  0.18008309446E+02  0.51100000000E-03 0. -1.
        -11    1    4    4    0    0  0.13155798652E+02  0.65142645761E+00 -0.16990084129E+00  0.13173012608E+02  0.51100000000E-03 0.  1.
        -12    1    4    4    0    0  0.11057055179E+02 -0.18391302318E+02  0.87796158971E+01  0.23185774205E+02  0.00000000000E+00 0.  1.
</event>
<event>
 8    1  0.3106980E-007  0.9118800E+02  0.7816164E-02  0.1184000E+00
        -11   -1    0    0    0    0  0.00000000000E+00  0.00000000000E+00  0.45593999997E+02  0.45594000000E+02  0.51100000000E-03 0. -1.
         11   -1    0    0    0    0 -0.00000000000E+00 -0.00000000000E+00 -0.45593999997E+02  0.45594000000E+02  0.51100000000E-03 0.  1.
         23    2    1    2    0    0  0.00000000000E+00  0.00000000000E+00  0.00000000000E+00  0.91188000000E+02  0.91188000000E+02 0.  0.
    9900012    2    3    3    0    0 -0.19427919224E+01  0.35850187017E+02  0.81710502175E+01  0.54367130764E+02  0.40000106203E+02 0.  0.
         12    1    3    3    0    0  0.19427919224E+01 -0.35850187017E+02 -0.81710502175E+01  0.36820869236E+02  0.00000000000E+00 0. -1.
         11    1    4    4    0    0 -0.26827465746E+01  0.11035791846E+02  0.13616861601E+02  0.17731462178E+02  0.51100000000E-03 0. -1.
        -11    1    4    4    0    0  0.15961130681E+01  0.16886786773E+02 -0.16060850211E+02  0.23359410399E+02  0.51100000000E-03 0.  1.
        -12    1    4    4    0    0 -0.85615841588E+00  0.79276083983E+01  0.10615038827E+02  0.13276258187E+02  0.00000000000E+00 0.  1.
</event>
<event>
 8    1  0.3106980E-007  0.9118800E+02  0.7816164E-02  0.1184000E+00
        -11   -1    0    0    0    0  0.00000000000E+00  0.00000000000E+00  0.45593999997E+02  0.45594000000E+02  0.51100000000E-03 0. -1.
         11   -1    0    0    0    0 -0.00000000000E+00 -0.00000000000E+00 -0.45593999997E+02  0.45594000000E+02  0.51100000000E-03 0.  1.
         23    2    1    2    0    0  0.00000000000E+00  0.17763568394E-14  0.00000000000E+00  0.91188000000E+02  0.91188000000E+02 0.  0.
    9900012    2    3    3    0    0 -0.25027009647E+02 -0.15257767574E+02  0.22285188642E+02  0.54367077741E+02  0.39999985326E+02 0.  0.
        -12    1    3    3    0    0  0.25027009647E+02  0.15257767574E+02 -0.22285188642E+02  0.36820922259E+02  0.00000000000E+00 0.  1.
         11    1    4    4    0    0 -0.96055753924E+01 -0.71115222556E+01  0.77948966553E+00  0.11976995943E+02  0.51100000000E-03 0. -1.
        -11    1    4    4    0    0 -0.14084253095E+02  0.72737574073E+01 -0.51693062782E-01  0.15851700366E+02  0.51100000000E-03 0.  1.
         12    1    4    4    0    0 -0.13371811600E+01 -0.15420002726E+02  0.21557392039E+02  0.26538381432E+02  0.00000000000E+00 0. -1.
</event>
<event>
 8    1  0.3106980E-007  0.9118800E+02  0.7816164E-02  0.1184000E+00
        -11   -1    0    0    0    0  0.00000000000E+00  0.00000000000E+00  0.45593999997E+02  0.45594000000E+02  0.51100000000E-03 0.  1.
         11   -1    0    0    0    0 -0.00000000000E+00 -0.00000000000E+00 -0.45593999997E+02  0.45594000000E+02  0.51100000000E-03 0. -1.
         23    2    1    2    0    0  0.88817841970E-15 -0.55511151231E-15  0.00000000000E+00  0.91188000000E+02  0.91188000000E+02 0.  0.
    9900012    2    3    3    0    0  0.49062641206E+01 -0.33397676195E+00  0.36491039885E+02  0.54367096155E+02  0.40000027304E+02 0.  0.
         12    1    3    3    0    0 -0.49062641206E+01  0.33397676195E+00 -0.36491039885E+02  0.36820903845E+02  0.00000000000E+00 0. -1.
         11    1    4    4    0    0 -0.70894449157E+01 -0.93207593144E+01  0.25652782148E+00  0.11713350938E+02  0.51100000000E-03 0. -1.
        -11    1    4    4    0    0  0.12401876904E+02  0.15181826109E+01  0.12124566551E+02  0.17410242488E+02  0.51100000000E-03 0.  1.
        -12    1    4    4    0    0 -0.40616786733E+00  0.74685999415E+01  0.24109945513E+02  0.25243502729E+02  0.00000000000E+00 0.  1.
</event>
<event>
 8    1  0.3106980E-007  0.9118800E+02  0.7816164E-02  0.1184000E+00
        -11   -1    0    0    0    0  0.00000000000E+00  0.00000000000E+00  0.45593999997E+02  0.45594000000E+02  0.51100000000E-03 0.  1.
         11   -1    0    0    0    0 -0.00000000000E+00 -0.00000000000E+00 -0.45593999997E+02  0.45594000000E+02  0.51100000000E-03 0. -1.
         23    2    1    2    0    0 -0.35527136788E-14  0.35527136788E-14 -0.17763568394E-14  0.91188000000E+02  0.91188000000E+02 0.  0.
    9900012    2    3    3    0    0  0.26299099759E+02 -0.23997394523E+02  0.93947898107E+01  0.54367086545E+02  0.40000005397E+02 0.  0.
         12    1    3    3    0    0 -0.26299099759E+02  0.23997394523E+02 -0.93947898107E+01  0.36820913455E+02  0.00000000000E+00 0. -1.
         11    1    4    4    0    0 -0.65135580023E+01 -0.97449905265E+01  0.62972519243E+01  0.13305888180E+02  0.51100000000E-03 0. -1.
        -11    1    4    4    0    0  0.14054048173E+02 -0.13996998981E+02  0.84383021395E+01  0.21555444643E+02  0.51100000000E-03 0.  1.
         12    1    4    4    0    0  0.18758609589E+02 -0.25540501616E+00 -0.53407642532E+01  0.19505753721E+02  0.00000000000E+00 0. -1.
</event>
<event>
 8    1  0.3106980E-007  0.9118800E+02  0.7816164E-02  0.1184000E+00
        -11   -1    0    0    0    0  0.00000000000E+00  0.00000000000E+00  0.45593999997E+02  0.45594000000E+02  0.51100000000E-03 0.  1.
         11   -1    0    0    0    0 -0.00000000000E+00 -0.00000000000E+00 -0.45593999997E+02  0.45594000000E+02  0.51100000000E-03 0. -1.
         23    2    1    2    0    0  0.71054273576E-14  0.88817841970E-15 -0.71054273576E-14  0.91188000000E+02  0.91188000000E+02 0.  0.
    9900012    2    3    3    0    0  0.21558040121E+02  0.64676954637E+01 -0.29141019676E+02  0.54367092811E+02  0.40000019682E+02 0.  0.
        -12    1    3    3    0    0 -0.21558040121E+02 -0.64676954637E+01  0.29141019676E+02  0.36820907189E+02  0.00000000000E+00 0.  1.
         11    1    4    4    0    0  0.26223894876E+02  0.37223858892E+01 -0.20992984180E+02  0.33797251430E+02  0.51100000000E-03 0. -1.
        -11    1    4    4    0    0  0.33304786022E+01  0.75390850523E+01 -0.83003315550E-01  0.82423771423E+01  0.51100000000E-03 0.  1.
         12    1    4    4    0    0 -0.79963333572E+01 -0.47937754777E+01 -0.80650321805E+01  0.12327464239E+02  0.00000000000E+00 0. -1.
</event>
<event>
 8    1  0.3106980E-007  0.9118800E+02  0.7816164E-02  0.1184000E+00
        -11   -1    0    0    0    0  0.00000000000E+00  0.00000000000E+00  0.45593999997E+02  0.45594000000E+02  0.51100000000E-03 0.  1.
         11   -1    0    0    0    0 -0.00000000000E+00 -0.00000000000E+00 -0.45593999997E+02  0.45594000000E+02  0.51100000000E-03 0. -1.
         23    2    1    2    0    0  0.00000000000E+00 -0.35527136788E-14  0.35527136788E-14  0.91188000000E+02  0.91188000000E+02 0.  0.
    9900012    2    3    3    0    0  0.17892936553E+02  0.23222020937E+02 -0.22279000441E+02  0.54367173074E+02  0.40000202656E+02 0.  0.
         12    1    3    3    0    0 -0.17892936553E+02 -0.23222020937E+02  0.22279000441E+02  0.36820826926E+02  0.00000000000E+00 0. -1.
         11    1    4    4    0    0  0.11418459664E+02  0.18157449222E+02  0.60355929552E+00  0.21457829979E+02  0.51100000000E-03 0. -1.
        -11    1    4    4    0    0  0.65477859622E+00 -0.66604248083E+01 -0.16992837479E+00  0.66946896530E+01  0.51100000000E-03 0.  1.
         12    1    4    4    0    0  0.58196982925E+01  0.11724996524E+02 -0.22712631361E+02  0.26214653441E+02  0.00000000000E+00 0. -1.
</event>
<event>
 8    1  0.3106980E-007  0.9118800E+02  0.7816164E-02  0.1184000E+00
        -11   -1    0    0    0    0  0.00000000000E+00  0.00000000000E+00  0.45593999997E+02  0.45594000000E+02  0.51100000000E-03 0.  1.
         11   -1    0    0    0    0 -0.00000000000E+00 -0.00000000000E+00 -0.45593999997E+02  0.45594000000E+02  0.51100000000E-03 0. -1.
         23    2    1    2    0    0  0.00000000000E+00 -0.17763568394E-14  0.35527136788E-14  0.91188000000E+02  0.91188000000E+02 0.  0.
    9900012    2    3    3    0    0 -0.23431727573E+02 -0.15466639493E+02 -0.23822595964E+02  0.54367097340E+02  0.40000030005E+02 0.  0.
        -12    1    3    3    0    0  0.23431727573E+02  0.15466639493E+02  0.23822595964E+02  0.36820902660E+02  0.00000000000E+00 0.  1.
         11    1    4    4    0    0 -0.15387120035E+02  0.83210376112E+01  0.10148948686E+01  0.17522361192E+02  0.51100000000E-03 0.  1.
        -11    1    4    4    0    0 -0.48899185959E+01 -0.19910641136E+02 -0.24336211961E+02  0.31821315925E+02  0.51100000000E-03 0. -1.
         12    1    4    4    0    0 -0.31546889426E+01 -0.38770359681E+01 -0.50127887122E+00  0.50234202222E+01  0.00000000000E+00 0. -1.
</event>
<event>
 8    1  0.3106980E-007  0.9118800E+02  0.7816164E-02  0.1184000E+00
        -11   -1    0    0    0    0  0.00000000000E+00  0.00000000000E+00  0.45593999997E+02  0.45594000000E+02  0.51100000000E-03 0.  1.
         11   -1    0    0    0    0 -0.00000000000E+00 -0.00000000000E+00 -0.45593999997E+02  0.45594000000E+02  0.51100000000E-03 0. -1.
         23    2    1    2    0    0  0.71054273576E-14  0.88817841970E-15 -0.17763568394E-14  0.91188000000E+02  0.91188000000E+02 0.  0.
    9900012    2    3    3    0    0  0.35250731975E+02 -0.29184859345E+01 -0.10229895497E+02  0.54367049077E+02  0.39999919982E+02 0.  0.
        -12    1    3    3    0    0 -0.35250731975E+02  0.29184859345E+01  0.10229895497E+02  0.36820950923E+02  0.00000000000E+00 0.  1.
         11    1    4    4    0    0  0.18445594253E+02 -0.14339920037E+02  0.69096099295E+01  0.24364235339E+02  0.51100000000E-03 0.  1.
        -11    1    4    4    0    0  0.16741160541E+02  0.40157149982E+01 -0.12207456118E+02  0.21104843244E+02  0.51100000000E-03 0. -1.
        -12    1    4    4    0    0  0.63977180847E-01  0.74057191043E+01 -0.49320493087E+01  0.88979704942E+01  0.00000000000E+00 0.  1.
</event>
<event>
 8    1  0.3106980E-007  0.9118800E+02  0.7816164E-02  0.1184000E+00
        -11   -1    0    0    0    0  0.00000000000E+00  0.00000000000E+00  0.45593999997E+02  0.45594000000E+02  0.51100000000E-03 0.  1.
         11   -1    0    0    0    0 -0.00000000000E+00 -0.00000000000E+00 -0.45593999997E+02  0.45594000000E+02  0.51100000000E-03 0. -1.
         23    2    1    2    0    0  0.17763568394E-14  0.00000000000E+00  0.00000000000E+00  0.91188000000E+02  0.91188000000E+02 0.  0.
    9900012    2    3    3    0    0 -0.14358162116E+02  0.18960004071E+02  0.28109428483E+02  0.54367101812E+02  0.40000040200E+02 0.  0.
         12    1    3    3    0    0  0.14358162116E+02 -0.18960004071E+02 -0.28109428483E+02  0.36820898188E+02  0.00000000000E+00 0. -1.
         11    1    4    4    0    0 -0.17407706301E+02  0.12504316293E+02  0.97501216772E+01  0.23546784018E+02  0.51100000000E-03 0. -1.
        -11    1    4    4    0    0 -0.10279874035E+02  0.44867436007E+01  0.72337690635E+01  0.13346688482E+02  0.51100000000E-03 0.  1.
         12    1    4    4    0    0  0.13329418220E+02  0.19689441776E+01  0.11125537743E+02  0.17473629312E+02  0.00000000000E+00 0. -1.
</event>
<event>
 8    1  0.3106980E-007  0.9118800E+02  0.7816164E-02  0.1184000E+00
        -11   -1    0    0    0    0  0.00000000000E+00  0.00000000000E+00  0.45593999997E+02  0.45594000000E+02  0.51100000000E-03 0.  1.
         11   -1    0    0    0    0 -0.00000000000E+00 -0.00000000000E+00 -0.45593999997E+02  0.45594000000E+02  0.51100000000E-03 0. -1.
         23    2    1    2    0    0  0.00000000000E+00  0.00000000000E+00  0.35527136788E-14  0.91188000000E+02  0.91188000000E+02 0.  0.
    9900012    2    3    3    0    0 -0.16405718272E+02  0.17851869866E+02 -0.27711783833E+02  0.54367084573E+02  0.40000000900E+02 0.  0.
        -12    1    3    3    0    0  0.16405718272E+02 -0.17851869866E+02  0.27711783833E+02  0.36820915427E+02  0.00000000000E+00 0.  1.
         11    1    4    4    0    0 -0.27449677665E+01  0.36741766082E+01 -0.72077143110E+01  0.85431591134E+01  0.51100000000E-03 0. -1.
        -11    1    4    4    0    0 -0.12771311465E+02  0.17559511822E+02 -0.29236576251E+02  0.36417306917E+02  0.51100000000E-03 0.  1.
        -12    1    4    4    0    0 -0.88943904033E+00 -0.33818185647E+01  0.87325067293E+01  0.94066185416E+01  0.00000000000E+00 0.  1.
</event>
<event>
 8    1  0.3106980E-007  0.9118800E+02  0.7816164E-02  0.1184000E+00
        -11   -1    0    0    0    0  0.00000000000E+00  0.00000000000E+00  0.45593999997E+02  0.45594000000E+02  0.51100000000E-03 0. -1.
         11   -1    0    0    0    0 -0.00000000000E+00 -0.00000000000E+00 -0.45593999997E+02  0.45594000000E+02  0.51100000000E-03 0.  1.
         23    2    1    2    0    0 -0.35527136788E-14  0.00000000000E+00  0.00000000000E+00  0.91188000000E+02  0.91188000000E+02 0.  0.
    9900012    2    3    3    0    0 -0.31267392751E+02 -0.16078256057E+02 -0.10937058364E+02  0.54367090004E+02  0.40000013283E+02 0.  0.
        -12    1    3    3    0    0  0.31267392751E+02  0.16078256057E+02  0.10937058364E+02  0.36820909996E+02  0.00000000000E+00 0.  1.
         11    1    4    4    0    0 -0.26237507788E+01  0.45392701617E+01  0.23181228239E+01  0.57326028502E+01  0.51100000000E-03 0. -1.
        -11    1    4    4    0    0 -0.13658560288E+02  0.28465583933E+01 -0.15315176799E+02  0.20717475823E+02  0.51100000000E-03 0.  1.
        -12    1    4    4    0    0 -0.14985081684E+02 -0.23464084612E+02  0.20599956115E+01  0.27917011331E+02  0.00000000000E+00 0.  1.
</event>
<event>
 8    1  0.3106980E-007  0.9118800E+02  0.7816164E-02  0.1184000E+00
        -11   -1    0    0    0    0  0.00000000000E+00  0.00000000000E+00  0.45593999997E+02  0.45594000000E+02  0.51100000000E-03 0.  1.
         11   -1    0    0    0    0 -0.00000000000E+00 -0.00000000000E+00 -0.45593999997E+02  0.45594000000E+02  0.51100000000E-03 0. -1.
         23    2    1    2    0    0  0.00000000000E+00  0.00000000000E+00 -0.35527136788E-14  0.91188000000E+02  0.91188000000E+02 0.  0.
    9900012    2    3    3    0    0 -0.13786734883E+02  0.21265959561E+02 -0.26710760434E+02  0.54367084507E+02  0.40000000752E+02 0.  0.
        -12    1    3    3    0    0  0.13786734883E+02 -0.21265959561E+02  0.26710760434E+02  0.36820915493E+02  0.00000000000E+00 0.  1.
         11    1    4    4    0    0  0.90408422172E+00 -0.51554250135E+01 -0.18855589363E+02  0.19568572402E+02  0.51100000000E-03 0. -1.
        -11    1    4    4    0    0 -0.14671061247E+02  0.26532661816E+02 -0.35884550816E+01  0.30530299561E+02  0.51100000000E-03 0.  1.
        -12    1    4    4    0    0 -0.19757857672E-01 -0.11127724160E+00 -0.42667159887E+01  0.42682125445E+01  0.00000000000E+00 0.  1.
</event>
<event>
 8    1  0.3106980E-007  0.9118800E+02  0.7816164E-02  0.1184000E+00
        -11   -1    0    0    0    0  0.00000000000E+00  0.00000000000E+00  0.45593999997E+02  0.45594000000E+02  0.51100000000E-03 0.  1.
         11   -1    0    0    0    0 -0.00000000000E+00 -0.00000000000E+00 -0.45593999997E+02  0.45594000000E+02  0.51100000000E-03 0. -1.
         23    2    1    2    0    0  0.00000000000E+00  0.00000000000E+00 -0.35527136788E-14  0.91188000000E+02  0.91188000000E+02 0.  0.
    9900012    2    3    3    0    0 -0.24078634637E+02  0.17596361072E+02 -0.21595488561E+02  0.54367113330E+02  0.40000066458E+02 0.  0.
         12    1    3    3    0    0  0.24078634637E+02 -0.17596361072E+02  0.21595488561E+02  0.36820886670E+02  0.00000000000E+00 0. -1.
         11    1    4    4    0    0 -0.10695974137E+02  0.23243302149E+01 -0.16461323751E+01  0.11068700273E+02  0.51100000000E-03 0. -1.
        -11    1    4    4    0    0 -0.38440574653E+01  0.10361311330E+02  0.78136180378E+01  0.13534628823E+02  0.51100000000E-03 0.  1.
         12    1    4    4    0    0 -0.95386030345E+01  0.49107195272E+01 -0.27762974224E+02  0.29763784233E+02  0.00000000000E+00 0. -1.
</event>
<event>
 8    1  0.3106980E-007  0.9118800E+02  0.7816164E-02  0.1184000E+00
        -11   -1    0    0    0    0  0.00000000000E+00  0.00000000000E+00  0.45593999997E+02  0.45594000000E+02  0.51100000000E-03 0.  1.
         11   -1    0    0    0    0 -0.00000000000E+00 -0.00000000000E+00 -0.45593999997E+02  0.45594000000E+02  0.51100000000E-03 0. -1.
         23    2    1    2    0    0  0.00000000000E+00  0.00000000000E+00 -0.88817841970E-15  0.91188000000E+02  0.91188000000E+02 0.  0.
    9900012    2    3    3    0    0  0.30924254606E+02  0.18550715522E+02 -0.74391483162E+01  0.54367088863E+02  0.40000010680E+02 0.  0.
        -12    1    3    3    0    0 -0.30924254606E+02 -0.18550715522E+02  0.74391483162E+01  0.36820911137E+02  0.00000000000E+00 0.  1.
         11    1    4    4    0    0  0.13917995296E+02  0.15195170354E+02 -0.15081787517E+02  0.25535546011E+02  0.51100000000E-03 0. -1.
        -11    1    4    4    0    0 -0.21322140542E+01 -0.59541457623E+01  0.34989120350E+00  0.63340834102E+01  0.51100000000E-03 0.  1.
         12    1    4    4    0    0  0.19138473365E+02  0.93096909304E+01  0.72927479971E+01  0.22497459441E+02  0.00000000000E+00 0. -1.
</event>
<event>
 8    1  0.3106980E-007  0.9118800E+02  0.7816164E-02  0.1184000E+00
        -11   -1    0    0    0    0  0.00000000000E+00  0.00000000000E+00  0.45593999997E+02  0.45594000000E+02  0.51100000000E-03 0.  1.
         11   -1    0    0    0    0 -0.00000000000E+00 -0.00000000000E+00 -0.45593999997E+02  0.45594000000E+02  0.51100000000E-03 0. -1.
         23    2    1    2    0    0  0.00000000000E+00  0.00000000000E+00  0.00000000000E+00  0.91188000000E+02  0.91188000000E+02 0.  0.
    9900012    2    3    3    0    0  0.32313773568E+02 -0.14431343413E+02  0.10165295905E+02  0.54367124458E+02  0.40000091826E+02 0.  0.
        -12    1    3    3    0    0 -0.32313773568E+02  0.14431343413E+02 -0.10165295905E+02  0.36820875542E+02  0.00000000000E+00 0.  1.
         11    1    4    4    0    0  0.48793866193E+01  0.23267879050E-01  0.98685198205E+01  0.11008934503E+02  0.51100000000E-03 0.  1.
        -11    1    4    4    0    0  0.31889898574E+02 -0.11721984888E+02  0.71690415552E+01  0.34724137395E+02  0.51100000000E-03 0. -1.
        -12    1    4    4    0    0 -0.44555116254E+01 -0.27326264038E+01 -0.68722654708E+01  0.86340525600E+01  0.00000000000E+00 0.  1.
</event>
<event>
 8    1  0.3106980E-007  0.9118800E+02  0.7816164E-02  0.1184000E+00
        -11   -1    0    0    0    0  0.00000000000E+00  0.00000000000E+00  0.45593999997E+02  0.45594000000E+02  0.51100000000E-03 0.  1.
         11   -1    0    0    0    0 -0.00000000000E+00 -0.00000000000E+00 -0.45593999997E+02  0.45594000000E+02  0.51100000000E-03 0. -1.
         23    2    1    2    0    0  0.35527136788E-14  0.00000000000E+00  0.73552275381E-15  0.91188000000E+02  0.91188000000E+02 0.  0.
    9900012    2    3    3    0    0 -0.27622437542E+02  0.24346928353E+02  0.87006177584E-01  0.54367088196E+02  0.40000009161E+02 0.  0.
         12    1    3    3    0    0  0.27622437542E+02 -0.24346928353E+02 -0.87006177584E-01  0.36820911804E+02  0.00000000000E+00 0. -1.
         11    1    4    4    0    0 -0.19167532778E+02 -0.17553045861E+00 -0.88426481444E+01  0.21109655378E+02  0.51100000000E-03 0. -1.
        -11    1    4    4    0    0 -0.64481137101E+01  0.30066385452E+00  0.59349997642E+01  0.87688534960E+01  0.51100000000E-03 0.  1.
         12    1    4    4    0    0 -0.20067910537E+01  0.24221794957E+02  0.29946545577E+01  0.24488579322E+02  0.00000000000E+00 0. -1.
</event>
<event>
 8    1  0.3106980E-007  0.9118800E+02  0.7816164E-02  0.1184000E+00
        -11   -1    0    0    0    0  0.00000000000E+00  0.00000000000E+00  0.45593999997E+02  0.45594000000E+02  0.51100000000E-03 0.  1.
         11   -1    0    0    0    0 -0.00000000000E+00 -0.00000000000E+00 -0.45593999997E+02  0.45594000000E+02  0.51100000000E-03 0. -1.
         23    2    1    2    0    0  0.17763568394E-14  0.35527136788E-14  0.35527136788E-14  0.91188000000E+02  0.91188000000E+02 0.  0.
    9900012    2    3    3    0    0  0.12382730313E+02 -0.17317553477E+02 -0.30042465186E+02  0.54367090412E+02  0.40000014211E+02 0.  0.
        -12    1    3    3    0    0 -0.12382730313E+02  0.17317553477E+02  0.30042465186E+02  0.36820909588E+02  0.00000000000E+00 0.  1.
         11    1    4    4    0    0  0.18256771555E+02 -0.11612036777E+01 -0.61374720492E+01  0.19295768059E+02  0.51100000000E-03 0. -1.
        -11    1    4    4    0    0 -0.18723385591E+01 -0.54287776080E+01 -0.22864358727E+02  0.23574481505E+02  0.51100000000E-03 0.  1.
        -12    1    4    4    0    0 -0.40017026827E+01 -0.10727572191E+02 -0.10406344106E+01  0.11496840847E+02  0.00000000000E+00 0.  1.
</event>
<event>
 8    1  0.3106980E-007  0.9118800E+02  0.7816164E-02  0.1184000E+00
        -11   -1    0    0    0    0  0.00000000000E+00  0.00000000000E+00  0.45593999997E+02  0.45594000000E+02  0.51100000000E-03 0.  1.
         11   -1    0    0    0    0 -0.00000000000E+00 -0.00000000000E+00 -0.45593999997E+02  0.45594000000E+02  0.51100000000E-03 0. -1.
         23    2    1    2    0    0  0.00000000000E+00  0.00000000000E+00  0.00000000000E+00  0.91188000000E+02  0.91188000000E+02 0.  0.
    9900012    2    3    3    0    0  0.82573025040E+01 -0.21659616789E+02  0.28608706272E+02  0.54367080421E+02  0.39999991436E+02 0.  0.
         12    1    3    3    0    0 -0.82573025040E+01  0.21659616789E+02 -0.28608706272E+02  0.36820919579E+02  0.00000000000E+00 0. -1.
         11    1    4    4    0    0 -0.52603556999E+01 -0.12895742830E+02  0.21801720750E+02  0.25870573112E+02  0.51100000000E-03 0. -1.
        -11    1    4    4    0    0  0.98824969123E+01 -0.78013325028E+01  0.14939014880E+02  0.19537110837E+02  0.51100000000E-03 0.  1.
         12    1    4    4    0    0  0.36351612915E+01 -0.96254145672E+00 -0.81320293574E+01  0.89593964719E+01  0.00000000000E+00 0. -1.
</event>
<event>
 8    1  0.3106980E-007  0.9118800E+02  0.7816164E-02  0.1184000E+00
        -11   -1    0    0    0    0  0.00000000000E+00  0.00000000000E+00  0.45593999997E+02  0.45594000000E+02  0.51100000000E-03 0. -1.
         11   -1    0    0    0    0 -0.00000000000E+00 -0.00000000000E+00 -0.45593999997E+02  0.45594000000E+02  0.51100000000E-03 0.  1.
         23    2    1    2    0    0  0.00000000000E+00  0.88817841970E-15  0.00000000000E+00  0.91188000000E+02  0.91188000000E+02 0.  0.
    9900012    2    3    3    0    0 -0.22933641619E+02 -0.78403056863E+01 -0.27719263348E+02  0.54367083774E+02  0.39999999080E+02 0.  0.
         12    1    3    3    0    0  0.22933641619E+02  0.78403056863E+01  0.27719263348E+02  0.36820916226E+02  0.00000000000E+00 0. -1.
         11    1    4    4    0    0  0.22048131028E+01 -0.25241319042E+01 -0.16066459252E+02  0.16412298920E+02  0.51100000000E-03 0. -1.
        -11    1    4    4    0    0 -0.86475282839E+01 -0.12813641920E+02 -0.12410077255E+02  0.19823702540E+02  0.51100000000E-03 0.  1.
         12    1    4    4    0    0 -0.16490926438E+02  0.74974681379E+01  0.75727315806E+00  0.18131082314E+02  0.00000000000E+00 0. -1.
</event>
<event>
 8    1  0.3106980E-007  0.9118800E+02  0.7816164E-02  0.1184000E+00
        -11   -1    0    0    0    0  0.00000000000E+00  0.00000000000E+00  0.45593999997E+02  0.45594000000E+02  0.51100000000E-03 0.  1.
         11   -1    0    0    0    0 -0.00000000000E+00 -0.00000000000E+00 -0.45593999997E+02  0.45594000000E+02  0.51100000000E-03 0. -1.
         23    2    1    2    0    0  0.35527136788E-14  0.00000000000E+00  0.00000000000E+00  0.91188000000E+02  0.91188000000E+02 0.  0.
    9900012    2    3    3    0    0 -0.26700590093E+02 -0.17207729081E+02  0.18621277140E+02  0.54367089992E+02  0.40000013255E+02 0.  0.
         12    1    3    3    0    0  0.26700590093E+02  0.17207729081E+02 -0.18621277140E+02  0.36820910008E+02  0.00000000000E+00 0. -1.
         11    1    4    4    0    0  0.30454655700E+01 -0.80874047217E+00  0.19036696602E+02  0.19295718164E+02  0.51100000000E-03 0. -1.
        -11    1    4    4    0    0 -0.96377874083E+01 -0.55355195202E+01  0.39646412412E+01  0.11800309442E+02  0.51100000000E-03 0.  1.
        -12    1    4    4    0    0 -0.20108268255E+02 -0.10863469089E+02 -0.43800607025E+01  0.23271062387E+02  0.00000000000E+00 0.  1.
</event>
<event>
 8    1  0.3106980E-007  0.9118800E+02  0.7816164E-02  0.1184000E+00
        -11   -1    0    0    0    0  0.00000000000E+00  0.00000000000E+00  0.45593999997E+02  0.45594000000E+02  0.51100000000E-03 0. -1.
         11   -1    0    0    0    0 -0.00000000000E+00 -0.00000000000E+00 -0.45593999997E+02  0.45594000000E+02  0.51100000000E-03 0.  1.
         23    2    1    2    0    0 -0.35527136788E-14 -0.35527136788E-14  0.00000000000E+00  0.91188000000E+02  0.91188000000E+02 0.  0.
    9900012    2    3    3    0    0  0.20111941746E+02  0.26110021385E+02 -0.16418163726E+02  0.54367088582E+02  0.40000010041E+02 0.  0.
         12    1    3    3    0    0 -0.20111941746E+02 -0.26110021385E+02  0.16418163726E+02  0.36820911418E+02  0.00000000000E+00 0. -1.
         11    1    4    4    0    0  0.18982382058E+02  0.52645806222E+01 -0.14755761340E+02  0.24612580741E+02  0.51100000000E-03 0.  1.
        -11    1    4    4    0    0 -0.40291343891E+01  0.83013732601E+01  0.87027302028E+01  0.12684014947E+02  0.51100000000E-03 0. -1.
         12    1    4    4    0    0  0.51586940768E+01  0.12544067503E+02 -0.10365132589E+02  0.17070492895E+02  0.00000000000E+00 0. -1.
</event>
<event>
 8    1  0.3106980E-007  0.9118800E+02  0.7816164E-02  0.1184000E+00
        -11   -1    0    0    0    0  0.00000000000E+00  0.00000000000E+00  0.45593999997E+02  0.45594000000E+02  0.51100000000E-03 0. -1.
         11   -1    0    0    0    0 -0.00000000000E+00 -0.00000000000E+00 -0.45593999997E+02  0.45594000000E+02  0.51100000000E-03 0.  1.
         23    2    1    2    0    0 -0.22204460493E-15  0.00000000000E+00  0.35527136788E-14  0.91188000000E+02  0.91188000000E+02 0.  0.
    9900012    2    3    3    0    0  0.69291125466E+00 -0.25098669246E+02  0.26932493850E+02  0.54367047419E+02  0.39999916202E+02 0.  0.
        -12    1    3    3    0    0 -0.69291125466E+00  0.25098669246E+02 -0.26932493850E+02  0.36820952581E+02  0.00000000000E+00 0.  1.
         11    1    4    4    0    0  0.97885972480E+01  0.33737173893E+01  0.33806344246E+01  0.10891615788E+02  0.51100000000E-03 0. -1.
        -11    1    4    4    0    0 -0.70040003640E+01 -0.87575062271E+01 -0.17307423669E+01  0.11346603272E+02  0.51100000000E-03 0.  1.
         12    1    4    4    0    0 -0.20916856293E+01 -0.19714880409E+02  0.25282601793E+02  0.32128828359E+02  0.00000000000E+00 0. -1.
</event>
<event>
 8    1  0.3106980E-007  0.9118800E+02  0.7816164E-02  0.1184000E+00
        -11   -1    0    0    0    0  0.00000000000E+00  0.00000000000E+00  0.45593999997E+02  0.45594000000E+02  0.51100000000E-03 0. -1.
         11   -1    0    0    0    0 -0.00000000000E+00 -0.00000000000E+00 -0.45593999997E+02  0.45594000000E+02  0.51100000000E-03 0.  1.
         23    2    1    2    0    0  0.13322676296E-14  0.00000000000E+00 -0.44408920985E-15  0.91188000000E+02  0.91188000000E+02 0.  0.
    9900012    2    3    3    0    0  0.91137295597E+00 -0.36632472517E+02  0.36066578057E+01  0.54367127877E+02  0.40000099621E+02 0.  0.
        -12    1    3    3    0    0 -0.91137295597E+00  0.36632472517E+02 -0.36066578057E+01  0.36820872123E+02  0.00000000000E+00 0.  1.
         11    1    4    4    0    0 -0.13585046220E+01  0.24059468911E+01  0.96463774680E+01  0.10034276943E+02  0.51100000000E-03 0. -1.
        -11    1    4    4    0    0  0.72260807869E+01 -0.25462682768E+02  0.39539912598E+01  0.26761885293E+02  0.51100000000E-03 0.  1.
        -12    1    4    4    0    0 -0.49562032089E+01 -0.13575736640E+02 -0.99937109221E+01  0.17570965641E+02  0.00000000000E+00 0.  1.
</event>
<event>
 8    1  0.3106980E-007  0.9118800E+02  0.7816164E-02  0.1184000E+00
        -11   -1    0    0    0    0  0.00000000000E+00  0.00000000000E+00  0.45593999997E+02  0.45594000000E+02  0.51100000000E-03 0. -1.
         11   -1    0    0    0    0 -0.00000000000E+00 -0.00000000000E+00 -0.45593999997E+02  0.45594000000E+02  0.51100000000E-03 0.  1.
         23    2    1    2    0    0 -0.35527136788E-14  0.00000000000E+00  0.00000000000E+00  0.91188000000E+02  0.91188000000E+02 0.  0.
    9900012    2    3    3    0    0  0.28049924545E+02  0.17912883170E+02  0.15751477339E+02  0.54367099837E+02  0.40000035699E+02 0.  0.
        -12    1    3    3    0    0 -0.28049924545E+02 -0.17912883170E+02 -0.15751477339E+02  0.36820900163E+02  0.00000000000E+00 0.  1.
         11    1    4    4    0    0  0.37002921415E+01 -0.53566822236E+01 -0.67227207970E+01  0.93584817974E+01  0.51100000000E-03 0. -1.
        -11    1    4    4    0    0 -0.14758024836E+01  0.96402549002E+01  0.47317046209E+01  0.10839812563E+02  0.51100000000E-03 0.  1.
         12    1    4    4    0    0  0.25825434887E+02  0.13629310493E+02  0.17742493515E+02  0.34168805477E+02  0.00000000000E+00 0. -1.
</event>
<event>
 8    1  0.3106980E-007  0.9118800E+02  0.7816164E-02  0.1184000E+00
        -11   -1    0    0    0    0  0.00000000000E+00  0.00000000000E+00  0.45593999997E+02  0.45594000000E+02  0.51100000000E-03 0. -1.
         11   -1    0    0    0    0 -0.00000000000E+00 -0.00000000000E+00 -0.45593999997E+02  0.45594000000E+02  0.51100000000E-03 0.  1.
         23    2    1    2    0    0  0.00000000000E+00  0.35527136788E-14  0.00000000000E+00  0.91188000000E+02  0.91188000000E+02 0.  0.
    9900012    2    3    3    0    0  0.25996152248E+02 -0.25982784342E+02  0.22080623490E+01  0.54367074520E+02  0.39999977984E+02 0.  0.
        -12    1    3    3    0    0 -0.25996152248E+02  0.25982784342E+02 -0.22080623490E+01  0.36820925480E+02  0.00000000000E+00 0.  1.
         11    1    4    4    0    0  0.82943698528E+01  0.10671330447E+01  0.18966254159E+01  0.85751112191E+01  0.51100000000E-03 0. -1.
        -11    1    4    4    0    0  0.35875964583E+01  0.49423227320E+01 -0.77898542221E+01  0.98984459081E+01  0.51100000000E-03 0.  1.
         12    1    4    4    0    0  0.14114185937E+02 -0.31992240119E+02  0.81012911552E+01  0.35893517393E+02  0.00000000000E+00 0. -1.
</event>
<event>
 8    1  0.3106980E-007  0.9118800E+02  0.7816164E-02  0.1184000E+00
        -11   -1    0    0    0    0  0.00000000000E+00  0.00000000000E+00  0.45593999997E+02  0.45594000000E+02  0.51100000000E-03 0.  1.
         11   -1    0    0    0    0 -0.00000000000E+00 -0.00000000000E+00 -0.45593999997E+02  0.45594000000E+02  0.51100000000E-03 0. -1.
         23    2    1    2    0    0  0.00000000000E+00  0.17763568394E-14  0.00000000000E+00  0.91188000000E+02  0.91188000000E+02 0.  0.
    9900012    2    3    3    0    0 -0.18553891182E+02 -0.68916368060E+01  0.31048968231E+02  0.54367082520E+02  0.39999996222E+02 0.  0.
         12    1    3    3    0    0  0.18553891182E+02  0.68916368060E+01 -0.31048968231E+02  0.36820917480E+02  0.00000000000E+00 0. -1.
         11    1    4    4    0    0 -0.11556712881E+02 -0.16187729305E+01  0.30817308942E+00  0.11673603100E+02  0.51100000000E-03 0. -1.
        -11    1    4    4    0    0 -0.29105694959E+01  0.55599376900E+01 -0.30475367997E+01  0.69765179505E+01  0.51100000000E-03 0.  1.
        -12    1    4    4    0    0 -0.40866088044E+01 -0.10832801566E+02  0.33788331941E+02  0.35716961470E+02  0.00000000000E+00 0.  1.
</event>
<event>
 8    1  0.3106980E-007  0.9118800E+02  0.7816164E-02  0.1184000E+00
        -11   -1    0    0    0    0  0.00000000000E+00  0.00000000000E+00  0.45593999997E+02  0.45594000000E+02  0.51100000000E-03 0.  1.
         11   -1    0    0    0    0 -0.00000000000E+00 -0.00000000000E+00 -0.45593999997E+02  0.45594000000E+02  0.51100000000E-03 0. -1.
         23    2    1    2    0    0  0.17763568394E-14 -0.35527136788E-14  0.00000000000E+00  0.91188000000E+02  0.91188000000E+02 0.  0.
    9900012    2    3    3    0    0 -0.13709745862E+02  0.23987812979E+02 -0.24339418029E+02  0.54367087829E+02  0.40000008324E+02 0.  0.
        -12    1    3    3    0    0  0.13709745862E+02 -0.23987812979E+02  0.24339418029E+02  0.36820912171E+02  0.00000000000E+00 0.  1.
         11    1    4    4    0    0  0.37344723175E+01  0.23663997446E+02 -0.23315420920E+02  0.33429626255E+02  0.51100000000E-03 0.  1.
        -11    1    4    4    0    0 -0.64975620773E+01  0.56073757261E+01  0.90544570609E+00  0.86302263973E+01  0.51100000000E-03 0. -1.
         12    1    4    4    0    0 -0.10946656102E+02 -0.52835601924E+01 -0.19294428151E+01  0.12307235177E+02  0.00000000000E+00 0. -1.
</event>
<event>
 8    1  0.3106980E-007  0.9118800E+02  0.7816164E-02  0.1184000E+00
        -11   -1    0    0    0    0  0.00000000000E+00  0.00000000000E+00  0.45593999997E+02  0.45594000000E+02  0.51100000000E-03 0. -1.
         11   -1    0    0    0    0 -0.00000000000E+00 -0.00000000000E+00 -0.45593999997E+02  0.45594000000E+02  0.51100000000E-03 0.  1.
         23    2    1    2    0    0  0.00000000000E+00  0.00000000000E+00  0.00000000000E+00  0.91188000000E+02  0.91188000000E+02 0.  0.
    9900012    2    3    3    0    0  0.16400864420E+02 -0.17027414035E+02  0.28228687323E+02  0.54367082434E+02  0.39999996024E+02 0.  0.
         12    1    3    3    0    0 -0.16400864420E+02  0.17027414035E+02 -0.28228687323E+02  0.36820917566E+02  0.00000000000E+00 0. -1.
         11    1    4    4    0    0  0.94983811916E+01  0.29497330711E+01  0.22909983517E+02  0.24975738537E+02  0.51100000000E-03 0. -1.
        -11    1    4    4    0    0 -0.40411170302E+01 -0.55952266219E+01  0.85964805382E+01  0.11024366907E+02  0.51100000000E-03 0.  1.
         12    1    4    4    0    0  0.10943600258E+02 -0.14381920485E+02 -0.32777767321E+01  0.18366976990E+02  0.00000000000E+00 0. -1.
</event>
<event>
 8    1  0.3106980E-007  0.9118800E+02  0.7816164E-02  0.1184000E+00
        -11   -1    0    0    0    0  0.00000000000E+00  0.00000000000E+00  0.45593999997E+02  0.45594000000E+02  0.51100000000E-03 0. -1.
         11   -1    0    0    0    0 -0.00000000000E+00 -0.00000000000E+00 -0.45593999997E+02  0.45594000000E+02  0.51100000000E-03 0.  1.
         23    2    1    2    0    0  0.00000000000E+00  0.00000000000E+00  0.00000000000E+00  0.91188000000E+02  0.91188000000E+02 0.  0.
    9900012    2    3    3    0    0  0.62497437544E+01 -0.35566785125E+02 -0.71919199151E+01  0.54367092717E+02  0.40000019466E+02 0.  0.
         12    1    3    3    0    0 -0.62497437544E+01  0.35566785125E+02  0.71919199151E+01  0.36820907283E+02  0.00000000000E+00 0. -1.
         11    1    4    4    0    0 -0.42587519589E+01 -0.49064816494E+01  0.28814238626E+01  0.71072592580E+01  0.51100000000E-03 0. -1.
        -11    1    4    4    0    0 -0.11653015254E+02 -0.94428710854E+01 -0.65877368532E+01  0.16381662185E+02  0.51100000000E-03 0.  1.
        -12    1    4    4    0    0  0.22161510967E+02 -0.21217432390E+02 -0.34856069245E+01  0.30878171274E+02  0.00000000000E+00 0.  1.
</event>
<event>
 8    1  0.3106980E-007  0.9118800E+02  0.7816164E-02  0.1184000E+00
        -11   -1    0    0    0    0  0.00000000000E+00  0.00000000000E+00  0.45593999997E+02  0.45594000000E+02  0.51100000000E-03 0.  1.
         11   -1    0    0    0    0 -0.00000000000E+00 -0.00000000000E+00 -0.45593999997E+02  0.45594000000E+02  0.51100000000E-03 0. -1.
         23    2    1    2    0    0  0.71054273576E-14  0.00000000000E+00  0.00000000000E+00  0.91188000000E+02  0.91188000000E+02 0.  0.
    9900012    2    3    3    0    0  0.35828149867E+02 -0.53649307673E+01 -0.65833148095E+01  0.54367097799E+02  0.40000031052E+02 0.  0.
         12    1    3    3    0    0 -0.35828149867E+02  0.53649307673E+01  0.65833148095E+01  0.36820902201E+02  0.00000000000E+00 0. -1.
         11    1    4    4    0    0  0.16743295016E+02  0.83927122933E+01 -0.44235360336E+01  0.19244303545E+02  0.51100000000E-03 0. -1.
        -11    1    4    4    0    0  0.18197072378E+02 -0.17709187604E+02  0.59306113185E+01  0.26075293280E+02  0.51100000000E-03 0.  1.
         12    1    4    4    0    0  0.88778247318E+00  0.39515445439E+01 -0.80903900944E+01  0.90475009744E+01  0.00000000000E+00 0. -1.
</event>
<event>
 8    1  0.3106980E-007  0.9118800E+02  0.7816164E-02  0.1184000E+00
        -11   -1    0    0    0    0  0.00000000000E+00  0.00000000000E+00  0.45593999997E+02  0.45594000000E+02  0.51100000000E-03 0. -1.
         11   -1    0    0    0    0 -0.00000000000E+00 -0.00000000000E+00 -0.45593999997E+02  0.45594000000E+02  0.51100000000E-03 0.  1.
         23    2    1    2    0    0  0.11102230246E-15 -0.14432899320E-14  0.00000000000E+00  0.91188000000E+02  0.91188000000E+02 0.  0.
    9900012    2    3    3    0    0 -0.38728259338E+00 -0.31392700530E+00  0.36817547719E+02  0.54367077170E+02  0.39999984025E+02 0.  0.
        -12    1    3    3    0    0  0.38728259338E+00  0.31392700530E+00 -0.36817547719E+02  0.36820922830E+02  0.00000000000E+00 0.  1.
         11    1    4    4    0    0 -0.33146742147E+01  0.14073900740E+02  0.30024571688E+02  0.33324715340E+02  0.51100000000E-03 0. -1.
        -11    1    4    4    0    0  0.11451072241E+01 -0.13759590878E+02  0.10186483628E+02  0.17158148520E+02  0.51100000000E-03 0.  1.
         12    1    4    4    0    0  0.17822843973E+01 -0.62823686714E+00 -0.33935075961E+01  0.38842133102E+01  0.00000000000E+00 0. -1.
</event>
<event>
 8    1  0.3106980E-007  0.9118800E+02  0.7816164E-02  0.1184000E+00
        -11   -1    0    0    0    0  0.00000000000E+00  0.00000000000E+00  0.45593999997E+02  0.45594000000E+02  0.51100000000E-03 0. -1.
         11   -1    0    0    0    0 -0.00000000000E+00 -0.00000000000E+00 -0.45593999997E+02  0.45594000000E+02  0.51100000000E-03 0.  1.
         23    2    1    2    0    0 -0.17763568394E-14  0.00000000000E+00  0.00000000000E+00  0.91188000000E+02  0.91188000000E+02 0.  0.
    9900012    2    3    3    0    0 -0.62229453421E+01  0.33435349816E+02 -0.14111384415E+02  0.54367097836E+02  0.40000031136E+02 0.  0.
        -12    1    3    3    0    0  0.62229453421E+01 -0.33435349816E+02  0.14111384415E+02  0.36820902164E+02  0.00000000000E+00 0.  1.
         11    1    4    4    0    0 -0.15351833860E+02  0.73573206988E+00 -0.73225706758E-01  0.15369628063E+02  0.51100000000E-03 0. -1.
        -11    1    4    4    0    0  0.44919159904E+01  0.30709655386E+02 -0.13742608363E+02  0.33942886266E+02  0.51100000000E-03 0.  1.
        -12    1    4    4    0    0  0.46369725274E+01  0.19899623607E+01 -0.29555034534E+00  0.50545835064E+01  0.00000000000E+00 0.  1.
</event>
<event>
 8    1  0.3106980E-007  0.9118800E+02  0.7816164E-02  0.1184000E+00
        -11   -1    0    0    0    0  0.00000000000E+00  0.00000000000E+00  0.45593999997E+02  0.45594000000E+02  0.51100000000E-03 0.  1.
         11   -1    0    0    0    0 -0.00000000000E+00 -0.00000000000E+00 -0.45593999997E+02  0.45594000000E+02  0.51100000000E-03 0. -1.
         23    2    1    2    0    0  0.00000000000E+00  0.00000000000E+00  0.00000000000E+00  0.91188000000E+02  0.91188000000E+02 0.  0.
    9900012    2    3    3    0    0  0.18070085943E+02  0.29659400903E+02  0.12229897777E+02  0.54367102842E+02  0.40000042548E+02 0.  0.
        -12    1    3    3    0    0 -0.18070085943E+02 -0.29659400903E+02 -0.12229897777E+02  0.36820897158E+02  0.00000000000E+00 0.  1.
         11    1    4    4    0    0  0.11586340093E+02  0.14807497755E+02 -0.98940439054E+01  0.21246114271E+02  0.51100000000E-03 0. -1.
        -11    1    4    4    0    0  0.11821813186E+02  0.14556247280E+02  0.14025294557E+02  0.23416842007E+02  0.51100000000E-03 0.  1.
         12    1    4    4    0    0 -0.53380673369E+01  0.29565586721E+00  0.80986471249E+01  0.97041465642E+01  0.00000000000E+00 0. -1.
</event>
<event>
 8    1  0.3106980E-007  0.9118800E+02  0.7816164E-02  0.1184000E+00
        -11   -1    0    0    0    0  0.00000000000E+00  0.00000000000E+00  0.45593999997E+02  0.45594000000E+02  0.51100000000E-03 0.  1.
         11   -1    0    0    0    0 -0.00000000000E+00 -0.00000000000E+00 -0.45593999997E+02  0.45594000000E+02  0.51100000000E-03 0. -1.
         23    2    1    2    0    0 -0.44408920985E-15 -0.71054273576E-14  0.88817841970E-15  0.91188000000E+02  0.91188000000E+02 0.  0.
    9900012    2    3    3    0    0  0.12548909353E+01  0.36292915227E+02 -0.60851521229E+01  0.54367088506E+02  0.40000009866E+02 0.  0.
        -12    1    3    3    0    0 -0.12548909353E+01 -0.36292915227E+02  0.60851521229E+01  0.36820911494E+02  0.00000000000E+00 0.  1.
         11    1    4    4    0    0  0.96989598874E+01  0.56290424604E+01 -0.18767328508E+01  0.11370051380E+02  0.51100000000E-03 0. -1.
        -11    1    4    4    0    0  0.73992416715E+01  0.21861448793E+02 -0.80995848685E+01  0.24459660585E+02  0.51100000000E-03 0.  1.
        -12    1    4    4    0    0 -0.15843310624E+02  0.88024239739E+01  0.38911655964E+01  0.18537376541E+02  0.00000000000E+00 0.  1.
</event>
<event>
 8    1  0.3106980E-007  0.9118800E+02  0.7816164E-02  0.1184000E+00
        -11   -1    0    0    0    0  0.00000000000E+00  0.00000000000E+00  0.45593999997E+02  0.45594000000E+02  0.51100000000E-03 0. -1.
         11   -1    0    0    0    0 -0.00000000000E+00 -0.00000000000E+00 -0.45593999997E+02  0.45594000000E+02  0.51100000000E-03 0.  1.
         23    2    1    2    0    0  0.17763568394E-14  0.17763568394E-14  0.00000000000E+00  0.91188000000E+02  0.91188000000E+02 0.  0.
    9900012    2    3    3    0    0  0.56683227422E+01 -0.12251364240E+02  0.34257174143E+02  0.54367084901E+02  0.40000001650E+02 0.  0.
        -12    1    3    3    0    0 -0.56683227422E+01  0.12251364240E+02 -0.34257174143E+02  0.36820915099E+02  0.00000000000E+00 0.  1.
         11    1    4    4    0    0  0.12057784273E+02 -0.15725104028E+02  0.63227627837E+01  0.20800153551E+02  0.51100000000E-03 0.  1.
        -11    1    4    4    0    0  0.88449289172E+00 -0.36853422620E+01  0.20731642387E+02  0.21075224117E+02  0.51100000000E-03 0. -1.
        -12    1    4    4    0    0 -0.72739544224E+01  0.71590820498E+01  0.72027689720E+01  0.12491707233E+02  0.00000000000E+00 0.  1.
</event>
<event>
 8    1  0.3106980E-007  0.9118800E+02  0.7816164E-02  0.1184000E+00
        -11   -1    0    0    0    0  0.00000000000E+00  0.00000000000E+00  0.45593999997E+02  0.45594000000E+02  0.51100000000E-03 0.  1.
         11   -1    0    0    0    0 -0.00000000000E+00 -0.00000000000E+00 -0.45593999997E+02  0.45594000000E+02  0.51100000000E-03 0. -1.
         23    2    1    2    0    0  0.00000000000E+00  0.00000000000E+00  0.00000000000E+00  0.91188000000E+02  0.91188000000E+02 0.  0.
    9900012    2    3    3    0    0  0.75968418601E+01 -0.15153178435E+02  0.32687130026E+02  0.54367091643E+02  0.40000017019E+02 0.  0.
         12    1    3    3    0    0 -0.75968418601E+01  0.15153178435E+02 -0.32687130026E+02  0.36820908357E+02  0.00000000000E+00 0. -1.
         11    1    4    4    0    0  0.98881999529E+00  0.10814450624E+02  0.56148421498E+01  0.12225242734E+02  0.51100000000E-03 0. -1.
        -11    1    4    4    0    0  0.17071161873E+01 -0.64600921339E+01 -0.18315229540E+01  0.69283123954E+01  0.51100000000E-03 0.  1.
        -12    1    4    4    0    0  0.49009056775E+01 -0.19507536924E+02  0.28903810830E+02  0.35213536514E+02  0.00000000000E+00 0.  1.
</event>
<event>
 8    1  0.3106980E-007  0.9118800E+02  0.7816164E-02  0.1184000E+00
        -11   -1    0    0    0    0  0.00000000000E+00  0.00000000000E+00  0.45593999997E+02  0.45594000000E+02  0.51100000000E-03 0. -1.
         11   -1    0    0    0    0 -0.00000000000E+00 -0.00000000000E+00 -0.45593999997E+02  0.45594000000E+02  0.51100000000E-03 0.  1.
         23    2    1    2    0    0  0.44408920985E-15  0.00000000000E+00  0.00000000000E+00  0.91188000000E+02  0.91188000000E+02 0.  0.
    9900012    2    3    3    0    0 -0.34070547531E+01 -0.27802970109E+02  0.23899097242E+02  0.54367081788E+02  0.39999994552E+02 0.  0.
        -12    1    3    3    0    0  0.34070547531E+01  0.27802970109E+02 -0.23899097242E+02  0.36820918212E+02  0.00000000000E+00 0.  1.
         11    1    4    4    0    0  0.13868830880E+02 -0.64511491732E+01  0.21085092915E+02  0.26048856772E+02  0.51100000000E-03 0. -1.
        -11    1    4    4    0    0 -0.11936643264E+02 -0.15369055637E+02  0.48288779321E+01  0.20050171719E+02  0.51100000000E-03 0.  1.
         12    1    4    4    0    0 -0.53392423688E+01 -0.59827652983E+01 -0.20148736049E+01  0.82680532976E+01  0.00000000000E+00 0. -1.
</event>
<event>
 8    1  0.3106980E-007  0.9118800E+02  0.7816164E-02  0.1184000E+00
        -11   -1    0    0    0    0  0.00000000000E+00  0.00000000000E+00  0.45593999997E+02  0.45594000000E+02  0.51100000000E-03 0. -1.
         11   -1    0    0    0    0 -0.00000000000E+00 -0.00000000000E+00 -0.45593999997E+02  0.45594000000E+02  0.51100000000E-03 0.  1.
         23    2    1    2    0    0  0.88817841970E-15  0.00000000000E+00  0.00000000000E+00  0.91188000000E+02  0.91188000000E+02 0.  0.
    9900012    2    3    3    0    0  0.64139739149E+01  0.27479636448E+02  0.23653933604E+02  0.54367108435E+02  0.40000055300E+02 0.  0.
        -12    1    3    3    0    0 -0.64139739149E+01 -0.27479636448E+02 -0.23653933604E+02  0.36820891565E+02  0.00000000000E+00 0.  1.
         11    1    4    4    0    0  0.10292014132E+02  0.23077657579E+02  0.53746177353E+01  0.25833899247E+02  0.51100000000E-03 0. -1.
        -11    1    4    4    0    0 -0.11543135920E+02  0.51311122248E+01  0.58705011991E+01  0.13929647667E+02  0.51100000000E-03 0.  1.
         12    1    4    4    0    0  0.76650957035E+01 -0.72913335641E+00  0.12408814670E+02  0.14603561521E+02  0.00000000000E+00 0. -1.
</event>
<event>
 8    1  0.3106980E-007  0.9118800E+02  0.7816164E-02  0.1184000E+00
        -11   -1    0    0    0    0  0.00000000000E+00  0.00000000000E+00  0.45593999997E+02  0.45594000000E+02  0.51100000000E-03 0.  1.
         11   -1    0    0    0    0 -0.00000000000E+00 -0.00000000000E+00 -0.45593999997E+02  0.45594000000E+02  0.51100000000E-03 0. -1.
         23    2    1    2    0    0  0.00000000000E+00  0.17763568394E-14  0.71054273576E-14  0.91188000000E+02  0.91188000000E+02 0.  0.
    9900012    2    3    3    0    0 -0.59040648460E+01 -0.11787944535E+02 -0.34379748929E+02  0.54367071787E+02  0.39999971752E+02 0.  0.
        -12    1    3    3    0    0  0.59040648460E+01  0.11787944535E+02  0.34379748929E+02  0.36820928213E+02  0.00000000000E+00 0.  1.
         11    1    4    4    0    0  0.28750250413E+01  0.34165940445E+00  0.20801163395E+01  0.35650223539E+01  0.51100000000E-03 0.  1.
        -11    1    4    4    0    0  0.60185386498E+01  0.10545996659E+01 -0.28982214351E+02  0.29619313578E+02  0.51100000000E-03 0. -1.
         12    1    4    4    0    0 -0.14797628537E+02 -0.13184203605E+02 -0.74776509179E+01  0.21182735854E+02  0.00000000000E+00 0. -1.
</event>
<event>
 8    1  0.3106980E-007  0.9118800E+02  0.7816164E-02  0.1184000E+00
        -11   -1    0    0    0    0  0.00000000000E+00  0.00000000000E+00  0.45593999997E+02  0.45594000000E+02  0.51100000000E-03 0.  1.
         11   -1    0    0    0    0 -0.00000000000E+00 -0.00000000000E+00 -0.45593999997E+02  0.45594000000E+02  0.51100000000E-03 0. -1.
         23    2    1    2    0    0  0.00000000000E+00  0.35527136788E-14 -0.17763568394E-14  0.91188000000E+02  0.91188000000E+02 0.  0.
    9900012    2    3    3    0    0 -0.14121911721E+02  0.30371915603E+02 -0.15293610121E+02  0.54367134195E+02  0.40000114025E+02 0.  0.
        -12    1    3    3    0    0  0.14121911721E+02 -0.30371915603E+02  0.15293610121E+02  0.36820865805E+02  0.00000000000E+00 0.  1.
         11    1    4    4    0    0 -0.10569819293E+02  0.83658245946E+01 -0.20732572256E+01  0.13638419880E+02  0.51100000000E-03 0. -1.
        -11    1    4    4    0    0 -0.49881507833E+01  0.18532065584E+02  0.67983103276E+01  0.20360160279E+02  0.51100000000E-03 0.  1.
        -12    1    4    4    0    0  0.14360583561E+01  0.34740254252E+01 -0.20018663223E+02  0.20368554036E+02  0.00000000000E+00 0.  1.
</event>
<event>
 8    1  0.3106980E-007  0.9118800E+02  0.7816164E-02  0.1184000E+00
        -11   -1    0    0    0    0  0.00000000000E+00  0.00000000000E+00  0.45593999997E+02  0.45594000000E+02  0.51100000000E-03 0. -1.
         11   -1    0    0    0    0 -0.00000000000E+00 -0.00000000000E+00 -0.45593999997E+02  0.45594000000E+02  0.51100000000E-03 0.  1.
         23    2    1    2    0    0 -0.35527136788E-14 -0.35527136788E-14  0.35527136788E-14  0.91188000000E+02  0.91188000000E+02 0.  0.
    9900012    2    3    3    0    0 -0.72764372611E+01 -0.23279412364E+02  0.27584375828E+02  0.54367144917E+02  0.40000138466E+02 0.  0.
        -12    1    3    3    0    0  0.72764372611E+01  0.23279412364E+02 -0.27584375828E+02  0.36820855083E+02  0.00000000000E+00 0.  1.
         11    1    4    4    0    0  0.12434862117E+02 -0.42080408754E+01  0.23510175286E+01  0.13336442088E+02  0.51100000000E-03 0. -1.
        -11    1    4    4    0    0 -0.27305407934E+01  0.13400928894E+01 -0.14660933243E+01  0.33765562151E+01  0.51100000000E-03 0.  1.
         12    1    4    4    0    0 -0.16980758585E+02 -0.20411464379E+02  0.26699451624E+02  0.37654146614E+02  0.00000000000E+00 0. -1.
</event>
<event>
 8    1  0.3106980E-007  0.9118800E+02  0.7816164E-02  0.1184000E+00
        -11   -1    0    0    0    0  0.00000000000E+00  0.00000000000E+00  0.45593999997E+02  0.45594000000E+02  0.51100000000E-03 0. -1.
         11   -1    0    0    0    0 -0.00000000000E+00 -0.00000000000E+00 -0.45593999997E+02  0.45594000000E+02  0.51100000000E-03 0.  1.
         23    2    1    2    0    0  0.71054273576E-14 -0.88817841970E-15  0.17763568394E-14  0.91188000000E+02  0.91188000000E+02 0.  0.
    9900012    2    3    3    0    0 -0.33802431802E+02  0.58820077286E+01 -0.13363272536E+02  0.54367089317E+02  0.40000011716E+02 0.  0.
         12    1    3    3    0    0  0.33802431802E+02 -0.58820077286E+01  0.13363272536E+02  0.36820910683E+02  0.00000000000E+00 0. -1.
         11    1    4    4    0    0 -0.77930222317E+01  0.49800658701E+00  0.12624560413E+02  0.14844484900E+02  0.51100000000E-03 0. -1.
        -11    1    4    4    0    0 -0.56170096584E+01  0.29844650144E+01 -0.14868906454E+02  0.16172266642E+02  0.51100000000E-03 0.  1.
         12    1    4    4    0    0 -0.20392399912E+02  0.23995361272E+01 -0.11118926495E+02  0.23350337775E+02  0.00000000000E+00 0. -1.
</event>
<event>
 8    1  0.3106980E-007  0.9118800E+02  0.7816164E-02  0.1184000E+00
        -11   -1    0    0    0    0  0.00000000000E+00  0.00000000000E+00  0.45593999997E+02  0.45594000000E+02  0.51100000000E-03 0. -1.
         11   -1    0    0    0    0 -0.00000000000E+00 -0.00000000000E+00 -0.45593999997E+02  0.45594000000E+02  0.51100000000E-03 0.  1.
         23    2    1    2    0    0  0.88817841970E-15  0.00000000000E+00  0.35527136788E-14  0.91188000000E+02  0.91188000000E+02 0.  0.
    9900012    2    3    3    0    0  0.79310592302E+01  0.35831425368E+02 -0.29977305267E+01  0.54367093809E+02  0.40000021956E+02 0.  0.
        -12    1    3    3    0    0 -0.79310592302E+01 -0.35831425368E+02  0.29977305267E+01  0.36820906191E+02  0.00000000000E+00 0.  1.
         11    1    4    4    0    0  0.41065435060E+01  0.53073410414E+01  0.92263765549E+01  0.11408663072E+02  0.51100000000E-03 0.  1.
        -11    1    4    4    0    0  0.14841655951E+01  0.84154464225E+01  0.88664023191E+01  0.12314039806E+02  0.51100000000E-03 0. -1.
        -12    1    4    4    0    0  0.23403501290E+01  0.22108637904E+02 -0.21090509401E+02  0.30644390931E+02  0.00000000000E+00 0.  1.
</event>
<event>
 8    1  0.3106980E-007  0.9118800E+02  0.7816164E-02  0.1184000E+00
        -11   -1    0    0    0    0  0.00000000000E+00  0.00000000000E+00  0.45593999997E+02  0.45594000000E+02  0.51100000000E-03 0.  1.
         11   -1    0    0    0    0 -0.00000000000E+00 -0.00000000000E+00 -0.45593999997E+02  0.45594000000E+02  0.51100000000E-03 0. -1.
         23    2    1    2    0    0  0.17763568394E-14  0.00000000000E+00  0.00000000000E+00  0.91188000000E+02  0.91188000000E+02 0.  0.
    9900012    2    3    3    0    0 -0.12908090994E+02  0.62358032581E+01  0.33915707816E+02  0.54367091646E+02  0.40000017024E+02 0.  0.
         12    1    3    3    0    0  0.12908090994E+02 -0.62358032581E+01 -0.33915707816E+02  0.36820908354E+02  0.00000000000E+00 0. -1.
         11    1    4    4    0    0 -0.79208217716E+01 -0.31550160571E+01 -0.39894789722E+01  0.94132612090E+01  0.51100000000E-03 0. -1.
        -11    1    4    4    0    0 -0.33746701910E+01 -0.25586590312E+01  0.30523613307E+02  0.30816004032E+02  0.51100000000E-03 0.  1.
         12    1    4    4    0    0 -0.16125990314E+01  0.11949478346E+02  0.73815734815E+01  0.14137826405E+02  0.00000000000E+00 0. -1.
</event>
<event>
 8    1  0.3106980E-007  0.9118800E+02  0.7816164E-02  0.1184000E+00
        -11   -1    0    0    0    0  0.00000000000E+00  0.00000000000E+00  0.45593999997E+02  0.45594000000E+02  0.51100000000E-03 0.  1.
         11   -1    0    0    0    0 -0.00000000000E+00 -0.00000000000E+00 -0.45593999997E+02  0.45594000000E+02  0.51100000000E-03 0. -1.
         23    2    1    2    0    0  0.00000000000E+00 -0.71054273576E-14 -0.35527136788E-14  0.91188000000E+02  0.91188000000E+02 0.  0.
    9900012    2    3    3    0    0 -0.24409440712E+02  0.24807211975E+02  0.12023483233E+02  0.54367045220E+02  0.39999911188E+02 0.  0.
         12    1    3    3    0    0  0.24409440712E+02 -0.24807211975E+02 -0.12023483233E+02  0.36820954780E+02  0.00000000000E+00 0. -1.
         11    1    4    4    0    0 -0.25610587023E+01  0.22745991248E+02  0.25306541078E+01  0.23029184745E+02  0.51100000000E-03 0. -1.
        -11    1    4    4    0    0 -0.71778233488E+01 -0.86858759315E+01  0.61844538404E+01  0.12853523186E+02  0.51100000000E-03 0.  1.
        -12    1    4    4    0    0 -0.14670558660E+02  0.10747096658E+02  0.33083752850E+01  0.18484337289E+02  0.00000000000E+00 0.  1.
</event>
<event>
 8    1  0.3106980E-007  0.9118800E+02  0.7816164E-02  0.1184000E+00
        -11   -1    0    0    0    0  0.00000000000E+00  0.00000000000E+00  0.45593999997E+02  0.45594000000E+02  0.51100000000E-03 0.  1.
         11   -1    0    0    0    0 -0.00000000000E+00 -0.00000000000E+00 -0.45593999997E+02  0.45594000000E+02  0.51100000000E-03 0. -1.
         23    2    1    2    0    0  0.83266726847E-15  0.00000000000E+00 -0.71054273576E-14  0.91188000000E+02  0.91188000000E+02 0.  0.
    9900012    2    3    3    0    0  0.20592452715E+00 -0.92836071470E+01  0.35630663869E+02  0.54367191015E+02  0.40000243555E+02 0.  0.
         12    1    3    3    0    0 -0.20592452715E+00  0.92836071470E+01 -0.35630663869E+02  0.36820808985E+02  0.00000000000E+00 0. -1.
         11    1    4    4    0    0 -0.18793798357E+01  0.44267209640E+00  0.16777316883E+02  0.16888054630E+02  0.51100000000E-03 0. -1.
        -11    1    4    4    0    0  0.12304098034E+02  0.50559815174E+01  0.32830008777E+01  0.13701528110E+02  0.51100000000E-03 0.  1.
         12    1    4    4    0    0 -0.10218793671E+02 -0.14782260761E+02  0.15570346109E+02  0.23777608274E+02  0.00000000000E+00 0. -1.
</event>
<event>
 8    1  0.3106980E-007  0.9118800E+02  0.7816164E-02  0.1184000E+00
        -11   -1    0    0    0    0  0.00000000000E+00  0.00000000000E+00  0.45593999997E+02  0.45594000000E+02  0.51100000000E-03 0.  1.
         11   -1    0    0    0    0 -0.00000000000E+00 -0.00000000000E+00 -0.45593999997E+02  0.45594000000E+02  0.51100000000E-03 0. -1.
         23    2    1    2    0    0 -0.35527136788E-14 -0.17763568394E-14 -0.35527136788E-14  0.91188000000E+02  0.91188000000E+02 0.  0.
    9900012    2    3    3    0    0  0.29935714333E+02 -0.10407592135E+02 -0.18743424665E+02  0.54367069338E+02  0.39999966169E+02 0.  0.
        -12    1    3    3    0    0 -0.29935714333E+02  0.10407592135E+02  0.18743424665E+02  0.36820930662E+02  0.00000000000E+00 0.  1.
         11    1    4    4    0    0  0.99161894186E+00  0.25925724842E+01 -0.12103068417E+02  0.12417286562E+02  0.51100000000E-03 0. -1.
        -11    1    4    4    0    0  0.14315973371E+02 -0.92485978567E+01 -0.16654434621E+02  0.23829684192E+02  0.51100000000E-03 0.  1.
         12    1    4    4    0    0  0.14628122020E+02 -0.37515667628E+01  0.10014078373E+02  0.18120098583E+02  0.00000000000E+00 0. -1.
</event>
<event>
 8    1  0.3106980E-007  0.9118800E+02  0.7816164E-02  0.1184000E+00
        -11   -1    0    0    0    0  0.00000000000E+00  0.00000000000E+00  0.45593999997E+02  0.45594000000E+02  0.51100000000E-03 0. -1.
         11   -1    0    0    0    0 -0.00000000000E+00 -0.00000000000E+00 -0.45593999997E+02  0.45594000000E+02  0.51100000000E-03 0.  1.
         23    2    1    2    0    0 -0.35527136788E-14 -0.88817841970E-15 -0.35527136788E-14  0.91188000000E+02  0.91188000000E+02 0.  0.
    9900012    2    3    3    0    0 -0.22048182744E+02 -0.54771528933E+01 -0.28976853374E+02  0.54367087497E+02  0.40000007567E+02 0.  0.
         12    1    3    3    0    0  0.22048182744E+02  0.54771528933E+01  0.28976853374E+02  0.36820912503E+02  0.00000000000E+00 0. -1.
         11    1    4    4    0    0 -0.49446467279E+01  0.96817420507E+01  0.40619298082E+01  0.11605383855E+02  0.51100000000E-03 0. -1.
        -11    1    4    4    0    0 -0.15354390345E+02 -0.15290271873E+02 -0.34320847720E+02  0.40589041690E+02  0.51100000000E-03 0.  1.
         12    1    4    4    0    0 -0.17491456705E+01  0.13137692881E+00  0.12820645385E+01  0.21726619514E+01  0.00000000000E+00 0. -1.
</event>
<event>
 8    1  0.3106980E-007  0.9118800E+02  0.7816164E-02  0.1184000E+00
        -11   -1    0    0    0    0  0.00000000000E+00  0.00000000000E+00  0.45593999997E+02  0.45594000000E+02  0.51100000000E-03 0. -1.
         11   -1    0    0    0    0 -0.00000000000E+00 -0.00000000000E+00 -0.45593999997E+02  0.45594000000E+02  0.51100000000E-03 0.  1.
         23    2    1    2    0    0  0.71054273576E-14  0.00000000000E+00 -0.35527136788E-14  0.91188000000E+02  0.91188000000E+02 0.  0.
    9900012    2    3    3    0    0  0.19201362827E+02  0.95135397248E+01 -0.29942907797E+02  0.54367115982E+02  0.40000072504E+02 0.  0.
         12    1    3    3    0    0 -0.19201362827E+02 -0.95135397248E+01  0.29942907797E+02  0.36820884018E+02  0.00000000000E+00 0. -1.
         11    1    4    4    0    0  0.17835725721E+02  0.26247516139E+01  0.12559166465E+00  0.18028261329E+02  0.51100000000E-03 0. -1.
        -11    1    4    4    0    0  0.88910549565E+01 -0.11631232647E+01 -0.17191377865E+02  0.19389357574E+02  0.51100000000E-03 0.  1.
         12    1    4    4    0    0 -0.75254178502E+01  0.80519113756E+01 -0.12877121597E+02  0.16949497079E+02  0.00000000000E+00 0. -1.
</event>
<event>
 8    1  0.3106980E-007  0.9118800E+02  0.7816164E-02  0.1184000E+00
        -11   -1    0    0    0    0  0.00000000000E+00  0.00000000000E+00  0.45593999997E+02  0.45594000000E+02  0.51100000000E-03 0.  1.
         11   -1    0    0    0    0 -0.00000000000E+00 -0.00000000000E+00 -0.45593999997E+02  0.45594000000E+02  0.51100000000E-03 0. -1.
         23    2    1    2    0    0  0.00000000000E+00  0.00000000000E+00  0.35527136788E-14  0.91188000000E+02  0.91188000000E+02 0.  0.
    9900012    2    3    3    0    0 -0.27326807654E+02 -0.14288564248E+02 -0.20121226828E+02  0.54367065005E+02  0.39999956291E+02 0.  0.
        -12    1    3    3    0    0  0.27326807654E+02  0.14288564248E+02  0.20121226828E+02  0.36820934995E+02  0.00000000000E+00 0.  1.
         11    1    4    4    0    0 -0.61715365757E+01 -0.67129911493E+01  0.43270408400E+01  0.10093334264E+02  0.51100000000E-03 0.  1.
        -11    1    4    4    0    0 -0.20668939106E+02 -0.11295994855E+02 -0.29645457884E+02  0.37863672787E+02  0.51100000000E-03 0. -1.
         12    1    4    4    0    0 -0.48633197301E+00  0.37204217563E+01  0.51971902154E+01  0.64100579536E+01  0.00000000000E+00 0. -1.
</event>
<event>
 8    1  0.3106980E-007  0.9118800E+02  0.7816164E-02  0.1184000E+00
        -11   -1    0    0    0    0  0.00000000000E+00  0.00000000000E+00  0.45593999997E+02  0.45594000000E+02  0.51100000000E-03 0.  1.
         11   -1    0    0    0    0 -0.00000000000E+00 -0.00000000000E+00 -0.45593999997E+02  0.45594000000E+02  0.51100000000E-03 0. -1.
         23    2    1    2    0    0  0.00000000000E+00  0.00000000000E+00 -0.35527136788E-14  0.91188000000E+02  0.91188000000E+02 0.  0.
    9900012    2    3    3    0    0  0.43899949685E+01  0.30497639804E+02  0.20159387116E+02  0.54367095905E+02  0.40000026736E+02 0.  0.
        -12    1    3    3    0    0 -0.43899949685E+01 -0.30497639804E+02 -0.20159387116E+02  0.36820904095E+02  0.00000000000E+00 0.  1.
         11    1    4    4    0    0 -0.60213080465E+01  0.12645327262E+00  0.26331109111E+01  0.65730825609E+01  0.51100000000E-03 0. -1.
        -11    1    4    4    0    0  0.38294155710E+01  0.10729743192E+02  0.23600917522E+02  0.26206776237E+02  0.51100000000E-03 0.  1.
         12    1    4    4    0    0  0.65818874440E+01  0.19641443340E+02 -0.60746413179E+01  0.21587237107E+02  0.00000000000E+00 0. -1.
</event>
<event>
 8    1  0.3106980E-007  0.9118800E+02  0.7816164E-02  0.1184000E+00
        -11   -1    0    0    0    0  0.00000000000E+00  0.00000000000E+00  0.45593999997E+02  0.45594000000E+02  0.51100000000E-03 0. -1.
         11   -1    0    0    0    0 -0.00000000000E+00 -0.00000000000E+00 -0.45593999997E+02  0.45594000000E+02  0.51100000000E-03 0.  1.
         23    2    1    2    0    0  0.00000000000E+00  0.00000000000E+00  0.00000000000E+00  0.91188000000E+02  0.91188000000E+02 0.  0.
    9900012    2    3    3    0    0  0.19916489605E+02 -0.22732938765E+02 -0.21031511091E+02  0.54367115684E+02  0.40000071824E+02 0.  0.
         12    1    3    3    0    0 -0.19916489605E+02  0.22732938765E+02  0.21031511091E+02  0.36820884316E+02  0.00000000000E+00 0. -1.
         11    1    4    4    0    0  0.14864665201E+01 -0.12300354027E+02 -0.17501356293E+02  0.21443081967E+02  0.51100000000E-03 0. -1.
        -11    1    4    4    0    0  0.19345200875E+02 -0.17170000386E+02 -0.19224711438E+01  0.25937262880E+02  0.51100000000E-03 0.  1.
         12    1    4    4    0    0 -0.91517779010E+00  0.67374156477E+01 -0.16076836547E+01  0.69867708372E+01  0.00000000000E+00 0. -1.
</event>
<event>
 8    1  0.3106980E-007  0.9118800E+02  0.7816164E-02  0.1184000E+00
        -11   -1    0    0    0    0  0.00000000000E+00  0.00000000000E+00  0.45593999997E+02  0.45594000000E+02  0.51100000000E-03 0. -1.
         11   -1    0    0    0    0 -0.00000000000E+00 -0.00000000000E+00 -0.45593999997E+02  0.45594000000E+02  0.51100000000E-03 0.  1.
         23    2    1    2    0    0 -0.17763568394E-14  0.00000000000E+00 -0.35527136788E-14  0.91188000000E+02  0.91188000000E+02 0.  0.
    9900012    2    3    3    0    0  0.13332134872E+02  0.21078281553E+02  0.27087654057E+02  0.54367071498E+02  0.39999971094E+02 0.  0.
         12    1    3    3    0    0 -0.13332134872E+02 -0.21078281553E+02 -0.27087654057E+02  0.36820928502E+02  0.00000000000E+00 0. -1.
         11    1    4    4    0    0 -0.14661849289E+00  0.12310805995E+02  0.30916779680E+02  0.33277991335E+02  0.51100000000E-03 0. -1.
        -11    1    4    4    0    0  0.82347486504E+01  0.77158816489E+01 -0.83885010195E+01  0.14061040665E+02  0.51100000000E-03 0.  1.
         12    1    4    4    0    0  0.52440047143E+01  0.10515939090E+01  0.45593753957E+01  0.70280394985E+01  0.00000000000E+00 0. -1.
</event>
<event>
 8    1  0.3106980E-007  0.9118800E+02  0.7816164E-02  0.1184000E+00
        -11   -1    0    0    0    0  0.00000000000E+00  0.00000000000E+00  0.45593999997E+02  0.45594000000E+02  0.51100000000E-03 0. -1.
         11   -1    0    0    0    0 -0.00000000000E+00 -0.00000000000E+00 -0.45593999997E+02  0.45594000000E+02  0.51100000000E-03 0.  1.
         23    2    1    2    0    0  0.35527136788E-14 -0.35527136788E-14  0.22204460493E-14  0.91188000000E+02  0.91188000000E+02 0.  0.
    9900012    2    3    3    0    0  0.28897312965E+02 -0.22552530234E+02  0.34799033005E+01  0.54367067861E+02  0.39999962804E+02 0.  0.
        -12    1    3    3    0    0 -0.28897312965E+02  0.22552530234E+02 -0.34799033005E+01  0.36820932139E+02  0.00000000000E+00 0.  1.
         11    1    4    4    0    0  0.18518996289E+01  0.38019517408E+01  0.43047004757E+01  0.60344689677E+01  0.51100000000E-03 0. -1.
        -11    1    4    4    0    0  0.23422263438E+02 -0.27994631103E+02  0.91193293565E+01  0.37622652263E+02  0.51100000000E-03 0.  1.
        -12    1    4    4    0    0  0.36231498984E+01  0.16401491282E+01 -0.99441265317E+01  0.10709946630E+02  0.00000000000E+00 0.  1.
</event>
<event>
 8    1  0.3106980E-007  0.9118800E+02  0.7816164E-02  0.1184000E+00
        -11   -1    0    0    0    0  0.00000000000E+00  0.00000000000E+00  0.45593999997E+02  0.45594000000E+02  0.51100000000E-03 0. -1.
         11   -1    0    0    0    0 -0.00000000000E+00 -0.00000000000E+00 -0.45593999997E+02  0.45594000000E+02  0.51100000000E-03 0.  1.
         23    2    1    2    0    0  0.00000000000E+00  0.00000000000E+00 -0.35527136788E-14  0.91188000000E+02  0.91188000000E+02 0.  0.
    9900012    2    3    3    0    0  0.88032598493E+01 -0.32287331918E+02  0.15356134454E+02  0.54367081329E+02  0.39999993506E+02 0.  0.
        -12    1    3    3    0    0 -0.88032598493E+01  0.32287331918E+02 -0.15356134454E+02  0.36820918671E+02  0.00000000000E+00 0.  1.
         11    1    4    4    0    0  0.59227842340E+01 -0.14816000872E+02  0.18267992266E+02  0.24255160206E+02  0.51100000000E-03 0. -1.
        -11    1    4    4    0    0 -0.47900199046E+01  0.42073385379E+01 -0.31584968299E+01  0.71149202908E+01  0.51100000000E-03 0.  1.
        -12    1    4    4    0    0  0.76704955198E+01 -0.21678669584E+02  0.24663901782E+00  0.22997000832E+02  0.00000000000E+00 0.  1.
</event>
<event>
 8    1  0.3106980E-007  0.9118800E+02  0.7816164E-02  0.1184000E+00
        -11   -1    0    0    0    0  0.00000000000E+00  0.00000000000E+00  0.45593999997E+02  0.45594000000E+02  0.51100000000E-03 0. -1.
         11   -1    0    0    0    0 -0.00000000000E+00 -0.00000000000E+00 -0.45593999997E+02  0.45594000000E+02  0.51100000000E-03 0.  1.
         23    2    1    2    0    0  0.00000000000E+00  0.00000000000E+00  0.00000000000E+00  0.91188000000E+02  0.91188000000E+02 0.  0.
    9900012    2    3    3    0    0 -0.26129095179E+02 -0.17046130677E+02  0.19557094610E+02  0.54367080192E+02  0.39999990913E+02 0.  0.
        -12    1    3    3    0    0  0.26129095179E+02  0.17046130677E+02 -0.19557094610E+02  0.36820919808E+02  0.00000000000E+00 0.  1.
         11    1    4    4    0    0 -0.11695780275E+01  0.15391121323E+01 -0.13097800497E+01  0.23350166932E+01  0.51100000000E-03 0. -1.
        -11    1    4    4    0    0 -0.14475677101E+02 -0.11517838094E+02 -0.82752464945E+01  0.20265377536E+02  0.51100000000E-03 0.  1.
         12    1    4    4    0    0 -0.10483840051E+02 -0.70674047158E+01  0.29142121154E+02  0.31766685962E+02  0.00000000000E+00 0. -1.
</event>
<event>
 8    1  0.3106980E-007  0.9118800E+02  0.7816164E-02  0.1184000E+00
        -11   -1    0    0    0    0  0.00000000000E+00  0.00000000000E+00  0.45593999997E+02  0.45594000000E+02  0.51100000000E-03 0.  1.
         11   -1    0    0    0    0 -0.00000000000E+00 -0.00000000000E+00 -0.45593999997E+02  0.45594000000E+02  0.51100000000E-03 0. -1.
         23    2    1    2    0    0  0.35527136788E-14 -0.88817841970E-15  0.00000000000E+00  0.91188000000E+02  0.91188000000E+02 0.  0.
    9900012    2    3    3    0    0 -0.29332714819E+02 -0.63837254911E+01 -0.21321804582E+02  0.54367089360E+02  0.40000011813E+02 0.  0.
        -12    1    3    3    0    0  0.29332714819E+02  0.63837254911E+01  0.21321804582E+02  0.36820910640E+02  0.00000000000E+00 0.  1.
         11    1    4    4    0    0 -0.31006156121E+02  0.98137089456E+01 -0.92547219215E+01  0.33813318068E+02  0.51100000000E-03 0.  1.
        -11    1    4    4    0    0 -0.55719827064E+00 -0.82931123445E+01 -0.72687220949E+01  0.11041761790E+02  0.51100000000E-03 0. -1.
        -12    1    4    4    0    0  0.22306395731E+01 -0.79043220923E+01 -0.47983605652E+01  0.95120095015E+01  0.00000000000E+00 0.  1.
</event>
<event>
 8    1  0.3106980E-007  0.9118800E+02  0.7816164E-02  0.1184000E+00
        -11   -1    0    0    0    0  0.00000000000E+00  0.00000000000E+00  0.45593999997E+02  0.45594000000E+02  0.51100000000E-03 0. -1.
         11   -1    0    0    0    0 -0.00000000000E+00 -0.00000000000E+00 -0.45593999997E+02  0.45594000000E+02  0.51100000000E-03 0.  1.
         23    2    1    2    0    0 -0.44408920985E-15  0.00000000000E+00  0.00000000000E+00  0.91188000000E+02  0.91188000000E+02 0.  0.
    9900012    2    3    3    0    0  0.20065717547E+01 -0.26897755326E+02  0.25065200901E+02  0.54367083824E+02  0.39999999195E+02 0.  0.
         12    1    3    3    0    0 -0.20065717547E+01  0.26897755326E+02 -0.25065200901E+02  0.36820916176E+02  0.00000000000E+00 0. -1.
         11    1    4    4    0    0  0.25487289754E+01 -0.22009103791E+02  0.58413860845E+01  0.22913281318E+02  0.51100000000E-03 0. -1.
        -11    1    4    4    0    0 -0.40672560604E+01  0.37712435273E+01 -0.37196404622E+01  0.66783661949E+01  0.51100000000E-03 0.  1.
         12    1    4    4    0    0  0.35250988397E+01 -0.86598950620E+01  0.22943455279E+02  0.24775436312E+02  0.00000000000E+00 0. -1.
</event>
<event>
 8    1  0.3106980E-007  0.9118800E+02  0.7816164E-02  0.1184000E+00
        -11   -1    0    0    0    0  0.00000000000E+00  0.00000000000E+00  0.45593999997E+02  0.45594000000E+02  0.51100000000E-03 0.  1.
         11   -1    0    0    0    0 -0.00000000000E+00 -0.00000000000E+00 -0.45593999997E+02  0.45594000000E+02  0.51100000000E-03 0. -1.
         23    2    1    2    0    0 -0.35527136788E-14  0.00000000000E+00  0.00000000000E+00  0.91188000000E+02  0.91188000000E+02 0.  0.
    9900012    2    3    3    0    0  0.29570728253E+02 -0.17442659739E+02  0.13308464430E+02  0.54366952029E+02  0.39999698740E+02 0.  0.
         12    1    3    3    0    0 -0.29570728253E+02  0.17442659739E+02 -0.13308464430E+02  0.36821047971E+02  0.00000000000E+00 0. -1.
         11    1    4    4    0    0 -0.87562189029E+01 -0.77331408389E+01 -0.97132137078E+00  0.11722469969E+02  0.51100000000E-03 0. -1.
        -11    1    4    4    0    0  0.63054061858E+01 -0.42658416304E+01  0.38435542482E+01  0.85280983521E+01  0.51100000000E-03 0.  1.
         12    1    4    4    0    0  0.32021540970E+02 -0.54436772702E+01  0.10436231552E+02  0.34116383708E+02  0.00000000000E+00 0. -1.
</event>
<event>
 8    1  0.3106980E-007  0.9118800E+02  0.7816164E-02  0.1184000E+00
        -11   -1    0    0    0    0  0.00000000000E+00  0.00000000000E+00  0.45593999997E+02  0.45594000000E+02  0.51100000000E-03 0.  1.
         11   -1    0    0    0    0 -0.00000000000E+00 -0.00000000000E+00 -0.45593999997E+02  0.45594000000E+02  0.51100000000E-03 0. -1.
         23    2    1    2    0    0  0.17763568394E-14  0.44408920985E-15  0.00000000000E+00  0.91188000000E+02  0.91188000000E+02 0.  0.
    9900012    2    3    3    0    0  0.12425861765E+02 -0.31472678164E+01 -0.34517855599E+02  0.54366950443E+02  0.39999695125E+02 0.  0.
        -12    1    3    3    0    0 -0.12425861765E+02  0.31472678164E+01  0.34517855599E+02  0.36821049557E+02  0.00000000000E+00 0.  1.
         11    1    4    4    0    0  0.14573063666E+02 -0.13484413032E+02 -0.20889478107E+02  0.28819678612E+02  0.51100000000E-03 0. -1.
        -11    1    4    4    0    0 -0.37936338733E+01  0.24325418315E-01 -0.14575376929E+02  0.15061004700E+02  0.51100000000E-03 0.  1.
        -12    1    4    4    0    0  0.16464319722E+01  0.10312819798E+02  0.94699943717E+00  0.10486267131E+02  0.00000000000E+00 0.  1.
</event>
<event>
 8    1  0.3106980E-007  0.9118800E+02  0.7816164E-02  0.1184000E+00
        -11   -1    0    0    0    0  0.00000000000E+00  0.00000000000E+00  0.45593999997E+02  0.45594000000E+02  0.51100000000E-03 0. -1.
         11   -1    0    0    0    0 -0.00000000000E+00 -0.00000000000E+00 -0.45593999997E+02  0.45594000000E+02  0.51100000000E-03 0.  1.
         23    2    1    2    0    0  0.00000000000E+00 -0.17763568394E-14 -0.35527136788E-14  0.91188000000E+02  0.91188000000E+02 0.  0.
    9900012    2    3    3    0    0 -0.34962237807E+02  0.83262831090E+01  0.80059708525E+01  0.54367073448E+02  0.39999975539E+02 0.  0.
         12    1    3    3    0    0  0.34962237807E+02 -0.83262831090E+01 -0.80059708525E+01  0.36820926552E+02  0.00000000000E+00 0. -1.
         11    1    4    4    0    0 -0.22707567840E+02 -0.20685793953E+01  0.16987287612E+02  0.28433793250E+02  0.51100000000E-03 0. -1.
        -11    1    4    4    0    0 -0.10817196646E+02  0.91255130524E+01  0.24322273803E+01  0.14359751461E+02  0.51100000000E-03 0.  1.
        -12    1    4    4    0    0 -0.14374733215E+01  0.12693494519E+01 -0.11413544140E+02  0.11573528736E+02  0.00000000000E+00 0.  1.
</event>
<event>
 8    1  0.3106980E-007  0.9118800E+02  0.7816164E-02  0.1184000E+00
        -11   -1    0    0    0    0  0.00000000000E+00  0.00000000000E+00  0.45593999997E+02  0.45594000000E+02  0.51100000000E-03 0. -1.
         11   -1    0    0    0    0 -0.00000000000E+00 -0.00000000000E+00 -0.45593999997E+02  0.45594000000E+02  0.51100000000E-03 0.  1.
         23    2    1    2    0    0  0.71054273576E-14  0.66613381478E-15 -0.15543122345E-14  0.91188000000E+02  0.91188000000E+02 0.  0.
    9900012    2    3    3    0    0 -0.36751267119E+02  0.11026421324E+01 -0.19768289234E+01  0.54367091441E+02  0.40000016557E+02 0.  0.
         12    1    3    3    0    0  0.36751267119E+02 -0.11026421324E+01  0.19768289234E+01  0.36820908559E+02  0.00000000000E+00 0. -1.
         11    1    4    4    0    0 -0.10250100263E+02 -0.33821030337E+01  0.13244146029E+02  0.17085390854E+02  0.51100000000E-03 0. -1.
        -11    1    4    4    0    0 -0.13093231856E+02 -0.58001897431E+01 -0.14482793189E+02  0.20367283087E+02  0.51100000000E-03 0.  1.
        -12    1    4    4    0    0 -0.13407935000E+02  0.10284934909E+02 -0.73818176307E+00  0.16914417500E+02  0.00000000000E+00 0.  1.
</event>
<event>
 8    1  0.3106980E-007  0.9118800E+02  0.7816164E-02  0.1184000E+00
        -11   -1    0    0    0    0  0.00000000000E+00  0.00000000000E+00  0.45593999997E+02  0.45594000000E+02  0.51100000000E-03 0. -1.
         11   -1    0    0    0    0 -0.00000000000E+00 -0.00000000000E+00 -0.45593999997E+02  0.45594000000E+02  0.51100000000E-03 0.  1.
         23    2    1    2    0    0  0.00000000000E+00  0.00000000000E+00 -0.88817841970E-15  0.91188000000E+02  0.91188000000E+02 0.  0.
    9900012    2    3    3    0    0 -0.10792437966E+02  0.34939549930E+02  0.43047309533E+01  0.54367087801E+02  0.40000008260E+02 0.  0.
        -12    1    3    3    0    0  0.10792437966E+02 -0.34939549930E+02 -0.43047309533E+01  0.36820912199E+02  0.00000000000E+00 0.  1.
         11    1    4    4    0    0  0.44818192549E+01 -0.45430021696E+01 -0.49044084548E+01  0.80485275112E+01  0.51100000000E-03 0. -1.
        -11    1    4    4    0    0 -0.45362015581E+01  0.19497147501E+02  0.12187966058E+02  0.23436347884E+02  0.51100000000E-03 0.  1.
        -12    1    4    4    0    0 -0.10738055663E+02  0.19985404598E+02 -0.29788266495E+01  0.22882212406E+02  0.00000000000E+00 0.  1.
</event>
<event>
 8    1  0.3106980E-007  0.9118800E+02  0.7816164E-02  0.1184000E+00
        -11   -1    0    0    0    0  0.00000000000E+00  0.00000000000E+00  0.45593999997E+02  0.45594000000E+02  0.51100000000E-03 0. -1.
         11   -1    0    0    0    0 -0.00000000000E+00 -0.00000000000E+00 -0.45593999997E+02  0.45594000000E+02  0.51100000000E-03 0.  1.
         23    2    1    2    0    0  0.00000000000E+00  0.35527136788E-14 -0.88817841970E-15  0.91188000000E+02  0.91188000000E+02 0.  0.
    9900012    2    3    3    0    0 -0.20278862300E+02  0.29968929360E+02  0.68125455166E+01  0.54367085297E+02  0.40000002550E+02 0.  0.
         12    1    3    3    0    0  0.20278862300E+02 -0.29968929360E+02 -0.68125455166E+01  0.36820914703E+02  0.00000000000E+00 0. -1.
         11    1    4    4    0    0 -0.56156483559E+01  0.13093992540E+02  0.17484566274E+02  0.22554338943E+02  0.51100000000E-03 0. -1.
        -11    1    4    4    0    0  0.13210005080E+01  0.32021842953E+01 -0.10201156398E+02  0.10773236224E+02  0.51100000000E-03 0.  1.
        -12    1    4    4    0    0 -0.15984214452E+02  0.13672752525E+02 -0.47086435927E+00  0.21039510130E+02  0.00000000000E+00 0.  1.
</event>
<event>
 8    1  0.3106980E-007  0.9118800E+02  0.7816164E-02  0.1184000E+00
        -11   -1    0    0    0    0  0.00000000000E+00  0.00000000000E+00  0.45593999997E+02  0.45594000000E+02  0.51100000000E-03 0. -1.
         11   -1    0    0    0    0 -0.00000000000E+00 -0.00000000000E+00 -0.45593999997E+02  0.45594000000E+02  0.51100000000E-03 0.  1.
         23    2    1    2    0    0  0.00000000000E+00  0.35527136788E-14 -0.35527136788E-14  0.91188000000E+02  0.91188000000E+02 0.  0.
    9900012    2    3    3    0    0 -0.59660401785E+01 -0.31949815997E+02  0.17303027319E+02  0.54367093818E+02  0.40000021977E+02 0.  0.
         12    1    3    3    0    0  0.59660401785E+01  0.31949815997E+02 -0.17303027319E+02  0.36820906182E+02  0.00000000000E+00 0. -1.
         11    1    4    4    0    0 -0.12639667769E+02 -0.33294434675E+02  0.94941455987E+01  0.36856741345E+02  0.51100000000E-03 0. -1.
        -11    1    4    4    0    0 -0.10103731987E+01  0.54017494261E+01 -0.46098825016E+00  0.55147312982E+01  0.51100000000E-03 0.  1.
        -12    1    4    4    0    0  0.76840007897E+01 -0.40571307479E+01  0.82698699704E+01  0.11995621175E+02  0.00000000000E+00 0.  1.
</event>
<event>
 8    1  0.3106980E-007  0.9118800E+02  0.7816164E-02  0.1184000E+00
        -11   -1    0    0    0    0  0.00000000000E+00  0.00000000000E+00  0.45593999997E+02  0.45594000000E+02  0.51100000000E-03 0.  1.
         11   -1    0    0    0    0 -0.00000000000E+00 -0.00000000000E+00 -0.45593999997E+02  0.45594000000E+02  0.51100000000E-03 0. -1.
         23    2    1    2    0    0  0.00000000000E+00  0.17763568394E-14  0.00000000000E+00  0.91188000000E+02  0.91188000000E+02 0.  0.
    9900012    2    3    3    0    0  0.34042129029E+02 -0.38330807649E+01  0.13498902530E+02  0.54367089819E+02  0.40000012861E+02 0.  0.
        -12    1    3    3    0    0 -0.34042129029E+02  0.38330807649E+01 -0.13498902530E+02  0.36820910181E+02  0.00000000000E+00 0.  1.
         11    1    4    4    0    0  0.25852703514E+01  0.88424540242E+01  0.14461774601E+01  0.93254514887E+01  0.51100000000E-03 0. -1.
        -11    1    4    4    0    0 -0.64856121329E+00  0.59787973948E+01  0.34259602962E+01  0.69212610230E+01  0.51100000000E-03 0.  1.
         12    1    4    4    0    0  0.32105419891E+02 -0.18654332184E+02  0.86267647736E+01  0.38120377308E+02  0.00000000000E+00 0. -1.
</event>
<event>
 8    1  0.3106980E-007  0.9118800E+02  0.7816164E-02  0.1184000E+00
        -11   -1    0    0    0    0  0.00000000000E+00  0.00000000000E+00  0.45593999997E+02  0.45594000000E+02  0.51100000000E-03 0.  1.
         11   -1    0    0    0    0 -0.00000000000E+00 -0.00000000000E+00 -0.45593999997E+02  0.45594000000E+02  0.51100000000E-03 0. -1.
         23    2    1    2    0    0  0.00000000000E+00  0.44408920985E-15  0.00000000000E+00  0.91188000000E+02  0.91188000000E+02 0.  0.
    9900012    2    3    3    0    0 -0.35627533589E+02  0.24216280943E+01 -0.89774470100E+01  0.54367082207E+02  0.39999995507E+02 0.  0.
        -12    1    3    3    0    0  0.35627533589E+02 -0.24216280943E+01  0.89774470100E+01  0.36820917793E+02  0.00000000000E+00 0.  1.
         11    1    4    4    0    0 -0.44726630015E+01  0.68087242079E+01  0.79213695070E+01  0.11362725676E+02  0.51100000000E-03 0. -1.
        -11    1    4    4    0    0 -0.29516119902E+02 -0.42138371809E+01 -0.22380320430E+02  0.37280511004E+02  0.51100000000E-03 0.  1.
        -12    1    4    4    0    0 -0.16387506860E+01 -0.17325893263E+00  0.54815039134E+01  0.57238455274E+01  0.00000000000E+00 0.  1.
</event>
<event>
 8    1  0.3106980E-007  0.9118800E+02  0.7816164E-02  0.1184000E+00
        -11   -1    0    0    0    0  0.00000000000E+00  0.00000000000E+00  0.45593999997E+02  0.45594000000E+02  0.51100000000E-03 0. -1.
         11   -1    0    0    0    0 -0.00000000000E+00 -0.00000000000E+00 -0.45593999997E+02  0.45594000000E+02  0.51100000000E-03 0.  1.
         23    2    1    2    0    0 -0.11102230246E-14  0.00000000000E+00 -0.17763568394E-14  0.91188000000E+02  0.91188000000E+02 0.  0.
    9900012    2    3    3    0    0  0.14987456762E+01 -0.35830027045E+02  0.83512073345E+01  0.54367085555E+02  0.40000003140E+02 0.  0.
         12    1    3    3    0    0 -0.14987456762E+01  0.35830027045E+02 -0.83512073345E+01  0.36820914445E+02  0.00000000000E+00 0. -1.
         11    1    4    4    0    0 -0.65081699640E+01  0.45507467624E+00  0.83880321003E+01  0.10626497636E+02  0.51100000000E-03 0. -1.
        -11    1    4    4    0    0  0.62566925930E+00  0.30070577608E+01 -0.20791476841E+01  0.37090044152E+01  0.51100000000E-03 0.  1.
         12    1    4    4    0    0  0.73812463808E+01 -0.39292159482E+02  0.20423229182E+01  0.40031583503E+02  0.00000000000E+00 0. -1.
</event>
<event>
 8    1  0.3106980E-007  0.9118800E+02  0.7816164E-02  0.1184000E+00
        -11   -1    0    0    0    0  0.00000000000E+00  0.00000000000E+00  0.45593999997E+02  0.45594000000E+02  0.51100000000E-03 0. -1.
         11   -1    0    0    0    0 -0.00000000000E+00 -0.00000000000E+00 -0.45593999997E+02  0.45594000000E+02  0.51100000000E-03 0.  1.
         23    2    1    2    0    0  0.00000000000E+00 -0.17763568394E-14  0.35527136788E-14  0.91188000000E+02  0.91188000000E+02 0.  0.
    9900012    2    3    3    0    0 -0.26498794580E+02  0.15002950063E+02 -0.20700366604E+02  0.54367084716E+02  0.40000001227E+02 0.  0.
        -12    1    3    3    0    0  0.26498794580E+02 -0.15002950063E+02  0.20700366604E+02  0.36820915284E+02  0.00000000000E+00 0.  1.
         11    1    4    4    0    0 -0.17310030156E+02 -0.42027708909E+01 -0.24447565325E+02  0.30248700430E+02  0.51100000000E-03 0. -1.
        -11    1    4    4    0    0  0.13463954694E+01  0.82124157225E+01  0.30920944450E+01  0.88779277468E+01  0.51100000000E-03 0.  1.
         12    1    4    4    0    0 -0.10535159894E+02  0.10993305231E+02  0.65510427558E+00  0.15240456539E+02  0.00000000000E+00 0. -1.
</event>
<event>
 8    1  0.3106980E-007  0.9118800E+02  0.7816164E-02  0.1184000E+00
        -11   -1    0    0    0    0  0.00000000000E+00  0.00000000000E+00  0.45593999997E+02  0.45594000000E+02  0.51100000000E-03 0. -1.
         11   -1    0    0    0    0 -0.00000000000E+00 -0.00000000000E+00 -0.45593999997E+02  0.45594000000E+02  0.51100000000E-03 0.  1.
         23    2    1    2    0    0  0.00000000000E+00  0.00000000000E+00  0.00000000000E+00  0.91188000000E+02  0.91188000000E+02 0.  0.
    9900012    2    3    3    0    0 -0.10155313266E+02  0.35138342042E+02  0.42368660307E+01  0.54367020888E+02  0.39999855719E+02 0.  0.
        -12    1    3    3    0    0  0.10155313266E+02 -0.35138342042E+02 -0.42368660307E+01  0.36820979112E+02  0.00000000000E+00 0.  1.
         11    1    4    4    0    0  0.13294925114E+02  0.75219244125E+01  0.35614093502E+01  0.15684961507E+02  0.51100000000E-03 0. -1.
        -11    1    4    4    0    0 -0.11296030633E+02  0.20270681982E+02 -0.43648922359E+01  0.23612563193E+02  0.51100000000E-03 0.  1.
         12    1    4    4    0    0 -0.12154207746E+02  0.73457356478E+01  0.50403489164E+01  0.15069496188E+02  0.00000000000E+00 0. -1.
</event>
<event>
 8    1  0.3106980E-007  0.9118800E+02  0.7816164E-02  0.1184000E+00
        -11   -1    0    0    0    0  0.00000000000E+00  0.00000000000E+00  0.45593999997E+02  0.45594000000E+02  0.51100000000E-03 0.  1.
         11   -1    0    0    0    0 -0.00000000000E+00 -0.00000000000E+00 -0.45593999997E+02  0.45594000000E+02  0.51100000000E-03 0. -1.
         23    2    1    2    0    0 -0.35527136788E-14  0.44408920985E-15  0.00000000000E+00  0.91188000000E+02  0.91188000000E+02 0.  0.
    9900012    2    3    3    0    0  0.22019892359E+02  0.16971650820E+01  0.29462245068E+02  0.54367083210E+02  0.39999997795E+02 0.  0.
         12    1    3    3    0    0 -0.22019892359E+02 -0.16971650820E+01 -0.29462245068E+02  0.36820916790E+02  0.00000000000E+00 0. -1.
         11    1    4    4    0    0  0.27138939356E+02  0.83308551447E+01  0.17627322416E+02  0.33416278558E+02  0.51100000000E-03 0. -1.
        -11    1    4    4    0    0 -0.67370948068E+01 -0.10102271455E+02  0.12063671078E+02  0.17116556170E+02  0.51100000000E-03 0.  1.
         12    1    4    4    0    0  0.16180478090E+01  0.34685813919E+01 -0.22874842617E+00  0.38342484827E+01  0.00000000000E+00 0. -1.
</event>
<event>
 8    1  0.3106980E-007  0.9118800E+02  0.7816164E-02  0.1184000E+00
        -11   -1    0    0    0    0  0.00000000000E+00  0.00000000000E+00  0.45593999997E+02  0.45594000000E+02  0.51100000000E-03 0.  1.
         11   -1    0    0    0    0 -0.00000000000E+00 -0.00000000000E+00 -0.45593999997E+02  0.45594000000E+02  0.51100000000E-03 0. -1.
         23    2    1    2    0    0 -0.88817841970E-15  0.00000000000E+00  0.00000000000E+00  0.91188000000E+02  0.91188000000E+02 0.  0.
    9900012    2    3    3    0    0  0.54049562695E+01 -0.23365075252E+02  0.27939935006E+02  0.54367078475E+02  0.39999987000E+02 0.  0.
         12    1    3    3    0    0 -0.54049562695E+01  0.23365075252E+02 -0.27939935006E+02  0.36820921525E+02  0.00000000000E+00 0. -1.
         11    1    4    4    0    0 -0.22081565936E+01  0.94645792591E+00 -0.38146255096E+01  0.45081155916E+01  0.51100000000E-03 0. -1.
        -11    1    4    4    0    0 -0.11357318180E+01 -0.26013916995E+02  0.13020314148E+02  0.29112580528E+02  0.51100000000E-03 0.  1.
        -12    1    4    4    0    0  0.87488446811E+01  0.17023838175E+01  0.18734246367E+02  0.20746382356E+02  0.00000000000E+00 0.  1.
</event>
<event>
 8    1  0.3106980E-007  0.9118800E+02  0.7816164E-02  0.1184000E+00
        -11   -1    0    0    0    0  0.00000000000E+00  0.00000000000E+00  0.45593999997E+02  0.45594000000E+02  0.51100000000E-03 0.  1.
         11   -1    0    0    0    0 -0.00000000000E+00 -0.00000000000E+00 -0.45593999997E+02  0.45594000000E+02  0.51100000000E-03 0. -1.
         23    2    1    2    0    0 -0.35527136788E-14 -0.17763568394E-14  0.00000000000E+00  0.91188000000E+02  0.91188000000E+02 0.  0.
    9900012    2    3    3    0    0  0.10102244314E+02  0.12116510793E+02 -0.33270372171E+02  0.54367043489E+02  0.39999907241E+02 0.  0.
        -12    1    3    3    0    0 -0.10102244314E+02 -0.12116510793E+02  0.33270372171E+02  0.36820956511E+02  0.00000000000E+00 0.  1.
         11    1    4    4    0    0 -0.85179873105E+01  0.17661131678E+01  0.23055833640E+01  0.89994987890E+01  0.51100000000E-03 0.  1.
        -11    1    4    4    0    0  0.21021667759E+02  0.90690737603E+01 -0.22822436810E+02  0.32326803684E+02  0.51100000000E-03 0. -1.
        -12    1    4    4    0    0 -0.24014361345E+01  0.12813238654E+01 -0.12753518726E+02  0.13040741016E+02  0.00000000000E+00 0.  1.
</event>
<event>
 8    1  0.3106980E-007  0.9118800E+02  0.7816164E-02  0.1184000E+00
        -11   -1    0    0    0    0  0.00000000000E+00  0.00000000000E+00  0.45593999997E+02  0.45594000000E+02  0.51100000000E-03 0.  1.
         11   -1    0    0    0    0 -0.00000000000E+00 -0.00000000000E+00 -0.45593999997E+02  0.45594000000E+02  0.51100000000E-03 0. -1.
         23    2    1    2    0    0  0.00000000000E+00 -0.17763568394E-14  0.00000000000E+00  0.91188000000E+02  0.91188000000E+02 0.  0.
    9900012    2    3    3    0    0 -0.16434824432E+02 -0.11449117565E+02  0.30896515933E+02  0.54367076004E+02  0.39999981367E+02 0.  0.
         12    1    3    3    0    0  0.16434824432E+02  0.11449117565E+02 -0.30896515933E+02  0.36820923996E+02  0.00000000000E+00 0. -1.
         11    1    4    4    0    0 -0.38846002997E+01 -0.90363891667E+01  0.12420301766E+02  0.15843305996E+02  0.51100000000E-03 0.  1.
        -11    1    4    4    0    0 -0.24327448335E+01 -0.13637680861E+02 -0.98081266976E+00  0.13887641285E+02  0.51100000000E-03 0. -1.
        -12    1    4    4    0    0 -0.10117479298E+02  0.11224952463E+02  0.19457026837E+02  0.24636128724E+02  0.00000000000E+00 0.  1.
</event>
<event>
 8    1  0.3106980E-007  0.9118800E+02  0.7816164E-02  0.1184000E+00
        -11   -1    0    0    0    0  0.00000000000E+00  0.00000000000E+00  0.45593999997E+02  0.45594000000E+02  0.51100000000E-03 0. -1.
         11   -1    0    0    0    0 -0.00000000000E+00 -0.00000000000E+00 -0.45593999997E+02  0.45594000000E+02  0.51100000000E-03 0.  1.
         23    2    1    2    0    0  0.00000000000E+00  0.00000000000E+00  0.00000000000E+00  0.91188000000E+02  0.91188000000E+02 0.  0.
    9900012    2    3    3    0    0  0.33274200336E+02 -0.90712293124E+01  0.12896513951E+02  0.54367086360E+02  0.40000004975E+02 0.  0.
        -12    1    3    3    0    0 -0.33274200336E+02  0.90712293124E+01 -0.12896513951E+02  0.36820913640E+02  0.00000000000E+00 0.  1.
         11    1    4    4    0    0  0.25706348605E+02 -0.30115512702E+01  0.36209628826E+01  0.26134214587E+02  0.51100000000E-03 0. -1.
        -11    1    4    4    0    0  0.12643516770E+02 -0.12739706263E+02  0.42214318169E+01  0.18438522686E+02  0.51100000000E-03 0.  1.
         12    1    4    4    0    0 -0.50756650395E+01  0.66800282211E+01  0.50541192513E+01  0.97943490868E+01  0.00000000000E+00 0. -1.
</event>
<event>
 8    1  0.3106980E-007  0.9118800E+02  0.7816164E-02  0.1184000E+00
        -11   -1    0    0    0    0  0.00000000000E+00  0.00000000000E+00  0.45593999997E+02  0.45594000000E+02  0.51100000000E-03 0.  1.
         11   -1    0    0    0    0 -0.00000000000E+00 -0.00000000000E+00 -0.45593999997E+02  0.45594000000E+02  0.51100000000E-03 0. -1.
         23    2    1    2    0    0 -0.35527136788E-14  0.00000000000E+00  0.35527136788E-14  0.91188000000E+02  0.91188000000E+02 0.  0.
    9900012    2    3    3    0    0 -0.20586494862E+02 -0.24038332742E+02  0.18818446816E+02  0.54367093543E+02  0.40000021350E+02 0.  0.
         12    1    3    3    0    0  0.20586494862E+02  0.24038332742E+02 -0.18818446816E+02  0.36820906457E+02  0.00000000000E+00 0. -1.
         11    1    4    4    0    0 -0.20967170975E+01 -0.54056668289E+01 -0.28988520436E+01  0.64823452457E+01  0.51100000000E-03 0. -1.
        -11    1    4    4    0    0 -0.64064968009E+01 -0.27142085208E+02  0.14685727402E+02  0.31518353071E+02  0.51100000000E-03 0.  1.
         12    1    4    4    0    0 -0.12083280963E+02  0.85094192942E+01  0.70315714574E+01  0.16366395227E+02  0.00000000000E+00 0. -1.
</event>
<event>
 8    1  0.3106980E-007  0.9118800E+02  0.7816164E-02  0.1184000E+00
        -11   -1    0    0    0    0  0.00000000000E+00  0.00000000000E+00  0.45593999997E+02  0.45594000000E+02  0.51100000000E-03 0.  1.
         11   -1    0    0    0    0 -0.00000000000E+00 -0.00000000000E+00 -0.45593999997E+02  0.45594000000E+02  0.51100000000E-03 0. -1.
         23    2    1    2    0    0 -0.71054273576E-14  0.35527136788E-14  0.17763568394E-14  0.91188000000E+02  0.91188000000E+02 0.  0.
    9900012    2    3    3    0    0 -0.19120852060E+02  0.28910632910E+02  0.12423665131E+02  0.54367093791E+02  0.40000021915E+02 0.  0.
         12    1    3    3    0    0  0.19120852060E+02 -0.28910632910E+02 -0.12423665131E+02  0.36820906209E+02  0.00000000000E+00 0. -1.
         11    1    4    4    0    0 -0.31231860231E+01 -0.46795821707E+01  0.13058250675E+01  0.57756349950E+01  0.51100000000E-03 0. -1.
        -11    1    4    4    0    0 -0.17226444394E+02  0.21195183800E+02 -0.54625694569E+01  0.27853650894E+02  0.51100000000E-03 0.  1.
        -12    1    4    4    0    0  0.12287783572E+01  0.12395031280E+02  0.16580409521E+02  0.20737807902E+02  0.00000000000E+00 0.  1.
</event>
<event>
 8    1  0.3106980E-007  0.9118800E+02  0.7816164E-02  0.1184000E+00
        -11   -1    0    0    0    0  0.00000000000E+00  0.00000000000E+00  0.45593999997E+02  0.45594000000E+02  0.51100000000E-03 0.  1.
         11   -1    0    0    0    0 -0.00000000000E+00 -0.00000000000E+00 -0.45593999997E+02  0.45594000000E+02  0.51100000000E-03 0. -1.
         23    2    1    2    0    0 -0.88817841970E-15 -0.71054273576E-14  0.88817841970E-15  0.91188000000E+02  0.91188000000E+02 0.  0.
    9900012    2    3    3    0    0 -0.67647165195E+01 -0.35476198633E+02  0.71734138876E+01  0.54367083039E+02  0.39999997403E+02 0.  0.
         12    1    3    3    0    0  0.67647165195E+01  0.35476198633E+02 -0.71734138876E+01  0.36820916961E+02  0.00000000000E+00 0. -1.
         11    1    4    4    0    0 -0.60942386507E+01 -0.13661936383E+02 -0.13688319139E+02  0.20277039517E+02  0.51100000000E-03 0. -1.
        -11    1    4    4    0    0 -0.15056010383E+01 -0.28905147457E+01  0.13301370690E+02  0.13694830137E+02  0.51100000000E-03 0.  1.
         12    1    4    4    0    0  0.83512316956E+00 -0.18923747505E+02  0.75603623371E+01  0.20395213384E+02  0.00000000000E+00 0. -1.
</event>
<event>
 8    1  0.3106980E-007  0.9118800E+02  0.7816164E-02  0.1184000E+00
        -11   -1    0    0    0    0  0.00000000000E+00  0.00000000000E+00  0.45593999997E+02  0.45594000000E+02  0.51100000000E-03 0.  1.
         11   -1    0    0    0    0 -0.00000000000E+00 -0.00000000000E+00 -0.45593999997E+02  0.45594000000E+02  0.51100000000E-03 0. -1.
         23    2    1    2    0    0 -0.61062266354E-15  0.00000000000E+00  0.00000000000E+00  0.91188000000E+02  0.91188000000E+02 0.  0.
    9900012    2    3    3    0    0 -0.41458388242E+00 -0.36284240815E+02  0.62499256447E+01  0.54367087710E+02  0.40000008051E+02 0.  0.
        -12    1    3    3    0    0  0.41458388242E+00  0.36284240815E+02 -0.62499256447E+01  0.36820912290E+02  0.00000000000E+00 0.  1.
         11    1    4    4    0    0  0.15059178767E+01 -0.25456029241E+02  0.17480936022E+02  0.30916991086E+02  0.51100000000E-03 0. -1.
        -11    1    4    4    0    0 -0.72350369030E+01 -0.78442957921E+01 -0.13265079384E+02  0.17024719287E+02  0.51100000000E-03 0.  1.
         12    1    4    4    0    0  0.53145351439E+01 -0.29839157824E+01  0.20340690068E+01  0.64253773365E+01  0.00000000000E+00 0. -1.
</event>
<event>
 8    1  0.3106980E-007  0.9118800E+02  0.7816164E-02  0.1184000E+00
        -11   -1    0    0    0    0  0.00000000000E+00  0.00000000000E+00  0.45593999997E+02  0.45594000000E+02  0.51100000000E-03 0. -1.
         11   -1    0    0    0    0 -0.00000000000E+00 -0.00000000000E+00 -0.45593999997E+02  0.45594000000E+02  0.51100000000E-03 0.  1.
         23    2    1    2    0    0  0.88817841970E-15  0.00000000000E+00  0.17763568394E-14  0.91188000000E+02  0.91188000000E+02 0.  0.
    9900012    2    3    3    0    0  0.62073004690E+01 -0.33736537938E+02 -0.13382673029E+02  0.54367075127E+02  0.39999979366E+02 0.  0.
         12    1    3    3    0    0 -0.62073004690E+01  0.33736537938E+02  0.13382673029E+02  0.36820924873E+02  0.00000000000E+00 0. -1.
         11    1    4    4    0    0  0.31234373965E+01  0.48425534510E+01 -0.29054531198E+01  0.64535140187E+01  0.51100000000E-03 0. -1.
        -11    1    4    4    0    0  0.64323939789E+01 -0.13921597123E+02 -0.16276224664E+02  0.22362961529E+02  0.51100000000E-03 0.  1.
         12    1    4    4    0    0 -0.33485309064E+01 -0.24657494266E+02  0.57990047551E+01  0.25550599579E+02  0.00000000000E+00 0. -1.
</event>
<event>
 8    1  0.3106980E-007  0.9118800E+02  0.7816164E-02  0.1184000E+00
        -11   -1    0    0    0    0  0.00000000000E+00  0.00000000000E+00  0.45593999997E+02  0.45594000000E+02  0.51100000000E-03 0.  1.
         11   -1    0    0    0    0 -0.00000000000E+00 -0.00000000000E+00 -0.45593999997E+02  0.45594000000E+02  0.51100000000E-03 0. -1.
         23    2    1    2    0    0  0.00000000000E+00  0.35527136788E-14 -0.35527136788E-14  0.91188000000E+02  0.91188000000E+02 0.  0.
    9900012    2    3    3    0    0 -0.83169641054E+01 -0.21394898509E+02  0.28790302572E+02  0.54366877036E+02  0.39999527776E+02 0.  0.
         12    1    3    3    0    0  0.83169641054E+01  0.21394898509E+02 -0.28790302572E+02  0.36821122964E+02  0.00000000000E+00 0. -1.
         11    1    4    4    0    0  0.46103604845E+01 -0.33912884597E+01  0.13053651060E+02  0.14253212532E+02  0.51100000000E-03 0. -1.
        -11    1    4    4    0    0 -0.11466187114E+02 -0.26185153509E+02  0.12339818191E+02  0.31135298689E+02  0.51100000000E-03 0.  1.
        -12    1    4    4    0    0 -0.14611374755E+01  0.81815434592E+01  0.33968333214E+01  0.89783658151E+01  0.00000000000E+00 0.  1.
</event>
<event>
 8    1  0.3106980E-007  0.9118800E+02  0.7816164E-02  0.1184000E+00
        -11   -1    0    0    0    0  0.00000000000E+00  0.00000000000E+00  0.45593999997E+02  0.45594000000E+02  0.51100000000E-03 0.  1.
         11   -1    0    0    0    0 -0.00000000000E+00 -0.00000000000E+00 -0.45593999997E+02  0.45594000000E+02  0.51100000000E-03 0. -1.
         23    2    1    2    0    0  0.00000000000E+00  0.00000000000E+00  0.17763568394E-14  0.91188000000E+02  0.91188000000E+02 0.  0.
    9900012    2    3    3    0    0 -0.26545068801E+02  0.20079806739E+02  0.15746119465E+02  0.54367087538E+02  0.40000007660E+02 0.  0.
         12    1    3    3    0    0  0.26545068801E+02 -0.20079806739E+02 -0.15746119465E+02  0.36820912462E+02  0.00000000000E+00 0. -1.
         11    1    4    4    0    0 -0.34230581309E+00  0.58704196033E+00 -0.54813181362E+01  0.55232816608E+01  0.51100000000E-03 0. -1.
        -11    1    4    4    0    0  0.24214325091E+01 -0.23930155169E+01 -0.37010827876E+01  0.50287048752E+01  0.51100000000E-03 0.  1.
        -12    1    4    4    0    0 -0.28624195497E+02  0.21885780296E+02  0.24928520389E+02  0.43815101002E+02  0.00000000000E+00 0.  1.
</event>
<event>
 8    1  0.3106980E-007  0.9118800E+02  0.7816164E-02  0.1184000E+00
        -11   -1    0    0    0    0  0.00000000000E+00  0.00000000000E+00  0.45593999997E+02  0.45594000000E+02  0.51100000000E-03 0. -1.
         11   -1    0    0    0    0 -0.00000000000E+00 -0.00000000000E+00 -0.45593999997E+02  0.45594000000E+02  0.51100000000E-03 0.  1.
         23    2    1    2    0    0  0.17763568394E-14  0.00000000000E+00  0.00000000000E+00  0.91188000000E+02  0.91188000000E+02 0.  0.
    9900012    2    3    3    0    0  0.83451217055E+01  0.80889385699E+01 -0.34938631649E+02  0.54367082508E+02  0.39999996193E+02 0.  0.
         12    1    3    3    0    0 -0.83451217055E+01 -0.80889385699E+01  0.34938631649E+02  0.36820917492E+02  0.00000000000E+00 0. -1.
         11    1    4    4    0    0  0.13498999363E+02  0.14873565151E+02 -0.24933851995E+02  0.32017852827E+02  0.51100000000E-03 0. -1.
        -11    1    4    4    0    0 -0.11482641749E+01  0.57265052354E+01 -0.65365063693E-02  0.58404979080E+01  0.51100000000E-03 0.  1.
        -12    1    4    4    0    0 -0.40056134826E+01 -0.12511131816E+02 -0.99982431475E+01  0.16508731772E+02  0.00000000000E+00 0.  1.
</event>
<event>
 8    1  0.3106980E-007  0.9118800E+02  0.7816164E-02  0.1184000E+00
        -11   -1    0    0    0    0  0.00000000000E+00  0.00000000000E+00  0.45593999997E+02  0.45594000000E+02  0.51100000000E-03 0.  1.
         11   -1    0    0    0    0 -0.00000000000E+00 -0.00000000000E+00 -0.45593999997E+02  0.45594000000E+02  0.51100000000E-03 0. -1.
         23    2    1    2    0    0 -0.35527136788E-14 -0.12212453271E-14 -0.35527136788E-14  0.91188000000E+02  0.91188000000E+02 0.  0.
    9900012    2    3    3    0    0  0.20625380712E+02 -0.46137640617E+00  0.30498517990E+02  0.54367098364E+02  0.40000032340E+02 0.  0.
         12    1    3    3    0    0 -0.20625380712E+02  0.46137640617E+00 -0.30498517990E+02  0.36820901636E+02  0.00000000000E+00 0. -1.
         11    1    4    4    0    0  0.15241902224E+02  0.58146964287E+01  0.32570834914E+01  0.16635350044E+02  0.51100000000E-03 0. -1.
        -11    1    4    4    0    0 -0.17189051790E+01  0.30169020943E+01 -0.34453494815E+01  0.48914994196E+01  0.51100000000E-03 0.  1.
        -12    1    4    4    0    0  0.71023836672E+01 -0.92929749292E+01  0.30686783980E+02  0.32840248900E+02  0.00000000000E+00 0.  1.
</event>
<event>
 8    1  0.3106980E-007  0.9118800E+02  0.7816164E-02  0.1184000E+00
        -11   -1    0    0    0    0  0.00000000000E+00  0.00000000000E+00  0.45593999997E+02  0.45594000000E+02  0.51100000000E-03 0.  1.
         11   -1    0    0    0    0 -0.00000000000E+00 -0.00000000000E+00 -0.45593999997E+02  0.45594000000E+02  0.51100000000E-03 0. -1.
         23    2    1    2    0    0  0.00000000000E+00  0.00000000000E+00 -0.35527136788E-14  0.91188000000E+02  0.91188000000E+02 0.  0.
    9900012    2    3    3    0    0 -0.55071853622E+01  0.26050797964E+02  0.25432391555E+02  0.54367086033E+02  0.40000004228E+02 0.  0.
         12    1    3    3    0    0  0.55071853622E+01 -0.26050797964E+02 -0.25432391555E+02  0.36820913967E+02  0.00000000000E+00 0. -1.
         11    1    4    4    0    0 -0.56379770778E+01  0.20730887305E+02  0.17886903597E+02  0.27955282051E+02  0.51100000000E-03 0.  1.
        -11    1    4    4    0    0  0.80621242572E+01 -0.68092342512E+01  0.50780429210E+01  0.11711107497E+02  0.51100000000E-03 0. -1.
         12    1    4    4    0    0 -0.79313325416E+01  0.12129144910E+02  0.24674450371E+01  0.14700696485E+02  0.00000000000E+00 0. -1.
</event>
<event>
 8    1  0.3106980E-007  0.9118800E+02  0.7816164E-02  0.1184000E+00
        -11   -1    0    0    0    0  0.00000000000E+00  0.00000000000E+00  0.45593999997E+02  0.45594000000E+02  0.51100000000E-03 0. -1.
         11   -1    0    0    0    0 -0.00000000000E+00 -0.00000000000E+00 -0.45593999997E+02  0.45594000000E+02  0.51100000000E-03 0.  1.
         23    2    1    2    0    0  0.88817841970E-15  0.00000000000E+00 -0.35527136788E-14  0.91188000000E+02  0.91188000000E+02 0.  0.
    9900012    2    3    3    0    0  0.42970224854E+01 -0.18336806661E+02 -0.31639756190E+02  0.54367122056E+02  0.40000086352E+02 0.  0.
         12    1    3    3    0    0 -0.42970224854E+01  0.18336806661E+02  0.31639756190E+02  0.36820877944E+02  0.00000000000E+00 0. -1.
         11    1    4    4    0    0  0.11601165518E+02 -0.13893148435E+02 -0.38053060292E+02  0.42138367466E+02  0.51100000000E-03 0.  1.
        -11    1    4    4    0    0 -0.30782629070E+01 -0.29065695866E+01 -0.19209194175E+00  0.42380123716E+01  0.51100000000E-03 0. -1.
        -12    1    4    4    0    0 -0.42258801258E+01 -0.15370886388E+01  0.66053960433E+01  0.79907422190E+01  0.00000000000E+00 0.  1.
</event>
<event>
 8    1  0.3106980E-007  0.9118800E+02  0.7816164E-02  0.1184000E+00
        -11   -1    0    0    0    0  0.00000000000E+00  0.00000000000E+00  0.45593999997E+02  0.45594000000E+02  0.51100000000E-03 0. -1.
         11   -1    0    0    0    0 -0.00000000000E+00 -0.00000000000E+00 -0.45593999997E+02  0.45594000000E+02  0.51100000000E-03 0.  1.
         23    2    1    2    0    0 -0.88817841970E-15 -0.71054273576E-14 -0.35527136788E-14  0.91188000000E+02  0.91188000000E+02 0.  0.
    9900012    2    3    3    0    0 -0.65791385229E+01 -0.31088638136E+02 -0.18600890475E+02  0.54367060152E+02  0.39999945228E+02 0.  0.
         12    1    3    3    0    0  0.65791385229E+01  0.31088638136E+02  0.18600890475E+02  0.36820939848E+02  0.00000000000E+00 0. -1.
         11    1    4    4    0    0 -0.18652534811E+02 -0.23926200556E+02 -0.69655841125E+00  0.30345762831E+02  0.51100000000E-03 0. -1.
        -11    1    4    4    0    0  0.99440952454E+01 -0.55574459595E+01 -0.18057461733E+02  0.21350460425E+02  0.51100000000E-03 0.  1.
         12    1    4    4    0    0  0.21293010424E+01 -0.16049916206E+01  0.15312966952E+00  0.26708368964E+01  0.00000000000E+00 0. -1.
</event>
<event>
 8    1  0.3106980E-007  0.9118800E+02  0.7816164E-02  0.1184000E+00
        -11   -1    0    0    0    0  0.00000000000E+00  0.00000000000E+00  0.45593999997E+02  0.45594000000E+02  0.51100000000E-03 0.  1.
         11   -1    0    0    0    0 -0.00000000000E+00 -0.00000000000E+00 -0.45593999997E+02  0.45594000000E+02  0.51100000000E-03 0. -1.
         23    2    1    2    0    0  0.00000000000E+00  0.88817841970E-15 -0.35527136788E-14  0.91188000000E+02  0.91188000000E+02 0.  0.
    9900012    2    3    3    0    0  0.24626764557E+02  0.54982209911E+01 -0.26815511018E+02  0.54367087494E+02  0.40000007560E+02 0.  0.
        -12    1    3    3    0    0 -0.24626764557E+02 -0.54982209911E+01  0.26815511018E+02  0.36820912506E+02  0.00000000000E+00 0.  1.
         11    1    4    4    0    0  0.21751261413E+01  0.13121301850E+02 -0.18434772506E+02  0.22731928505E+02  0.51100000000E-03 0. -1.
        -11    1    4    4    0    0 -0.13220109201E+01 -0.59561050840E+01 -0.42807517259E+01  0.74530353712E+01  0.51100000000E-03 0.  1.
         12    1    4    4    0    0  0.23773649336E+02 -0.16669757753E+01 -0.40999867865E+01  0.24182123617E+02  0.00000000000E+00 0. -1.
</event>
<event>
 8    1  0.3106980E-007  0.9118800E+02  0.7816164E-02  0.1184000E+00
        -11   -1    0    0    0    0  0.00000000000E+00  0.00000000000E+00  0.45593999997E+02  0.45594000000E+02  0.51100000000E-03 0. -1.
         11   -1    0    0    0    0 -0.00000000000E+00 -0.00000000000E+00 -0.45593999997E+02  0.45594000000E+02  0.51100000000E-03 0.  1.
         23    2    1    2    0    0 -0.35527136788E-14 -0.17763568394E-14  0.00000000000E+00  0.91188000000E+02  0.91188000000E+02 0.  0.
    9900012    2    3    3    0    0  0.28168729893E+02  0.34469573311E+01 -0.23461038102E+02  0.54367093338E+02  0.40000020882E+02 0.  0.
         12    1    3    3    0    0 -0.28168729893E+02 -0.34469573311E+01  0.23461038102E+02  0.36820906662E+02  0.00000000000E+00 0. -1.
         11    1    4    4    0    0  0.34078745296E+02  0.13881703874E+01 -0.21566101331E+02  0.40353248009E+02  0.51100000000E-03 0.  1.
        -11    1    4    4    0    0 -0.32077088763E+01  0.61897001051E+01  0.24983859107E+01  0.74056543294E+01  0.51100000000E-03 0. -1.
        -12    1    4    4    0    0 -0.27023065262E+01 -0.41309131614E+01 -0.43933226808E+01  0.66081909996E+01  0.00000000000E+00 0.  1.
</event>
<event>
 8    1  0.3106980E-007  0.9118800E+02  0.7816164E-02  0.1184000E+00
        -11   -1    0    0    0    0  0.00000000000E+00  0.00000000000E+00  0.45593999997E+02  0.45594000000E+02  0.51100000000E-03 0. -1.
         11   -1    0    0    0    0 -0.00000000000E+00 -0.00000000000E+00 -0.45593999997E+02  0.45594000000E+02  0.51100000000E-03 0.  1.
         23    2    1    2    0    0 -0.35527136788E-14 -0.17763568394E-14  0.35527136788E-14  0.91188000000E+02  0.91188000000E+02 0.  0.
    9900012    2    3    3    0    0  0.30562833643E+02  0.82072540004E+01 -0.18823773536E+02  0.54367078384E+02  0.39999986792E+02 0.  0.
         12    1    3    3    0    0 -0.30562833643E+02 -0.82072540004E+01  0.18823773536E+02  0.36820921616E+02  0.00000000000E+00 0. -1.
         11    1    4    4    0    0  0.13336019265E+01  0.15787113239E+02 -0.30808904904E+01  0.16140115396E+02  0.51100000000E-03 0. -1.
        -11    1    4    4    0    0  0.21016411926E+02 -0.79518028958E+01 -0.24586424089E+01  0.22604549592E+02  0.51100000000E-03 0.  1.
         12    1    4    4    0    0  0.82128197909E+01  0.37194365711E+00 -0.13284240637E+02  0.15622413396E+02  0.00000000000E+00 0. -1.
</event>
<event>
 8    1  0.3106980E-007  0.9118800E+02  0.7816164E-02  0.1184000E+00
        -11   -1    0    0    0    0  0.00000000000E+00  0.00000000000E+00  0.45593999997E+02  0.45594000000E+02  0.51100000000E-03 0. -1.
         11   -1    0    0    0    0 -0.00000000000E+00 -0.00000000000E+00 -0.45593999997E+02  0.45594000000E+02  0.51100000000E-03 0.  1.
         23    2    1    2    0    0  0.88817841970E-15 -0.17763568394E-14  0.00000000000E+00  0.91188000000E+02  0.91188000000E+02 0.  0.
    9900012    2    3    3    0    0 -0.53537837392E+01 -0.88739567038E+01 -0.35332274288E+02  0.54367085912E+02  0.40000003954E+02 0.  0.
         12    1    3    3    0    0  0.53537837392E+01  0.88739567038E+01  0.35332274288E+02  0.36820914088E+02  0.00000000000E+00 0. -1.
         11    1    4    4    0    0  0.12775401449E+02 -0.59558100463E+01 -0.39383513322E+01  0.14635339660E+02  0.51100000000E-03 0.  1.
        -11    1    4    4    0    0 -0.75822160473E+00  0.46421759744E+01 -0.10628566553E+02  0.11622870773E+02  0.51100000000E-03 0. -1.
         12    1    4    4    0    0 -0.17370963584E+02 -0.75603226320E+01 -0.20765356403E+02  0.28108875478E+02  0.00000000000E+00 0. -1.
</event>
<event>
 8    1  0.3106980E-007  0.9118800E+02  0.7816164E-02  0.1184000E+00
        -11   -1    0    0    0    0  0.00000000000E+00  0.00000000000E+00  0.45593999997E+02  0.45594000000E+02  0.51100000000E-03 0. -1.
         11   -1    0    0    0    0 -0.00000000000E+00 -0.00000000000E+00 -0.45593999997E+02  0.45594000000E+02  0.51100000000E-03 0.  1.
         23    2    1    2    0    0  0.00000000000E+00  0.00000000000E+00  0.71054273576E-14  0.91188000000E+02  0.91188000000E+02 0.  0.
    9900012    2    3    3    0    0  0.27647318994E+02  0.47145883000E+01 -0.23857463269E+02  0.54367080076E+02  0.39999990649E+02 0.  0.
         12    1    3    3    0    0 -0.27647318994E+02 -0.47145883000E+01  0.23857463269E+02  0.36820919924E+02  0.00000000000E+00 0. -1.
         11    1    4    4    0    0  0.22420753616E+02 -0.34893001382E+01 -0.25931852746E+02  0.34457602866E+02  0.51100000000E-03 0. -1.
        -11    1    4    4    0    0  0.39297422514E+01  0.60442980893E+01 -0.72657526605E+01  0.10235603330E+02  0.51100000000E-03 0.  1.
         12    1    4    4    0    0  0.12968231270E+01  0.21595903489E+01  0.93401421373E+01  0.96738738798E+01  0.00000000000E+00 0. -1.
</event>
<event>
 8    1  0.3106980E-007  0.9118800E+02  0.7816164E-02  0.1184000E+00
        -11   -1    0    0    0    0  0.00000000000E+00  0.00000000000E+00  0.45593999997E+02  0.45594000000E+02  0.51100000000E-03 0. -1.
         11   -1    0    0    0    0 -0.00000000000E+00 -0.00000000000E+00 -0.45593999997E+02  0.45594000000E+02  0.51100000000E-03 0.  1.
         23    2    1    2    0    0  0.00000000000E+00  0.35527136788E-14  0.00000000000E+00  0.91188000000E+02  0.91188000000E+02 0.  0.
    9900012    2    3    3    0    0 -0.11610126417E+02  0.23188908365E+02 -0.26139232892E+02  0.54367081994E+02  0.39999995021E+02 0.  0.
         12    1    3    3    0    0  0.11610126417E+02 -0.23188908365E+02  0.26139232892E+02  0.36820918006E+02  0.00000000000E+00 0. -1.
         11    1    4    4    0    0  0.52974081210E+01  0.28268369939E+01  0.43948565254E+01  0.74409881286E+01  0.51100000000E-03 0. -1.
        -11    1    4    4    0    0  0.14819691544E+01  0.16488828060E+02 -0.17271576834E+02  0.23924570006E+02  0.51100000000E-03 0.  1.
         12    1    4    4    0    0 -0.18389503693E+02  0.38732433115E+01 -0.13262512583E+02  0.23001523859E+02  0.00000000000E+00 0. -1.
</event>
<event>
 8    1  0.3106980E-007  0.9118800E+02  0.7816164E-02  0.1184000E+00
        -11   -1    0    0    0    0  0.00000000000E+00  0.00000000000E+00  0.45593999997E+02  0.45594000000E+02  0.51100000000E-03 0. -1.
         11   -1    0    0    0    0 -0.00000000000E+00 -0.00000000000E+00 -0.45593999997E+02  0.45594000000E+02  0.51100000000E-03 0.  1.
         23    2    1    2    0    0  0.35527136788E-14  0.56898930012E-15  0.35527136788E-14  0.91188000000E+02  0.91188000000E+02 0.  0.
    9900012    2    3    3    0    0 -0.30634858361E+02 -0.99268017347E-01  0.20427306220E+02  0.54367092348E+02  0.40000018625E+02 0.  0.
        -12    1    3    3    0    0  0.30634858361E+02  0.99268017347E-01 -0.20427306220E+02  0.36820907652E+02  0.00000000000E+00 0.  1.
         11    1    4    4    0    0 -0.28217616266E+01  0.16151546005E+01  0.73980340297E+00  0.33344223483E+01  0.51100000000E-03 0. -1.
        -11    1    4    4    0    0 -0.35074975533E+02 -0.49002721433E+01  0.23222630939E+02  0.42350409250E+02  0.51100000000E-03 0.  1.
        -12    1    4    4    0    0  0.72618787983E+01  0.31858495255E+01 -0.35351281217E+01  0.86822607492E+01  0.00000000000E+00 0.  1.
</event>
<event>
 8    1  0.3106980E-007  0.9118800E+02  0.7816164E-02  0.1184000E+00
        -11   -1    0    0    0    0  0.00000000000E+00  0.00000000000E+00  0.45593999997E+02  0.45594000000E+02  0.51100000000E-03 0. -1.
         11   -1    0    0    0    0 -0.00000000000E+00 -0.00000000000E+00 -0.45593999997E+02  0.45594000000E+02  0.51100000000E-03 0.  1.
         23    2    1    2    0    0  0.17763568394E-14  0.00000000000E+00  0.00000000000E+00  0.91188000000E+02  0.91188000000E+02 0.  0.
    9900012    2    3    3    0    0  0.14576135670E+02  0.20640699684E+02 -0.26782048468E+02  0.54367077488E+02  0.39999984749E+02 0.  0.
         12    1    3    3    0    0 -0.14576135670E+02 -0.20640699684E+02  0.26782048468E+02  0.36820922512E+02  0.00000000000E+00 0. -1.
         11    1    4    4    0    0  0.13942984217E+01 -0.50718431983E+00  0.21569426557E+01  0.26179583465E+01  0.51100000000E-03 0. -1.
        -11    1    4    4    0    0  0.16254372281E+02  0.29513580079E+02 -0.20295507186E+02  0.39334001062E+02  0.51100000000E-03 0.  1.
        -12    1    4    4    0    0 -0.30725350326E+01 -0.83656960752E+01 -0.86434839378E+01  0.12415118080E+02  0.00000000000E+00 0.  1.
</event>
<event>
 8    1  0.3106980E-007  0.9118800E+02  0.7816164E-02  0.1184000E+00
        -11   -1    0    0    0    0  0.00000000000E+00  0.00000000000E+00  0.45593999997E+02  0.45594000000E+02  0.51100000000E-03 0.  1.
         11   -1    0    0    0    0 -0.00000000000E+00 -0.00000000000E+00 -0.45593999997E+02  0.45594000000E+02  0.51100000000E-03 0. -1.
         23    2    1    2    0    0  0.44408920985E-15  0.00000000000E+00 -0.35527136788E-14  0.91188000000E+02  0.91188000000E+02 0.  0.
    9900012    2    3    3    0    0  0.70639999319E+00 -0.33502634894E+02  0.15259567817E+02  0.54367082633E+02  0.39999996478E+02 0.  0.
        -12    1    3    3    0    0 -0.70639999319E+00  0.33502634894E+02 -0.15259567817E+02  0.36820917367E+02  0.00000000000E+00 0.  1.
         11    1    4    4    0    0  0.30254471467E+01 -0.20664014305E+02 -0.13513709887E+00  0.20884757120E+02  0.51100000000E-03 0. -1.
        -11    1    4    4    0    0  0.27745410850E+01 -0.48684762887E+01 -0.71204881336E+01  0.90609873153E+01  0.51100000000E-03 0.  1.
        -12    1    4    4    0    0 -0.50935882385E+01 -0.79701443002E+01  0.22515193049E+02  0.24421338198E+02  0.00000000000E+00 0.  1.
</event>
<event>
 8    1  0.3106980E-007  0.9118800E+02  0.7816164E-02  0.1184000E+00
        -11   -1    0    0    0    0  0.00000000000E+00  0.00000000000E+00  0.45593999997E+02  0.45594000000E+02  0.51100000000E-03 0.  1.
         11   -1    0    0    0    0 -0.00000000000E+00 -0.00000000000E+00 -0.45593999997E+02  0.45594000000E+02  0.51100000000E-03 0. -1.
         23    2    1    2    0    0  0.35527136788E-14  0.00000000000E+00  0.71054273576E-14  0.91188000000E+02  0.91188000000E+02 0.  0.
    9900012    2    3    3    0    0  0.16447979352E+02 -0.19030860123E+02  0.26889967330E+02  0.54367081967E+02  0.39999994961E+02 0.  0.
         12    1    3    3    0    0 -0.16447979352E+02  0.19030860123E+02 -0.26889967330E+02  0.36820918033E+02  0.00000000000E+00 0. -1.
         11    1    4    4    0    0 -0.25331523460E+01 -0.44104479763E+01  0.20057543696E+02  0.20692365054E+02  0.51100000000E-03 0. -1.
        -11    1    4    4    0    0  0.14185710483E+02 -0.19978952398E+02  0.11855749403E+01  0.24531581870E+02  0.51100000000E-03 0.  1.
         12    1    4    4    0    0  0.47954212152E+01  0.53585402511E+01  0.56468486930E+01  0.91431350430E+01  0.00000000000E+00 0. -1.
</event>
<event>
 8    1  0.3106980E-007  0.9118800E+02  0.7816164E-02  0.1184000E+00
        -11   -1    0    0    0    0  0.00000000000E+00  0.00000000000E+00  0.45593999997E+02  0.45594000000E+02  0.51100000000E-03 0. -1.
         11   -1    0    0    0    0 -0.00000000000E+00 -0.00000000000E+00 -0.45593999997E+02  0.45594000000E+02  0.51100000000E-03 0.  1.
         23    2    1    2    0    0  0.22204460493E-15  0.00000000000E+00  0.00000000000E+00  0.91188000000E+02  0.91188000000E+02 0.  0.
    9900012    2    3    3    0    0  0.63501470530E+00 -0.30240681074E+02  0.20997131324E+02  0.54367060857E+02  0.39999946836E+02 0.  0.
        -12    1    3    3    0    0 -0.63501470530E+00  0.30240681074E+02 -0.20997131324E+02  0.36820939143E+02  0.00000000000E+00 0.  1.
         11    1    4    4    0    0 -0.52196005843E+01 -0.27500536579E+01 -0.48190740882E+01  0.76177753124E+01  0.51100000000E-03 0. -1.
        -11    1    4    4    0    0 -0.57060201098E+01 -0.14150403376E+02 -0.26022649758E+00  0.15259760787E+02  0.51100000000E-03 0.  1.
         12    1    4    4    0    0  0.11560635399E+02 -0.13340224041E+02  0.26076431910E+02  0.31489524758E+02  0.00000000000E+00 0. -1.
</event>
<event>
 8    1  0.3106980E-007  0.9118800E+02  0.7816164E-02  0.1184000E+00
        -11   -1    0    0    0    0  0.00000000000E+00  0.00000000000E+00  0.45593999997E+02  0.45594000000E+02  0.51100000000E-03 0.  1.
         11   -1    0    0    0    0 -0.00000000000E+00 -0.00000000000E+00 -0.45593999997E+02  0.45594000000E+02  0.51100000000E-03 0. -1.
         23    2    1    2    0    0  0.17763568394E-14 -0.17763568394E-14  0.00000000000E+00  0.91188000000E+02  0.91188000000E+02 0.  0.
    9900012    2    3    3    0    0 -0.15672240133E+02  0.88732535992E+01 -0.32115827257E+02  0.54367080666E+02  0.39999991994E+02 0.  0.
        -12    1    3    3    0    0  0.15672240133E+02 -0.88732535992E+01  0.32115827257E+02  0.36820919334E+02  0.00000000000E+00 0.  1.
         11    1    4    4    0    0  0.18566296878E+00  0.40364401737E+01 -0.23519508090E+00  0.40475470350E+01  0.51100000000E-03 0. -1.
        -11    1    4    4    0    0 -0.13146853481E+02  0.13851388745E+02 -0.22496084616E+01  0.19229182643E+02  0.51100000000E-03 0.  1.
         12    1    4    4    0    0 -0.27110496210E+01 -0.90145753191E+01 -0.29631023714E+02  0.31090350988E+02  0.00000000000E+00 0. -1.
</event>
<event>
 8    1  0.3106980E-007  0.9118800E+02  0.7816164E-02  0.1184000E+00
        -11   -1    0    0    0    0  0.00000000000E+00  0.00000000000E+00  0.45593999997E+02  0.45594000000E+02  0.51100000000E-03 0. -1.
         11   -1    0    0    0    0 -0.00000000000E+00 -0.00000000000E+00 -0.45593999997E+02  0.45594000000E+02  0.51100000000E-03 0.  1.
         23    2    1    2    0    0  0.00000000000E+00  0.00000000000E+00 -0.17763568394E-14  0.91188000000E+02  0.91188000000E+02 0.  0.
    9900012    2    3    3    0    0 -0.30247155081E+02  0.15529612672E+02  0.14132220663E+02  0.54367096683E+02  0.40000028508E+02 0.  0.
        -12    1    3    3    0    0  0.30247155081E+02 -0.15529612672E+02 -0.14132220663E+02  0.36820903317E+02  0.00000000000E+00 0.  1.
         11    1    4    4    0    0 -0.75651301770E+01  0.14344541165E+02  0.15742987083E+02  0.22601741048E+02  0.51100000000E-03 0. -1.
        -11    1    4    4    0    0 -0.19774555084E+02  0.98635126886E+01 -0.36261972791E+01  0.22393553052E+02  0.51100000000E-03 0.  1.
         12    1    4    4    0    0 -0.29074698203E+01 -0.86784411821E+01  0.20154308589E+01  0.93718025830E+01  0.00000000000E+00 0. -1.
</event>
<event>
 8    1  0.3106980E-007  0.9118800E+02  0.7816164E-02  0.1184000E+00
        -11   -1    0    0    0    0  0.00000000000E+00  0.00000000000E+00  0.45593999997E+02  0.45594000000E+02  0.51100000000E-03 0. -1.
         11   -1    0    0    0    0 -0.00000000000E+00 -0.00000000000E+00 -0.45593999997E+02  0.45594000000E+02  0.51100000000E-03 0.  1.
         23    2    1    2    0    0 -0.99920072216E-15  0.00000000000E+00  0.17763568394E-14  0.91188000000E+02  0.91188000000E+02 0.  0.
    9900012    2    3    3    0    0 -0.82958202751E+00 -0.35674346274E+02  0.90792504118E+01  0.54367082352E+02  0.39999995838E+02 0.  0.
        -12    1    3    3    0    0  0.82958202751E+00  0.35674346274E+02 -0.90792504118E+01  0.36820917648E+02  0.00000000000E+00 0.  1.
         11    1    4    4    0    0 -0.95305068049E+01  0.21448200164E+01  0.10987422199E+01  0.98304652783E+01  0.51100000000E-03 0.  1.
        -11    1    4    4    0    0  0.33023161784E+01 -0.13769777230E+02  0.13181580996E+02  0.19345959137E+02  0.51100000000E-03 0. -1.
        -12    1    4    4    0    0  0.53986085990E+01 -0.24049389060E+02 -0.52010728042E+01  0.25190657937E+02  0.00000000000E+00 0.  1.
</event>
<event>
 8    1  0.3106980E-007  0.9118800E+02  0.7816164E-02  0.1184000E+00
        -11   -1    0    0    0    0  0.00000000000E+00  0.00000000000E+00  0.45593999997E+02  0.45594000000E+02  0.51100000000E-03 0.  1.
         11   -1    0    0    0    0 -0.00000000000E+00 -0.00000000000E+00 -0.45593999997E+02  0.45594000000E+02  0.51100000000E-03 0. -1.
         23    2    1    2    0    0 -0.17763568394E-14  0.26645352591E-14  0.00000000000E+00  0.91188000000E+02  0.91188000000E+02 0.  0.
    9900012    2    3    3    0    0 -0.87323931325E+01  0.40511785703E+01  0.35540308497E+02  0.54367078424E+02  0.39999986883E+02 0.  0.
         12    1    3    3    0    0  0.87323931325E+01 -0.40511785703E+01 -0.35540308497E+02  0.36820921576E+02  0.00000000000E+00 0. -1.
         11    1    4    4    0    0  0.11316035720E+01 -0.69977358096E+01  0.88631745378E+01  0.11349215667E+02  0.51100000000E-03 0. -1.
        -11    1    4    4    0    0 -0.86938084110E+00 -0.80668121892E+01 -0.10264458356E+01  0.81781949877E+01  0.51100000000E-03 0.  1.
        -12    1    4    4    0    0 -0.89946158634E+01  0.19115726569E+02  0.27703579795E+02  0.34839667769E+02  0.00000000000E+00 0.  1.
</event>
<event>
 8    1  0.3106980E-007  0.9118800E+02  0.7816164E-02  0.1184000E+00
        -11   -1    0    0    0    0  0.00000000000E+00  0.00000000000E+00  0.45593999997E+02  0.45594000000E+02  0.51100000000E-03 0.  1.
         11   -1    0    0    0    0 -0.00000000000E+00 -0.00000000000E+00 -0.45593999997E+02  0.45594000000E+02  0.51100000000E-03 0. -1.
         23    2    1    2    0    0  0.00000000000E+00  0.88817841970E-15  0.71054273576E-14  0.91188000000E+02  0.91188000000E+02 0.  0.
    9900012    2    3    3    0    0 -0.17152194143E+02 -0.15539313391E+01 -0.32544866058E+02  0.54367071532E+02  0.39999971171E+02 0.  0.
        -12    1    3    3    0    0  0.17152194143E+02  0.15539313391E+01  0.32544866058E+02  0.36820928468E+02  0.00000000000E+00 0.  1.
         11    1    4    4    0    0  0.54166812046E+00 -0.16072561698E+01 -0.28459216619E+02  0.28509712162E+02  0.51100000000E-03 0. -1.
        -11    1    4    4    0    0 -0.18122349093E+00 -0.57813191593E+01 -0.46013421542E+01  0.73911327316E+01  0.51100000000E-03 0.  1.
        -12    1    4    4    0    0 -0.17512638772E+02  0.58346439900E+01  0.51569271499E+00  0.18466226638E+02  0.00000000000E+00 0.  1.
</event>
<event>
 8    1  0.3106980E-007  0.9118800E+02  0.7816164E-02  0.1184000E+00
        -11   -1    0    0    0    0  0.00000000000E+00  0.00000000000E+00  0.45593999997E+02  0.45594000000E+02  0.51100000000E-03 0. -1.
         11   -1    0    0    0    0 -0.00000000000E+00 -0.00000000000E+00 -0.45593999997E+02  0.45594000000E+02  0.51100000000E-03 0.  1.
         23    2    1    2    0    0 -0.17763568394E-14  0.71054273576E-14  0.00000000000E+00  0.91188000000E+02  0.91188000000E+02 0.  0.
    9900012    2    3    3    0    0 -0.23541564170E+01  0.35493796546E+02  0.95094280849E+01  0.54367070243E+02  0.39999968233E+02 0.  0.
        -12    1    3    3    0    0  0.23541564170E+01 -0.35493796546E+02 -0.95094280849E+01  0.36820929757E+02  0.00000000000E+00 0.  1.
         11    1    4    4    0    0  0.62401274104E+01  0.34072508050E+01 -0.82948180714E+01  0.10924859507E+02  0.51100000000E-03 0.  1.
        -11    1    4    4    0    0  0.44057011725E+00  0.21933416455E+02  0.19986586822E+02  0.29677137875E+02  0.51100000000E-03 0. -1.
        -12    1    4    4    0    0 -0.90348539447E+01  0.10153129286E+02 -0.21823406657E+01  0.13765072861E+02  0.00000000000E+00 0.  1.
</event>
<event>
 8    1  0.3106980E-007  0.9118800E+02  0.7816164E-02  0.1184000E+00
        -11   -1    0    0    0    0  0.00000000000E+00  0.00000000000E+00  0.45593999997E+02  0.45594000000E+02  0.51100000000E-03 0. -1.
         11   -1    0    0    0    0 -0.00000000000E+00 -0.00000000000E+00 -0.45593999997E+02  0.45594000000E+02  0.51100000000E-03 0.  1.
         23    2    1    2    0    0  0.35527136788E-14  0.00000000000E+00 -0.71054273576E-14  0.91188000000E+02  0.91188000000E+02 0.  0.
    9900012    2    3    3    0    0  0.25772763102E+02  0.12985283494E+02 -0.22867539843E+02  0.54367118916E+02  0.40000079193E+02 0.  0.
         12    1    3    3    0    0 -0.25772763102E+02 -0.12985283494E+02  0.22867539843E+02  0.36820881084E+02  0.00000000000E+00 0. -1.
         11    1    4    4    0    0  0.21226778547E+01 -0.55715335149E+01 -0.40417048426E+01  0.72029941884E+01  0.51100000000E-03 0. -1.
        -11    1    4    4    0    0  0.29361680537E+02  0.13947949321E+02 -0.21912567476E+02  0.39202221720E+02  0.51100000000E-03 0.  1.
         12    1    4    4    0    0 -0.57115952894E+01  0.46088676888E+01  0.30867324753E+01  0.79619030073E+01  0.00000000000E+00 0. -1.
</event>
<event>
 8    1  0.3106980E-007  0.9118800E+02  0.7816164E-02  0.1184000E+00
        -11   -1    0    0    0    0  0.00000000000E+00  0.00000000000E+00  0.45593999997E+02  0.45594000000E+02  0.51100000000E-03 0. -1.
         11   -1    0    0    0    0 -0.00000000000E+00 -0.00000000000E+00 -0.45593999997E+02  0.45594000000E+02  0.51100000000E-03 0.  1.
         23    2    1    2    0    0  0.35527136788E-14  0.44408920985E-15  0.00000000000E+00  0.91188000000E+02  0.91188000000E+02 0.  0.
    9900012    2    3    3    0    0  0.22837519921E+02  0.23507082252E+01  0.28787181147E+02  0.54367082797E+02  0.39999996851E+02 0.  0.
        -12    1    3    3    0    0 -0.22837519921E+02 -0.23507082252E+01 -0.28787181147E+02  0.36820917203E+02  0.00000000000E+00 0.  1.
         11    1    4    4    0    0  0.12928548374E+02  0.12081374012E+02  0.13554089760E+02  0.22289466359E+02  0.51100000000E-03 0. -1.
        -11    1    4    4    0    0  0.15172765913E+02  0.20646830349E+01  0.81493277491E+01  0.17346102862E+02  0.51100000000E-03 0.  1.
        -12    1    4    4    0    0 -0.52637943657E+01 -0.11795348822E+02  0.70837636381E+01  0.14731513576E+02  0.00000000000E+00 0.  1.
</event>
<event>
 8    1  0.3106980E-007  0.9118800E+02  0.7816164E-02  0.1184000E+00
        -11   -1    0    0    0    0  0.00000000000E+00  0.00000000000E+00  0.45593999997E+02  0.45594000000E+02  0.51100000000E-03 0.  1.
         11   -1    0    0    0    0 -0.00000000000E+00 -0.00000000000E+00 -0.45593999997E+02  0.45594000000E+02  0.51100000000E-03 0. -1.
         23    2    1    2    0    0 -0.35527136788E-14  0.00000000000E+00  0.00000000000E+00  0.91188000000E+02  0.91188000000E+02 0.  0.
    9900012    2    3    3    0    0 -0.27132792120E+02 -0.24607193780E+02  0.37520979893E+01  0.54367073433E+02  0.39999975505E+02 0.  0.
         12    1    3    3    0    0  0.27132792120E+02  0.24607193780E+02 -0.37520979893E+01  0.36820926567E+02  0.00000000000E+00 0. -1.
         11    1    4    4    0    0 -0.10969787241E+02 -0.13019492134E+02  0.30235155825E+01  0.17291184294E+02  0.51100000000E-03 0. -1.
        -11    1    4    4    0    0 -0.79131851379E+01 -0.15577159311E+02  0.12987682414E+02  0.21770307439E+02  0.51100000000E-03 0.  1.
         12    1    4    4    0    0 -0.82498197404E+01  0.39894576655E+01 -0.12259100007E+02  0.15305581701E+02  0.00000000000E+00 0. -1.
</event>
<event>
 8    1  0.3106980E-007  0.9118800E+02  0.7816164E-02  0.1184000E+00
        -11   -1    0    0    0    0  0.00000000000E+00  0.00000000000E+00  0.45593999997E+02  0.45594000000E+02  0.51100000000E-03 0. -1.
         11   -1    0    0    0    0 -0.00000000000E+00 -0.00000000000E+00 -0.45593999997E+02  0.45594000000E+02  0.51100000000E-03 0.  1.
         23    2    1    2    0    0 -0.17763568394E-14  0.00000000000E+00  0.00000000000E+00  0.91188000000E+02  0.91188000000E+02 0.  0.
    9900012    2    3    3    0    0 -0.10630727105E+02  0.34171120315E+02  0.86661488092E+01  0.54367082608E+02  0.39999996422E+02 0.  0.
        -12    1    3    3    0    0  0.10630727105E+02 -0.34171120315E+02 -0.86661488092E+01  0.36820917392E+02  0.00000000000E+00 0.  1.
         11    1    4    4    0    0 -0.10120728883E+02  0.63178257490E+01  0.13322926051E+02  0.17884195093E+02  0.51100000000E-03 0. -1.
        -11    1    4    4    0    0  0.94688561494E+01  0.39901632462E+01 -0.51786580280E+00  0.10288285803E+02  0.51100000000E-03 0.  1.
         12    1    4    4    0    0 -0.99788543714E+01  0.23863131320E+02 -0.41389114389E+01  0.26194601712E+02  0.00000000000E+00 0. -1.
</event>
<event>
 8    1  0.3106980E-007  0.9118800E+02  0.7816164E-02  0.1184000E+00
        -11   -1    0    0    0    0  0.00000000000E+00  0.00000000000E+00  0.45593999997E+02  0.45594000000E+02  0.51100000000E-03 0.  1.
         11   -1    0    0    0    0 -0.00000000000E+00 -0.00000000000E+00 -0.45593999997E+02  0.45594000000E+02  0.51100000000E-03 0. -1.
         23    2    1    2    0    0 -0.17763568394E-14 -0.71054273576E-14  0.00000000000E+00  0.91188000000E+02  0.91188000000E+02 0.  0.
    9900012    2    3    3    0    0 -0.86969346564E+01 -0.29641070985E+02  0.20038681530E+02  0.54367102142E+02  0.40000040954E+02 0.  0.
        -12    1    3    3    0    0  0.86969346564E+01  0.29641070985E+02 -0.20038681530E+02  0.36820897858E+02  0.00000000000E+00 0.  1.
         11    1    4    4    0    0  0.11554656779E+02 -0.11395848659E+02  0.21573079188E+02  0.26995799781E+02  0.51100000000E-03 0.  1.
        -11    1    4    4    0    0 -0.13248773792E+02 -0.10835302832E+02 -0.14356520062E+01  0.17175415319E+02  0.51100000000E-03 0. -1.
        -12    1    4    4    0    0 -0.70028176436E+01 -0.74099194946E+01 -0.98745651458E-01  0.10195887042E+02  0.00000000000E+00 0.  1.
</event>
<event>
 8    1  0.3106980E-007  0.9118800E+02  0.7816164E-02  0.1184000E+00
        -11   -1    0    0    0    0  0.00000000000E+00  0.00000000000E+00  0.45593999997E+02  0.45594000000E+02  0.51100000000E-03 0.  1.
         11   -1    0    0    0    0 -0.00000000000E+00 -0.00000000000E+00 -0.45593999997E+02  0.45594000000E+02  0.51100000000E-03 0. -1.
         23    2    1    2    0    0  0.17763568394E-14 -0.71054273576E-14 -0.35527136788E-14  0.91188000000E+02  0.91188000000E+02 0.  0.
    9900012    2    3    3    0    0 -0.14088992474E+02  0.23981713674E+02  0.24127935834E+02  0.54367087636E+02  0.40000007885E+02 0.  0.
         12    1    3    3    0    0  0.14088992474E+02 -0.23981713674E+02 -0.24127935834E+02  0.36820912364E+02  0.00000000000E+00 0. -1.
         11    1    4    4    0    0 -0.23449275001E+01 -0.75538083736E+00 -0.30301532598E+01  0.39052674978E+01  0.51100000000E-03 0. -1.
        -11    1    4    4    0    0  0.57223756732E+00  0.27735758130E+02  0.25494243521E+02  0.37676998127E+02  0.51100000000E-03 0.  1.
         12    1    4    4    0    0 -0.12316302541E+02 -0.29986636180E+01  0.16638455721E+01  0.12784822012E+02  0.00000000000E+00 0. -1.
</event>
<event>
 8    1  0.3106980E-007  0.9118800E+02  0.7816164E-02  0.1184000E+00
        -11   -1    0    0    0    0  0.00000000000E+00  0.00000000000E+00  0.45593999997E+02  0.45594000000E+02  0.51100000000E-03 0. -1.
         11   -1    0    0    0    0 -0.00000000000E+00 -0.00000000000E+00 -0.45593999997E+02  0.45594000000E+02  0.51100000000E-03 0.  1.
         23    2    1    2    0    0  0.00000000000E+00  0.17763568394E-14 -0.17763568394E-14  0.91188000000E+02  0.91188000000E+02 0.  0.
    9900012    2    3    3    0    0 -0.30954760329E+02 -0.14246173493E+02  0.13950985727E+02  0.54367073219E+02  0.39999975018E+02 0.  0.
         12    1    3    3    0    0  0.30954760329E+02  0.14246173493E+02 -0.13950985727E+02  0.36820926781E+02  0.00000000000E+00 0. -1.
         11    1    4    4    0    0 -0.10973265294E+02 -0.29823943887E+01 -0.53103175424E+01  0.12550167336E+02  0.51100000000E-03 0. -1.
        -11    1    4    4    0    0  0.70242622603E+01  0.15688321721E+01  0.32023848530E+01  0.78776115475E+01  0.51100000000E-03 0.  1.
         12    1    4    4    0    0 -0.27005757296E+02 -0.12832611276E+02  0.16058918417E+02  0.33939294336E+02  0.00000000000E+00 0. -1.
</event>
<event>
 8    1  0.3106980E-007  0.9118800E+02  0.7816164E-02  0.1184000E+00
        -11   -1    0    0    0    0  0.00000000000E+00  0.00000000000E+00  0.45593999997E+02  0.45594000000E+02  0.51100000000E-03 0.  1.
         11   -1    0    0    0    0 -0.00000000000E+00 -0.00000000000E+00 -0.45593999997E+02  0.45594000000E+02  0.51100000000E-03 0. -1.
         23    2    1    2    0    0  0.00000000000E+00  0.00000000000E+00  0.00000000000E+00  0.91188000000E+02  0.91188000000E+02 0.  0.
    9900012    2    3    3    0    0  0.90560840030E+01  0.11568665640E+02  0.33762893762E+02  0.54367086414E+02  0.40000005097E+02 0.  0.
         12    1    3    3    0    0 -0.90560840030E+01 -0.11568665640E+02 -0.33762893762E+02  0.36820913586E+02  0.00000000000E+00 0. -1.
         11    1    4    4    0    0  0.49012518822E+00  0.20388061929E+02  0.26754838600E+02  0.33641264552E+02  0.51100000000E-03 0. -1.
        -11    1    4    4    0    0  0.22997381011E+01  0.12887473328E+01 -0.38204901128E+01  0.46417464369E+01  0.51100000000E-03 0.  1.
        -12    1    4    4    0    0  0.62662207136E+01 -0.10108143621E+02  0.10828545275E+02  0.16084075425E+02  0.00000000000E+00 0.  1.
</event>
<event>
 8    1  0.3106980E-007  0.9118800E+02  0.7816164E-02  0.1184000E+00
        -11   -1    0    0    0    0  0.00000000000E+00  0.00000000000E+00  0.45593999997E+02  0.45594000000E+02  0.51100000000E-03 0. -1.
         11   -1    0    0    0    0 -0.00000000000E+00 -0.00000000000E+00 -0.45593999997E+02  0.45594000000E+02  0.51100000000E-03 0.  1.
         23    2    1    2    0    0  0.35527136788E-14  0.00000000000E+00  0.00000000000E+00  0.91188000000E+02  0.91188000000E+02 0.  0.
    9900012    2    3    3    0    0  0.16915254349E+02  0.15177423804E+02  0.28970662282E+02  0.54367091591E+02  0.40000016899E+02 0.  0.
        -12    1    3    3    0    0 -0.16915254349E+02 -0.15177423804E+02 -0.28970662282E+02  0.36820908409E+02  0.00000000000E+00 0.  1.
         11    1    4    4    0    0  0.14532168726E+02 -0.33650865304E+01  0.34190403426E+00  0.14920611042E+02  0.51100000000E-03 0.  1.
        -11    1    4    4    0    0  0.24084022549E+01 -0.37464724054E+01  0.75678962501E+01  0.87812021283E+01  0.51100000000E-03 0. -1.
         12    1    4    4    0    0 -0.25316631803E-01  0.22288982739E+02  0.21060861998E+02  0.30665278420E+02  0.00000000000E+00 0. -1.
</event>
<event>
 8    1  0.3106980E-007  0.9118800E+02  0.7816164E-02  0.1184000E+00
        -11   -1    0    0    0    0  0.00000000000E+00  0.00000000000E+00  0.45593999997E+02  0.45594000000E+02  0.51100000000E-03 0.  1.
         11   -1    0    0    0    0 -0.00000000000E+00 -0.00000000000E+00 -0.45593999997E+02  0.45594000000E+02  0.51100000000E-03 0. -1.
         23    2    1    2    0    0  0.00000000000E+00 -0.17763568394E-14  0.00000000000E+00  0.91188000000E+02  0.91188000000E+02 0.  0.
    9900012    2    3    3    0    0  0.34979600388E+02  0.10501913629E+02  0.46816177701E+01  0.54367079613E+02  0.39999989594E+02 0.  0.
        -12    1    3    3    0    0 -0.34979600388E+02 -0.10501913629E+02 -0.46816177701E+01  0.36820920387E+02  0.00000000000E+00 0.  1.
         11    1    4    4    0    0 -0.13074414372E+01 -0.20937666890E+01  0.18658998560E+01  0.30943245779E+01  0.51100000000E-03 0. -1.
        -11    1    4    4    0    0 -0.14778826832E+00 -0.57668043667E+01 -0.72343250047E+01  0.92527472953E+01  0.51100000000E-03 0.  1.
        -12    1    4    4    0    0  0.36434830094E+02  0.18362484685E+02  0.10050042919E+02  0.42020007740E+02  0.00000000000E+00 0.  1.
</event>
<event>
 8    1  0.3106980E-007  0.9118800E+02  0.7816164E-02  0.1184000E+00
        -11   -1    0    0    0    0  0.00000000000E+00  0.00000000000E+00  0.45593999997E+02  0.45594000000E+02  0.51100000000E-03 0.  1.
         11   -1    0    0    0    0 -0.00000000000E+00 -0.00000000000E+00 -0.45593999997E+02  0.45594000000E+02  0.51100000000E-03 0. -1.
         23    2    1    2    0    0  0.00000000000E+00  0.00000000000E+00  0.88817841970E-15  0.91188000000E+02  0.91188000000E+02 0.  0.
    9900012    2    3    3    0    0  0.34734880418E+02 -0.11374751888E+02  0.44590697854E+01  0.54367079296E+02  0.39999988871E+02 0.  0.
        -12    1    3    3    0    0 -0.34734880418E+02  0.11374751888E+02 -0.44590697854E+01  0.36820920704E+02  0.00000000000E+00 0.  1.
         11    1    4    4    0    0 -0.23747016554E+01  0.10573815341E+01  0.11924654338E+02  0.12204697661E+02  0.51100000000E-03 0.  1.
        -11    1    4    4    0    0  0.23854794762E+02 -0.85840224176E+00 -0.35135192105E+01  0.24127430552E+02  0.51100000000E-03 0. -1.
        -12    1    4    4    0    0  0.13254787311E+02 -0.11573731180E+02 -0.39520653419E+01  0.18034951083E+02  0.00000000000E+00 0.  1.
</event>
<event>
 8    1  0.3106980E-007  0.9118800E+02  0.7816164E-02  0.1184000E+00
        -11   -1    0    0    0    0  0.00000000000E+00  0.00000000000E+00  0.45593999997E+02  0.45594000000E+02  0.51100000000E-03 0.  1.
         11   -1    0    0    0    0 -0.00000000000E+00 -0.00000000000E+00 -0.45593999997E+02  0.45594000000E+02  0.51100000000E-03 0. -1.
         23    2    1    2    0    0 -0.35527136788E-14 -0.35527136788E-14  0.71054273576E-14  0.91188000000E+02  0.91188000000E+02 0.  0.
    9900012    2    3    3    0    0  0.11063044356E+02  0.19534763079E+02 -0.29185304092E+02  0.54367083472E+02  0.39999998392E+02 0.  0.
        -12    1    3    3    0    0 -0.11063044356E+02 -0.19534763079E+02  0.29185304092E+02  0.36820916528E+02  0.00000000000E+00 0.  1.
         11    1    4    4    0    0  0.13017939195E+02  0.10552054122E+02 -0.36161631436E+02  0.39855691883E+02  0.51100000000E-03 0. -1.
        -11    1    4    4    0    0  0.41221042163E+00  0.91786666296E+01  0.77430367044E+01  0.12015508986E+02  0.51100000000E-03 0.  1.
         12    1    4    4    0    0 -0.23671052611E+01 -0.19595767191E+00 -0.76670936100E+00  0.24958826035E+01  0.00000000000E+00 0. -1.
</event>
<event>
 8    1  0.3106980E-007  0.9118800E+02  0.7816164E-02  0.1184000E+00
        -11   -1    0    0    0    0  0.00000000000E+00  0.00000000000E+00  0.45593999997E+02  0.45594000000E+02  0.51100000000E-03 0.  1.
         11   -1    0    0    0    0 -0.00000000000E+00 -0.00000000000E+00 -0.45593999997E+02  0.45594000000E+02  0.51100000000E-03 0. -1.
         23    2    1    2    0    0  0.17763568394E-14  0.00000000000E+00 -0.17763568394E-14  0.91188000000E+02  0.91188000000E+02 0.  0.
    9900012    2    3    3    0    0  0.66508171733E+01  0.33345098705E+02 -0.14129764878E+02  0.54367092458E+02  0.40000018877E+02 0.  0.
        -12    1    3    3    0    0 -0.66508171733E+01 -0.33345098705E+02  0.14129764878E+02  0.36820907542E+02  0.00000000000E+00 0.  1.
         11    1    4    4    0    0 -0.13088296426E+01  0.13941227815E+02 -0.20950999062E+01  0.14158400754E+02  0.51100000000E-03 0. -1.
        -11    1    4    4    0    0 -0.11969971279E+02  0.64157065884E+01 -0.88456205545E+01  0.16207606446E+02  0.51100000000E-03 0.  1.
        -12    1    4    4    0    0  0.19929618095E+02  0.12988164301E+02 -0.31890444174E+01  0.24001085259E+02  0.00000000000E+00 0.  1.
</event>
<event>
 8    1  0.3106980E-007  0.9118800E+02  0.7816164E-02  0.1184000E+00
        -11   -1    0    0    0    0  0.00000000000E+00  0.00000000000E+00  0.45593999997E+02  0.45594000000E+02  0.51100000000E-03 0. -1.
         11   -1    0    0    0    0 -0.00000000000E+00 -0.00000000000E+00 -0.45593999997E+02  0.45594000000E+02  0.51100000000E-03 0.  1.
         23    2    1    2    0    0  0.00000000000E+00  0.00000000000E+00  0.17763568394E-14  0.91188000000E+02  0.91188000000E+02 0.  0.
    9900012    2    3    3    0    0  0.29322147193E+02 -0.18290207377E+02  0.12706704536E+02  0.54367077387E+02  0.39999984519E+02 0.  0.
         12    1    3    3    0    0 -0.29322147193E+02  0.18290207377E+02 -0.12706704536E+02  0.36820922613E+02  0.00000000000E+00 0. -1.
         11    1    4    4    0    0  0.57012173840E+01 -0.16950829702E+02 -0.32998741877E+00  0.17886961709E+02  0.51100000000E-03 0. -1.
        -11    1    4    4    0    0  0.22986142349E+01  0.20224982094E+01 -0.66147567405E+01  0.72889734123E+01  0.51100000000E-03 0.  1.
        -12    1    4    4    0    0  0.21322315574E+02 -0.33618758852E+01  0.19651448696E+02  0.29191142265E+02  0.00000000000E+00 0.  1.
</event>
<event>
 8    1  0.3106980E-007  0.9118800E+02  0.7816164E-02  0.1184000E+00
        -11   -1    0    0    0    0  0.00000000000E+00  0.00000000000E+00  0.45593999997E+02  0.45594000000E+02  0.51100000000E-03 0. -1.
         11   -1    0    0    0    0 -0.00000000000E+00 -0.00000000000E+00 -0.45593999997E+02  0.45594000000E+02  0.51100000000E-03 0.  1.
         23    2    1    2    0    0  0.17763568394E-14 -0.17763568394E-14  0.00000000000E+00  0.91188000000E+02  0.91188000000E+02 0.  0.
    9900012    2    3    3    0    0 -0.10720596084E+02  0.15866906288E+02  0.31449834452E+02  0.54367055110E+02  0.39999933734E+02 0.  0.
        -12    1    3    3    0    0  0.10720596084E+02 -0.15866906288E+02 -0.31449834452E+02  0.36820944890E+02  0.00000000000E+00 0.  1.
         11    1    4    4    0    0 -0.12507131670E+02 -0.99340297798E+00  0.19289108345E+02  0.23010538740E+02  0.51100000000E-03 0. -1.
        -11    1    4    4    0    0  0.10864686330E+01  0.22254504363E+02  0.13084978915E+02  0.25839118638E+02  0.51100000000E-03 0.  1.
        -12    1    4    4    0    0  0.70006695331E+00 -0.53941950969E+01 -0.92425280738E+00  0.55173977321E+01  0.00000000000E+00 0.  1.
</event>
<event>
 8    1  0.3106980E-007  0.9118800E+02  0.7816164E-02  0.1184000E+00
        -11   -1    0    0    0    0  0.00000000000E+00  0.00000000000E+00  0.45593999997E+02  0.45594000000E+02  0.51100000000E-03 0.  1.
         11   -1    0    0    0    0 -0.00000000000E+00 -0.00000000000E+00 -0.45593999997E+02  0.45594000000E+02  0.51100000000E-03 0. -1.
         23    2    1    2    0    0 -0.17763568394E-14  0.00000000000E+00 -0.17763568394E-14  0.91188000000E+02  0.91188000000E+02 0.  0.
    9900012    2    3    3    0    0  0.14125604989E+02 -0.30286939600E+02  0.15457801138E+02  0.54367149349E+02  0.40000148571E+02 0.  0.
         12    1    3    3    0    0 -0.14125604989E+02  0.30286939600E+02 -0.15457801138E+02  0.36820850651E+02  0.00000000000E+00 0. -1.
         11    1    4    4    0    0  0.12968895758E+02 -0.78135283265E+01  0.34821056867E+01  0.15536040112E+02  0.51100000000E-03 0. -1.
        -11    1    4    4    0    0 -0.29867118969E+01 -0.28781726680E+02  0.11888335430E+02  0.31283234458E+02  0.51100000000E-03 0.  1.
        -12    1    4    4    0    0  0.41434211276E+01  0.63083154063E+01  0.87360021955E-01  0.75478747790E+01  0.00000000000E+00 0.  1.
</event>
<event>
 8    1  0.3106980E-007  0.9118800E+02  0.7816164E-02  0.1184000E+00
        -11   -1    0    0    0    0  0.00000000000E+00  0.00000000000E+00  0.45593999997E+02  0.45594000000E+02  0.51100000000E-03 0. -1.
         11   -1    0    0    0    0 -0.00000000000E+00 -0.00000000000E+00 -0.45593999997E+02  0.45594000000E+02  0.51100000000E-03 0.  1.
         23    2    1    2    0    0 -0.17763568394E-14  0.00000000000E+00  0.00000000000E+00  0.91188000000E+02  0.91188000000E+02 0.  0.
    9900012    2    3    3    0    0 -0.83655343268E+01  0.11720738585E+02 -0.33888318696E+02  0.54367136055E+02  0.40000118265E+02 0.  0.
         12    1    3    3    0    0  0.83655343268E+01 -0.11720738585E+02  0.33888318696E+02  0.36820863945E+02  0.00000000000E+00 0. -1.
         11    1    4    4    0    0 -0.67509196217E+01  0.15295191595E+02 -0.46002080027E+01  0.17340118673E+02  0.51100000000E-03 0. -1.
        -11    1    4    4    0    0 -0.10103131932E+02  0.43449382894E+01 -0.15442931552E+02  0.18958794761E+02  0.51100000000E-03 0.  1.
        -12    1    4    4    0    0  0.84885172272E+01 -0.79193912988E+01 -0.13845179141E+02  0.18068222622E+02  0.00000000000E+00 0.  1.
</event>
<event>
 8    1  0.3106980E-007  0.9118800E+02  0.7816164E-02  0.1184000E+00
        -11   -1    0    0    0    0  0.00000000000E+00  0.00000000000E+00  0.45593999997E+02  0.45594000000E+02  0.51100000000E-03 0. -1.
         11   -1    0    0    0    0 -0.00000000000E+00 -0.00000000000E+00 -0.45593999997E+02  0.45594000000E+02  0.51100000000E-03 0.  1.
         23    2    1    2    0    0  0.00000000000E+00  0.35527136788E-14  0.00000000000E+00  0.91188000000E+02  0.91188000000E+02 0.  0.
    9900012    2    3    3    0    0  0.32952539562E+02  0.14620551239E+02  0.74928551316E+01  0.54367173554E+02  0.40000203752E+02 0.  0.
        -12    1    3    3    0    0 -0.32952539562E+02 -0.14620551239E+02 -0.74928551316E+01  0.36820826446E+02  0.00000000000E+00 0.  1.
         11    1    4    4    0    0  0.27638657397E+02  0.13970821891E+02  0.66095539657E+01  0.31666472031E+02  0.51100000000E-03 0. -1.
        -11    1    4    4    0    0 -0.22015652800E+01  0.10203224030E+02  0.14165136922E+01  0.10533716419E+02  0.51100000000E-03 0.  1.
        -12    1    4    4    0    0  0.75154474447E+01 -0.95534946817E+01 -0.53321252618E+00  0.12166985104E+02  0.00000000000E+00 0.  1.
</event>
<event>
 8    1  0.3106980E-007  0.9118800E+02  0.7816164E-02  0.1184000E+00
        -11   -1    0    0    0    0  0.00000000000E+00  0.00000000000E+00  0.45593999997E+02  0.45594000000E+02  0.51100000000E-03 0. -1.
         11   -1    0    0    0    0 -0.00000000000E+00 -0.00000000000E+00 -0.45593999997E+02  0.45594000000E+02  0.51100000000E-03 0.  1.
         23    2    1    2    0    0  0.00000000000E+00  0.00000000000E+00  0.71054273576E-14  0.91188000000E+02  0.91188000000E+02 0.  0.
    9900012    2    3    3    0    0 -0.16559035954E+02 -0.56274236095E+01  0.32402339150E+02  0.54367066408E+02  0.39999959489E+02 0.  0.
        -12    1    3    3    0    0  0.16559035954E+02  0.56274236095E+01 -0.32402339150E+02  0.36820933592E+02  0.00000000000E+00 0.  1.
         11    1    4    4    0    0  0.37022287514E+01 -0.84602364716E+01 -0.68892659281E+00  0.92604923732E+01  0.51100000000E-03 0. -1.
        -11    1    4    4    0    0 -0.11359505276E+02  0.62869660045E+01  0.27138451484E+01  0.13263832682E+02  0.51100000000E-03 0.  1.
        -12    1    4    4    0    0 -0.89017594294E+01 -0.34541531424E+01  0.30377420595E+02  0.31842741353E+02  0.00000000000E+00 0.  1.
</event>
<event>
 8    1  0.3106980E-007  0.9118800E+02  0.7816164E-02  0.1184000E+00
        -11   -1    0    0    0    0  0.00000000000E+00  0.00000000000E+00  0.45593999997E+02  0.45594000000E+02  0.51100000000E-03 0.  1.
         11   -1    0    0    0    0 -0.00000000000E+00 -0.00000000000E+00 -0.45593999997E+02  0.45594000000E+02  0.51100000000E-03 0. -1.
         23    2    1    2    0    0  0.35527136788E-14  0.00000000000E+00 -0.88817841970E-15  0.91188000000E+02  0.91188000000E+02 0.  0.
    9900012    2    3    3    0    0  0.23898091779E+02 -0.27435705458E+02  0.56516110107E+01  0.54367116908E+02  0.40000074616E+02 0.  0.
         12    1    3    3    0    0 -0.23898091779E+02  0.27435705458E+02 -0.56516110107E+01  0.36820883092E+02  0.00000000000E+00 0. -1.
         11    1    4    4    0    0 -0.88235634668E+01 -0.10238883365E+02 -0.59921601655E+01  0.14784992003E+02  0.51100000000E-03 0. -1.
        -11    1    4    4    0    0  0.11575517705E+02 -0.33470923306E+01  0.68271269926E+01  0.13849379064E+02  0.51100000000E-03 0.  1.
         12    1    4    4    0    0  0.21146137541E+02 -0.13849729762E+02  0.48166441836E+01  0.25732745842E+02  0.00000000000E+00 0. -1.
</event>
<event>
 8    1  0.3106980E-007  0.9118800E+02  0.7816164E-02  0.1184000E+00
        -11   -1    0    0    0    0  0.00000000000E+00  0.00000000000E+00  0.45593999997E+02  0.45594000000E+02  0.51100000000E-03 0.  1.
         11   -1    0    0    0    0 -0.00000000000E+00 -0.00000000000E+00 -0.45593999997E+02  0.45594000000E+02  0.51100000000E-03 0. -1.
         23    2    1    2    0    0  0.00000000000E+00 -0.88817841970E-15 -0.71054273576E-14  0.91188000000E+02  0.91188000000E+02 0.  0.
    9900012    2    3    3    0    0  0.53425955866E+01  0.40260989192E+01 -0.36208105061E+02  0.54367086483E+02  0.40000005256E+02 0.  0.
        -12    1    3    3    0    0 -0.53425955866E+01 -0.40260989192E+01  0.36208105061E+02  0.36820913517E+02  0.00000000000E+00 0.  1.
         11    1    4    4    0    0 -0.19564049364E+01  0.31237866175E+01  0.14977781934E+01  0.39785553765E+01  0.51100000000E-03 0. -1.
        -11    1    4    4    0    0  0.38678694853E+01  0.11863009482E+02 -0.16971574135E+01  0.12592527620E+02  0.51100000000E-03 0.  1.
         12    1    4    4    0    0  0.34311310376E+01 -0.10960697180E+02 -0.36008725841E+02  0.37796003487E+02  0.00000000000E+00 0. -1.
</event>
<event>
 8    1  0.3106980E-007  0.9118800E+02  0.7816164E-02  0.1184000E+00
        -11   -1    0    0    0    0  0.00000000000E+00  0.00000000000E+00  0.45593999997E+02  0.45594000000E+02  0.51100000000E-03 0.  1.
         11   -1    0    0    0    0 -0.00000000000E+00 -0.00000000000E+00 -0.45593999997E+02  0.45594000000E+02  0.51100000000E-03 0. -1.
         23    2    1    2    0    0  0.00000000000E+00  0.00000000000E+00  0.00000000000E+00  0.91188000000E+02  0.91188000000E+02 0.  0.
    9900012    2    3    3    0    0  0.18981217288E+02  0.88920656329E+01  0.30272484675E+02  0.54367098743E+02  0.40000033204E+02 0.  0.
         12    1    3    3    0    0 -0.18981217288E+02 -0.88920656329E+01 -0.30272484675E+02  0.36820901257E+02  0.00000000000E+00 0. -1.
         11    1    4    4    0    0  0.63418100624E-01  0.86390427601E+01 -0.63477205668E+01  0.10720570802E+02  0.51100000000E-03 0. -1.
        -11    1    4    4    0    0  0.15410782823E+02 -0.52122343265E+01  0.19861465765E+02  0.25673672049E+02  0.51100000000E-03 0.  1.
         12    1    4    4    0    0  0.35070163650E+01  0.54652571994E+01  0.16758739477E+02  0.17972855892E+02  0.00000000000E+00 0. -1.
</event>
<event>
 8    1  0.3106980E-007  0.9118800E+02  0.7816164E-02  0.1184000E+00
        -11   -1    0    0    0    0  0.00000000000E+00  0.00000000000E+00  0.45593999997E+02  0.45594000000E+02  0.51100000000E-03 0. -1.
         11   -1    0    0    0    0 -0.00000000000E+00 -0.00000000000E+00 -0.45593999997E+02  0.45594000000E+02  0.51100000000E-03 0.  1.
         23    2    1    2    0    0  0.00000000000E+00  0.00000000000E+00  0.88817841970E-15  0.91188000000E+02  0.91188000000E+02 0.  0.
    9900012    2    3    3    0    0 -0.14848134099E+02 -0.33638239622E+02  0.19446423152E+01  0.54367083596E+02  0.39999998674E+02 0.  0.
        -12    1    3    3    0    0  0.14848134099E+02  0.33638239622E+02 -0.19446423152E+01  0.36820916404E+02  0.00000000000E+00 0.  1.
         11    1    4    4    0    0  0.56389680619E+01 -0.44300794389E+01  0.94028776946E+01  0.11825298044E+02  0.51100000000E-03 0. -1.
        -11    1    4    4    0    0 -0.18070493323E+01 -0.18672332267E+02 -0.94458773132E+01  0.21003476333E+02  0.51100000000E-03 0.  1.
         12    1    4    4    0    0 -0.18680052828E+02 -0.10535827917E+02  0.19876419337E+01  0.21538309219E+02  0.00000000000E+00 0. -1.
</event>
<event>
 8    1  0.3106980E-007  0.9118800E+02  0.7816164E-02  0.1184000E+00
        -11   -1    0    0    0    0  0.00000000000E+00  0.00000000000E+00  0.45593999997E+02  0.45594000000E+02  0.51100000000E-03 0.  1.
         11   -1    0    0    0    0 -0.00000000000E+00 -0.00000000000E+00 -0.45593999997E+02  0.45594000000E+02  0.51100000000E-03 0. -1.
         23    2    1    2    0    0  0.00000000000E+00  0.35527136788E-14  0.00000000000E+00  0.91188000000E+02  0.91188000000E+02 0.  0.
    9900012    2    3    3    0    0 -0.27189639561E+02  0.22888307265E+02  0.96244060749E+01  0.54367077942E+02  0.39999985784E+02 0.  0.
         12    1    3    3    0    0  0.27189639561E+02 -0.22888307265E+02 -0.96244060749E+01  0.36820922058E+02  0.00000000000E+00 0. -1.
         11    1    4    4    0    0 -0.91749324341E+01  0.28633896850E+01 -0.68750290178E+00  0.96359247693E+01  0.51100000000E-03 0. -1.
        -11    1    4    4    0    0 -0.17549786875E+02 -0.10322496103E+00 -0.62820936100E+01  0.18640557264E+02  0.51100000000E-03 0.  1.
         12    1    4    4    0    0 -0.46492025264E+00  0.20128142541E+02  0.16594002587E+02  0.26090595908E+02  0.00000000000E+00 0. -1.
</event>
<event>
 8    1  0.3106980E-007  0.9118800E+02  0.7816164E-02  0.1184000E+00
        -11   -1    0    0    0    0  0.00000000000E+00  0.00000000000E+00  0.45593999997E+02  0.45594000000E+02  0.51100000000E-03 0.  1.
         11   -1    0    0    0    0 -0.00000000000E+00 -0.00000000000E+00 -0.45593999997E+02  0.45594000000E+02  0.51100000000E-03 0. -1.
         23    2    1    2    0    0  0.00000000000E+00  0.00000000000E+00  0.00000000000E+00  0.91188000000E+02  0.91188000000E+02 0.  0.
    9900012    2    3    3    0    0 -0.17513038771E+02  0.28949406285E+01  0.32259760303E+02  0.54367090954E+02  0.40000015447E+02 0.  0.
         12    1    3    3    0    0  0.17513038771E+02 -0.28949406285E+01 -0.32259760303E+02  0.36820909046E+02  0.00000000000E+00 0. -1.
         11    1    4    4    0    0 -0.13268921848E+02 -0.11321138983E+02  0.23775686061E+02  0.29487551997E+02  0.51100000000E-03 0. -1.
        -11    1    4    4    0    0 -0.10290768979E+02  0.37256070086E+01  0.61309368523E+01  0.12544658653E+02  0.51100000000E-03 0.  1.
         12    1    4    4    0    0  0.60466520569E+01  0.10490472603E+02  0.23531373898E+01  0.12334880303E+02  0.00000000000E+00 0. -1.
</event>
<event>
 8    1  0.3106980E-007  0.9118800E+02  0.7816164E-02  0.1184000E+00
        -11   -1    0    0    0    0  0.00000000000E+00  0.00000000000E+00  0.45593999997E+02  0.45594000000E+02  0.51100000000E-03 0. -1.
         11   -1    0    0    0    0 -0.00000000000E+00 -0.00000000000E+00 -0.45593999997E+02  0.45594000000E+02  0.51100000000E-03 0.  1.
         23    2    1    2    0    0 -0.35527136788E-14  0.00000000000E+00 -0.17763568394E-14  0.91188000000E+02  0.91188000000E+02 0.  0.
    9900012    2    3    3    0    0 -0.25933579137E+02  0.21029389584E+02 -0.15524083549E+02  0.54367042338E+02  0.39999904618E+02 0.  0.
         12    1    3    3    0    0  0.25933579137E+02 -0.21029389584E+02  0.15524083549E+02  0.36820957662E+02  0.00000000000E+00 0. -1.
         11    1    4    4    0    0 -0.11047927974E+01  0.22003630423E+02 -0.44676580991E+01  0.22479775090E+02  0.51100000000E-03 0. -1.
        -11    1    4    4    0    0 -0.78660975216E+01 -0.36454910246E+01 -0.11866753691E+02  0.14696426044E+02  0.51100000000E-03 0.  1.
        -12    1    4    4    0    0 -0.16962688818E+02  0.26712501850E+01  0.81032824099E+00  0.17190841205E+02  0.00000000000E+00 0.  1.
</event>
<event>
 8    1  0.3106980E-007  0.9118800E+02  0.7816164E-02  0.1184000E+00
        -11   -1    0    0    0    0  0.00000000000E+00  0.00000000000E+00  0.45593999997E+02  0.45594000000E+02  0.51100000000E-03 0. -1.
         11   -1    0    0    0    0 -0.00000000000E+00 -0.00000000000E+00 -0.45593999997E+02  0.45594000000E+02  0.51100000000E-03 0.  1.
         23    2    1    2    0    0 -0.35527136788E-14  0.00000000000E+00  0.35527136788E-14  0.91188000000E+02  0.91188000000E+02 0.  0.
    9900012    2    3    3    0    0  0.16802103336E+02 -0.10059972330E+02  0.31181180545E+02  0.54367085563E+02  0.40000003158E+02 0.  0.
        -12    1    3    3    0    0 -0.16802103336E+02  0.10059972330E+02 -0.31181180545E+02  0.36820914437E+02  0.00000000000E+00 0.  1.
         11    1    4    4    0    0 -0.38663660402E+00  0.49691827053E+01  0.26998351524E+02  0.27454567014E+02  0.51100000000E-03 0. -1.
        -11    1    4    4    0    0  0.22016550837E+01 -0.10585173405E+02  0.30786504038E+01  0.11241497662E+02  0.51100000000E-03 0.  1.
         12    1    4    4    0    0  0.14987084857E+02 -0.44439816297E+01  0.11041786168E+01  0.15671020887E+02  0.00000000000E+00 0. -1.
</event>
<event>
 8    1  0.3106980E-007  0.9118800E+02  0.7816164E-02  0.1184000E+00
        -11   -1    0    0    0    0  0.00000000000E+00  0.00000000000E+00  0.45593999997E+02  0.45594000000E+02  0.51100000000E-03 0. -1.
         11   -1    0    0    0    0 -0.00000000000E+00 -0.00000000000E+00 -0.45593999997E+02  0.45594000000E+02  0.51100000000E-03 0.  1.
         23    2    1    2    0    0 -0.53290705182E-14  0.00000000000E+00 -0.35527136788E-14  0.91188000000E+02  0.91188000000E+02 0.  0.
    9900012    2    3    3    0    0 -0.14547837346E+02 -0.11449024694E+02  0.31828632599E+02  0.54367060428E+02  0.39999945857E+02 0.  0.
        -12    1    3    3    0    0  0.14547837346E+02  0.11449024694E+02 -0.31828632599E+02  0.36820939572E+02  0.00000000000E+00 0.  1.
         11    1    4    4    0    0 -0.14845700176E+02  0.53737486649E+01  0.18663226830E+02  0.24445613602E+02  0.51100000000E-03 0. -1.
        -11    1    4    4    0    0 -0.10028150398E+02 -0.55494414758E+01  0.70499648944E+01  0.13455932014E+02  0.51100000000E-03 0.  1.
         12    1    4    4    0    0  0.10326013228E+02 -0.11273331883E+02  0.61154408743E+01  0.16465514811E+02  0.00000000000E+00 0. -1.
</event>
<event>
 8    1  0.3106980E-007  0.9118800E+02  0.7816164E-02  0.1184000E+00
        -11   -1    0    0    0    0  0.00000000000E+00  0.00000000000E+00  0.45593999997E+02  0.45594000000E+02  0.51100000000E-03 0. -1.
         11   -1    0    0    0    0 -0.00000000000E+00 -0.00000000000E+00 -0.45593999997E+02  0.45594000000E+02  0.51100000000E-03 0.  1.
         23    2    1    2    0    0  0.00000000000E+00  0.00000000000E+00  0.00000000000E+00  0.91188000000E+02  0.91188000000E+02 0.  0.
    9900012    2    3    3    0    0  0.14638049039E+02  0.10619791715E+02  0.32073751299E+02  0.54367109487E+02  0.40000057698E+02 0.  0.
        -12    1    3    3    0    0 -0.14638049039E+02 -0.10619791715E+02 -0.32073751299E+02  0.36820890513E+02  0.00000000000E+00 0.  1.
         11    1    4    4    0    0  0.46764967060E+01 -0.85984583747E+01 -0.41265082956E+00  0.97966008815E+01  0.51100000000E-03 0.  1.
        -11    1    4    4    0    0  0.16080326578E+02  0.10116518698E+02  0.24503725592E+02  0.31005699824E+02  0.51100000000E-03 0. -1.
         12    1    4    4    0    0 -0.61187742453E+01  0.91017313923E+01  0.79826765367E+01  0.13564808782E+02  0.00000000000E+00 0. -1.
</event>
<event>
 8    1  0.3106980E-007  0.9118800E+02  0.7816164E-02  0.1184000E+00
        -11   -1    0    0    0    0  0.00000000000E+00  0.00000000000E+00  0.45593999997E+02  0.45594000000E+02  0.51100000000E-03 0. -1.
         11   -1    0    0    0    0 -0.00000000000E+00 -0.00000000000E+00 -0.45593999997E+02  0.45594000000E+02  0.51100000000E-03 0.  1.
         23    2    1    2    0    0  0.00000000000E+00  0.00000000000E+00  0.00000000000E+00  0.91188000000E+02  0.91188000000E+02 0.  0.
    9900012    2    3    3    0    0  0.20371024081E+02  0.24122089788E+02  0.18945354528E+02  0.54367078012E+02  0.39999985943E+02 0.  0.
        -12    1    3    3    0    0 -0.20371024081E+02 -0.24122089788E+02 -0.18945354528E+02  0.36820921988E+02  0.00000000000E+00 0.  1.
         11    1    4    4    0    0  0.28883589517E+02  0.47410644804E+01  0.11647191123E+02  0.31502325265E+02  0.51100000000E-03 0.  1.
        -11    1    4    4    0    0 -0.21742135197E+01  0.13653720134E+01  0.99305764627E+00  0.27527457046E+01  0.51100000000E-03 0. -1.
        -12    1    4    4    0    0 -0.63383519157E+01  0.18015653295E+02  0.63051057585E+01  0.20112007042E+02  0.00000000000E+00 0.  1.
</event>
<event>
 8    1  0.3106980E-007  0.9118800E+02  0.7816164E-02  0.1184000E+00
        -11   -1    0    0    0    0  0.00000000000E+00  0.00000000000E+00  0.45593999997E+02  0.45594000000E+02  0.51100000000E-03 0.  1.
         11   -1    0    0    0    0 -0.00000000000E+00 -0.00000000000E+00 -0.45593999997E+02  0.45594000000E+02  0.51100000000E-03 0. -1.
         23    2    1    2    0    0  0.00000000000E+00 -0.11657341759E-14  0.16653345369E-15  0.91188000000E+02  0.91188000000E+02 0.  0.
    9900012    2    3    3    0    0 -0.36816872186E+02  0.27427732928E+00  0.47196812280E+00  0.54367081224E+02  0.39999993267E+02 0.  0.
        -12    1    3    3    0    0  0.36816872186E+02 -0.27427732928E+00 -0.47196812280E+00  0.36820918776E+02  0.00000000000E+00 0.  1.
         11    1    4    4    0    0 -0.19537918088E+02 -0.15534393942E+02 -0.23631792279E+01  0.25072539854E+02  0.51100000000E-03 0. -1.
        -11    1    4    4    0    0 -0.76565590243E+01  0.15302850517E+02 -0.38850314503E+01  0.17546897152E+02  0.51100000000E-03 0.  1.
        -12    1    4    4    0    0 -0.96223950727E+01  0.50582075495E+00  0.67201788010E+01  0.11747644219E+02  0.00000000000E+00 0.  1.
</event>
<event>
 8    1  0.3106980E-007  0.9118800E+02  0.7816164E-02  0.1184000E+00
        -11   -1    0    0    0    0  0.00000000000E+00  0.00000000000E+00  0.45593999997E+02  0.45594000000E+02  0.51100000000E-03 0. -1.
         11   -1    0    0    0    0 -0.00000000000E+00 -0.00000000000E+00 -0.45593999997E+02  0.45594000000E+02  0.51100000000E-03 0.  1.
         23    2    1    2    0    0  0.00000000000E+00  0.00000000000E+00  0.00000000000E+00  0.91188000000E+02  0.91188000000E+02 0.  0.
    9900012    2    3    3    0    0 -0.47354792391E+01 -0.19712799148E+02 -0.30736988489E+02  0.54367059284E+02  0.39999943249E+02 0.  0.
         12    1    3    3    0    0  0.47354792391E+01  0.19712799148E+02  0.30736988489E+02  0.36820940716E+02  0.00000000000E+00 0. -1.
         11    1    4    4    0    0  0.34219032747E+01  0.77044955260E+00  0.79767271204E+01  0.87138504893E+01  0.51100000000E-03 0. -1.
        -11    1    4    4    0    0 -0.47887965209E+01 -0.20045765579E+02 -0.31014506224E+02  0.37237949546E+02  0.51100000000E-03 0.  1.
        -12    1    4    4    0    0 -0.33685859930E+01 -0.43748312187E+00 -0.76992093848E+01  0.84152592488E+01  0.00000000000E+00 0.  1.
</event>
<event>
 8    1  0.3106980E-007  0.9118800E+02  0.7816164E-02  0.1184000E+00
        -11   -1    0    0    0    0  0.00000000000E+00  0.00000000000E+00  0.45593999997E+02  0.45594000000E+02  0.51100000000E-03 0. -1.
         11   -1    0    0    0    0 -0.00000000000E+00 -0.00000000000E+00 -0.45593999997E+02  0.45594000000E+02  0.51100000000E-03 0.  1.
         23    2    1    2    0    0  0.17763568394E-14  0.00000000000E+00  0.17763568394E-14  0.91188000000E+02  0.91188000000E+02 0.  0.
    9900012    2    3    3    0    0 -0.11162301928E+02 -0.34213326969E+02 -0.77866228226E+01  0.54367079023E+02  0.39999988249E+02 0.  0.
         12    1    3    3    0    0  0.11162301928E+02  0.34213326969E+02  0.77866228226E+01  0.36820920977E+02  0.00000000000E+00 0. -1.
         11    1    4    4    0    0  0.19088640644E+01 -0.14544272750E+01  0.11622338930E+02  0.11867513774E+02  0.51100000000E-03 0. -1.
        -11    1    4    4    0    0 -0.97883852794E+01 -0.79815530862E+01 -0.85301160392E+01  0.15240753129E+02  0.51100000000E-03 0.  1.
         12    1    4    4    0    0 -0.32827807128E+01 -0.24777346607E+02 -0.10878845714E+02  0.27258812120E+02  0.00000000000E+00 0. -1.
</event>
<event>
 8    1  0.3106980E-007  0.9118800E+02  0.7816164E-02  0.1184000E+00
        -11   -1    0    0    0    0  0.00000000000E+00  0.00000000000E+00  0.45593999997E+02  0.45594000000E+02  0.51100000000E-03 0.  1.
         11   -1    0    0    0    0 -0.00000000000E+00 -0.00000000000E+00 -0.45593999997E+02  0.45594000000E+02  0.51100000000E-03 0. -1.
         23    2    1    2    0    0  0.00000000000E+00  0.00000000000E+00  0.00000000000E+00  0.91188000000E+02  0.91188000000E+02 0.  0.
    9900012    2    3    3    0    0  0.33168699167E+02 -0.78185704425E+01 -0.13946229878E+02  0.54366946566E+02  0.39999686285E+02 0.  0.
        -12    1    3    3    0    0 -0.33168699167E+02  0.78185704425E+01  0.13946229878E+02  0.36821053434E+02  0.00000000000E+00 0.  1.
         11    1    4    4    0    0  0.22349342653E+01  0.59105629736E+01 -0.99455105535E+01  0.11783160284E+02  0.51100000000E-03 0. -1.
        -11    1    4    4    0    0  0.34085760633E+02 -0.16521704677E+02 -0.20268657665E+01  0.37933019764E+02  0.51100000000E-03 0.  1.
        -12    1    4    4    0    0 -0.31519957317E+01  0.27925712604E+01 -0.19738535583E+01  0.46507665182E+01  0.00000000000E+00 0.  1.
</event>
<event>
 8    1  0.3106980E-007  0.9118800E+02  0.7816164E-02  0.1184000E+00
        -11   -1    0    0    0    0  0.00000000000E+00  0.00000000000E+00  0.45593999997E+02  0.45594000000E+02  0.51100000000E-03 0. -1.
         11   -1    0    0    0    0 -0.00000000000E+00 -0.00000000000E+00 -0.45593999997E+02  0.45594000000E+02  0.51100000000E-03 0.  1.
         23    2    1    2    0    0 -0.44408920985E-15  0.00000000000E+00  0.00000000000E+00  0.91188000000E+02  0.91188000000E+02 0.  0.
    9900012    2    3    3    0    0 -0.33121314333E+01 -0.32421511436E+02 -0.17136325071E+02  0.54367105722E+02  0.40000049115E+02 0.  0.
         12    1    3    3    0    0  0.33121314333E+01  0.32421511436E+02  0.17136325071E+02  0.36820894278E+02  0.00000000000E+00 0. -1.
         11    1    4    4    0    0  0.46563494800E+00 -0.24897619547E+02  0.21226288408E+01  0.24992275376E+02  0.51100000000E-03 0. -1.
        -11    1    4    4    0    0  0.33003286606E+01 -0.19931653334E+01 -0.19993807685E+02  0.20362151736E+02  0.51100000000E-03 0.  1.
        -12    1    4    4    0    0 -0.70780950419E+01 -0.55307265556E+01  0.73485377312E+00  0.90126786097E+01  0.00000000000E+00 0.  1.
</event>
<event>
 8    1  0.3106980E-007  0.9118800E+02  0.7816164E-02  0.1184000E+00
        -11   -1    0    0    0    0  0.00000000000E+00  0.00000000000E+00  0.45593999997E+02  0.45594000000E+02  0.51100000000E-03 0.  1.
         11   -1    0    0    0    0 -0.00000000000E+00 -0.00000000000E+00 -0.45593999997E+02  0.45594000000E+02  0.51100000000E-03 0. -1.
         23    2    1    2    0    0  0.00000000000E+00  0.44408920985E-15  0.00000000000E+00  0.91188000000E+02  0.91188000000E+02 0.  0.
    9900012    2    3    3    0    0  0.35714598216E+02  0.21927444293E+01  0.86855593594E+01  0.54367087528E+02  0.40000007637E+02 0.  0.
         12    1    3    3    0    0 -0.35714598216E+02 -0.21927444293E+01 -0.86855593594E+01  0.36820912472E+02  0.00000000000E+00 0. -1.
         11    1    4    4    0    0 -0.64979298940E+01  0.99283702867E-01  0.41989456823E+00  0.65122393898E+01  0.51100000000E-03 0. -1.
        -11    1    4    4    0    0 -0.22531554963E+01 -0.11273317025E+01  0.85742956833E+00  0.26613478134E+01  0.51100000000E-03 0.  1.
        -12    1    4    4    0    0  0.44465683607E+02  0.32207924289E+01  0.74082352228E+01  0.45193500325E+02  0.00000000000E+00 0.  1.
</event>
<event>
 8    1  0.3106980E-007  0.9118800E+02  0.7816164E-02  0.1184000E+00
        -11   -1    0    0    0    0  0.00000000000E+00  0.00000000000E+00  0.45593999997E+02  0.45594000000E+02  0.51100000000E-03 0.  1.
         11   -1    0    0    0    0 -0.00000000000E+00 -0.00000000000E+00 -0.45593999997E+02  0.45594000000E+02  0.51100000000E-03 0. -1.
         23    2    1    2    0    0 -0.88817841970E-15  0.00000000000E+00  0.00000000000E+00  0.91188000000E+02  0.91188000000E+02 0.  0.
    9900012    2    3    3    0    0  0.48616185340E+01  0.42115234972E+01  0.36254761353E+02  0.54367082226E+02  0.39999995550E+02 0.  0.
         12    1    3    3    0    0 -0.48616185340E+01 -0.42115234972E+01 -0.36254761353E+02  0.36820917774E+02  0.00000000000E+00 0. -1.
         11    1    4    4    0    0  0.12553790990E+02 -0.10895186575E+01  0.92835393436E+01  0.15651479870E+02  0.51100000000E-03 0.  1.
        -11    1    4    4    0    0  0.19379954111E+01 -0.60549461917E+01 -0.15481901824E+01  0.65433242851E+01  0.51100000000E-03 0. -1.
        -12    1    4    4    0    0 -0.96301678669E+01  0.11355988346E+02  0.28519412192E+02  0.32172278071E+02  0.00000000000E+00 0.  1.
</event>
<event>
 8    1  0.3106980E-007  0.9118800E+02  0.7816164E-02  0.1184000E+00
        -11   -1    0    0    0    0  0.00000000000E+00  0.00000000000E+00  0.45593999997E+02  0.45594000000E+02  0.51100000000E-03 0.  1.
         11   -1    0    0    0    0 -0.00000000000E+00 -0.00000000000E+00 -0.45593999997E+02  0.45594000000E+02  0.51100000000E-03 0. -1.
         23    2    1    2    0    0  0.00000000000E+00 -0.88817841970E-15  0.00000000000E+00  0.91188000000E+02  0.91188000000E+02 0.  0.
    9900012    2    3    3    0    0  0.32534625016E+02 -0.19568291895E+01  0.17130335448E+02  0.54367090207E+02  0.40000013744E+02 0.  0.
         12    1    3    3    0    0 -0.32534625016E+02  0.19568291895E+01 -0.17130335448E+02  0.36820909793E+02  0.00000000000E+00 0. -1.
         11    1    4    4    0    0  0.11838048825E+02  0.12084912682E+02  0.80324876435E+01  0.18727129319E+02  0.51100000000E-03 0. -1.
        -11    1    4    4    0    0  0.18615046230E+02 -0.95947248641E+01 -0.42925969358E+01  0.21377677144E+02  0.51100000000E-03 0.  1.
         12    1    4    4    0    0  0.20815299617E+01 -0.44470170075E+01  0.13390444741E+02  0.14262283744E+02  0.00000000000E+00 0. -1.
</event>
<event>
 8    1  0.3106980E-007  0.9118800E+02  0.7816164E-02  0.1184000E+00
        -11   -1    0    0    0    0  0.00000000000E+00  0.00000000000E+00  0.45593999997E+02  0.45594000000E+02  0.51100000000E-03 0. -1.
         11   -1    0    0    0    0 -0.00000000000E+00 -0.00000000000E+00 -0.45593999997E+02  0.45594000000E+02  0.51100000000E-03 0.  1.
         23    2    1    2    0    0  0.71054273576E-14 -0.13322676296E-14 -0.17763568394E-14  0.91188000000E+02  0.91188000000E+02 0.  0.
    9900012    2    3    3    0    0 -0.33289974828E+02 -0.25290049846E+01  0.15529473766E+02  0.54367043390E+02  0.39999907016E+02 0.  0.
        -12    1    3    3    0    0  0.33289974828E+02  0.25290049846E+01 -0.15529473766E+02  0.36820956610E+02  0.00000000000E+00 0.  1.
         11    1    4    4    0    0 -0.20479168866E+02 -0.14506671851E+02 -0.52306395430E+01  0.25635902089E+02  0.51100000000E-03 0. -1.
        -11    1    4    4    0    0 -0.14304058188E+02  0.10656318036E+02  0.19129837204E+02  0.26155570467E+02  0.51100000000E-03 0.  1.
         12    1    4    4    0    0  0.14932522266E+01  0.13213488307E+01  0.16302761043E+01  0.25755708340E+01  0.00000000000E+00 0. -1.
</event>
<event>
 8    1  0.3106980E-007  0.9118800E+02  0.7816164E-02  0.1184000E+00
        -11   -1    0    0    0    0  0.00000000000E+00  0.00000000000E+00  0.45593999997E+02  0.45594000000E+02  0.51100000000E-03 0.  1.
         11   -1    0    0    0    0 -0.00000000000E+00 -0.00000000000E+00 -0.45593999997E+02  0.45594000000E+02  0.51100000000E-03 0. -1.
         23    2    1    2    0    0  0.00000000000E+00  0.00000000000E+00  0.00000000000E+00  0.91188000000E+02  0.91188000000E+02 0.  0.
    9900012    2    3    3    0    0  0.26027349903E+02 -0.18654990570E+02 -0.18175481837E+02  0.54367085343E+02  0.40000002657E+02 0.  0.
        -12    1    3    3    0    0 -0.26027349903E+02  0.18654990570E+02  0.18175481837E+02  0.36820914657E+02  0.00000000000E+00 0.  1.
         11    1    4    4    0    0  0.17389212337E+02 -0.97887404427E+01 -0.18061355710E+02  0.26914990535E+02  0.51100000000E-03 0. -1.
        -11    1    4    4    0    0 -0.35578167143E+01 -0.12179330130E+02 -0.53530236700E+01  0.13771310935E+02  0.51100000000E-03 0.  1.
         12    1    4    4    0    0  0.12195954281E+02  0.33130800034E+01  0.52388975432E+01  0.13680783873E+02  0.00000000000E+00 0. -1.
</event>
<event>
 8    1  0.3106980E-007  0.9118800E+02  0.7816164E-02  0.1184000E+00
        -11   -1    0    0    0    0  0.00000000000E+00  0.00000000000E+00  0.45593999997E+02  0.45594000000E+02  0.51100000000E-03 0. -1.
         11   -1    0    0    0    0 -0.00000000000E+00 -0.00000000000E+00 -0.45593999997E+02  0.45594000000E+02  0.51100000000E-03 0.  1.
         23    2    1    2    0    0  0.17763568394E-14  0.00000000000E+00  0.00000000000E+00  0.91188000000E+02  0.91188000000E+02 0.  0.
    9900012    2    3    3    0    0  0.52687216976E+01  0.12517509533E+02 -0.34224721901E+02  0.54367094763E+02  0.40000024132E+02 0.  0.
         12    1    3    3    0    0 -0.52687216976E+01 -0.12517509533E+02  0.34224721901E+02  0.36820905237E+02  0.00000000000E+00 0. -1.
         11    1    4    4    0    0  0.15019063655E+02  0.15041829416E+02 -0.10193525812E+02  0.23574072071E+02  0.51100000000E-03 0. -1.
        -11    1    4    4    0    0  0.10629481457E+00 -0.79121678650E+01 -0.11558629210E+02  0.14007698183E+02  0.51100000000E-03 0.  1.
        -12    1    4    4    0    0 -0.98566367718E+01  0.53878479815E+01 -0.12472566879E+02  0.16785324509E+02  0.00000000000E+00 0.  1.
</event>
<event>
 8    1  0.3106980E-007  0.9118800E+02  0.7816164E-02  0.1184000E+00
        -11   -1    0    0    0    0  0.00000000000E+00  0.00000000000E+00  0.45593999997E+02  0.45594000000E+02  0.51100000000E-03 0.  1.
         11   -1    0    0    0    0 -0.00000000000E+00 -0.00000000000E+00 -0.45593999997E+02  0.45594000000E+02  0.51100000000E-03 0. -1.
         23    2    1    2    0    0  0.00000000000E+00  0.00000000000E+00  0.22724877535E-14  0.91188000000E+02  0.91188000000E+02 0.  0.
    9900012    2    3    3    0    0 -0.10115354619E+02 -0.35404233867E+02 -0.21993273533E-01  0.54367073090E+02  0.39999974724E+02 0.  0.
         12    1    3    3    0    0  0.10115354619E+02  0.35404233867E+02  0.21993273533E-01  0.36820926910E+02  0.00000000000E+00 0. -1.
         11    1    4    4    0    0 -0.29406230571E+01 -0.24758980240E+01 -0.41187294182E+01  0.56339388771E+01  0.51100000000E-03 0. -1.
        -11    1    4    4    0    0  0.90259691166E+01 -0.12690502969E+02  0.14040455878E+02  0.20967865548E+02  0.51100000000E-03 0.  1.
        -12    1    4    4    0    0 -0.16200700678E+02 -0.20237832874E+02 -0.99437197339E+01  0.27765268665E+02  0.00000000000E+00 0.  1.
</event>
<event>
 8    1  0.3106980E-007  0.9118800E+02  0.7816164E-02  0.1184000E+00
        -11   -1    0    0    0    0  0.00000000000E+00  0.00000000000E+00  0.45593999997E+02  0.45594000000E+02  0.51100000000E-03 0.  1.
         11   -1    0    0    0    0 -0.00000000000E+00 -0.00000000000E+00 -0.45593999997E+02  0.45594000000E+02  0.51100000000E-03 0. -1.
         23    2    1    2    0    0  0.00000000000E+00  0.35527136788E-14  0.17763568394E-14  0.91188000000E+02  0.91188000000E+02 0.  0.
    9900012    2    3    3    0    0  0.29880371312E+02 -0.17136540391E+02 -0.13010826019E+02  0.54367092895E+02  0.40000019873E+02 0.  0.
        -12    1    3    3    0    0 -0.29880371312E+02  0.17136540391E+02  0.13010826019E+02  0.36820907105E+02  0.00000000000E+00 0.  1.
         11    1    4    4    0    0  0.20402366455E+01  0.69312293507E+01 -0.10180502480E+02  0.12483875075E+02  0.51100000000E-03 0. -1.
        -11    1    4    4    0    0  0.55293860172E+01  0.14062509399E+01  0.44632441268E+01  0.72437697251E+01  0.51100000000E-03 0.  1.
         12    1    4    4    0    0  0.22310748649E+02 -0.25474020682E+02 -0.72935676656E+01  0.34639448095E+02  0.00000000000E+00 0. -1.
</event>
<event>
 8    1  0.3106980E-007  0.9118800E+02  0.7816164E-02  0.1184000E+00
        -11   -1    0    0    0    0  0.00000000000E+00  0.00000000000E+00  0.45593999997E+02  0.45594000000E+02  0.51100000000E-03 0.  1.
         11   -1    0    0    0    0 -0.00000000000E+00 -0.00000000000E+00 -0.45593999997E+02  0.45594000000E+02  0.51100000000E-03 0. -1.
         23    2    1    2    0    0  0.00000000000E+00  0.26645352591E-14  0.71054273576E-14  0.91188000000E+02  0.91188000000E+02 0.  0.
    9900012    2    3    3    0    0  0.16049383303E+02 -0.51423038917E+01  0.32737643615E+02  0.54367091495E+02  0.40000016680E+02 0.  0.
         12    1    3    3    0    0 -0.16049383303E+02  0.51423038917E+01 -0.32737643615E+02  0.36820908505E+02  0.00000000000E+00 0. -1.
         11    1    4    4    0    0 -0.34001990041E+01  0.14092499354E+01 -0.33254276097E+01  0.49604241448E+01  0.51100000000E-03 0. -1.
        -11    1    4    4    0    0  0.14886001236E+02  0.90961505031E+01  0.19614278088E+02  0.26249816989E+02  0.51100000000E-03 0.  1.
         12    1    4    4    0    0  0.45635810707E+01 -0.15647704330E+02  0.16448793137E+02  0.23156850361E+02  0.00000000000E+00 0. -1.
</event>
<event>
 8    1  0.3106980E-007  0.9118800E+02  0.7816164E-02  0.1184000E+00
        -11   -1    0    0    0    0  0.00000000000E+00  0.00000000000E+00  0.45593999997E+02  0.45594000000E+02  0.51100000000E-03 0.  1.
         11   -1    0    0    0    0 -0.00000000000E+00 -0.00000000000E+00 -0.45593999997E+02  0.45594000000E+02  0.51100000000E-03 0. -1.
         23    2    1    2    0    0  0.00000000000E+00 -0.88817841970E-15  0.00000000000E+00  0.91188000000E+02  0.91188000000E+02 0.  0.
    9900012    2    3    3    0    0  0.32035878194E+02  0.27151242355E+01  0.17947410131E+02  0.54367096675E+02  0.40000028490E+02 0.  0.
        -12    1    3    3    0    0 -0.32035878194E+02 -0.27151242355E+01 -0.17947410131E+02  0.36820903325E+02  0.00000000000E+00 0.  1.
         11    1    4    4    0    0  0.27414452852E+02 -0.81145280266E+01  0.63510133343E+00  0.28597222666E+02  0.51100000000E-03 0. -1.
        -11    1    4    4    0    0  0.29265278188E+01  0.12724419197E+02  0.18750873691E+02  0.22848865911E+02  0.51100000000E-03 0.  1.
        -12    1    4    4    0    0  0.16948975233E+01 -0.18947669352E+01 -0.14385648939E+01  0.29210080978E+01  0.00000000000E+00 0.  1.
</event>
<event>
 8    1  0.3106980E-007  0.9118800E+02  0.7816164E-02  0.1184000E+00
        -11   -1    0    0    0    0  0.00000000000E+00  0.00000000000E+00  0.45593999997E+02  0.45594000000E+02  0.51100000000E-03 0.  1.
         11   -1    0    0    0    0 -0.00000000000E+00 -0.00000000000E+00 -0.45593999997E+02  0.45594000000E+02  0.51100000000E-03 0. -1.
         23    2    1    2    0    0  0.00000000000E+00  0.35527136788E-14  0.00000000000E+00  0.91188000000E+02  0.91188000000E+02 0.  0.
    9900012    2    3    3    0    0 -0.19634902617E+02  0.24122837268E+02  0.19706324297E+02  0.54367083445E+02  0.39999998330E+02 0.  0.
         12    1    3    3    0    0  0.19634902617E+02 -0.24122837268E+02 -0.19706324297E+02  0.36820916555E+02  0.00000000000E+00 0. -1.
         11    1    4    4    0    0 -0.68799422579E+01  0.90891716521E+01  0.20142769839E+02  0.23144714814E+02  0.51100000000E-03 0. -1.
        -11    1    4    4    0    0 -0.30338009205E+01  0.19616774790E+02  0.26853277421E+01  0.20030795954E+02  0.51100000000E-03 0.  1.
         12    1    4    4    0    0 -0.97211594389E+01 -0.45831091746E+01 -0.31217732839E+01  0.11191572677E+02  0.00000000000E+00 0. -1.
</event>
<event>
 8    1  0.3106980E-007  0.9118800E+02  0.7816164E-02  0.1184000E+00
        -11   -1    0    0    0    0  0.00000000000E+00  0.00000000000E+00  0.45593999997E+02  0.45594000000E+02  0.51100000000E-03 0.  1.
         11   -1    0    0    0    0 -0.00000000000E+00 -0.00000000000E+00 -0.45593999997E+02  0.45594000000E+02  0.51100000000E-03 0. -1.
         23    2    1    2    0    0  0.00000000000E+00 -0.88817841970E-15  0.00000000000E+00  0.91188000000E+02  0.91188000000E+02 0.  0.
    9900012    2    3    3    0    0 -0.29352626282E+02 -0.59180346051E+01  0.21428535373E+02  0.54367055805E+02  0.39999935318E+02 0.  0.
         12    1    3    3    0    0  0.29352626282E+02  0.59180346051E+01 -0.21428535373E+02  0.36820944195E+02  0.00000000000E+00 0. -1.
         11    1    4    4    0    0 -0.14161148707E+02 -0.84313911588E+01  0.30727666002E+02  0.34868552418E+02  0.51100000000E-03 0.  1.
        -11    1    4    4    0    0 -0.98222153362E+01 -0.19668000248E+01 -0.66349850911E+01  0.12015292084E+02  0.51100000000E-03 0. -1.
        -12    1    4    4    0    0 -0.53692622383E+01  0.44801565785E+01 -0.26641455379E+01  0.74832113026E+01  0.00000000000E+00 0.  1.
</event>
<event>
 8    1  0.3106980E-007  0.9118800E+02  0.7816164E-02  0.1184000E+00
        -11   -1    0    0    0    0  0.00000000000E+00  0.00000000000E+00  0.45593999997E+02  0.45594000000E+02  0.51100000000E-03 0. -1.
         11   -1    0    0    0    0 -0.00000000000E+00 -0.00000000000E+00 -0.45593999997E+02  0.45594000000E+02  0.51100000000E-03 0.  1.
         23    2    1    2    0    0  0.00000000000E+00 -0.17763568394E-14 -0.35527136788E-14  0.91188000000E+02  0.91188000000E+02 0.  0.
    9900012    2    3    3    0    0 -0.17856632713E+02  0.97997168831E+01 -0.30673867639E+02  0.54367082864E+02  0.39999997004E+02 0.  0.
         12    1    3    3    0    0  0.17856632713E+02 -0.97997168831E+01  0.30673867639E+02  0.36820917136E+02  0.00000000000E+00 0. -1.
         11    1    4    4    0    0  0.71834081447E+01  0.30717026873E+00 -0.48794997556E+01  0.86893742165E+01  0.51100000000E-03 0. -1.
        -11    1    4    4    0    0 -0.30500296772E+01 -0.86339416552E+01 -0.53538303616E+01  0.10607126347E+02  0.51100000000E-03 0.  1.
         12    1    4    4    0    0 -0.21990011180E+02  0.18126488269E+02 -0.20440537522E+02  0.35070582300E+02  0.00000000000E+00 0. -1.
</event>
<event>
 8    1  0.3106980E-007  0.9118800E+02  0.7816164E-02  0.1184000E+00
        -11   -1    0    0    0    0  0.00000000000E+00  0.00000000000E+00  0.45593999997E+02  0.45594000000E+02  0.51100000000E-03 0.  1.
         11   -1    0    0    0    0 -0.00000000000E+00 -0.00000000000E+00 -0.45593999997E+02  0.45594000000E+02  0.51100000000E-03 0. -1.
         23    2    1    2    0    0  0.66613381478E-15 -0.35527136788E-14 -0.35527136788E-14  0.91188000000E+02  0.91188000000E+02 0.  0.
    9900012    2    3    3    0    0  0.16261240483E+01 -0.21944274058E+02 -0.29522519814E+02  0.54367155095E+02  0.40000161670E+02 0.  0.
        -12    1    3    3    0    0 -0.16261240483E+01  0.21944274058E+02  0.29522519814E+02  0.36820844905E+02  0.00000000000E+00 0.  1.
         11    1    4    4    0    0 -0.15440125489E+01 -0.26747954555E+01 -0.11136231986E+02  0.11556563875E+02  0.51100000000E-03 0. -1.
        -11    1    4    4    0    0  0.11952742788E+02  0.11572848380E+01  0.25430716752E+01  0.12274957522E+02  0.51100000000E-03 0.  1.
        -12    1    4    4    0    0 -0.87826061909E+01 -0.20426763440E+02 -0.20929359503E+02  0.30535633699E+02  0.00000000000E+00 0.  1.
</event>
<event>
 8    1  0.3106980E-007  0.9118800E+02  0.7816164E-02  0.1184000E+00
        -11   -1    0    0    0    0  0.00000000000E+00  0.00000000000E+00  0.45593999997E+02  0.45594000000E+02  0.51100000000E-03 0.  1.
         11   -1    0    0    0    0 -0.00000000000E+00 -0.00000000000E+00 -0.45593999997E+02  0.45594000000E+02  0.51100000000E-03 0. -1.
         23    2    1    2    0    0  0.00000000000E+00  0.00000000000E+00  0.00000000000E+00  0.91188000000E+02  0.91188000000E+02 0.  0.
    9900012    2    3    3    0    0 -0.15189439118E+02 -0.10030861215E+02  0.32006918824E+02  0.54367080810E+02  0.39999992322E+02 0.  0.
         12    1    3    3    0    0  0.15189439118E+02  0.10030861215E+02 -0.32006918824E+02  0.36820919190E+02  0.00000000000E+00 0. -1.
         11    1    4    4    0    0 -0.90562098915E+01  0.93916959222E+01  0.16457207757E+02  0.21001394652E+02  0.51100000000E-03 0. -1.
        -11    1    4    4    0    0 -0.82852783627E+01 -0.27339523542E+01 -0.21065807674E+01  0.89754117350E+01  0.51100000000E-03 0.  1.
        -12    1    4    4    0    0  0.21520491366E+01 -0.16688604783E+02  0.17656291834E+02  0.24390274423E+02  0.00000000000E+00 0.  1.
</event>
<event>
 8    1  0.3106980E-007  0.9118800E+02  0.7816164E-02  0.1184000E+00
        -11   -1    0    0    0    0  0.00000000000E+00  0.00000000000E+00  0.45593999997E+02  0.45594000000E+02  0.51100000000E-03 0.  1.
         11   -1    0    0    0    0 -0.00000000000E+00 -0.00000000000E+00 -0.45593999997E+02  0.45594000000E+02  0.51100000000E-03 0. -1.
         23    2    1    2    0    0 -0.35527136788E-14  0.00000000000E+00  0.00000000000E+00  0.91188000000E+02  0.91188000000E+02 0.  0.
    9900012    2    3    3    0    0 -0.29276354557E+02 -0.20006458996E+02  0.99205306464E+01  0.54367078420E+02  0.39999986873E+02 0.  0.
        -12    1    3    3    0    0  0.29276354557E+02  0.20006458996E+02 -0.99205306464E+01  0.36820921580E+02  0.00000000000E+00 0.  1.
         11    1    4    4    0    0 -0.35291317417E+01  0.33305027042E+01  0.52958437392E+00  0.48813398758E+01  0.51100000000E-03 0. -1.
        -11    1    4    4    0    0 -0.23988287034E+02  0.91322517829E+00  0.72559339942E+01  0.25078286892E+02  0.51100000000E-03 0.  1.
        -12    1    4    4    0    0 -0.17589357821E+01 -0.24250186878E+02  0.21350122783E+01  0.24407451652E+02  0.00000000000E+00 0.  1.
</event>
<event>
 8    1  0.3106980E-007  0.9118800E+02  0.7816164E-02  0.1184000E+00
        -11   -1    0    0    0    0  0.00000000000E+00  0.00000000000E+00  0.45593999997E+02  0.45594000000E+02  0.51100000000E-03 0.  1.
         11   -1    0    0    0    0 -0.00000000000E+00 -0.00000000000E+00 -0.45593999997E+02  0.45594000000E+02  0.51100000000E-03 0. -1.
         23    2    1    2    0    0  0.44408920985E-15  0.35527136788E-14 -0.71054273576E-14  0.91188000000E+02  0.91188000000E+02 0.  0.
    9900012    2    3    3    0    0  0.36033852278E+01  0.44667034430E+01  0.36370882222E+02  0.54367124150E+02  0.40000091125E+02 0.  0.
         12    1    3    3    0    0 -0.36033852278E+01 -0.44667034430E+01 -0.36370882222E+02  0.36820875850E+02  0.00000000000E+00 0. -1.
         11    1    4    4    0    0 -0.70506108898E+01 -0.20871555756E+01  0.14964612471E+02  0.16673540685E+02  0.51100000000E-03 0. -1.
        -11    1    4    4    0    0  0.12587696597E+02 -0.88417265164E+01  0.12355495749E+02  0.19730294191E+02  0.51100000000E-03 0.  1.
         12    1    4    4    0    0 -0.19337004790E+01  0.15395585535E+02  0.90507740021E+01  0.17963289274E+02  0.00000000000E+00 0. -1.
</event>
<event>
 8    1  0.3106980E-007  0.9118800E+02  0.7816164E-02  0.1184000E+00
        -11   -1    0    0    0    0  0.00000000000E+00  0.00000000000E+00  0.45593999997E+02  0.45594000000E+02  0.51100000000E-03 0. -1.
         11   -1    0    0    0    0 -0.00000000000E+00 -0.00000000000E+00 -0.45593999997E+02  0.45594000000E+02  0.51100000000E-03 0.  1.
         23    2    1    2    0    0  0.00000000000E+00  0.71054273576E-14 -0.88817841970E-15  0.91188000000E+02  0.91188000000E+02 0.  0.
    9900012    2    3    3    0    0  0.22558978620E+02 -0.28691488334E+02 -0.48659537201E+01  0.54366993430E+02  0.39999793122E+02 0.  0.
         12    1    3    3    0    0 -0.22558978620E+02  0.28691488334E+02  0.48659537201E+01  0.36821006570E+02  0.00000000000E+00 0. -1.
         11    1    4    4    0    0  0.60951365984E+01 -0.77712524663E+01 -0.61081789292E+01  0.11612618359E+02  0.51100000000E-03 0. -1.
        -11    1    4    4    0    0 -0.19463147466E+01 -0.23018856494E+02 -0.41182088198E+01  0.23465198476E+02  0.51100000000E-03 0.  1.
         12    1    4    4    0    0  0.18410156768E+02  0.20986206254E+01  0.53604340289E+01  0.19289176596E+02  0.00000000000E+00 0. -1.
</event>
<event>
 8    1  0.3106980E-007  0.9118800E+02  0.7816164E-02  0.1184000E+00
        -11   -1    0    0    0    0  0.00000000000E+00  0.00000000000E+00  0.45593999997E+02  0.45594000000E+02  0.51100000000E-03 0.  1.
         11   -1    0    0    0    0 -0.00000000000E+00 -0.00000000000E+00 -0.45593999997E+02  0.45594000000E+02  0.51100000000E-03 0. -1.
         23    2    1    2    0    0  0.88817841970E-15  0.35527136788E-14  0.00000000000E+00  0.91188000000E+02  0.91188000000E+02 0.  0.
    9900012    2    3    3    0    0 -0.31356739177E+01  0.22326445109E+02  0.29111434462E+02  0.54367106223E+02  0.40000050257E+02 0.  0.
         12    1    3    3    0    0  0.31356739177E+01 -0.22326445109E+02 -0.29111434462E+02  0.36820893777E+02  0.00000000000E+00 0. -1.
         11    1    4    4    0    0  0.72482289058E+01  0.16014912193E+02  0.14667044538E+01  0.17639882569E+02  0.51100000000E-03 0. -1.
        -11    1    4    4    0    0 -0.33349923395E+01 -0.63086954076E+01  0.17964706608E+02  0.19330093001E+02  0.51100000000E-03 0.  1.
        -12    1    4    4    0    0 -0.70489104839E+01  0.12620228323E+02  0.96800233996E+01  0.17397130653E+02  0.00000000000E+00 0.  1.
</event>
<event>
 8    1  0.3106980E-007  0.9118800E+02  0.7816164E-02  0.1184000E+00
        -11   -1    0    0    0    0  0.00000000000E+00  0.00000000000E+00  0.45593999997E+02  0.45594000000E+02  0.51100000000E-03 0.  1.
         11   -1    0    0    0    0 -0.00000000000E+00 -0.00000000000E+00 -0.45593999997E+02  0.45594000000E+02  0.51100000000E-03 0. -1.
         23    2    1    2    0    0 -0.35527136788E-14 -0.35527136788E-14  0.00000000000E+00  0.91188000000E+02  0.91188000000E+02 0.  0.
    9900012    2    3    3    0    0 -0.19536427493E+02 -0.13133165964E+02 -0.28313143910E+02  0.54366998309E+02  0.39999804246E+02 0.  0.
        -12    1    3    3    0    0  0.19536427493E+02  0.13133165964E+02  0.28313143910E+02  0.36821001691E+02  0.00000000000E+00 0.  1.
         11    1    4    4    0    0  0.38044033651E+01  0.32291605842E+01 -0.94342803450E+00  0.50784859713E+01  0.51100000000E-03 0. -1.
        -11    1    4    4    0    0 -0.29674633546E+00  0.76741707284E+01 -0.46572521317E+01  0.89817009767E+01  0.51100000000E-03 0.  1.
         12    1    4    4    0    0 -0.23044084523E+02 -0.24036497277E+02 -0.22712463744E+02  0.40306811361E+02  0.00000000000E+00 0. -1.
</event>
<event>
 8    1  0.3106980E-007  0.9118800E+02  0.7816164E-02  0.1184000E+00
        -11   -1    0    0    0    0  0.00000000000E+00  0.00000000000E+00  0.45593999997E+02  0.45594000000E+02  0.51100000000E-03 0. -1.
         11   -1    0    0    0    0 -0.00000000000E+00 -0.00000000000E+00 -0.45593999997E+02  0.45594000000E+02  0.51100000000E-03 0.  1.
         23    2    1    2    0    0 -0.35527136788E-14  0.00000000000E+00  0.71054273576E-14  0.91188000000E+02  0.91188000000E+02 0.  0.
    9900012    2    3    3    0    0 -0.26222061304E+02  0.14105748306E+02 -0.21661292337E+02  0.54367079044E+02  0.39999988298E+02 0.  0.
         12    1    3    3    0    0  0.26222061304E+02 -0.14105748306E+02  0.21661292337E+02  0.36820920956E+02  0.00000000000E+00 0. -1.
         11    1    4    4    0    0 -0.24035223751E+02  0.84478757361E+01 -0.24526385122E+02  0.35363853758E+02  0.51100000000E-03 0.  1.
        -11    1    4    4    0    0 -0.60551896536E+01 -0.46879905441E+01  0.20515927344E+01  0.79279007368E+01  0.51100000000E-03 0. -1.
        -12    1    4    4    0    0  0.38683521004E+01  0.10345863114E+02  0.81350005061E+00  0.11075324550E+02  0.00000000000E+00 0.  1.
</event>
<event>
 8    1  0.3106980E-007  0.9118800E+02  0.7816164E-02  0.1184000E+00
        -11   -1    0    0    0    0  0.00000000000E+00  0.00000000000E+00  0.45593999997E+02  0.45594000000E+02  0.51100000000E-03 0. -1.
         11   -1    0    0    0    0 -0.00000000000E+00 -0.00000000000E+00 -0.45593999997E+02  0.45594000000E+02  0.51100000000E-03 0.  1.
         23    2    1    2    0    0 -0.71054273576E-14  0.35527136788E-14  0.00000000000E+00  0.91188000000E+02  0.91188000000E+02 0.  0.
    9900012    2    3    3    0    0 -0.30196147450E+02  0.17994991812E+02 -0.10961503910E+02  0.54367060046E+02  0.39999944986E+02 0.  0.
         12    1    3    3    0    0  0.30196147450E+02 -0.17994991812E+02  0.10961503910E+02  0.36820939954E+02  0.00000000000E+00 0. -1.
         11    1    4    4    0    0 -0.49003075055E+01  0.20920044861E+01  0.50628643872E+01  0.73499722777E+01  0.51100000000E-03 0. -1.
        -11    1    4    4    0    0 -0.25190088453E+02  0.21341461124E+02 -0.33010034078E+01  0.33179739947E+02  0.51100000000E-03 0.  1.
         12    1    4    4    0    0 -0.10575149139E+00 -0.54384737976E+01 -0.12723364889E+02  0.13837347821E+02  0.00000000000E+00 0. -1.
</event>
<event>
 8    1  0.3106980E-007  0.9118800E+02  0.7816164E-02  0.1184000E+00
        -11   -1    0    0    0    0  0.00000000000E+00  0.00000000000E+00  0.45593999997E+02  0.45594000000E+02  0.51100000000E-03 0. -1.
         11   -1    0    0    0    0 -0.00000000000E+00 -0.00000000000E+00 -0.45593999997E+02  0.45594000000E+02  0.51100000000E-03 0.  1.
         23    2    1    2    0    0  0.00000000000E+00 -0.44408920985E-15  0.00000000000E+00  0.91188000000E+02  0.91188000000E+02 0.  0.
    9900012    2    3    3    0    0 -0.36085487924E+02  0.33245464805E+01  0.65241908360E+01  0.54367080483E+02  0.39999991577E+02 0.  0.
         12    1    3    3    0    0  0.36085487924E+02 -0.33245464805E+01 -0.65241908360E+01  0.36820919517E+02  0.00000000000E+00 0. -1.
         11    1    4    4    0    0  0.99824386249E+00 -0.75515986955E+01  0.27223124339E+01  0.80891358572E+01  0.51100000000E-03 0. -1.
        -11    1    4    4    0    0 -0.29537517441E+02  0.15398291769E+02 -0.51739859389E+01  0.33709678977E+02  0.51100000000E-03 0.  1.
         12    1    4    4    0    0 -0.75462143457E+01 -0.45221465931E+01  0.89758643411E+01  0.12568265649E+02  0.00000000000E+00 0. -1.
</event>
<event>
 8    1  0.3106980E-007  0.9118800E+02  0.7816164E-02  0.1184000E+00
        -11   -1    0    0    0    0  0.00000000000E+00  0.00000000000E+00  0.45593999997E+02  0.45594000000E+02  0.51100000000E-03 0.  1.
         11   -1    0    0    0    0 -0.00000000000E+00 -0.00000000000E+00 -0.45593999997E+02  0.45594000000E+02  0.51100000000E-03 0. -1.
         23    2    1    2    0    0 -0.22204460493E-15  0.00000000000E+00  0.00000000000E+00  0.91188000000E+02  0.91188000000E+02 0.  0.
    9900012    2    3    3    0    0  0.18840532733E+01 -0.23319147893E+02  0.28433210722E+02  0.54367084922E+02  0.40000001697E+02 0.  0.
         12    1    3    3    0    0 -0.18840532733E+01  0.23319147893E+02 -0.28433210722E+02  0.36820915078E+02  0.00000000000E+00 0. -1.
         11    1    4    4    0    0 -0.54304492900E+01 -0.97525397028E+01  0.24817431340E+02  0.27212252915E+02  0.51100000000E-03 0. -1.
        -11    1    4    4    0    0  0.85447923100E+01 -0.19266705280E+02  0.26127493029E+01  0.21237840454E+02  0.51100000000E-03 0.  1.
         12    1    4    4    0    0 -0.12302897467E+01  0.57000970901E+01  0.10030300792E+01  0.59169915529E+01  0.00000000000E+00 0. -1.
</event>
<event>
 8    1  0.3106980E-007  0.9118800E+02  0.7816164E-02  0.1184000E+00
        -11   -1    0    0    0    0  0.00000000000E+00  0.00000000000E+00  0.45593999997E+02  0.45594000000E+02  0.51100000000E-03 0.  1.
         11   -1    0    0    0    0 -0.00000000000E+00 -0.00000000000E+00 -0.45593999997E+02  0.45594000000E+02  0.51100000000E-03 0. -1.
         23    2    1    2    0    0  0.13322676296E-14  0.35527136788E-14  0.00000000000E+00  0.91188000000E+02  0.91188000000E+02 0.  0.
    9900012    2    3    3    0    0  0.31799525117E+01  0.30125907309E+02  0.20930777989E+02  0.54367083982E+02  0.39999999555E+02 0.  0.
        -12    1    3    3    0    0 -0.31799525117E+01 -0.30125907309E+02 -0.20930777989E+02  0.36820916018E+02  0.00000000000E+00 0.  1.
         11    1    4    4    0    0  0.28407824153E+01  0.26771117807E+01 -0.90305509507E+01  0.98380802473E+01  0.51100000000E-03 0. -1.
        -11    1    4    4    0    0  0.23798229197E+01  0.25830998906E+02  0.16332888951E+02  0.30653993595E+02  0.51100000000E-03 0.  1.
        -12    1    4    4    0    0 -0.20406528233E+01  0.16177966225E+01  0.13628439989E+02  0.13875010140E+02  0.00000000000E+00 0.  1.
</event>
<event>
 8    1  0.3106980E-007  0.9118800E+02  0.7816164E-02  0.1184000E+00
        -11   -1    0    0    0    0  0.00000000000E+00  0.00000000000E+00  0.45593999997E+02  0.45594000000E+02  0.51100000000E-03 0.  1.
         11   -1    0    0    0    0 -0.00000000000E+00 -0.00000000000E+00 -0.45593999997E+02  0.45594000000E+02  0.51100000000E-03 0. -1.
         23    2    1    2    0    0  0.00000000000E+00  0.00000000000E+00  0.00000000000E+00  0.91188000000E+02  0.91188000000E+02 0.  0.
    9900012    2    3    3    0    0  0.10445350345E+01 -0.93131033129E+01  0.35608333394E+02  0.54367104386E+02  0.40000046068E+02 0.  0.
         12    1    3    3    0    0 -0.10445350345E+01  0.93131033129E+01 -0.35608333394E+02  0.36820895614E+02  0.00000000000E+00 0. -1.
         11    1    4    4    0    0 -0.10989708102E+02  0.30916795228E+01  0.42664352892E+01  0.12187478689E+02  0.51100000000E-03 0. -1.
        -11    1    4    4    0    0 -0.17282530008E+01 -0.59845254779E+01 -0.11311863406E+01  0.63309546222E+01  0.51100000000E-03 0.  1.
        -12    1    4    4    0    0  0.13762496138E+02 -0.64202573578E+01  0.32473084445E+02  0.35848671075E+02  0.00000000000E+00 0.  1.
</event>
<event>
 8    1  0.3106980E-007  0.9118800E+02  0.7816164E-02  0.1184000E+00
        -11   -1    0    0    0    0  0.00000000000E+00  0.00000000000E+00  0.45593999997E+02  0.45594000000E+02  0.51100000000E-03 0.  1.
         11   -1    0    0    0    0 -0.00000000000E+00 -0.00000000000E+00 -0.45593999997E+02  0.45594000000E+02  0.51100000000E-03 0. -1.
         23    2    1    2    0    0  0.00000000000E+00  0.00000000000E+00  0.35527136788E-14  0.91188000000E+02  0.91188000000E+02 0.  0.
    9900012    2    3    3    0    0 -0.26799075496E+02 -0.17170390654E+02 -0.18513993579E+02  0.54367072243E+02  0.39999972792E+02 0.  0.
        -12    1    3    3    0    0  0.26799075496E+02  0.17170390654E+02  0.18513993579E+02  0.36820927757E+02  0.00000000000E+00 0.  1.
         11    1    4    4    0    0 -0.15009444150E+02 -0.69463935709E+01  0.97673151854E+01  0.19207713126E+02  0.51100000000E-03 0. -1.
        -11    1    4    4    0    0  0.26526862965E+01 -0.33529457186E+01 -0.99631158651E+01  0.10841709625E+02  0.51100000000E-03 0.  1.
         12    1    4    4    0    0 -0.14442317642E+02 -0.68710513647E+01 -0.18318192900E+02  0.24317649492E+02  0.00000000000E+00 0. -1.
</event>
<event>
 8    1  0.3106980E-007  0.9118800E+02  0.7816164E-02  0.1184000E+00
        -11   -1    0    0    0    0  0.00000000000E+00  0.00000000000E+00  0.45593999997E+02  0.45594000000E+02  0.51100000000E-03 0. -1.
         11   -1    0    0    0    0 -0.00000000000E+00 -0.00000000000E+00 -0.45593999997E+02  0.45594000000E+02  0.51100000000E-03 0.  1.
         23    2    1    2    0    0  0.35527136788E-14  0.00000000000E+00 -0.35527136788E-14  0.91188000000E+02  0.91188000000E+02 0.  0.
    9900012    2    3    3    0    0 -0.31737581252E+02  0.97532514616E+01  0.15917920244E+02  0.54367079823E+02  0.39999990072E+02 0.  0.
         12    1    3    3    0    0  0.31737581252E+02 -0.97532514616E+01 -0.15917920244E+02  0.36820920177E+02  0.00000000000E+00 0. -1.
         11    1    4    4    0    0 -0.12619622969E+02 -0.86623049302E+01  0.10886138172E+02  0.18782928822E+02  0.51100000000E-03 0.  1.
        -11    1    4    4    0    0 -0.82675473095E+01 -0.17856626931E+01  0.89574423347E+01  0.12319768797E+02  0.51100000000E-03 0. -1.
         12    1    4    4    0    0 -0.10850410974E+02  0.20201219085E+02 -0.39256602632E+01  0.23264382204E+02  0.00000000000E+00 0. -1.
</event>
<event>
 8    1  0.3106980E-007  0.9118800E+02  0.7816164E-02  0.1184000E+00
        -11   -1    0    0    0    0  0.00000000000E+00  0.00000000000E+00  0.45593999997E+02  0.45594000000E+02  0.51100000000E-03 0. -1.
         11   -1    0    0    0    0 -0.00000000000E+00 -0.00000000000E+00 -0.45593999997E+02  0.45594000000E+02  0.51100000000E-03 0.  1.
         23    2    1    2    0    0  0.17763568394E-14 -0.71054273576E-14 -0.17763568394E-14  0.91188000000E+02  0.91188000000E+02 0.  0.
    9900012    2    3    3    0    0 -0.10733057829E+02 -0.32361404334E+02  0.13904007451E+02  0.54367076003E+02  0.39999981363E+02 0.  0.
        -12    1    3    3    0    0  0.10733057829E+02  0.32361404334E+02 -0.13904007451E+02  0.36820923997E+02  0.00000000000E+00 0.  1.
         11    1    4    4    0    0  0.25704646526E+01 -0.14214623676E+02  0.33928303084E+01  0.14838265146E+02  0.51100000000E-03 0. -1.
        -11    1    4    4    0    0 -0.21964728545E+02 -0.67286793311E+01  0.10350796229E+02  0.25196495956E+02  0.51100000000E-03 0.  1.
         12    1    4    4    0    0  0.86612060635E+01 -0.11418101326E+02  0.16038091294E+00  0.14332314901E+02  0.00000000000E+00 0. -1.
</event>
<event>
 8    1  0.3106980E-007  0.9118800E+02  0.7816164E-02  0.1184000E+00
        -11   -1    0    0    0    0  0.00000000000E+00  0.00000000000E+00  0.45593999997E+02  0.45594000000E+02  0.51100000000E-03 0. -1.
         11   -1    0    0    0    0 -0.00000000000E+00 -0.00000000000E+00 -0.45593999997E+02  0.45594000000E+02  0.51100000000E-03 0.  1.
         23    2    1    2    0    0  0.00000000000E+00  0.35527136788E-14  0.35527136788E-14  0.91188000000E+02  0.91188000000E+02 0.  0.
    9900012    2    3    3    0    0 -0.27998660231E+02 -0.11665884330E+02  0.20874910682E+02  0.54367085727E+02  0.40000003532E+02 0.  0.
        -12    1    3    3    0    0  0.27998660231E+02  0.11665884330E+02 -0.20874910682E+02  0.36820914273E+02  0.00000000000E+00 0.  1.
         11    1    4    4    0    0 -0.36236320441E+01 -0.46549802157E+01  0.13733447290E+02  0.14946809851E+02  0.51100000000E-03 0. -1.
        -11    1    4    4    0    0 -0.13944226243E+02 -0.18068042890E+02  0.49107039853E+00  0.22828420221E+02  0.51100000000E-03 0.  1.
        -12    1    4    4    0    0 -0.10430801944E+02  0.11057138776E+02  0.66503929932E+01  0.16591855655E+02  0.00000000000E+00 0.  1.
</event>
<event>
 8    1  0.3106980E-007  0.9118800E+02  0.7816164E-02  0.1184000E+00
        -11   -1    0    0    0    0  0.00000000000E+00  0.00000000000E+00  0.45593999997E+02  0.45594000000E+02  0.51100000000E-03 0. -1.
         11   -1    0    0    0    0 -0.00000000000E+00 -0.00000000000E+00 -0.45593999997E+02  0.45594000000E+02  0.51100000000E-03 0.  1.
         23    2    1    2    0    0  0.00000000000E+00  0.17763568394E-14  0.00000000000E+00  0.91188000000E+02  0.91188000000E+02 0.  0.
    9900012    2    3    3    0    0  0.27660275697E+02  0.15761233069E+02  0.18500599210E+02  0.54367088949E+02  0.40000010876E+02 0.  0.
         12    1    3    3    0    0 -0.27660275697E+02 -0.15761233069E+02 -0.18500599210E+02  0.36820911051E+02  0.00000000000E+00 0. -1.
         11    1    4    4    0    0  0.73141766557E+01  0.18417421870E+01  0.69350574432E+01  0.10246180578E+02  0.51100000000E-03 0. -1.
        -11    1    4    4    0    0  0.58002254744E+01 -0.68629497067E+01 -0.80423175873E+01  0.12059086477E+02  0.51100000000E-03 0.  1.
        -12    1    4    4    0    0  0.14545873567E+02  0.20782440589E+02  0.19607859354E+02  0.32061821893E+02  0.00000000000E+00 0.  1.
</event>
<event>
 8    1  0.3106980E-007  0.9118800E+02  0.7816164E-02  0.1184000E+00
        -11   -1    0    0    0    0  0.00000000000E+00  0.00000000000E+00  0.45593999997E+02  0.45594000000E+02  0.51100000000E-03 0. -1.
         11   -1    0    0    0    0 -0.00000000000E+00 -0.00000000000E+00 -0.45593999997E+02  0.45594000000E+02  0.51100000000E-03 0.  1.
         23    2    1    2    0    0 -0.88817841970E-15 -0.35527136788E-14  0.00000000000E+00  0.91188000000E+02  0.91188000000E+02 0.  0.
    9900012    2    3    3    0    0 -0.53337199959E+01 -0.31012394038E+02 -0.19119690181E+02  0.54367086030E+02  0.40000004223E+02 0.  0.
        -12    1    3    3    0    0  0.53337199959E+01  0.31012394038E+02  0.19119690181E+02  0.36820913970E+02  0.00000000000E+00 0.  1.
         11    1    4    4    0    0  0.42642404977E+01  0.16963845625E+01  0.88336861243E+01  0.99546711854E+01  0.51100000000E-03 0. -1.
        -11    1    4    4    0    0 -0.20020783580E+00 -0.85230970285E+01 -0.78413913310E+01  0.11583207000E+02  0.51100000000E-03 0.  1.
        -12    1    4    4    0    0 -0.93977526578E+01 -0.24185681572E+02 -0.20111984974E+02  0.32829207845E+02  0.00000000000E+00 0.  1.
</event>
<event>
 8    1  0.3106980E-007  0.9118800E+02  0.7816164E-02  0.1184000E+00
        -11   -1    0    0    0    0  0.00000000000E+00  0.00000000000E+00  0.45593999997E+02  0.45594000000E+02  0.51100000000E-03 0. -1.
         11   -1    0    0    0    0 -0.00000000000E+00 -0.00000000000E+00 -0.45593999997E+02  0.45594000000E+02  0.51100000000E-03 0.  1.
         23    2    1    2    0    0  0.10658141036E-13  0.00000000000E+00  0.00000000000E+00  0.91188000000E+02  0.91188000000E+02 0.  0.
    9900012    2    3    3    0    0  0.31163411435E+02 -0.99942183983E+01  0.16874192585E+02  0.54367068601E+02  0.39999964490E+02 0.  0.
        -12    1    3    3    0    0 -0.31163411435E+02  0.99942183983E+01 -0.16874192585E+02  0.36820931399E+02  0.00000000000E+00 0.  1.
         11    1    4    4    0    0  0.23381491631E+02  0.62893872172E+01  0.14160082945E+02  0.28049215528E+02  0.51100000000E-03 0. -1.
        -11    1    4    4    0    0  0.78479435828E+01 -0.12824908656E+01 -0.50564251578E+01  0.94235044933E+01  0.51100000000E-03 0.  1.
        -12    1    4    4    0    0 -0.66023778796E-01 -0.15001114750E+02  0.77705347982E+01  0.16894348580E+02  0.00000000000E+00 0.  1.
</event>
<event>
 8    1  0.3106980E-007  0.9118800E+02  0.7816164E-02  0.1184000E+00
        -11   -1    0    0    0    0  0.00000000000E+00  0.00000000000E+00  0.45593999997E+02  0.45594000000E+02  0.51100000000E-03 0. -1.
         11   -1    0    0    0    0 -0.00000000000E+00 -0.00000000000E+00 -0.45593999997E+02  0.45594000000E+02  0.51100000000E-03 0.  1.
         23    2    1    2    0    0  0.00000000000E+00 -0.17763568394E-14  0.35527136788E-14  0.91188000000E+02  0.91188000000E+02 0.  0.
    9900012    2    3    3    0    0 -0.14756810661E+02 -0.11631661570E+02  0.31665780230E+02  0.54367073215E+02  0.39999975008E+02 0.  0.
        -12    1    3    3    0    0  0.14756810661E+02  0.11631661570E+02 -0.31665780230E+02  0.36820926785E+02  0.00000000000E+00 0.  1.
         11    1    4    4    0    0  0.34284341407E+01 -0.12010058914E+02  0.25400814505E+01  0.12745496845E+02  0.51100000000E-03 0. -1.
        -11    1    4    4    0    0 -0.29308694177E+01 -0.28360258520E+01  0.25223709986E+02  0.25551293194E+02  0.51100000000E-03 0.  1.
         12    1    4    4    0    0 -0.15254375384E+02  0.32144231963E+01  0.39019887933E+01  0.16070283176E+02  0.00000000000E+00 0. -1.
</event>
<event>
 8    1  0.3106980E-007  0.9118800E+02  0.7816164E-02  0.1184000E+00
        -11   -1    0    0    0    0  0.00000000000E+00  0.00000000000E+00  0.45593999997E+02  0.45594000000E+02  0.51100000000E-03 0. -1.
         11   -1    0    0    0    0 -0.00000000000E+00 -0.00000000000E+00 -0.45593999997E+02  0.45594000000E+02  0.51100000000E-03 0.  1.
         23    2    1    2    0    0  0.00000000000E+00  0.35527136788E-14 -0.35527136788E-14  0.91188000000E+02  0.91188000000E+02 0.  0.
    9900012    2    3    3    0    0  0.78181813895E+01 -0.18029332797E+02  0.31138388940E+02  0.54367081120E+02  0.39999993030E+02 0.  0.
        -12    1    3    3    0    0 -0.78181813895E+01  0.18029332797E+02 -0.31138388940E+02  0.36820918880E+02  0.00000000000E+00 0.  1.
         11    1    4    4    0    0  0.66340141731E+01  0.49472904800E+01 -0.40637994724E+01  0.92195603776E+01  0.51100000000E-03 0.  1.
        -11    1    4    4    0    0 -0.15230490665E+01 -0.21053243845E+02  0.36000127884E+02  0.41732097512E+02  0.51100000000E-03 0. -1.
         12    1    4    4    0    0  0.27072162829E+01 -0.19233794321E+01 -0.79793947116E+00  0.34154232303E+01  0.00000000000E+00 0. -1.
</event>
<event>
 8    1  0.3106980E-007  0.9118800E+02  0.7816164E-02  0.1184000E+00
        -11   -1    0    0    0    0  0.00000000000E+00  0.00000000000E+00  0.45593999997E+02  0.45594000000E+02  0.51100000000E-03 0. -1.
         11   -1    0    0    0    0 -0.00000000000E+00 -0.00000000000E+00 -0.45593999997E+02  0.45594000000E+02  0.51100000000E-03 0.  1.
         23    2    1    2    0    0  0.00000000000E+00 -0.17763568394E-14  0.35527136788E-14  0.91188000000E+02  0.91188000000E+02 0.  0.
    9900012    2    3    3    0    0  0.16443305960E+02  0.14945712423E+02  0.29360218955E+02  0.54367094419E+02  0.40000023348E+02 0.  0.
        -12    1    3    3    0    0 -0.16443305960E+02 -0.14945712423E+02 -0.29360218955E+02  0.36820905581E+02  0.00000000000E+00 0.  1.
         11    1    4    4    0    0 -0.53812633921E+01  0.34657188531E+01  0.97776547726E+01  0.11686391059E+02  0.51100000000E-03 0.  1.
        -11    1    4    4    0    0  0.15107761275E+02 -0.63466691738E+01  0.15675804858E+01  0.16461529977E+02  0.51100000000E-03 0. -1.
        -12    1    4    4    0    0  0.67168080762E+01  0.17826662744E+02  0.18014983696E+02  0.26219173383E+02  0.00000000000E+00 0.  1.
</event>
<event>
 8    1  0.3106980E-007  0.9118800E+02  0.7816164E-02  0.1184000E+00
        -11   -1    0    0    0    0  0.00000000000E+00  0.00000000000E+00  0.45593999997E+02  0.45594000000E+02  0.51100000000E-03 0.  1.
         11   -1    0    0    0    0 -0.00000000000E+00 -0.00000000000E+00 -0.45593999997E+02  0.45594000000E+02  0.51100000000E-03 0. -1.
         23    2    1    2    0    0  0.88817841970E-15 -0.35527136788E-14 -0.35527136788E-14  0.91188000000E+02  0.91188000000E+02 0.  0.
    9900012    2    3    3    0    0 -0.54878838479E+01  0.27083472831E+02 -0.24334097907E+02  0.54367086233E+02  0.40000004685E+02 0.  0.
        -12    1    3    3    0    0  0.54878838479E+01 -0.27083472831E+02  0.24334097907E+02  0.36820913767E+02  0.00000000000E+00 0.  1.
         11    1    4    4    0    0 -0.48744369727E+00  0.27195278674E+01  0.30934640455E+01  0.41476443002E+01  0.51100000000E-03 0.  1.
        -11    1    4    4    0    0 -0.24041917636E+01  0.30207846184E+02 -0.30613320761E+02  0.43075161258E+02  0.51100000000E-03 0. -1.
         12    1    4    4    0    0 -0.25962483871E+01 -0.58439012211E+01  0.31857588084E+01  0.71442806744E+01  0.00000000000E+00 0. -1.
</event>
<event>
 8    1  0.3106980E-007  0.9118800E+02  0.7816164E-02  0.1184000E+00
        -11   -1    0    0    0    0  0.00000000000E+00  0.00000000000E+00  0.45593999997E+02  0.45594000000E+02  0.51100000000E-03 0. -1.
         11   -1    0    0    0    0 -0.00000000000E+00 -0.00000000000E+00 -0.45593999997E+02  0.45594000000E+02  0.51100000000E-03 0.  1.
         23    2    1    2    0    0  0.35527136788E-14  0.35527136788E-14  0.00000000000E+00  0.91188000000E+02  0.91188000000E+02 0.  0.
    9900012    2    3    3    0    0  0.27171516743E+02  0.21882790609E+02 -0.11774288497E+02  0.54367058722E+02  0.39999941969E+02 0.  0.
         12    1    3    3    0    0 -0.27171516743E+02 -0.21882790609E+02  0.11774288497E+02  0.36820941278E+02  0.00000000000E+00 0. -1.
         11    1    4    4    0    0  0.14801061576E+02  0.36614172830E+01  0.88558183685E+01  0.17632439409E+02  0.51100000000E-03 0. -1.
        -11    1    4    4    0    0  0.28508651681E+01  0.16410156171E+02 -0.21279044662E+02  0.27022553538E+02  0.51100000000E-03 0.  1.
        -12    1    4    4    0    0  0.95195899995E+01  0.18112171552E+01  0.64893779607E+00  0.97120657743E+01  0.00000000000E+00 0.  1.
</event>
<event>
 8    1  0.3106980E-007  0.9118800E+02  0.7816164E-02  0.1184000E+00
        -11   -1    0    0    0    0  0.00000000000E+00  0.00000000000E+00  0.45593999997E+02  0.45594000000E+02  0.51100000000E-03 0. -1.
         11   -1    0    0    0    0 -0.00000000000E+00 -0.00000000000E+00 -0.45593999997E+02  0.45594000000E+02  0.51100000000E-03 0.  1.
         23    2    1    2    0    0  0.00000000000E+00  0.00000000000E+00  0.35527136788E-14  0.91188000000E+02  0.91188000000E+02 0.  0.
    9900012    2    3    3    0    0 -0.22240679455E+02 -0.32135451229E+01  0.29168567877E+02  0.54367081396E+02  0.39999993658E+02 0.  0.
        -12    1    3    3    0    0  0.22240679455E+02  0.32135451229E+01 -0.29168567877E+02  0.36820918604E+02  0.00000000000E+00 0.  1.
         11    1    4    4    0    0  0.34323007492E+01  0.94922022810E+01  0.13578459802E+01  0.10184612832E+02  0.51100000000E-03 0. -1.
        -11    1    4    4    0    0  0.20355053710E+01 -0.21089624008E+01 -0.72579066008E+00  0.30195656752E+01  0.51100000000E-03 0.  1.
         12    1    4    4    0    0 -0.27708485575E+02 -0.10596785003E+02  0.28536512557E+02  0.41162902888E+02  0.00000000000E+00 0. -1.
</event>
<event>
 8    1  0.3106980E-007  0.9118800E+02  0.7816164E-02  0.1184000E+00
        -11   -1    0    0    0    0  0.00000000000E+00  0.00000000000E+00  0.45593999997E+02  0.45594000000E+02  0.51100000000E-03 0.  1.
         11   -1    0    0    0    0 -0.00000000000E+00 -0.00000000000E+00 -0.45593999997E+02  0.45594000000E+02  0.51100000000E-03 0. -1.
         23    2    1    2    0    0  0.00000000000E+00  0.00000000000E+00  0.00000000000E+00  0.91188000000E+02  0.91188000000E+02 0.  0.
    9900012    2    3    3    0    0 -0.72992518375E+01 -0.35984115881E+02  0.27646852065E+01  0.54367093474E+02  0.40000021192E+02 0.  0.
         12    1    3    3    0    0  0.72992518375E+01  0.35984115881E+02 -0.27646852065E+01  0.36820906526E+02  0.00000000000E+00 0. -1.
         11    1    4    4    0    0  0.63620858953E+01 -0.52464246750E+00 -0.70549696935E+01  0.95144092983E+01  0.51100000000E-03 0. -1.
        -11    1    4    4    0    0 -0.14029599828E+02 -0.35838623729E+02  0.36490003464E+01  0.38659433853E+02  0.51100000000E-03 0.  1.
         12    1    4    4    0    0  0.36826209500E+00  0.37915031509E+00  0.61706545536E+01  0.61932503221E+01  0.00000000000E+00 0. -1.
</event>
<event>
 8    1  0.3106980E-007  0.9118800E+02  0.7816164E-02  0.1184000E+00
        -11   -1    0    0    0    0  0.00000000000E+00  0.00000000000E+00  0.45593999997E+02  0.45594000000E+02  0.51100000000E-03 0. -1.
         11   -1    0    0    0    0 -0.00000000000E+00 -0.00000000000E+00 -0.45593999997E+02  0.45594000000E+02  0.51100000000E-03 0.  1.
         23    2    1    2    0    0 -0.17763568394E-14  0.00000000000E+00  0.00000000000E+00  0.91188000000E+02  0.91188000000E+02 0.  0.
    9900012    2    3    3    0    0 -0.14402738151E+02  0.15698092949E+02  0.30031828172E+02  0.54367086217E+02  0.40000004648E+02 0.  0.
        -12    1    3    3    0    0  0.14402738151E+02 -0.15698092949E+02 -0.30031828172E+02  0.36820913783E+02  0.00000000000E+00 0.  1.
         11    1    4    4    0    0 -0.24165956468E+01  0.13837074141E+02  0.33388597647E+02  0.36222962446E+02  0.51100000000E-03 0. -1.
        -11    1    4    4    0    0  0.25959208880E+00  0.28684673223E+01 -0.49773481393E+01  0.57506075846E+01  0.51100000000E-03 0.  1.
         12    1    4    4    0    0 -0.12245734593E+02 -0.10074485150E+01  0.16205786648E+01  0.12393516186E+02  0.00000000000E+00 0. -1.
</event>
<event>
 8    1  0.3106980E-007  0.9118800E+02  0.7816164E-02  0.1184000E+00
        -11   -1    0    0    0    0  0.00000000000E+00  0.00000000000E+00  0.45593999997E+02  0.45594000000E+02  0.51100000000E-03 0. -1.
         11   -1    0    0    0    0 -0.00000000000E+00 -0.00000000000E+00 -0.45593999997E+02  0.45594000000E+02  0.51100000000E-03 0.  1.
         23    2    1    2    0    0  0.00000000000E+00  0.00000000000E+00 -0.35527136788E-14  0.91188000000E+02  0.91188000000E+02 0.  0.
    9900012    2    3    3    0    0 -0.22121691222E+02 -0.26701445027E+02  0.12387235452E+02  0.54367082152E+02  0.39999995381E+02 0.  0.
        -12    1    3    3    0    0  0.22121691222E+02  0.26701445027E+02 -0.12387235452E+02  0.36820917848E+02  0.00000000000E+00 0.  1.
         11    1    4    4    0    0 -0.96081151445E+01 -0.10551990062E+02  0.21460017844E+02  0.25771937006E+02  0.51100000000E-03 0. -1.
        -11    1    4    4    0    0 -0.36491943727E+01 -0.24604164600E+00  0.45630962157E+01  0.58479913984E+01  0.51100000000E-03 0.  1.
        -12    1    4    4    0    0 -0.88643817045E+01 -0.15903413319E+02 -0.13635878608E+02  0.22747153747E+02  0.00000000000E+00 0.  1.
</event>
<event>
 8    1  0.3106980E-007  0.9118800E+02  0.7816164E-02  0.1184000E+00
        -11   -1    0    0    0    0  0.00000000000E+00  0.00000000000E+00  0.45593999997E+02  0.45594000000E+02  0.51100000000E-03 0.  1.
         11   -1    0    0    0    0 -0.00000000000E+00 -0.00000000000E+00 -0.45593999997E+02  0.45594000000E+02  0.51100000000E-03 0. -1.
         23    2    1    2    0    0 -0.44408920985E-15  0.00000000000E+00  0.00000000000E+00  0.91188000000E+02  0.91188000000E+02 0.  0.
    9900012    2    3    3    0    0  0.17560301626E+01 -0.28081235579E+02  0.23751631061E+02  0.54367090022E+02  0.40000013324E+02 0.  0.
         12    1    3    3    0    0 -0.17560301626E+01  0.28081235579E+02 -0.23751631061E+02  0.36820909978E+02  0.00000000000E+00 0. -1.
         11    1    4    4    0    0 -0.13155960298E+01 -0.93189985175E+01 -0.90169836871E+01  0.13033822208E+02  0.51100000000E-03 0. -1.
        -11    1    4    4    0    0 -0.11657574172E+01  0.28963689933E+01  0.41838877676E+01  0.52204272636E+01  0.51100000000E-03 0.  1.
        -12    1    4    4    0    0  0.42373836095E+01 -0.21658606054E+02  0.28584726980E+02  0.36112840550E+02  0.00000000000E+00 0.  1.
</event>
<event>
 8    1  0.3106980E-007  0.9118800E+02  0.7816164E-02  0.1184000E+00
        -11   -1    0    0    0    0  0.00000000000E+00  0.00000000000E+00  0.45593999997E+02  0.45594000000E+02  0.51100000000E-03 0.  1.
         11   -1    0    0    0    0 -0.00000000000E+00 -0.00000000000E+00 -0.45593999997E+02  0.45594000000E+02  0.51100000000E-03 0. -1.
         23    2    1    2    0    0  0.00000000000E+00 -0.35527136788E-14  0.00000000000E+00  0.91188000000E+02  0.91188000000E+02 0.  0.
    9900012    2    3    3    0    0 -0.19576909790E+02  0.30184051327E+02  0.78389057502E+01  0.54367071240E+02  0.39999970505E+02 0.  0.
         12    1    3    3    0    0  0.19576909790E+02 -0.30184051327E+02 -0.78389057502E+01  0.36820928760E+02  0.00000000000E+00 0. -1.
         11    1    4    4    0    0 -0.12304290530E+02  0.23245804966E+02  0.21099381693E+02  0.33718643538E+02  0.51100000000E-03 0.  1.
        -11    1    4    4    0    0 -0.42936474515E+01  0.10275797779E+02 -0.78365184298E+01  0.13617578705E+02  0.51100000000E-03 0. -1.
        -12    1    4    4    0    0 -0.29789718082E+01 -0.33375514178E+01 -0.54239575134E+01  0.70308489962E+01  0.00000000000E+00 0.  1.
</event>
<event>
 8    1  0.3106980E-007  0.9118800E+02  0.7816164E-02  0.1184000E+00
        -11   -1    0    0    0    0  0.00000000000E+00  0.00000000000E+00  0.45593999997E+02  0.45594000000E+02  0.51100000000E-03 0. -1.
         11   -1    0    0    0    0 -0.00000000000E+00 -0.00000000000E+00 -0.45593999997E+02  0.45594000000E+02  0.51100000000E-03 0.  1.
         23    2    1    2    0    0  0.00000000000E+00 -0.71054273576E-14  0.35527136788E-14  0.91188000000E+02  0.91188000000E+02 0.  0.
    9900012    2    3    3    0    0  0.70124815968E+01  0.29836009225E+02 -0.20406303854E+02  0.54367087714E+02  0.40000008061E+02 0.  0.
         12    1    3    3    0    0 -0.70124815968E+01 -0.29836009225E+02  0.20406303854E+02  0.36820912286E+02  0.00000000000E+00 0. -1.
         11    1    4    4    0    0 -0.10229087610E+01 -0.65911360518E+00 -0.81122780528E+01  0.82030377633E+01  0.51100000000E-03 0.  1.
        -11    1    4    4    0    0 -0.62968223565E+01 -0.37130251862E+01 -0.90638141686E+00  0.73660067442E+01  0.51100000000E-03 0. -1.
         12    1    4    4    0    0  0.14332212714E+02  0.34208148016E+02 -0.11387644385E+02  0.38798043206E+02  0.00000000000E+00 0. -1.
</event>
<event>
 8    1  0.3106980E-007  0.9118800E+02  0.7816164E-02  0.1184000E+00
        -11   -1    0    0    0    0  0.00000000000E+00  0.00000000000E+00  0.45593999997E+02  0.45594000000E+02  0.51100000000E-03 0. -1.
         11   -1    0    0    0    0 -0.00000000000E+00 -0.00000000000E+00 -0.45593999997E+02  0.45594000000E+02  0.51100000000E-03 0.  1.
         23    2    1    2    0    0  0.00000000000E+00 -0.17763568394E-14  0.44408920985E-15  0.91188000000E+02  0.91188000000E+02 0.  0.
    9900012    2    3    3    0    0 -0.35248403518E+02  0.10211411874E+02 -0.30097845218E+01  0.54367059139E+02  0.39999942919E+02 0.  0.
         12    1    3    3    0    0  0.35248403518E+02 -0.10211411874E+02  0.30097845218E+01  0.36820940861E+02  0.00000000000E+00 0. -1.
         11    1    4    4    0    0 -0.19608072920E+01  0.12091219754E+02 -0.17452078156E+01  0.12372878038E+02  0.51100000000E-03 0. -1.
        -11    1    4    4    0    0 -0.22031070898E+02  0.62277047973E+01 -0.10644894491E+02  0.25248092422E+02  0.51100000000E-03 0.  1.
        -12    1    4    4    0    0 -0.11256525328E+02 -0.81075126773E+01  0.93803177852E+01  0.16746088678E+02  0.00000000000E+00 0.  1.
</event>
<event>
 8    1  0.3106980E-007  0.9118800E+02  0.7816164E-02  0.1184000E+00
        -11   -1    0    0    0    0  0.00000000000E+00  0.00000000000E+00  0.45593999997E+02  0.45594000000E+02  0.51100000000E-03 0.  1.
         11   -1    0    0    0    0 -0.00000000000E+00 -0.00000000000E+00 -0.45593999997E+02  0.45594000000E+02  0.51100000000E-03 0. -1.
         23    2    1    2    0    0  0.17763568394E-14  0.00000000000E+00  0.00000000000E+00  0.91188000000E+02  0.91188000000E+02 0.  0.
    9900012    2    3    3    0    0 -0.49665172339E+01  0.14351391299E+01 -0.36456190559E+02  0.54367085456E+02  0.40000002914E+02 0.  0.
        -12    1    3    3    0    0  0.49665172339E+01 -0.14351391299E+01  0.36456190559E+02  0.36820914544E+02  0.00000000000E+00 0.  1.
         11    1    4    4    0    0 -0.83657974175E+01  0.12807751231E+02 -0.24465370481E+02  0.28854452188E+02  0.51100000000E-03 0. -1.
        -11    1    4    4    0    0 -0.65369820966E+01 -0.10460006712E+02 -0.83309987383E+01  0.14884536122E+02  0.51100000000E-03 0.  1.
        -12    1    4    4    0    0  0.99362622803E+01 -0.91260538989E+00 -0.36598213397E+01  0.10628097146E+02  0.00000000000E+00 0.  1.
</event>
<event>
 8    1  0.3106980E-007  0.9118800E+02  0.7816164E-02  0.1184000E+00
        -11   -1    0    0    0    0  0.00000000000E+00  0.00000000000E+00  0.45593999997E+02  0.45594000000E+02  0.51100000000E-03 0.  1.
         11   -1    0    0    0    0 -0.00000000000E+00 -0.00000000000E+00 -0.45593999997E+02  0.45594000000E+02  0.51100000000E-03 0. -1.
         23    2    1    2    0    0 -0.88817841970E-15 -0.88817841970E-15  0.00000000000E+00  0.91188000000E+02  0.91188000000E+02 0.  0.
    9900012    2    3    3    0    0 -0.63492343541E+01  0.75085130506E+01 -0.35483643322E+02  0.54367088978E+02  0.40000010943E+02 0.  0.
        -12    1    3    3    0    0  0.63492343541E+01 -0.75085130506E+01  0.35483643322E+02  0.36820911022E+02  0.00000000000E+00 0.  1.
         11    1    4    4    0    0 -0.65346408551E+01  0.15154528429E+00 -0.22101570202E+01  0.68999486515E+01  0.51100000000E-03 0. -1.
        -11    1    4    4    0    0 -0.13865761387E+02  0.21362831519E+01 -0.40153190457E+01  0.14592663631E+02  0.51100000000E-03 0.  1.
        -12    1    4    4    0    0  0.14051167888E+02  0.52206846144E+01 -0.29258167256E+02  0.32874476696E+02  0.00000000000E+00 0.  1.
</event>
<event>
 8    1  0.3106980E-007  0.9118800E+02  0.7816164E-02  0.1184000E+00
        -11   -1    0    0    0    0  0.00000000000E+00  0.00000000000E+00  0.45593999997E+02  0.45594000000E+02  0.51100000000E-03 0. -1.
         11   -1    0    0    0    0 -0.00000000000E+00 -0.00000000000E+00 -0.45593999997E+02  0.45594000000E+02  0.51100000000E-03 0.  1.
         23    2    1    2    0    0  0.00000000000E+00 -0.35527136788E-14  0.00000000000E+00  0.91188000000E+02  0.91188000000E+02 0.  0.
    9900012    2    3    3    0    0  0.17058986452E+02 -0.23594163005E+02 -0.22540771875E+02  0.54367082801E+02  0.39999996861E+02 0.  0.
        -12    1    3    3    0    0 -0.17058986452E+02  0.23594163005E+02  0.22540771875E+02  0.36820917199E+02  0.00000000000E+00 0.  1.
         11    1    4    4    0    0  0.14408687261E+02 -0.11453365133E+02 -0.80988196379E+00  0.18424053585E+02  0.51100000000E-03 0. -1.
        -11    1    4    4    0    0 -0.10114644312E+02 -0.96701558974E+01 -0.52384222414E+01  0.14941854386E+02  0.51100000000E-03 0.  1.
        -12    1    4    4    0    0  0.12764943503E+02 -0.24706419752E+01 -0.16492467669E+02  0.21001174830E+02  0.00000000000E+00 0.  1.
</event>
<event>
 8    1  0.3106980E-007  0.9118800E+02  0.7816164E-02  0.1184000E+00
        -11   -1    0    0    0    0  0.00000000000E+00  0.00000000000E+00  0.45593999997E+02  0.45594000000E+02  0.51100000000E-03 0. -1.
         11   -1    0    0    0    0 -0.00000000000E+00 -0.00000000000E+00 -0.45593999997E+02  0.45594000000E+02  0.51100000000E-03 0.  1.
         23    2    1    2    0    0  0.00000000000E+00  0.00000000000E+00 -0.35527136788E-14  0.91188000000E+02  0.91188000000E+02 0.  0.
    9900012    2    3    3    0    0 -0.29596712944E+02  0.85121134360E+01 -0.20183046908E+02  0.54367124471E+02  0.40000091857E+02 0.  0.
         12    1    3    3    0    0  0.29596712944E+02 -0.85121134360E+01  0.20183046908E+02  0.36820875529E+02  0.00000000000E+00 0. -1.
         11    1    4    4    0    0 -0.11478028532E+00  0.68906885182E+01 -0.24072687705E+01  0.72999798604E+01  0.51100000000E-03 0. -1.
        -11    1    4    4    0    0 -0.19268075955E+02  0.16589617065E+02 -0.94526145938E+01  0.27126114139E+02  0.51100000000E-03 0.  1.
         12    1    4    4    0    0 -0.10213856703E+02 -0.14968192147E+02 -0.83231635435E+01  0.19941030472E+02  0.00000000000E+00 0. -1.
</event>
<event>
 8    1  0.3106980E-007  0.9118800E+02  0.7816164E-02  0.1184000E+00
        -11   -1    0    0    0    0  0.00000000000E+00  0.00000000000E+00  0.45593999997E+02  0.45594000000E+02  0.51100000000E-03 0. -1.
         11   -1    0    0    0    0 -0.00000000000E+00 -0.00000000000E+00 -0.45593999997E+02  0.45594000000E+02  0.51100000000E-03 0.  1.
         23    2    1    2    0    0  0.00000000000E+00  0.00000000000E+00  0.00000000000E+00  0.91188000000E+02  0.91188000000E+02 0.  0.
    9900012    2    3    3    0    0 -0.11382692123E+02 -0.32459943880E+02  0.13136422029E+02  0.54367092619E+02  0.40000019243E+02 0.  0.
        -12    1    3    3    0    0  0.11382692123E+02  0.32459943880E+02 -0.13136422029E+02  0.36820907381E+02  0.00000000000E+00 0.  1.
         11    1    4    4    0    0 -0.21577237917E+01 -0.11155388922E+02  0.11079355840E+02  0.15869801513E+02  0.51100000000E-03 0. -1.
        -11    1    4    4    0    0  0.82635516985E+01 -0.43427688143E+01 -0.78500249489E+01  0.12197082422E+02  0.51100000000E-03 0.  1.
        -12    1    4    4    0    0 -0.17488520029E+02 -0.16961786144E+02  0.99070911383E+01  0.26300208684E+02  0.00000000000E+00 0.  1.
</event>
<event>
 8    1  0.3106980E-007  0.9118800E+02  0.7816164E-02  0.1184000E+00
        -11   -1    0    0    0    0  0.00000000000E+00  0.00000000000E+00  0.45593999997E+02  0.45594000000E+02  0.51100000000E-03 0.  1.
         11   -1    0    0    0    0 -0.00000000000E+00 -0.00000000000E+00 -0.45593999997E+02  0.45594000000E+02  0.51100000000E-03 0. -1.
         23    2    1    2    0    0  0.00000000000E+00 -0.88817841970E-15  0.88817841970E-15  0.91188000000E+02  0.91188000000E+02 0.  0.
    9900012    2    3    3    0    0 -0.36079876517E+02  0.54198964886E+01  0.49644709084E+01  0.54367099158E+02  0.40000034151E+02 0.  0.
        -12    1    3    3    0    0  0.36079876517E+02 -0.54198964886E+01 -0.49644709084E+01  0.36820900842E+02  0.00000000000E+00 0.  1.
         11    1    4    4    0    0  0.42128686519E+01  0.38948593160E+01 -0.81018505238E+01  0.99276469287E+01  0.51100000000E-03 0. -1.
        -11    1    4    4    0    0 -0.18144744140E+02 -0.52298451576E+01  0.27215279734E+01  0.19078515012E+02  0.51100000000E-03 0.  1.
        -12    1    4    4    0    0 -0.22148001029E+02  0.67548823302E+01  0.10344793459E+02  0.25360937218E+02  0.00000000000E+00 0.  1.
</event>
<event>
 8    1  0.3106980E-007  0.9118800E+02  0.7816164E-02  0.1184000E+00
        -11   -1    0    0    0    0  0.00000000000E+00  0.00000000000E+00  0.45593999997E+02  0.45594000000E+02  0.51100000000E-03 0.  1.
         11   -1    0    0    0    0 -0.00000000000E+00 -0.00000000000E+00 -0.45593999997E+02  0.45594000000E+02  0.51100000000E-03 0. -1.
         23    2    1    2    0    0  0.35527136788E-14  0.00000000000E+00  0.00000000000E+00  0.91188000000E+02  0.91188000000E+02 0.  0.
    9900012    2    3    3    0    0  0.31943897718E+02 -0.16278804040E+02  0.83885171655E+01  0.54367091774E+02  0.40000017317E+02 0.  0.
         12    1    3    3    0    0 -0.31943897718E+02  0.16278804040E+02 -0.83885171655E+01  0.36820908226E+02  0.00000000000E+00 0. -1.
         11    1    4    4    0    0 -0.19519596936E+01 -0.98180052045E+01  0.21150416002E+00  0.10012397670E+02  0.51100000000E-03 0. -1.
        -11    1    4    4    0    0 -0.14328447356E+01 -0.42298689755E+01  0.77597882211E+01  0.89531641939E+01  0.51100000000E-03 0.  1.
        -12    1    4    4    0    0  0.35328702147E+02 -0.22309298599E+01  0.41722478441E+00  0.35401529909E+02  0.00000000000E+00 0.  1.
</event>
<event>
 8    1  0.3106980E-007  0.9118800E+02  0.7816164E-02  0.1184000E+00
        -11   -1    0    0    0    0  0.00000000000E+00  0.00000000000E+00  0.45593999997E+02  0.45594000000E+02  0.51100000000E-03 0.  1.
         11   -1    0    0    0    0 -0.00000000000E+00 -0.00000000000E+00 -0.45593999997E+02  0.45594000000E+02  0.51100000000E-03 0. -1.
         23    2    1    2    0    0  0.00000000000E+00  0.00000000000E+00  0.35527136788E-14  0.91188000000E+02  0.91188000000E+02 0.  0.
    9900012    2    3    3    0    0  0.11339557683E+02 -0.17968849360E+02  0.30071824472E+02  0.54367085524E+02  0.40000003069E+02 0.  0.
         12    1    3    3    0    0 -0.11339557683E+02  0.17968849360E+02 -0.30071824472E+02  0.36820914476E+02  0.00000000000E+00 0. -1.
         11    1    4    4    0    0 -0.41605029223E+01  0.46291415781E+01  0.30706444248E+01  0.69402877290E+01  0.51100000000E-03 0. -1.
        -11    1    4    4    0    0  0.81380670791E+01  0.20455838262E+01 -0.20381628050E+01  0.86351987154E+01  0.51100000000E-03 0.  1.
        -12    1    4    4    0    0  0.73619935265E+01 -0.24643574765E+02  0.29039342852E+02  0.38791599080E+02  0.00000000000E+00 0.  1.
</event>
<event>
 8    1  0.3106980E-007  0.9118800E+02  0.7816164E-02  0.1184000E+00
        -11   -1    0    0    0    0  0.00000000000E+00  0.00000000000E+00  0.45593999997E+02  0.45594000000E+02  0.51100000000E-03 0. -1.
         11   -1    0    0    0    0 -0.00000000000E+00 -0.00000000000E+00 -0.45593999997E+02  0.45594000000E+02  0.51100000000E-03 0.  1.
         23    2    1    2    0    0  0.00000000000E+00  0.00000000000E+00  0.00000000000E+00  0.91188000000E+02  0.91188000000E+02 0.  0.
    9900012    2    3    3    0    0  0.11701151410E+02 -0.25067963655E+02 -0.24299384766E+02  0.54367084122E+02  0.39999999873E+02 0.  0.
         12    1    3    3    0    0 -0.11701151410E+02  0.25067963655E+02  0.24299384766E+02  0.36820915878E+02  0.00000000000E+00 0. -1.
         11    1    4    4    0    0 -0.40110455366E+01 -0.44513036548E+01 -0.18405432881E+02  0.19356201857E+02  0.51100000000E-03 0.  1.
        -11    1    4    4    0    0 -0.21662493344E+01 -0.71429009275E+01  0.60761152893E+01  0.96245959452E+01  0.51100000000E-03 0. -1.
         12    1    4    4    0    0  0.17878446281E+02 -0.13473759072E+02 -0.11970067174E+02  0.25386286319E+02  0.00000000000E+00 0. -1.
</event>
<event>
 8    1  0.3106980E-007  0.9118800E+02  0.7816164E-02  0.1184000E+00
        -11   -1    0    0    0    0  0.00000000000E+00  0.00000000000E+00  0.45593999997E+02  0.45594000000E+02  0.51100000000E-03 0.  1.
         11   -1    0    0    0    0 -0.00000000000E+00 -0.00000000000E+00 -0.45593999997E+02  0.45594000000E+02  0.51100000000E-03 0. -1.
         23    2    1    2    0    0  0.00000000000E+00  0.00000000000E+00  0.35527136788E-14  0.91188000000E+02  0.91188000000E+02 0.  0.
    9900012    2    3    3    0    0  0.10218123925E+02 -0.30249791771E+02 -0.18339011110E+02  0.54367091711E+02  0.40000017174E+02 0.  0.
        -12    1    3    3    0    0 -0.10218123925E+02  0.30249791771E+02  0.18339011110E+02  0.36820908289E+02  0.00000000000E+00 0.  1.
         11    1    4    4    0    0  0.15816041148E+02 -0.23682916600E+02 -0.13457406120E+02  0.31498086862E+02  0.51100000000E-03 0. -1.
        -11    1    4    4    0    0  0.57152860278E+01 -0.88773749277E+01 -0.67397695999E+00  0.10579533316E+02  0.51100000000E-03 0.  1.
        -12    1    4    4    0    0 -0.11313203250E+02  0.23104997564E+01 -0.42076280300E+01  0.12289471532E+02  0.00000000000E+00 0.  1.
</event>
<event>
 8    1  0.3106980E-007  0.9118800E+02  0.7816164E-02  0.1184000E+00
        -11   -1    0    0    0    0  0.00000000000E+00  0.00000000000E+00  0.45593999997E+02  0.45594000000E+02  0.51100000000E-03 0. -1.
         11   -1    0    0    0    0 -0.00000000000E+00 -0.00000000000E+00 -0.45593999997E+02  0.45594000000E+02  0.51100000000E-03 0.  1.
         23    2    1    2    0    0  0.00000000000E+00 -0.35527136788E-14  0.00000000000E+00  0.91188000000E+02  0.91188000000E+02 0.  0.
    9900012    2    3    3    0    0  0.22185413531E+01 -0.18594316642E+02  0.31703457131E+02  0.54367085682E+02  0.40000003430E+02 0.  0.
        -12    1    3    3    0    0 -0.22185413531E+01  0.18594316642E+02 -0.31703457131E+02  0.36820914318E+02  0.00000000000E+00 0.  1.
         11    1    4    4    0    0  0.38874003869E+01  0.28432703674E+01  0.86488940611E+01  0.98994664952E+01  0.51100000000E-03 0. -1.
        -11    1    4    4    0    0  0.64983776572E+01 -0.97305363274E+01 -0.52058525757E+01  0.12806761913E+02  0.51100000000E-03 0.  1.
         12    1    4    4    0    0 -0.81672366910E+01 -0.11707050682E+02  0.28260415646E+02  0.31660857274E+02  0.00000000000E+00 0. -1.
</event>
<event>
 8    1  0.3106980E-007  0.9118800E+02  0.7816164E-02  0.1184000E+00
        -11   -1    0    0    0    0  0.00000000000E+00  0.00000000000E+00  0.45593999997E+02  0.45594000000E+02  0.51100000000E-03 0.  1.
         11   -1    0    0    0    0 -0.00000000000E+00 -0.00000000000E+00 -0.45593999997E+02  0.45594000000E+02  0.51100000000E-03 0. -1.
         23    2    1    2    0    0  0.00000000000E+00  0.00000000000E+00 -0.35527136788E-14  0.91188000000E+02  0.91188000000E+02 0.  0.
    9900012    2    3    3    0    0  0.89965467995E+01 -0.17635306024E+02 -0.31045750328E+02  0.54367075429E+02  0.39999980055E+02 0.  0.
        -12    1    3    3    0    0 -0.89965467995E+01  0.17635306024E+02  0.31045750328E+02  0.36820924571E+02  0.00000000000E+00 0.  1.
         11    1    4    4    0    0 -0.15339393088E+01  0.48269248952E+01 -0.46308521315E+01  0.68627228905E+01  0.51100000000E-03 0. -1.
        -11    1    4    4    0    0 -0.84100196286E+01 -0.11849573551E+01  0.23397036782E+00  0.84963107571E+01  0.51100000000E-03 0.  1.
        -12    1    4    4    0    0  0.18940505737E+02 -0.21277273564E+02 -0.26648868564E+02  0.39008041781E+02  0.00000000000E+00 0.  1.
</event>
<event>
 8    1  0.3106980E-007  0.9118800E+02  0.7816164E-02  0.1184000E+00
        -11   -1    0    0    0    0  0.00000000000E+00  0.00000000000E+00  0.45593999997E+02  0.45594000000E+02  0.51100000000E-03 0. -1.
         11   -1    0    0    0    0 -0.00000000000E+00 -0.00000000000E+00 -0.45593999997E+02  0.45594000000E+02  0.51100000000E-03 0.  1.
         23    2    1    2    0    0  0.00000000000E+00  0.00000000000E+00  0.00000000000E+00  0.91188000000E+02  0.91188000000E+02 0.  0.
    9900012    2    3    3    0    0  0.19577326073E+02  0.17241406765E+02 -0.25985403274E+02  0.54367095791E+02  0.40000026476E+02 0.  0.
         12    1    3    3    0    0 -0.19577326073E+02 -0.17241406765E+02  0.25985403274E+02  0.36820904209E+02  0.00000000000E+00 0. -1.
         11    1    4    4    0    0  0.10042494306E+02 -0.43931423435E+01  0.24278673474E+00  0.10964047483E+02  0.51100000000E-03 0. -1.
        -11    1    4    4    0    0  0.14242840313E+02  0.21752220932E+01 -0.89820500772E+01  0.16978436771E+02  0.51100000000E-03 0.  1.
        -12    1    4    4    0    0 -0.47080085464E+01  0.19459327016E+02 -0.17246139932E+02  0.26424611538E+02  0.00000000000E+00 0.  1.
</event>
<event>
 8    1  0.3106980E-007  0.9118800E+02  0.7816164E-02  0.1184000E+00
        -11   -1    0    0    0    0  0.00000000000E+00  0.00000000000E+00  0.45593999997E+02  0.45594000000E+02  0.51100000000E-03 0. -1.
         11   -1    0    0    0    0 -0.00000000000E+00 -0.00000000000E+00 -0.45593999997E+02  0.45594000000E+02  0.51100000000E-03 0.  1.
         23    2    1    2    0    0 -0.17763568394E-14  0.00000000000E+00  0.00000000000E+00  0.91188000000E+02  0.91188000000E+02 0.  0.
    9900012    2    3    3    0    0  0.14344092763E+02  0.29813295674E+02 -0.16161486269E+02  0.54367092426E+02  0.40000018804E+02 0.  0.
         12    1    3    3    0    0 -0.14344092763E+02 -0.29813295674E+02  0.16161486269E+02  0.36820907574E+02  0.00000000000E+00 0. -1.
         11    1    4    4    0    0 -0.27410073200E+01  0.31149512904E+01 -0.74167115335E+01  0.84984500294E+01  0.51100000000E-03 0.  1.
        -11    1    4    4    0    0 -0.88543554202E+00  0.78194880420E+01  0.10748351825E+02  0.13321240803E+02  0.51100000000E-03 0. -1.
         12    1    4    4    0    0  0.17970535625E+02  0.18878856342E+02 -0.19493126560E+02  0.32547401594E+02  0.00000000000E+00 0. -1.
</event>
<event>
 8    1  0.3106980E-007  0.9118800E+02  0.7816164E-02  0.1184000E+00
        -11   -1    0    0    0    0  0.00000000000E+00  0.00000000000E+00  0.45593999997E+02  0.45594000000E+02  0.51100000000E-03 0.  1.
         11   -1    0    0    0    0 -0.00000000000E+00 -0.00000000000E+00 -0.45593999997E+02  0.45594000000E+02  0.51100000000E-03 0. -1.
         23    2    1    2    0    0  0.00000000000E+00  0.00000000000E+00  0.44408920985E-15  0.91188000000E+02  0.91188000000E+02 0.  0.
    9900012    2    3    3    0    0 -0.30675151095E+02 -0.20224466624E+02 -0.24072889240E+01  0.54366960025E+02  0.39999716967E+02 0.  0.
         12    1    3    3    0    0  0.30675151095E+02  0.20224466624E+02  0.24072889240E+01  0.36821039975E+02  0.00000000000E+00 0. -1.
         11    1    4    4    0    0 -0.11357033478E+02 -0.67567363997E+00 -0.77679037898E+01  0.13776032587E+02  0.51100000000E-03 0. -1.
        -11    1    4    4    0    0 -0.12530119261E+02  0.11400666192E+01  0.12441556394E+02  0.17694517975E+02  0.51100000000E-03 0.  1.
         12    1    4    4    0    0 -0.67879983555E+01 -0.20688859603E+02 -0.70809415282E+01  0.22896409463E+02  0.00000000000E+00 0. -1.
</event>
<event>
 8    1  0.3106980E-007  0.9118800E+02  0.7816164E-02  0.1184000E+00
        -11   -1    0    0    0    0  0.00000000000E+00  0.00000000000E+00  0.45593999997E+02  0.45594000000E+02  0.51100000000E-03 0.  1.
         11   -1    0    0    0    0 -0.00000000000E+00 -0.00000000000E+00 -0.45593999997E+02  0.45594000000E+02  0.51100000000E-03 0. -1.
         23    2    1    2    0    0 -0.18873791419E-14  0.19984014443E-14  0.00000000000E+00  0.91188000000E+02  0.91188000000E+02 0.  0.
    9900012    2    3    3    0    0 -0.61803555499E+00  0.60871464151E+00 -0.36810702379E+02  0.54367077808E+02  0.39999985479E+02 0.  0.
        -12    1    3    3    0    0  0.61803555499E+00 -0.60871464151E+00  0.36810702379E+02  0.36820922192E+02  0.00000000000E+00 0.  1.
         11    1    4    4    0    0 -0.74669153394E+00  0.69996670287E+01 -0.22839257135E+02  0.23899467641E+02  0.51100000000E-03 0. -1.
        -11    1    4    4    0    0 -0.11652421514E+02  0.20748843366E+01 -0.98167801259E+01  0.15377036270E+02  0.51100000000E-03 0.  1.
         12    1    4    4    0    0  0.11781077493E+02 -0.84658367238E+01 -0.41546651175E+01  0.15090573898E+02  0.00000000000E+00 0. -1.
</event>
<event>
 8    1  0.3106980E-007  0.9118800E+02  0.7816164E-02  0.1184000E+00
        -11   -1    0    0    0    0  0.00000000000E+00  0.00000000000E+00  0.45593999997E+02  0.45594000000E+02  0.51100000000E-03 0.  1.
         11   -1    0    0    0    0 -0.00000000000E+00 -0.00000000000E+00 -0.45593999997E+02  0.45594000000E+02  0.51100000000E-03 0. -1.
         23    2    1    2    0    0  0.17763568394E-14 -0.17763568394E-14  0.71054273576E-14  0.91188000000E+02  0.91188000000E+02 0.  0.
    9900012    2    3    3    0    0 -0.14561315615E+02  0.93721909958E+01 -0.32494741122E+02  0.54367108144E+02  0.40000054635E+02 0.  0.
        -12    1    3    3    0    0  0.14561315615E+02 -0.93721909958E+01  0.32494741122E+02  0.36820891856E+02  0.00000000000E+00 0.  1.
         11    1    4    4    0    0  0.13432091226E+01 -0.98083173667E+01 -0.12213235826E+02  0.15721654808E+02  0.51100000000E-03 0. -1.
        -11    1    4    4    0    0 -0.18091941364E+02  0.55288452761E+01 -0.98697141736E+01  0.21337706777E+02  0.51100000000E-03 0.  1.
         12    1    4    4    0    0  0.21874166264E+01  0.13651663086E+02 -0.10411791123E+02  0.17307746558E+02  0.00000000000E+00 0. -1.
</event>
<event>
 8    1  0.3106980E-007  0.9118800E+02  0.7816164E-02  0.1184000E+00
        -11   -1    0    0    0    0  0.00000000000E+00  0.00000000000E+00  0.45593999997E+02  0.45594000000E+02  0.51100000000E-03 0. -1.
         11   -1    0    0    0    0 -0.00000000000E+00 -0.00000000000E+00 -0.45593999997E+02  0.45594000000E+02  0.51100000000E-03 0.  1.
         23    2    1    2    0    0 -0.17763568394E-14  0.71054273576E-14 -0.17763568394E-14  0.91188000000E+02  0.91188000000E+02 0.  0.
    9900012    2    3    3    0    0  0.12769936368E+02  0.33417997217E+02 -0.87146909104E+01  0.54367086778E+02  0.40000005927E+02 0.  0.
        -12    1    3    3    0    0 -0.12769936368E+02 -0.33417997217E+02  0.87146909104E+01  0.36820913222E+02  0.00000000000E+00 0.  1.
         11    1    4    4    0    0  0.17383058987E+02  0.14534783175E+02  0.50569121758E+01  0.23216438630E+02  0.51100000000E-03 0. -1.
        -11    1    4    4    0    0  0.48147016005E+01  0.10263845403E+01 -0.92188643686E+01  0.10450946236E+02  0.51100000000E-03 0.  1.
         12    1    4    4    0    0 -0.94278242187E+01  0.17856829502E+02 -0.45527387176E+01  0.20699701911E+02  0.00000000000E+00 0. -1.
</event>
<event>
 8    1  0.3106980E-007  0.9118800E+02  0.7816164E-02  0.1184000E+00
        -11   -1    0    0    0    0  0.00000000000E+00  0.00000000000E+00  0.45593999997E+02  0.45594000000E+02  0.51100000000E-03 0.  1.
         11   -1    0    0    0    0 -0.00000000000E+00 -0.00000000000E+00 -0.45593999997E+02  0.45594000000E+02  0.51100000000E-03 0. -1.
         23    2    1    2    0    0  0.00000000000E+00  0.00000000000E+00  0.00000000000E+00  0.91188000000E+02  0.91188000000E+02 0.  0.
    9900012    2    3    3    0    0 -0.38452113723E+01  0.93586689083E+01 -0.35403528227E+02  0.54367080061E+02  0.39999990615E+02 0.  0.
        -12    1    3    3    0    0  0.38452113723E+01 -0.93586689083E+01  0.35403528227E+02  0.36820919939E+02  0.00000000000E+00 0.  1.
         11    1    4    4    0    0 -0.14093073368E+02  0.57988038802E+01 -0.76645135355E+01  0.17058300366E+02  0.51100000000E-03 0. -1.
        -11    1    4    4    0    0  0.26963749828E+01 -0.86914121271E+01 -0.17240643191E+02  0.19494893196E+02  0.51100000000E-03 0.  1.
         12    1    4    4    0    0  0.75514870125E+01  0.12251277155E+02 -0.10498371501E+02  0.17813886499E+02  0.00000000000E+00 0. -1.
</event>
<event>
 8    1  0.3106980E-007  0.9118800E+02  0.7816164E-02  0.1184000E+00
        -11   -1    0    0    0    0  0.00000000000E+00  0.00000000000E+00  0.45593999997E+02  0.45594000000E+02  0.51100000000E-03 0.  1.
         11   -1    0    0    0    0 -0.00000000000E+00 -0.00000000000E+00 -0.45593999997E+02  0.45594000000E+02  0.51100000000E-03 0. -1.
         23    2    1    2    0    0  0.35527136788E-14  0.17763568394E-14  0.00000000000E+00  0.91188000000E+02  0.91188000000E+02 0.  0.
    9900012    2    3    3    0    0 -0.31039015920E+02 -0.13401336169E+02 -0.14586448408E+02  0.54367071202E+02  0.39999970419E+02 0.  0.
         12    1    3    3    0    0  0.31039015920E+02  0.13401336169E+02  0.14586448408E+02  0.36820928798E+02  0.00000000000E+00 0. -1.
         11    1    4    4    0    0 -0.18669811521E+02  0.10431692805E+02 -0.51291457686E+01  0.21992958273E+02  0.51100000000E-03 0. -1.
        -11    1    4    4    0    0 -0.13954495894E+02 -0.25030731102E+02 -0.75860609146E+01  0.29644793398E+02  0.51100000000E-03 0.  1.
        -12    1    4    4    0    0  0.15852914944E+01  0.11977021276E+01 -0.18712417249E+01  0.27293195309E+01  0.00000000000E+00 0.  1.
</event>
<event>
 8    1  0.3106980E-007  0.9118800E+02  0.7816164E-02  0.1184000E+00
        -11   -1    0    0    0    0  0.00000000000E+00  0.00000000000E+00  0.45593999997E+02  0.45594000000E+02  0.51100000000E-03 0.  1.
         11   -1    0    0    0    0 -0.00000000000E+00 -0.00000000000E+00 -0.45593999997E+02  0.45594000000E+02  0.51100000000E-03 0. -1.
         23    2    1    2    0    0  0.35527136788E-14  0.17763568394E-14  0.00000000000E+00  0.91188000000E+02  0.91188000000E+02 0.  0.
    9900012    2    3    3    0    0 -0.31040762684E+02 -0.99496479625E+01 -0.17125265904E+02  0.54366821654E+02  0.39999401519E+02 0.  0.
        -12    1    3    3    0    0  0.31040762684E+02  0.99496479625E+01  0.17125265904E+02  0.36821178346E+02  0.00000000000E+00 0.  1.
         11    1    4    4    0    0 -0.33130344574E+02 -0.12400189967E+02 -0.10489612911E+01  0.35390461467E+02  0.51100000000E-03 0. -1.
        -11    1    4    4    0    0  0.30622963188E+01 -0.16769973999E+01 -0.15075509882E+01  0.38029842580E+01  0.51100000000E-03 0.  1.
         12    1    4    4    0    0 -0.97271442815E+00  0.41275394044E+01 -0.14568753624E+02  0.15173375928E+02  0.00000000000E+00 0. -1.
</event>
<event>
 8    1  0.3106980E-007  0.9118800E+02  0.7816164E-02  0.1184000E+00
        -11   -1    0    0    0    0  0.00000000000E+00  0.00000000000E+00  0.45593999997E+02  0.45594000000E+02  0.51100000000E-03 0.  1.
         11   -1    0    0    0    0 -0.00000000000E+00 -0.00000000000E+00 -0.45593999997E+02  0.45594000000E+02  0.51100000000E-03 0. -1.
         23    2    1    2    0    0  0.26645352591E-14  0.17763568394E-14  0.00000000000E+00  0.91188000000E+02  0.91188000000E+02 0.  0.
    9900012    2    3    3    0    0 -0.71773482768E+01 -0.13255114684E+02  0.33594152464E+02  0.54367089184E+02  0.40000011412E+02 0.  0.
         12    1    3    3    0    0  0.71773482768E+01  0.13255114684E+02 -0.33594152464E+02  0.36820910816E+02  0.00000000000E+00 0. -1.
         11    1    4    4    0    0 -0.35648473762E+01 -0.11667338045E+02  0.20398552593E+02  0.23768379457E+02  0.51100000000E-03 0. -1.
        -11    1    4    4    0    0 -0.14071483989E+02  0.33934347008E+01  0.12272745402E+02  0.18977416597E+02  0.51100000000E-03 0.  1.
         12    1    4    4    0    0  0.10458983088E+02 -0.49812113398E+01  0.92285446884E+00  0.11621293130E+02  0.00000000000E+00 0. -1.
</event>
<event>
 8    1  0.3106980E-007  0.9118800E+02  0.7816164E-02  0.1184000E+00
        -11   -1    0    0    0    0  0.00000000000E+00  0.00000000000E+00  0.45593999997E+02  0.45594000000E+02  0.51100000000E-03 0.  1.
         11   -1    0    0    0    0 -0.00000000000E+00 -0.00000000000E+00 -0.45593999997E+02  0.45594000000E+02  0.51100000000E-03 0. -1.
         23    2    1    2    0    0  0.35527136788E-14 -0.44408920985E-15  0.00000000000E+00  0.91188000000E+02  0.91188000000E+02 0.  0.
    9900012    2    3    3    0    0 -0.17119193298E+02  0.24502158131E+01 -0.32507065669E+02  0.54367086716E+02  0.40000005786E+02 0.  0.
        -12    1    3    3    0    0  0.17119193298E+02 -0.24502158131E+01  0.32507065669E+02  0.36820913284E+02  0.00000000000E+00 0.  1.
         11    1    4    4    0    0 -0.64954916742E+01  0.14403219602E+02 -0.13063187678E+02  0.20501000453E+02  0.51100000000E-03 0. -1.
        -11    1    4    4    0    0  0.42351791111E+01 -0.10715317095E+02 -0.35117702560E+01  0.12045218684E+02  0.51100000000E-03 0.  1.
         12    1    4    4    0    0 -0.14858880734E+02 -0.12376866939E+01 -0.15932107735E+02  0.21820867579E+02  0.00000000000E+00 0. -1.
</event>
<event>
 8    1  0.3106980E-007  0.9118800E+02  0.7816164E-02  0.1184000E+00
        -11   -1    0    0    0    0  0.00000000000E+00  0.00000000000E+00  0.45593999997E+02  0.45594000000E+02  0.51100000000E-03 0. -1.
         11   -1    0    0    0    0 -0.00000000000E+00 -0.00000000000E+00 -0.45593999997E+02  0.45594000000E+02  0.51100000000E-03 0.  1.
         23    2    1    2    0    0  0.00000000000E+00 -0.17763568394E-14 -0.71054273576E-14  0.91188000000E+02  0.91188000000E+02 0.  0.
    9900012    2    3    3    0    0 -0.13899505820E+02 -0.10267005829E+02 -0.32514185180E+02  0.54367083272E+02  0.39999997936E+02 0.  0.
         12    1    3    3    0    0  0.13899505820E+02  0.10267005829E+02  0.32514185180E+02  0.36820916728E+02  0.00000000000E+00 0. -1.
         11    1    4    4    0    0 -0.44641080416E+01 -0.14396943667E+01 -0.81401065351E+01  0.93948025599E+01  0.51100000000E-03 0. -1.
        -11    1    4    4    0    0  0.55198483209E+00 -0.21555221282E+02 -0.12737692491E+02  0.25043583251E+02  0.51100000000E-03 0.  1.
         12    1    4    4    0    0 -0.99873826103E+01  0.12727909820E+02 -0.11636386154E+02  0.19928697461E+02  0.00000000000E+00 0. -1.
</event>
<event>
 8    1  0.3106980E-007  0.9118800E+02  0.7816164E-02  0.1184000E+00
        -11   -1    0    0    0    0  0.00000000000E+00  0.00000000000E+00  0.45593999997E+02  0.45594000000E+02  0.51100000000E-03 0. -1.
         11   -1    0    0    0    0 -0.00000000000E+00 -0.00000000000E+00 -0.45593999997E+02  0.45594000000E+02  0.51100000000E-03 0.  1.
         23    2    1    2    0    0  0.00000000000E+00  0.00000000000E+00  0.00000000000E+00  0.91188000000E+02  0.91188000000E+02 0.  0.
    9900012    2    3    3    0    0  0.29004094173E+02 -0.22233953067E+02 -0.44937423167E+01  0.54367083827E+02  0.39999999200E+02 0.  0.
        -12    1    3    3    0    0 -0.29004094173E+02  0.22233953067E+02  0.44937423167E+01  0.36820916173E+02  0.00000000000E+00 0.  1.
         11    1    4    4    0    0  0.25834724521E+02  0.78196723850E+00  0.62792075433E+01  0.26598362947E+02  0.51100000000E-03 0. -1.
        -11    1    4    4    0    0  0.21898155811E+01 -0.52969309091E+01 -0.79481183313E+01  0.97992527574E+01  0.51100000000E-03 0.  1.
        -12    1    4    4    0    0  0.97955407129E+00 -0.17718989397E+02 -0.28248315288E+01  0.17969468122E+02  0.00000000000E+00 0.  1.
</event>
<event>
 8    1  0.3106980E-007  0.9118800E+02  0.7816164E-02  0.1184000E+00
        -11   -1    0    0    0    0  0.00000000000E+00  0.00000000000E+00  0.45593999997E+02  0.45594000000E+02  0.51100000000E-03 0. -1.
         11   -1    0    0    0    0 -0.00000000000E+00 -0.00000000000E+00 -0.45593999997E+02  0.45594000000E+02  0.51100000000E-03 0.  1.
         23    2    1    2    0    0  0.00000000000E+00  0.28865798640E-14  0.71054273576E-14  0.91188000000E+02  0.91188000000E+02 0.  0.
    9900012    2    3    3    0    0 -0.56437155949E+01  0.19130452618E+01  0.36335507076E+02  0.54367077383E+02  0.39999984510E+02 0.  0.
        -12    1    3    3    0    0  0.56437155949E+01 -0.19130452618E+01 -0.36335507076E+02  0.36820922617E+02  0.00000000000E+00 0.  1.
         11    1    4    4    0    0  0.62787783179E+00 -0.15289964356E+02  0.86227844730E+01  0.17565012181E+02  0.51100000000E-03 0. -1.
        -11    1    4    4    0    0 -0.14818541478E+01 -0.17573182102E+00 -0.17265362936E+01  0.22820388302E+01  0.51100000000E-03 0.  1.
         12    1    4    4    0    0 -0.47897392789E+01  0.17378741439E+02  0.29439258897E+02  0.34520026372E+02  0.00000000000E+00 0. -1.
</event>
<event>
 8    1  0.3106980E-007  0.9118800E+02  0.7816164E-02  0.1184000E+00
        -11   -1    0    0    0    0  0.00000000000E+00  0.00000000000E+00  0.45593999997E+02  0.45594000000E+02  0.51100000000E-03 0.  1.
         11   -1    0    0    0    0 -0.00000000000E+00 -0.00000000000E+00 -0.45593999997E+02  0.45594000000E+02  0.51100000000E-03 0. -1.
         23    2    1    2    0    0  0.00000000000E+00  0.00000000000E+00  0.00000000000E+00  0.91188000000E+02  0.91188000000E+02 0.  0.
    9900012    2    3    3    0    0 -0.85763314588E+01  0.23380542658E+02 -0.27121415927E+02  0.54367157558E+02  0.40000167284E+02 0.  0.
        -12    1    3    3    0    0  0.85763314588E+01 -0.23380542658E+02  0.27121415927E+02  0.36820842442E+02  0.00000000000E+00 0.  1.
         11    1    4    4    0    0 -0.88519713827E+01 -0.84600867095E+01 -0.10647971001E+02  0.16226821968E+02  0.51100000000E-03 0. -1.
        -11    1    4    4    0    0  0.15370130366E+01  0.20082907886E+00 -0.36717227213E+01  0.39855099294E+01  0.51100000000E-03 0.  1.
        -12    1    4    4    0    0 -0.12613731127E+01  0.31639800289E+02 -0.12801722204E+02  0.34154825660E+02  0.00000000000E+00 0.  1.
</event>
<event>
 8    1  0.3106980E-007  0.9118800E+02  0.7816164E-02  0.1184000E+00
        -11   -1    0    0    0    0  0.00000000000E+00  0.00000000000E+00  0.45593999997E+02  0.45594000000E+02  0.51100000000E-03 0. -1.
         11   -1    0    0    0    0 -0.00000000000E+00 -0.00000000000E+00 -0.45593999997E+02  0.45594000000E+02  0.51100000000E-03 0.  1.
         23    2    1    2    0    0  0.17763568394E-14  0.00000000000E+00  0.88817841970E-15  0.91188000000E+02  0.91188000000E+02 0.  0.
    9900012    2    3    3    0    0  0.15888372147E+02 -0.32695320229E+02 -0.58613826886E+01  0.54367080112E+02  0.39999990732E+02 0.  0.
         12    1    3    3    0    0 -0.15888372147E+02  0.32695320229E+02  0.58613826886E+01  0.36820919888E+02  0.00000000000E+00 0. -1.
         11    1    4    4    0    0  0.39760000916E+01 -0.12389239208E+02 -0.82113856497E+01  0.15385989713E+02  0.51100000000E-03 0. -1.
        -11    1    4    4    0    0 -0.54549066998E+01 -0.13108802293E+02 -0.91985294459E+01  0.16917731789E+02  0.51100000000E-03 0.  1.
         12    1    4    4    0    0  0.17367278755E+02 -0.71972787278E+01  0.11548532407E+02  0.22063358611E+02  0.00000000000E+00 0. -1.
</event>
<event>
 8    1  0.3106980E-007  0.9118800E+02  0.7816164E-02  0.1184000E+00
        -11   -1    0    0    0    0  0.00000000000E+00  0.00000000000E+00  0.45593999997E+02  0.45594000000E+02  0.51100000000E-03 0.  1.
         11   -1    0    0    0    0 -0.00000000000E+00 -0.00000000000E+00 -0.45593999997E+02  0.45594000000E+02  0.51100000000E-03 0. -1.
         23    2    1    2    0    0  0.35527136788E-14  0.00000000000E+00  0.00000000000E+00  0.91188000000E+02  0.91188000000E+02 0.  0.
    9900012    2    3    3    0    0  0.17388057936E+02  0.31883335289E+02 -0.60736877945E+01  0.54367064225E+02  0.39999954514E+02 0.  0.
         12    1    3    3    0    0 -0.17388057936E+02 -0.31883335289E+02  0.60736877945E+01  0.36820935775E+02  0.00000000000E+00 0. -1.
         11    1    4    4    0    0  0.69992100238E+00  0.10978383787E+02 -0.11722609976E+02  0.16075894529E+02  0.51100000000E-03 0. -1.
        -11    1    4    4    0    0  0.23803335227E+02  0.19121344963E+02  0.43210085333E+01  0.30836597026E+02  0.51100000000E-03 0.  1.
         12    1    4    4    0    0 -0.71151982934E+01  0.17836065385E+01  0.13279136485E+01  0.74545726703E+01  0.00000000000E+00 0. -1.
</event>
<event>
 8    1  0.3106980E-007  0.9118800E+02  0.7816164E-02  0.1184000E+00
        -11   -1    0    0    0    0  0.00000000000E+00  0.00000000000E+00  0.45593999997E+02  0.45594000000E+02  0.51100000000E-03 0.  1.
         11   -1    0    0    0    0 -0.00000000000E+00 -0.00000000000E+00 -0.45593999997E+02  0.45594000000E+02  0.51100000000E-03 0. -1.
         23    2    1    2    0    0 -0.17763568394E-14  0.00000000000E+00 -0.35527136788E-14  0.91188000000E+02  0.91188000000E+02 0.  0.
    9900012    2    3    3    0    0  0.12688488498E+02 -0.27862803154E+02 -0.20455966276E+02  0.54367080725E+02  0.39999992129E+02 0.  0.
        -12    1    3    3    0    0 -0.12688488498E+02  0.27862803154E+02  0.20455966276E+02  0.36820919275E+02  0.00000000000E+00 0.  1.
         11    1    4    4    0    0  0.11953918784E+02 -0.11094087100E+02 -0.87637625408E+01  0.18514277653E+02  0.51100000000E-03 0. -1.
        -11    1    4    4    0    0  0.11418992738E+02 -0.54491725018E+01  0.44651905953E+01  0.13417332202E+02  0.51100000000E-03 0.  1.
         12    1    4    4    0    0 -0.10684423024E+02 -0.11319543552E+02 -0.16157394331E+02  0.22435470870E+02  0.00000000000E+00 0. -1.
</event>
<event>
 8    1  0.3106980E-007  0.9118800E+02  0.7816164E-02  0.1184000E+00
        -11   -1    0    0    0    0  0.00000000000E+00  0.00000000000E+00  0.45593999997E+02  0.45594000000E+02  0.51100000000E-03 0.  1.
         11   -1    0    0    0    0 -0.00000000000E+00 -0.00000000000E+00 -0.45593999997E+02  0.45594000000E+02  0.51100000000E-03 0. -1.
         23    2    1    2    0    0  0.35527136788E-14  0.00000000000E+00  0.00000000000E+00  0.91188000000E+02  0.91188000000E+02 0.  0.
    9900012    2    3    3    0    0 -0.25367438474E+02 -0.78086520537E+00 -0.26677021349E+02  0.54367079951E+02  0.39999990364E+02 0.  0.
        -12    1    3    3    0    0  0.25367438474E+02  0.78086520537E+00  0.26677021349E+02  0.36820920049E+02  0.00000000000E+00 0.  1.
         11    1    4    4    0    0 -0.27361003774E+01  0.19581001201E+01 -0.27910711157E+02  0.28112776435E+02  0.51100000000E-03 0. -1.
        -11    1    4    4    0    0 -0.54397958824E+01 -0.66480774852E+01  0.64268433103E+00  0.86140209485E+01  0.51100000000E-03 0.  1.
        -12    1    4    4    0    0 -0.17191542214E+02  0.39091121598E+01  0.59100547630E+00  0.17640282567E+02  0.00000000000E+00 0.  1.
</event>
<event>
 8    1  0.3106980E-007  0.9118800E+02  0.7816164E-02  0.1184000E+00
        -11   -1    0    0    0    0  0.00000000000E+00  0.00000000000E+00  0.45593999997E+02  0.45594000000E+02  0.51100000000E-03 0. -1.
         11   -1    0    0    0    0 -0.00000000000E+00 -0.00000000000E+00 -0.45593999997E+02  0.45594000000E+02  0.51100000000E-03 0.  1.
         23    2    1    2    0    0  0.35527136788E-14  0.00000000000E+00 -0.17763568394E-14  0.91188000000E+02  0.91188000000E+02 0.  0.
    9900012    2    3    3    0    0 -0.30828618708E+02  0.13124367959E+02  0.15268501558E+02  0.54367083314E+02  0.39999998031E+02 0.  0.
         12    1    3    3    0    0  0.30828618708E+02 -0.13124367959E+02 -0.15268501558E+02  0.36820916686E+02  0.00000000000E+00 0. -1.
         11    1    4    4    0    0 -0.16007107848E+02  0.14489623920E+02 -0.28178754101E+01  0.21774230758E+02  0.51100000000E-03 0. -1.
        -11    1    4    4    0    0 -0.39671045030E+01  0.87924080420E+01  0.63325299926E+00  0.96667143817E+01  0.51100000000E-03 0.  1.
         12    1    4    4    0    0 -0.10854406357E+02 -0.10157664003E+02  0.17453123969E+02  0.22926138175E+02  0.00000000000E+00 0. -1.
</event>
<event>
 8    1  0.3106980E-007  0.9118800E+02  0.7816164E-02  0.1184000E+00
        -11   -1    0    0    0    0  0.00000000000E+00  0.00000000000E+00  0.45593999997E+02  0.45594000000E+02  0.51100000000E-03 0.  1.
         11   -1    0    0    0    0 -0.00000000000E+00 -0.00000000000E+00 -0.45593999997E+02  0.45594000000E+02  0.51100000000E-03 0. -1.
         23    2    1    2    0    0 -0.35527136788E-14  0.13322676296E-14 -0.35527136788E-14  0.91188000000E+02  0.91188000000E+02 0.  0.
    9900012    2    3    3    0    0  0.30414309605E+02 -0.35781418279E+01  0.20443745136E+02  0.54367081450E+02  0.39999993781E+02 0.  0.
         12    1    3    3    0    0 -0.30414309605E+02  0.35781418279E+01 -0.20443745136E+02  0.36820918550E+02  0.00000000000E+00 0. -1.
         11    1    4    4    0    0 -0.35980475467E+01 -0.89487162476E+01  0.64617322612E+01  0.11609455315E+02  0.51100000000E-03 0. -1.
        -11    1    4    4    0    0  0.27572386422E+02 -0.16655097128E+01  0.17376115835E+02  0.32633415656E+02  0.51100000000E-03 0.  1.
        -12    1    4    4    0    0  0.64399707297E+01  0.70360841325E+01 -0.33941029602E+01  0.10124210479E+02  0.00000000000E+00 0.  1.
</event>
<event>
 8    1  0.3106980E-007  0.9118800E+02  0.7816164E-02  0.1184000E+00
        -11   -1    0    0    0    0  0.00000000000E+00  0.00000000000E+00  0.45593999997E+02  0.45594000000E+02  0.51100000000E-03 0.  1.
         11   -1    0    0    0    0 -0.00000000000E+00 -0.00000000000E+00 -0.45593999997E+02  0.45594000000E+02  0.51100000000E-03 0. -1.
         23    2    1    2    0    0  0.00000000000E+00 -0.35527136788E-14  0.00000000000E+00  0.91188000000E+02  0.91188000000E+02 0.  0.
    9900012    2    3    3    0    0  0.88443762100E+01 -0.28809076341E+02  0.21156401868E+02  0.54367092758E+02  0.40000019560E+02 0.  0.
         12    1    3    3    0    0 -0.88443762100E+01  0.28809076341E+02 -0.21156401868E+02  0.36820907242E+02  0.00000000000E+00 0. -1.
         11    1    4    4    0    0  0.37869880313E+01  0.40818377687E+01 -0.69204432670E+01  0.88822977428E+01  0.51100000000E-03 0. -1.
        -11    1    4    4    0    0  0.19918814282E+01  0.22230624924E+00  0.38513998788E+01  0.43416924096E+01  0.51100000000E-03 0.  1.
         12    1    4    4    0    0  0.30655067505E+01 -0.33113220359E+02  0.24225445256E+02  0.41143102605E+02  0.00000000000E+00 0. -1.
</event>
<event>
 8    1  0.3106980E-007  0.9118800E+02  0.7816164E-02  0.1184000E+00
        -11   -1    0    0    0    0  0.00000000000E+00  0.00000000000E+00  0.45593999997E+02  0.45594000000E+02  0.51100000000E-03 0.  1.
         11   -1    0    0    0    0 -0.00000000000E+00 -0.00000000000E+00 -0.45593999997E+02  0.45594000000E+02  0.51100000000E-03 0. -1.
         23    2    1    2    0    0 -0.35527136788E-14 -0.17763568394E-14  0.00000000000E+00  0.91188000000E+02  0.91188000000E+02 0.  0.
    9900012    2    3    3    0    0  0.17799273284E+02  0.14709849862E+02 -0.28680800141E+02  0.54367053391E+02  0.39999929816E+02 0.  0.
        -12    1    3    3    0    0 -0.17799273284E+02 -0.14709849862E+02  0.28680800141E+02  0.36820946609E+02  0.00000000000E+00 0.  1.
         11    1    4    4    0    0  0.17942605095E+02  0.81468646821E+01 -0.20219785897E+02  0.28233813482E+02  0.51100000000E-03 0. -1.
        -11    1    4    4    0    0  0.11080297448E+02  0.64597705154E+00 -0.41014790018E+00  0.11106687150E+02  0.51100000000E-03 0.  1.
         12    1    4    4    0    0 -0.11223629259E+02  0.59170081281E+01 -0.80508663445E+01  0.15026552759E+02  0.00000000000E+00 0. -1.
</event>
<event>
 8    1  0.3106980E-007  0.9118800E+02  0.7816164E-02  0.1184000E+00
        -11   -1    0    0    0    0  0.00000000000E+00  0.00000000000E+00  0.45593999997E+02  0.45594000000E+02  0.51100000000E-03 0.  1.
         11   -1    0    0    0    0 -0.00000000000E+00 -0.00000000000E+00 -0.45593999997E+02  0.45594000000E+02  0.51100000000E-03 0. -1.
         23    2    1    2    0    0  0.00000000000E+00  0.00000000000E+00 -0.88817841970E-15  0.91188000000E+02  0.91188000000E+02 0.  0.
    9900012    2    3    3    0    0 -0.32006135992E+02  0.16732882920E+02 -0.71691935276E+01  0.54367089531E+02  0.40000012203E+02 0.  0.
        -12    1    3    3    0    0  0.32006135992E+02 -0.16732882920E+02  0.71691935276E+01  0.36820910469E+02  0.00000000000E+00 0.  1.
         11    1    4    4    0    0  0.71722079253E+01  0.14451195297E+01 -0.70618630844E+01  0.10168522383E+02  0.51100000000E-03 0.  1.
        -11    1    4    4    0    0 -0.13524155480E+02  0.11139899723E+02 -0.38602917440E+01  0.17941627571E+02  0.51100000000E-03 0. -1.
        -12    1    4    4    0    0 -0.25654188437E+02  0.41478636674E+01  0.37529613007E+01  0.26256939576E+02  0.00000000000E+00 0.  1.
</event>
<event>
 8    1  0.3106980E-007  0.9118800E+02  0.7816164E-02  0.1184000E+00
        -11   -1    0    0    0    0  0.00000000000E+00  0.00000000000E+00  0.45593999997E+02  0.45594000000E+02  0.51100000000E-03 0. -1.
         11   -1    0    0    0    0 -0.00000000000E+00 -0.00000000000E+00 -0.45593999997E+02  0.45594000000E+02  0.51100000000E-03 0.  1.
         23    2    1    2    0    0  0.88817841970E-15  0.71054273576E-14 -0.88817841970E-15  0.91188000000E+02  0.91188000000E+02 0.  0.
    9900012    2    3    3    0    0  0.39714544644E+01  0.36082588979E+02 -0.61687244634E+01  0.54367097791E+02  0.40000031034E+02 0.  0.
        -12    1    3    3    0    0 -0.39714544644E+01 -0.36082588979E+02  0.61687244634E+01  0.36820902209E+02  0.00000000000E+00 0.  1.
         11    1    4    4    0    0  0.19580602059E+01  0.16325826346E+02  0.43985164679E+01  0.17020973916E+02  0.51100000000E-03 0. -1.
        -11    1    4    4    0    0  0.75784482490E+01  0.51204439958E+01 -0.17865244461E+02  0.20070345899E+02  0.51100000000E-03 0.  1.
        -12    1    4    4    0    0 -0.55650539905E+01  0.14636318637E+02  0.72980035301E+01  0.17275777976E+02  0.00000000000E+00 0.  1.
</event>
<event>
 8    1  0.3106980E-007  0.9118800E+02  0.7816164E-02  0.1184000E+00
        -11   -1    0    0    0    0  0.00000000000E+00  0.00000000000E+00  0.45593999997E+02  0.45594000000E+02  0.51100000000E-03 0.  1.
         11   -1    0    0    0    0 -0.00000000000E+00 -0.00000000000E+00 -0.45593999997E+02  0.45594000000E+02  0.51100000000E-03 0. -1.
         23    2    1    2    0    0  0.00000000000E+00 -0.35527136788E-14  0.00000000000E+00  0.91188000000E+02  0.91188000000E+02 0.  0.
    9900012    2    3    3    0    0  0.62194895166E+01  0.20296503547E+02  0.30085700953E+02  0.54367088714E+02  0.40000010341E+02 0.  0.
         12    1    3    3    0    0 -0.62194895166E+01 -0.20296503547E+02 -0.30085700953E+02  0.36820911286E+02  0.00000000000E+00 0. -1.
         11    1    4    4    0    0  0.41880371552E+01  0.58724036631E+01 -0.34107149464E+01  0.79785811209E+01  0.51100000000E-03 0. -1.
        -11    1    4    4    0    0 -0.90843781221E+01 -0.44789779240E+01  0.11590402635E+02  0.15392355330E+02  0.51100000000E-03 0.  1.
         12    1    4    4    0    0  0.11115830484E+02  0.18903077808E+02  0.21906013265E+02  0.30996152263E+02  0.00000000000E+00 0. -1.
</event>
<event>
 8    1  0.3106980E-007  0.9118800E+02  0.7816164E-02  0.1184000E+00
        -11   -1    0    0    0    0  0.00000000000E+00  0.00000000000E+00  0.45593999997E+02  0.45594000000E+02  0.51100000000E-03 0. -1.
         11   -1    0    0    0    0 -0.00000000000E+00 -0.00000000000E+00 -0.45593999997E+02  0.45594000000E+02  0.51100000000E-03 0.  1.
         23    2    1    2    0    0  0.00000000000E+00 -0.35527136788E-14  0.00000000000E+00  0.91188000000E+02  0.91188000000E+02 0.  0.
    9900012    2    3    3    0    0  0.10108213029E+02 -0.25519490223E+02  0.24543022283E+02  0.54367078031E+02  0.39999985987E+02 0.  0.
         12    1    3    3    0    0 -0.10108213029E+02  0.25519490223E+02 -0.24543022283E+02  0.36820921969E+02  0.00000000000E+00 0. -1.
         11    1    4    4    0    0  0.98504433252E+01  0.57844321417E+01 -0.36606958128E+01  0.11995481774E+02  0.51100000000E-03 0. -1.
        -11    1    4    4    0    0  0.20217980194E+01 -0.20717284818E+02  0.19951146475E+02  0.28832998515E+02  0.51100000000E-03 0.  1.
         12    1    4    4    0    0 -0.17640283152E+01 -0.10586637546E+02  0.82525716209E+01  0.13538597741E+02  0.00000000000E+00 0. -1.
</event>
<event>
 8    1  0.3106980E-007  0.9118800E+02  0.7816164E-02  0.1184000E+00
        -11   -1    0    0    0    0  0.00000000000E+00  0.00000000000E+00  0.45593999997E+02  0.45594000000E+02  0.51100000000E-03 0. -1.
         11   -1    0    0    0    0 -0.00000000000E+00 -0.00000000000E+00 -0.45593999997E+02  0.45594000000E+02  0.51100000000E-03 0.  1.
         23    2    1    2    0    0  0.00000000000E+00  0.35527136788E-14  0.88817841970E-15  0.91188000000E+02  0.91188000000E+02 0.  0.
    9900012    2    3    3    0    0  0.18907117113E+02 -0.31304380864E+02 -0.42822564230E+01  0.54367067653E+02  0.39999962329E+02 0.  0.
         12    1    3    3    0    0 -0.18907117113E+02  0.31304380864E+02  0.42822564230E+01  0.36820932347E+02  0.00000000000E+00 0. -1.
         11    1    4    4    0    0  0.20209219455E+02 -0.36759785287E+02 -0.12281511141E+02  0.43709608572E+02  0.51100000000E-03 0.  1.
        -11    1    4    4    0    0 -0.25362465611E+01  0.20364470404E+01  0.26780435231E+01  0.42132624579E+01  0.51100000000E-03 0. -1.
        -12    1    4    4    0    0  0.12341442189E+01  0.34189573823E+01  0.53212111953E+01  0.64441966233E+01  0.00000000000E+00 0.  1.
</event>
<event>
 8    1  0.3106980E-007  0.9118800E+02  0.7816164E-02  0.1184000E+00
        -11   -1    0    0    0    0  0.00000000000E+00  0.00000000000E+00  0.45593999997E+02  0.45594000000E+02  0.51100000000E-03 0.  1.
         11   -1    0    0    0    0 -0.00000000000E+00 -0.00000000000E+00 -0.45593999997E+02  0.45594000000E+02  0.51100000000E-03 0. -1.
         23    2    1    2    0    0 -0.71054273576E-14 -0.17763568394E-14  0.00000000000E+00  0.91188000000E+02  0.91188000000E+02 0.  0.
    9900012    2    3    3    0    0 -0.34495623119E+02 -0.10937762404E+02  0.67968372422E+01  0.54367086687E+02  0.40000005719E+02 0.  0.
        -12    1    3    3    0    0  0.34495623119E+02  0.10937762404E+02 -0.67968372422E+01  0.36820913313E+02  0.00000000000E+00 0.  1.
         11    1    4    4    0    0 -0.26308934182E+02 -0.96501105101E+00  0.87172764546E+01  0.27732330829E+02  0.51100000000E-03 0. -1.
        -11    1    4    4    0    0  0.67067628178E+01 -0.65615273667E+01 -0.55893471158E+01  0.10921314496E+02  0.51100000000E-03 0.  1.
        -12    1    4    4    0    0 -0.14893451754E+02 -0.34112239859E+01  0.36689079034E+01  0.15713441362E+02  0.00000000000E+00 0.  1.
</event>
<event>
 8    1  0.3106980E-007  0.9118800E+02  0.7816164E-02  0.1184000E+00
        -11   -1    0    0    0    0  0.00000000000E+00  0.00000000000E+00  0.45593999997E+02  0.45594000000E+02  0.51100000000E-03 0.  1.
         11   -1    0    0    0    0 -0.00000000000E+00 -0.00000000000E+00 -0.45593999997E+02  0.45594000000E+02  0.51100000000E-03 0. -1.
         23    2    1    2    0    0  0.00000000000E+00  0.77715611724E-15  0.17763568394E-14  0.91188000000E+02  0.91188000000E+02 0.  0.
    9900012    2    3    3    0    0  0.36389614613E+02  0.58300767837E+00  0.55888119127E+01  0.54367098759E+02  0.40000033241E+02 0.  0.
         12    1    3    3    0    0 -0.36389614613E+02 -0.58300767837E+00 -0.55888119127E+01  0.36820901241E+02  0.00000000000E+00 0. -1.
         11    1    4    4    0    0  0.14901198022E+02  0.61606399779E+00 -0.55558800095E+01  0.15915182697E+02  0.51100000000E-03 0. -1.
        -11    1    4    4    0    0  0.18087568415E+02 -0.62136632937E+01  0.19637285702E+02  0.27411543786E+02  0.51100000000E-03 0.  1.
        -12    1    4    4    0    0  0.34008481751E+01  0.61806069743E+01 -0.84925937799E+01  0.11040372276E+02  0.00000000000E+00 0.  1.
</event>
<event>
 8    1  0.3106980E-007  0.9118800E+02  0.7816164E-02  0.1184000E+00
        -11   -1    0    0    0    0  0.00000000000E+00  0.00000000000E+00  0.45593999997E+02  0.45594000000E+02  0.51100000000E-03 0.  1.
         11   -1    0    0    0    0 -0.00000000000E+00 -0.00000000000E+00 -0.45593999997E+02  0.45594000000E+02  0.51100000000E-03 0. -1.
         23    2    1    2    0    0 -0.35527136788E-14  0.12767564783E-14  0.00000000000E+00  0.91188000000E+02  0.91188000000E+02 0.  0.
    9900012    2    3    3    0    0  0.18391567289E+02 -0.40577507586E+00 -0.31896155377E+02  0.54367093865E+02  0.40000022084E+02 0.  0.
        -12    1    3    3    0    0 -0.18391567289E+02  0.40577507586E+00  0.31896155377E+02  0.36820906135E+02  0.00000000000E+00 0.  1.
         11    1    4    4    0    0  0.94519757693E+01  0.52383601094E+01 -0.22775100193E+02  0.25208836777E+02  0.51100000000E-03 0. -1.
        -11    1    4    4    0    0  0.12052482751E+02 -0.10166983588E+02 -0.14536615026E+02  0.21446283417E+02  0.51100000000E-03 0.  1.
         12    1    4    4    0    0 -0.31128912307E+01  0.45228484028E+01  0.54155598425E+01  0.77119736706E+01  0.00000000000E+00 0. -1.
</event>
<event>
 8    1  0.3106980E-007  0.9118800E+02  0.7816164E-02  0.1184000E+00
        -11   -1    0    0    0    0  0.00000000000E+00  0.00000000000E+00  0.45593999997E+02  0.45594000000E+02  0.51100000000E-03 0. -1.
         11   -1    0    0    0    0 -0.00000000000E+00 -0.00000000000E+00 -0.45593999997E+02  0.45594000000E+02  0.51100000000E-03 0.  1.
         23    2    1    2    0    0  0.88817841970E-15  0.22204460493E-15  0.00000000000E+00  0.91188000000E+02  0.91188000000E+02 0.  0.
    9900012    2    3    3    0    0 -0.45679243958E+01 -0.10165663870E+01 -0.36522290305E+02  0.54367122367E+02  0.40000087060E+02 0.  0.
         12    1    3    3    0    0  0.45679243958E+01  0.10165663870E+01  0.36522290305E+02  0.36820877633E+02  0.00000000000E+00 0. -1.
         11    1    4    4    0    0  0.57640684174E+01 -0.47781135616E+01  0.21359541199E+01  0.77857019075E+01  0.51100000000E-03 0. -1.
        -11    1    4    4    0    0  0.13296456498E+01  0.11669510032E+02 -0.20106738354E+02  0.23285754217E+02  0.51100000000E-03 0.  1.
         12    1    4    4    0    0 -0.11661638463E+02 -0.79079628572E+01 -0.18551506071E+02  0.23295666243E+02  0.00000000000E+00 0. -1.
</event>
<event>
 8    1  0.3106980E-007  0.9118800E+02  0.7816164E-02  0.1184000E+00
        -11   -1    0    0    0    0  0.00000000000E+00  0.00000000000E+00  0.45593999997E+02  0.45594000000E+02  0.51100000000E-03 0. -1.
         11   -1    0    0    0    0 -0.00000000000E+00 -0.00000000000E+00 -0.45593999997E+02  0.45594000000E+02  0.51100000000E-03 0.  1.
         23    2    1    2    0    0  0.88817841970E-15  0.00000000000E+00 -0.71054273576E-14  0.91188000000E+02  0.91188000000E+02 0.  0.
    9900012    2    3    3    0    0  0.42175502933E+01  0.55774194032E+01  0.36150879798E+02  0.54367062372E+02  0.39999950289E+02 0.  0.
        -12    1    3    3    0    0 -0.42175502933E+01 -0.55774194032E+01 -0.36150879798E+02  0.36820937628E+02  0.00000000000E+00 0.  1.
         11    1    4    4    0    0 -0.59538130723E+01 -0.12156483892E+02  0.25686560934E+02  0.29034934193E+02  0.51100000000E-03 0. -1.
        -11    1    4    4    0    0  0.81035242287E+01  0.10225390678E+02  0.11604444596E+02  0.17461066808E+02  0.51100000000E-03 0.  1.
        -12    1    4    4    0    0  0.20678391368E+01  0.75085126168E+01 -0.11401257322E+01  0.78710613705E+01  0.00000000000E+00 0.  1.
</event>
<event>
 8    1  0.3106980E-007  0.9118800E+02  0.7816164E-02  0.1184000E+00
        -11   -1    0    0    0    0  0.00000000000E+00  0.00000000000E+00  0.45593999997E+02  0.45594000000E+02  0.51100000000E-03 0.  1.
         11   -1    0    0    0    0 -0.00000000000E+00 -0.00000000000E+00 -0.45593999997E+02  0.45594000000E+02  0.51100000000E-03 0. -1.
         23    2    1    2    0    0  0.00000000000E+00  0.00000000000E+00  0.00000000000E+00  0.91188000000E+02  0.91188000000E+02 0.  0.
    9900012    2    3    3    0    0  0.26668260368E+02 -0.18998950947E+02  0.16841109884E+02  0.54367092485E+02  0.40000018937E+02 0.  0.
         12    1    3    3    0    0 -0.26668260368E+02  0.18998950947E+02 -0.16841109884E+02  0.36820907515E+02  0.00000000000E+00 0. -1.
         11    1    4    4    0    0  0.57748872278E+01 -0.15098862370E+02  0.34752896096E+01  0.16534890550E+02  0.51100000000E-03 0.  1.
        -11    1    4    4    0    0  0.87842764335E+01  0.59894096881E+01 -0.65692413475E+01  0.12497658701E+02  0.51100000000E-03 0. -1.
         12    1    4    4    0    0  0.12109096707E+02 -0.98894982652E+01  0.19935061622E+02  0.25334543233E+02  0.00000000000E+00 0. -1.
</event>
<event>
 8    1  0.3106980E-007  0.9118800E+02  0.7816164E-02  0.1184000E+00
        -11   -1    0    0    0    0  0.00000000000E+00  0.00000000000E+00  0.45593999997E+02  0.45594000000E+02  0.51100000000E-03 0. -1.
         11   -1    0    0    0    0 -0.00000000000E+00 -0.00000000000E+00 -0.45593999997E+02  0.45594000000E+02  0.51100000000E-03 0.  1.
         23    2    1    2    0    0  0.00000000000E+00  0.35527136788E-14  0.00000000000E+00  0.91188000000E+02  0.91188000000E+02 0.  0.
    9900012    2    3    3    0    0 -0.16213651540E+02  0.31935369737E+02  0.85457949505E+01  0.54367069161E+02  0.39999965767E+02 0.  0.
        -12    1    3    3    0    0  0.16213651540E+02 -0.31935369737E+02 -0.85457949505E+01  0.36820930839E+02  0.00000000000E+00 0.  1.
         11    1    4    4    0    0 -0.51115922827E+01  0.30380600028E+01  0.33167698714E+01  0.68087551642E+01  0.51100000000E-03 0. -1.
        -11    1    4    4    0    0 -0.14248138148E+02  0.72025671241E+01  0.16456952652E+02  0.22928534727E+02  0.51100000000E-03 0.  1.
        -12    1    4    4    0    0  0.31460788910E+01  0.21694742610E+02 -0.11227927573E+02  0.24629779270E+02  0.00000000000E+00 0.  1.
</event>
<event>
 8    1  0.3106980E-007  0.9118800E+02  0.7816164E-02  0.1184000E+00
        -11   -1    0    0    0    0  0.00000000000E+00  0.00000000000E+00  0.45593999997E+02  0.45594000000E+02  0.51100000000E-03 0.  1.
         11   -1    0    0    0    0 -0.00000000000E+00 -0.00000000000E+00 -0.45593999997E+02  0.45594000000E+02  0.51100000000E-03 0. -1.
         23    2    1    2    0    0  0.00000000000E+00  0.35527136788E-14  0.00000000000E+00  0.91188000000E+02  0.91188000000E+02 0.  0.
    9900012    2    3    3    0    0  0.17624778238E+02 -0.31335159858E+02 -0.79532502731E+01  0.54367092336E+02  0.40000018599E+02 0.  0.
        -12    1    3    3    0    0 -0.17624778238E+02  0.31335159858E+02  0.79532502731E+01  0.36820907664E+02  0.00000000000E+00 0.  1.
         11    1    4    4    0    0  0.29587357801E+01 -0.17482954396E+02  0.48398917640E+01  0.18380216658E+02  0.51100000000E-03 0. -1.
        -11    1    4    4    0    0  0.18319839493E+02 -0.13824146739E+01 -0.13764953113E+02  0.22956513756E+02  0.51100000000E-03 0.  1.
        -12    1    4    4    0    0 -0.36537970348E+01 -0.12469790788E+02  0.97181107601E+00  0.13030361923E+02  0.00000000000E+00 0.  1.
</event>
<event>
 8    1  0.3106980E-007  0.9118800E+02  0.7816164E-02  0.1184000E+00
        -11   -1    0    0    0    0  0.00000000000E+00  0.00000000000E+00  0.45593999997E+02  0.45594000000E+02  0.51100000000E-03 0. -1.
         11   -1    0    0    0    0 -0.00000000000E+00 -0.00000000000E+00 -0.45593999997E+02  0.45594000000E+02  0.51100000000E-03 0.  1.
         23    2    1    2    0    0 -0.35527136788E-14  0.17763568394E-14  0.00000000000E+00  0.91188000000E+02  0.91188000000E+02 0.  0.
    9900012    2    3    3    0    0 -0.16290560696E+02  0.15969396885E+02  0.28902908177E+02  0.54367053437E+02  0.39999929921E+02 0.  0.
        -12    1    3    3    0    0  0.16290560696E+02 -0.15969396885E+02 -0.28902908177E+02  0.36820946563E+02  0.00000000000E+00 0.  1.
         11    1    4    4    0    0 -0.17479572796E+01  0.21417131835E+01  0.15347606405E+02  0.15594592416E+02  0.51100000000E-03 0. -1.
        -11    1    4    4    0    0 -0.76324338199E+01 -0.60010524785E+01 -0.48468895393E+01  0.10851682604E+02  0.51100000000E-03 0.  1.
        -12    1    4    4    0    0 -0.69101695968E+01  0.19828736180E+02  0.18402191312E+02  0.27920778418E+02  0.00000000000E+00 0.  1.
</event>
<event>
 8    1  0.3106980E-007  0.9118800E+02  0.7816164E-02  0.1184000E+00
        -11   -1    0    0    0    0  0.00000000000E+00  0.00000000000E+00  0.45593999997E+02  0.45594000000E+02  0.51100000000E-03 0.  1.
         11   -1    0    0    0    0 -0.00000000000E+00 -0.00000000000E+00 -0.45593999997E+02  0.45594000000E+02  0.51100000000E-03 0. -1.
         23    2    1    2    0    0 -0.35527136788E-14  0.35527136788E-14  0.35527136788E-14  0.91188000000E+02  0.91188000000E+02 0.  0.
    9900012    2    3    3    0    0  0.15125577332E+02 -0.21455741110E+02  0.25819530143E+02  0.54367081312E+02  0.39999993468E+02 0.  0.
         12    1    3    3    0    0 -0.15125577332E+02  0.21455741110E+02 -0.25819530143E+02  0.36820918688E+02  0.00000000000E+00 0. -1.
         11    1    4    4    0    0  0.42852228474E+01 -0.18257556974E+02  0.73549579779E+01  0.20144401918E+02  0.51100000000E-03 0.  1.
        -11    1    4    4    0    0  0.18523408354E+02  0.31764946532E+01  0.12877077394E+02  0.22782139886E+02  0.51100000000E-03 0. -1.
         12    1    4    4    0    0 -0.76830538692E+01 -0.63746787891E+01  0.55874947709E+01  0.11440539508E+02  0.00000000000E+00 0. -1.
</event>
<event>
 8    1  0.3106980E-007  0.9118800E+02  0.7816164E-02  0.1184000E+00
        -11   -1    0    0    0    0  0.00000000000E+00  0.00000000000E+00  0.45593999997E+02  0.45594000000E+02  0.51100000000E-03 0.  1.
         11   -1    0    0    0    0 -0.00000000000E+00 -0.00000000000E+00 -0.45593999997E+02  0.45594000000E+02  0.51100000000E-03 0. -1.
         23    2    1    2    0    0  0.00000000000E+00  0.35527136788E-14 -0.35527136788E-14  0.91188000000E+02  0.91188000000E+02 0.  0.
    9900012    2    3    3    0    0 -0.12636958181E+02 -0.24623952534E+02 -0.24284730921E+02  0.54367083304E+02  0.39999998007E+02 0.  0.
        -12    1    3    3    0    0  0.12636958181E+02  0.24623952534E+02  0.24284730921E+02  0.36820916696E+02  0.00000000000E+00 0.  1.
         11    1    4    4    0    0 -0.15984502627E+02 -0.14468448833E+02 -0.21974838505E+02  0.30785286476E+02  0.51100000000E-03 0. -1.
        -11    1    4    4    0    0 -0.94657586107E+00 -0.49690778921E+01 -0.11281980654E+02  0.12364094334E+02  0.51100000000E-03 0.  1.
        -12    1    4    4    0    0  0.42941203071E+01 -0.51864258087E+01  0.89720882378E+01  0.11217702493E+02  0.00000000000E+00 0.  1.
</event>
<event>
 8    1  0.3106980E-007  0.9118800E+02  0.7816164E-02  0.1184000E+00
        -11   -1    0    0    0    0  0.00000000000E+00  0.00000000000E+00  0.45593999997E+02  0.45594000000E+02  0.51100000000E-03 0.  1.
         11   -1    0    0    0    0 -0.00000000000E+00 -0.00000000000E+00 -0.45593999997E+02  0.45594000000E+02  0.51100000000E-03 0. -1.
         23    2    1    2    0    0  0.00000000000E+00  0.00000000000E+00  0.35527136788E-14  0.91188000000E+02  0.91188000000E+02 0.  0.
    9900012    2    3    3    0    0  0.16354033915E+01  0.31687431996E+02  0.18681867322E+02  0.54367081253E+02  0.39999993331E+02 0.  0.
         12    1    3    3    0    0 -0.16354033915E+01 -0.31687431996E+02 -0.18681867322E+02  0.36820918747E+02  0.00000000000E+00 0. -1.
         11    1    4    4    0    0 -0.10400683816E+02  0.30609813217E+02  0.23745663462E+02  0.40112235322E+02  0.51100000000E-03 0. -1.
        -11    1    4    4    0    0  0.72014034178E+01  0.33745658394E+01 -0.34049741038E+01  0.86511129168E+01  0.51100000000E-03 0.  1.
         12    1    4    4    0    0  0.48346837894E+01 -0.22969470604E+01 -0.16588220360E+01  0.56037330137E+01  0.00000000000E+00 0. -1.
</event>
<event>
 8    1  0.3106980E-007  0.9118800E+02  0.7816164E-02  0.1184000E+00
        -11   -1    0    0    0    0  0.00000000000E+00  0.00000000000E+00  0.45593999997E+02  0.45594000000E+02  0.51100000000E-03 0. -1.
         11   -1    0    0    0    0 -0.00000000000E+00 -0.00000000000E+00 -0.45593999997E+02  0.45594000000E+02  0.51100000000E-03 0.  1.
         23    2    1    2    0    0  0.00000000000E+00  0.00000000000E+00  0.00000000000E+00  0.91188000000E+02  0.91188000000E+02 0.  0.
    9900012    2    3    3    0    0 -0.21441378705E+02  0.19052747358E+02  0.23087613383E+02  0.54367111983E+02  0.40000063387E+02 0.  0.
        -12    1    3    3    0    0  0.21441378705E+02 -0.19052747358E+02 -0.23087613383E+02  0.36820888017E+02  0.00000000000E+00 0.  1.
         11    1    4    4    0    0  0.19205598736E+00  0.13072562856E+02  0.90636116002E+01  0.15908420431E+02  0.51100000000E-03 0. -1.
        -11    1    4    4    0    0 -0.27926844054E+00 -0.92997124059E+01  0.57085366134E+01  0.10915586664E+02  0.51100000000E-03 0.  1.
         12    1    4    4    0    0 -0.21354166252E+02  0.15279896909E+02  0.83154651690E+01  0.27543104887E+02  0.00000000000E+00 0. -1.
</event>
<event>
 8    1  0.3106980E-007  0.9118800E+02  0.7816164E-02  0.1184000E+00
        -11   -1    0    0    0    0  0.00000000000E+00  0.00000000000E+00  0.45593999997E+02  0.45594000000E+02  0.51100000000E-03 0.  1.
         11   -1    0    0    0    0 -0.00000000000E+00 -0.00000000000E+00 -0.45593999997E+02  0.45594000000E+02  0.51100000000E-03 0. -1.
         23    2    1    2    0    0 -0.17763568394E-14  0.35527136788E-14  0.00000000000E+00  0.91188000000E+02  0.91188000000E+02 0.  0.
    9900012    2    3    3    0    0 -0.13828788639E+02  0.18694109496E+02  0.28549536503E+02  0.54367066285E+02  0.39999959210E+02 0.  0.
         12    1    3    3    0    0  0.13828788639E+02 -0.18694109496E+02 -0.28549536503E+02  0.36820933715E+02  0.00000000000E+00 0. -1.
         11    1    4    4    0    0 -0.57174626205E+01  0.14707471700E+02  0.11893236301E+01  0.15824461873E+02  0.51100000000E-03 0. -1.
        -11    1    4    4    0    0 -0.75148703427E+01  0.26626603136E+01 -0.27226477035E+01  0.84247164339E+01  0.51100000000E-03 0.  1.
        -12    1    4    4    0    0 -0.59645567582E+00  0.13239774828E+01  0.30082860577E+02  0.30117887978E+02  0.00000000000E+00 0.  1.
</event>
<event>
 8    1  0.3106980E-007  0.9118800E+02  0.7816164E-02  0.1184000E+00
        -11   -1    0    0    0    0  0.00000000000E+00  0.00000000000E+00  0.45593999997E+02  0.45594000000E+02  0.51100000000E-03 0.  1.
         11   -1    0    0    0    0 -0.00000000000E+00 -0.00000000000E+00 -0.45593999997E+02  0.45594000000E+02  0.51100000000E-03 0. -1.
         23    2    1    2    0    0  0.00000000000E+00 -0.88817841970E-15  0.00000000000E+00  0.91188000000E+02  0.91188000000E+02 0.  0.
    9900012    2    3    3    0    0  0.35317166162E+02  0.62717478148E+01  0.83152601797E+01  0.54367073908E+02  0.39999976589E+02 0.  0.
        -12    1    3    3    0    0 -0.35317166162E+02 -0.62717478148E+01 -0.83152601797E+01  0.36820926092E+02  0.00000000000E+00 0.  1.
         11    1    4    4    0    0  0.28100238474E+02  0.67692479770E+01  0.92557852408E+01  0.30349887663E+02  0.51100000000E-03 0. -1.
        -11    1    4    4    0    0 -0.80386690812E+01  0.12658799779E+00 -0.30602209003E+01  0.86023936981E+01  0.51100000000E-03 0.  1.
        -12    1    4    4    0    0  0.15255596770E+02 -0.62408815996E+00  0.21196958392E+01  0.15414792548E+02  0.00000000000E+00 0.  1.
</event>
<event>
 8    1  0.3106980E-007  0.9118800E+02  0.7816164E-02  0.1184000E+00
        -11   -1    0    0    0    0  0.00000000000E+00  0.00000000000E+00  0.45593999997E+02  0.45594000000E+02  0.51100000000E-03 0.  1.
         11   -1    0    0    0    0 -0.00000000000E+00 -0.00000000000E+00 -0.45593999997E+02  0.45594000000E+02  0.51100000000E-03 0. -1.
         23    2    1    2    0    0  0.00000000000E+00 -0.17763568394E-14  0.00000000000E+00  0.91188000000E+02  0.91188000000E+02 0.  0.
    9900012    2    3    3    0    0  0.28211028461E+02  0.85221397010E+01  0.22074657255E+02  0.54367089028E+02  0.40000011056E+02 0.  0.
         12    1    3    3    0    0 -0.28211028461E+02 -0.85221397010E+01 -0.22074657255E+02  0.36820910972E+02  0.00000000000E+00 0. -1.
         11    1    4    4    0    0  0.87379841008E+01  0.30432884055E+01 -0.96865367334E+01  0.13395632296E+02  0.51100000000E-03 0. -1.
        -11    1    4    4    0    0  0.13982963812E+02 -0.40905029625E+01  0.21008195563E+02  0.25565597441E+02  0.51100000000E-03 0.  1.
        -12    1    4    4    0    0  0.54900805481E+01  0.95693542580E+01  0.10752998425E+02  0.15405859290E+02  0.00000000000E+00 0.  1.
</event>
<event>
 8    1  0.3106980E-007  0.9118800E+02  0.7816164E-02  0.1184000E+00
        -11   -1    0    0    0    0  0.00000000000E+00  0.00000000000E+00  0.45593999997E+02  0.45594000000E+02  0.51100000000E-03 0.  1.
         11   -1    0    0    0    0 -0.00000000000E+00 -0.00000000000E+00 -0.45593999997E+02  0.45594000000E+02  0.51100000000E-03 0. -1.
         23    2    1    2    0    0  0.00000000000E+00  0.00000000000E+00  0.15543122345E-14  0.91188000000E+02  0.91188000000E+02 0.  0.
    9900012    2    3    3    0    0  0.24758928995E+02  0.27200759179E+02  0.17013276483E+01  0.54367076863E+02  0.39999983324E+02 0.  0.
         12    1    3    3    0    0 -0.24758928995E+02 -0.27200759179E+02 -0.17013276483E+01  0.36820923137E+02  0.00000000000E+00 0. -1.
         11    1    4    4    0    0  0.43470841187E+01  0.13544194374E+02  0.78999395060E+01  0.16271182687E+02  0.51100000000E-03 0. -1.
        -11    1    4    4    0    0  0.77785183608E+01 -0.82909231278E+01  0.18623356966E+01  0.11520114961E+02  0.51100000000E-03 0.  1.
         12    1    4    4    0    0  0.12633326516E+02  0.21947487932E+02 -0.80609475543E+01  0.26575779215E+02  0.00000000000E+00 0. -1.
</event>
<event>
 8    1  0.3106980E-007  0.9118800E+02  0.7816164E-02  0.1184000E+00
        -11   -1    0    0    0    0  0.00000000000E+00  0.00000000000E+00  0.45593999997E+02  0.45594000000E+02  0.51100000000E-03 0. -1.
         11   -1    0    0    0    0 -0.00000000000E+00 -0.00000000000E+00 -0.45593999997E+02  0.45594000000E+02  0.51100000000E-03 0.  1.
         23    2    1    2    0    0 -0.17763568394E-14  0.00000000000E+00  0.00000000000E+00  0.91188000000E+02  0.91188000000E+02 0.  0.
    9900012    2    3    3    0    0 -0.10793197083E+02  0.31914975755E+02 -0.14856669174E+02  0.54367090184E+02  0.40000013693E+02 0.  0.
         12    1    3    3    0    0  0.10793197083E+02 -0.31914975755E+02  0.14856669174E+02  0.36820909816E+02  0.00000000000E+00 0. -1.
         11    1    4    4    0    0  0.80720378524E+01  0.14963183545E+02 -0.19943573533E+02  0.26206884256E+02  0.51100000000E-03 0.  1.
        -11    1    4    4    0    0 -0.18458657414E+02  0.12407576273E+02  0.13838838059E+01  0.22284189848E+02  0.51100000000E-03 0. -1.
        -12    1    4    4    0    0 -0.40657752125E+00  0.45442159368E+01  0.37030205532E+01  0.58760160805E+01  0.00000000000E+00 0.  1.
</event>
<event>
 8    1  0.3106980E-007  0.9118800E+02  0.7816164E-02  0.1184000E+00
        -11   -1    0    0    0    0  0.00000000000E+00  0.00000000000E+00  0.45593999997E+02  0.45594000000E+02  0.51100000000E-03 0.  1.
         11   -1    0    0    0    0 -0.00000000000E+00 -0.00000000000E+00 -0.45593999997E+02  0.45594000000E+02  0.51100000000E-03 0. -1.
         23    2    1    2    0    0  0.00000000000E+00 -0.35527136788E-14  0.00000000000E+00  0.91188000000E+02  0.91188000000E+02 0.  0.
    9900012    2    3    3    0    0 -0.13119087388E+02  0.25090644076E+02  0.23539950261E+02  0.54367080235E+02  0.39999991012E+02 0.  0.
        -12    1    3    3    0    0  0.13119087388E+02 -0.25090644076E+02 -0.23539950261E+02  0.36820919765E+02  0.00000000000E+00 0.  1.
         11    1    4    4    0    0 -0.14300882125E+02  0.20807302905E+02  0.64449286774E+01  0.26057555328E+02  0.51100000000E-03 0.  1.
        -11    1    4    4    0    0 -0.97298835759E+01  0.39758759043E+01  0.39634621457E+01  0.11233310111E+02  0.51100000000E-03 0. -1.
        -12    1    4    4    0    0  0.10911678313E+02  0.30746526725E+00  0.13131559438E+02  0.17076214796E+02  0.00000000000E+00 0.  1.
</event>
<event>
 8    1  0.3106980E-007  0.9118800E+02  0.7816164E-02  0.1184000E+00
        -11   -1    0    0    0    0  0.00000000000E+00  0.00000000000E+00  0.45593999997E+02  0.45594000000E+02  0.51100000000E-03 0. -1.
         11   -1    0    0    0    0 -0.00000000000E+00 -0.00000000000E+00 -0.45593999997E+02  0.45594000000E+02  0.51100000000E-03 0.  1.
         23    2    1    2    0    0  0.00000000000E+00  0.17763568394E-14  0.71054273576E-14  0.91188000000E+02  0.91188000000E+02 0.  0.
    9900012    2    3    3    0    0 -0.10466786988E+02 -0.82511961795E+01  0.34324110470E+02  0.54367076223E+02  0.39999981865E+02 0.  0.
        -12    1    3    3    0    0  0.10466786988E+02  0.82511961795E+01 -0.34324110470E+02  0.36820923777E+02  0.00000000000E+00 0.  1.
         11    1    4    4    0    0  0.62298962435E+01 -0.27686140641E+00  0.11480806611E+00  0.62371019389E+01  0.51100000000E-03 0. -1.
        -11    1    4    4    0    0 -0.10422252089E+02 -0.18456660136E+02  0.25323605189E+02  0.33023576759E+02  0.51100000000E-03 0.  1.
         12    1    4    4    0    0 -0.62744311422E+01  0.10482325363E+02  0.88856972154E+01  0.15106397525E+02  0.00000000000E+00 0. -1.
</event>
<event>
 8    1  0.3106980E-007  0.9118800E+02  0.7816164E-02  0.1184000E+00
        -11   -1    0    0    0    0  0.00000000000E+00  0.00000000000E+00  0.45593999997E+02  0.45594000000E+02  0.51100000000E-03 0. -1.
         11   -1    0    0    0    0 -0.00000000000E+00 -0.00000000000E+00 -0.45593999997E+02  0.45594000000E+02  0.51100000000E-03 0.  1.
         23    2    1    2    0    0  0.17763568394E-14  0.00000000000E+00 -0.44408920985E-15  0.91188000000E+02  0.91188000000E+02 0.  0.
    9900012    2    3    3    0    0 -0.13724700583E+02 -0.34097887631E+02 -0.21784953585E+01  0.54367093045E+02  0.40000020214E+02 0.  0.
        -12    1    3    3    0    0  0.13724700583E+02  0.34097887631E+02  0.21784953585E+01  0.36820906955E+02  0.00000000000E+00 0.  1.
         11    1    4    4    0    0  0.69433109556E+01 -0.81810414693E+01  0.35538878646E+01  0.11303500598E+02  0.51100000000E-03 0. -1.
        -11    1    4    4    0    0  0.31981724636E+00 -0.19976138675E+02 -0.71139787869E+01  0.21207477311E+02  0.51100000000E-03 0.  1.
        -12    1    4    4    0    0 -0.20987828785E+02 -0.59407074863E+01  0.13815955637E+01  0.21856115136E+02  0.00000000000E+00 0.  1.
</event>
<event>
 8    1  0.3106980E-007  0.9118800E+02  0.7816164E-02  0.1184000E+00
        -11   -1    0    0    0    0  0.00000000000E+00  0.00000000000E+00  0.45593999997E+02  0.45594000000E+02  0.51100000000E-03 0.  1.
         11   -1    0    0    0    0 -0.00000000000E+00 -0.00000000000E+00 -0.45593999997E+02  0.45594000000E+02  0.51100000000E-03 0. -1.
         23    2    1    2    0    0  0.35527136788E-14  0.44408920985E-15  0.00000000000E+00  0.91188000000E+02  0.91188000000E+02 0.  0.
    9900012    2    3    3    0    0 -0.23144806795E+02  0.34138700749E+01 -0.28433125998E+02  0.54367092291E+02  0.40000018495E+02 0.  0.
        -12    1    3    3    0    0  0.23144806795E+02 -0.34138700749E+01  0.28433125998E+02  0.36820907709E+02  0.00000000000E+00 0.  1.
         11    1    4    4    0    0  0.68980310843E+01  0.55319285038E+01 -0.34826820701E+01  0.95033752148E+01  0.51100000000E-03 0. -1.
        -11    1    4    4    0    0 -0.80735914363E+01  0.68001210874E+01 -0.16704889154E+02  0.19760512326E+02  0.51100000000E-03 0.  1.
        -12    1    4    4    0    0 -0.21969246443E+02 -0.89181795163E+01 -0.82455547747E+01  0.25103204750E+02  0.00000000000E+00 0.  1.
</event>
<event>
 8    1  0.3106980E-007  0.9118800E+02  0.7816164E-02  0.1184000E+00
        -11   -1    0    0    0    0  0.00000000000E+00  0.00000000000E+00  0.45593999997E+02  0.45594000000E+02  0.51100000000E-03 0.  1.
         11   -1    0    0    0    0 -0.00000000000E+00 -0.00000000000E+00 -0.45593999997E+02  0.45594000000E+02  0.51100000000E-03 0. -1.
         23    2    1    2    0    0 -0.17763568394E-14 -0.17763568394E-14 -0.71054273576E-14  0.91188000000E+02  0.91188000000E+02 0.  0.
    9900012    2    3    3    0    0 -0.12009088999E+02 -0.12581485356E+02 -0.32454101515E+02  0.54367072561E+02  0.39999973517E+02 0.  0.
        -12    1    3    3    0    0  0.12009088999E+02  0.12581485356E+02  0.32454101515E+02  0.36820927439E+02  0.00000000000E+00 0.  1.
         11    1    4    4    0    0  0.12391693548E+02 -0.80515132157E+01 -0.23736873371E+02  0.27961045970E+02  0.51100000000E-03 0. -1.
        -11    1    4    4    0    0 -0.17128089195E+02 -0.31894527711E+01 -0.49807856435E+01  0.18120493215E+02  0.51100000000E-03 0.  1.
         12    1    4    4    0    0 -0.72726933513E+01 -0.13405193696E+01 -0.37364425009E+01  0.82855333760E+01  0.00000000000E+00 0. -1.
</event>
<event>
 8    1  0.3106980E-007  0.9118800E+02  0.7816164E-02  0.1184000E+00
        -11   -1    0    0    0    0  0.00000000000E+00  0.00000000000E+00  0.45593999997E+02  0.45594000000E+02  0.51100000000E-03 0.  1.
         11   -1    0    0    0    0 -0.00000000000E+00 -0.00000000000E+00 -0.45593999997E+02  0.45594000000E+02  0.51100000000E-03 0. -1.
         23    2    1    2    0    0  0.17763568394E-14  0.17763568394E-14  0.00000000000E+00  0.91188000000E+02  0.91188000000E+02 0.  0.
    9900012    2    3    3    0    0  0.15828645829E+02  0.12481139817E+02  0.30813217200E+02  0.54367092432E+02  0.40000018817E+02 0.  0.
         12    1    3    3    0    0 -0.15828645829E+02 -0.12481139817E+02 -0.30813217200E+02  0.36820907568E+02  0.00000000000E+00 0. -1.
         11    1    4    4    0    0  0.63584680674E+01 -0.15781593786E+01 -0.69779657329E+01  0.95714528270E+01  0.51100000000E-03 0. -1.
        -11    1    4    4    0    0  0.36483119748E+00 -0.28908062895E+01  0.67840357631E+00  0.29916708508E+01  0.51100000000E-03 0.  1.
        -12    1    4    4    0    0  0.91053465637E+01  0.16950105485E+02  0.37112779357E+02  0.41803968754E+02  0.00000000000E+00 0.  1.
</event>
<event>
 8    1  0.3106980E-007  0.9118800E+02  0.7816164E-02  0.1184000E+00
        -11   -1    0    0    0    0  0.00000000000E+00  0.00000000000E+00  0.45593999997E+02  0.45594000000E+02  0.51100000000E-03 0.  1.
         11   -1    0    0    0    0 -0.00000000000E+00 -0.00000000000E+00 -0.45593999997E+02  0.45594000000E+02  0.51100000000E-03 0. -1.
         23    2    1    2    0    0  0.44408920985E-15  0.00000000000E+00 -0.35527136788E-14  0.91188000000E+02  0.91188000000E+02 0.  0.
    9900012    2    3    3    0    0 -0.38747296606E+01  0.18027159444E+02  0.31871429710E+02  0.54367081498E+02  0.39999993891E+02 0.  0.
         12    1    3    3    0    0  0.38747296606E+01 -0.18027159444E+02 -0.31871429710E+02  0.36820918502E+02  0.00000000000E+00 0. -1.
         11    1    4    4    0    0  0.11755850940E+02 -0.43400619848E+01  0.11814828997E+02  0.17222843953E+02  0.51100000000E-03 0. -1.
        -11    1    4    4    0    0 -0.96285564998E+01  0.16654835548E+02  0.48705596980E+01  0.19844772597E+02  0.51100000000E-03 0.  1.
         12    1    4    4    0    0 -0.60020241008E+01  0.57123858811E+01  0.15186041015E+02  0.17299464948E+02  0.00000000000E+00 0. -1.
</event>
<event>
 8    1  0.3106980E-007  0.9118800E+02  0.7816164E-02  0.1184000E+00
        -11   -1    0    0    0    0  0.00000000000E+00  0.00000000000E+00  0.45593999997E+02  0.45594000000E+02  0.51100000000E-03 0.  1.
         11   -1    0    0    0    0 -0.00000000000E+00 -0.00000000000E+00 -0.45593999997E+02  0.45594000000E+02  0.51100000000E-03 0. -1.
         23    2    1    2    0    0 -0.88817841970E-15  0.00000000000E+00  0.00000000000E+00  0.91188000000E+02  0.91188000000E+02 0.  0.
    9900012    2    3    3    0    0 -0.63670345193E+01  0.25675149099E+02  0.25613038427E+02  0.54367080032E+02  0.39999990549E+02 0.  0.
         12    1    3    3    0    0  0.63670345193E+01 -0.25675149099E+02 -0.25613038427E+02  0.36820919968E+02  0.00000000000E+00 0. -1.
         11    1    4    4    0    0 -0.13974625001E+02  0.71569167079E+01  0.15458021693E+02  0.22033203026E+02  0.51100000000E-03 0. -1.
        -11    1    4    4    0    0  0.13599757905E+01  0.56404110548E+01  0.15888653081E+02  0.16914877121E+02  0.51100000000E-03 0.  1.
         12    1    4    4    0    0  0.62476146907E+01  0.12877821336E+02 -0.57336363472E+01  0.15418999885E+02  0.00000000000E+00 0. -1.
</event>
<event>
 8    1  0.3106980E-007  0.9118800E+02  0.7816164E-02  0.1184000E+00
        -11   -1    0    0    0    0  0.00000000000E+00  0.00000000000E+00  0.45593999997E+02  0.45594000000E+02  0.51100000000E-03 0.  1.
         11   -1    0    0    0    0 -0.00000000000E+00 -0.00000000000E+00 -0.45593999997E+02  0.45594000000E+02  0.51100000000E-03 0. -1.
         23    2    1    2    0    0  0.00000000000E+00  0.17763568394E-14  0.00000000000E+00  0.91188000000E+02  0.91188000000E+02 0.  0.
    9900012    2    3    3    0    0 -0.16033399168E+02  0.44288854117E+01  0.32849581470E+02  0.54367083151E+02  0.39999997659E+02 0.  0.
         12    1    3    3    0    0  0.16033399168E+02 -0.44288854117E+01 -0.32849581470E+02  0.36820916849E+02  0.00000000000E+00 0. -1.
         11    1    4    4    0    0 -0.15900759646E+01  0.20932829409E+02  0.17513690928E+02  0.27339368296E+02  0.51100000000E-03 0.  1.
        -11    1    4    4    0    0 -0.80436975090E+01 -0.67012424472E+01  0.61045027918E+01  0.12119103702E+02  0.51100000000E-03 0. -1.
         12    1    4    4    0    0 -0.63996256944E+01 -0.98027015500E+01  0.92313877499E+01  0.14908611153E+02  0.00000000000E+00 0. -1.
</event>
<event>
 8    1  0.3106980E-007  0.9118800E+02  0.7816164E-02  0.1184000E+00
        -11   -1    0    0    0    0  0.00000000000E+00  0.00000000000E+00  0.45593999997E+02  0.45594000000E+02  0.51100000000E-03 0.  1.
         11   -1    0    0    0    0 -0.00000000000E+00 -0.00000000000E+00 -0.45593999997E+02  0.45594000000E+02  0.51100000000E-03 0. -1.
         23    2    1    2    0    0  0.00000000000E+00 -0.35527136788E-14  0.00000000000E+00  0.91188000000E+02  0.91188000000E+02 0.  0.
    9900012    2    3    3    0    0 -0.17390301391E+02 -0.20840731183E+02  0.24880141757E+02  0.54367080504E+02  0.39999991624E+02 0.  0.
         12    1    3    3    0    0  0.17390301391E+02  0.20840731183E+02 -0.24880141757E+02  0.36820919496E+02  0.00000000000E+00 0. -1.
         11    1    4    4    0    0 -0.15366665803E+02  0.73312283594E+01  0.10911410979E+02  0.20222270322E+02  0.51100000000E-03 0. -1.
        -11    1    4    4    0    0  0.29964236632E+01 -0.50856815715E+01  0.76987399161E+01  0.97012013881E+01  0.51100000000E-03 0.  1.
        -12    1    4    4    0    0 -0.50200592509E+01 -0.23086277971E+02  0.62699908618E+01  0.24443608794E+02  0.00000000000E+00 0.  1.
</event>
<event>
 8    1  0.3106980E-007  0.9118800E+02  0.7816164E-02  0.1184000E+00
        -11   -1    0    0    0    0  0.00000000000E+00  0.00000000000E+00  0.45593999997E+02  0.45594000000E+02  0.51100000000E-03 0.  1.
         11   -1    0    0    0    0 -0.00000000000E+00 -0.00000000000E+00 -0.45593999997E+02  0.45594000000E+02  0.51100000000E-03 0. -1.
         23    2    1    2    0    0  0.44408920985E-15 -0.35527136788E-14  0.00000000000E+00  0.91188000000E+02  0.91188000000E+02 0.  0.
    9900012    2    3    3    0    0  0.29712500475E+01 -0.18766037776E+02 -0.31540298443E+02  0.54367042292E+02  0.39999904513E+02 0.  0.
        -12    1    3    3    0    0 -0.29712500475E+01  0.18766037776E+02  0.31540298443E+02  0.36820957708E+02  0.00000000000E+00 0.  1.
         11    1    4    4    0    0  0.29540828011E+01  0.11510761010E+02 -0.41773417962E+01  0.12596603072E+02  0.51100000000E-03 0. -1.
        -11    1    4    4    0    0  0.40524620114E+01 -0.11877395157E+02 -0.88269086141E+01  0.15343053151E+02  0.51100000000E-03 0.  1.
         12    1    4    4    0    0 -0.40352947650E+01 -0.18399403629E+02 -0.18536048033E+02  0.26427386068E+02  0.00000000000E+00 0. -1.
</event>
<event>
 8    1  0.3106980E-007  0.9118800E+02  0.7816164E-02  0.1184000E+00
        -11   -1    0    0    0    0  0.00000000000E+00  0.00000000000E+00  0.45593999997E+02  0.45594000000E+02  0.51100000000E-03 0.  1.
         11   -1    0    0    0    0 -0.00000000000E+00 -0.00000000000E+00 -0.45593999997E+02  0.45594000000E+02  0.51100000000E-03 0. -1.
         23    2    1    2    0    0 -0.33306690739E-15  0.17763568394E-14  0.00000000000E+00  0.91188000000E+02  0.91188000000E+02 0.  0.
    9900012    2    3    3    0    0  0.71869016739E+00 -0.12760309855E+02 -0.34531740816E+02  0.54367039299E+02  0.39999897690E+02 0.  0.
        -12    1    3    3    0    0 -0.71869016739E+00  0.12760309855E+02  0.34531740816E+02  0.36820960701E+02  0.00000000000E+00 0.  1.
         11    1    4    4    0    0  0.63161119862E+01  0.40015416691E+01  0.26429658950E+00  0.74816748994E+01  0.51100000000E-03 0. -1.
        -11    1    4    4    0    0 -0.68981582366E+01 -0.23121069546E+02 -0.31276309942E+02  0.39501595004E+02  0.51100000000E-03 0.  1.
        -12    1    4    4    0    0  0.13007364177E+01  0.63592180214E+01 -0.35197274633E+01  0.73837693957E+01  0.00000000000E+00 0.  1.
</event>
<event>
 8    1  0.3106980E-007  0.9118800E+02  0.7816164E-02  0.1184000E+00
        -11   -1    0    0    0    0  0.00000000000E+00  0.00000000000E+00  0.45593999997E+02  0.45594000000E+02  0.51100000000E-03 0. -1.
         11   -1    0    0    0    0 -0.00000000000E+00 -0.00000000000E+00 -0.45593999997E+02  0.45594000000E+02  0.51100000000E-03 0.  1.
         23    2    1    2    0    0  0.00000000000E+00  0.17763568394E-14  0.00000000000E+00  0.91188000000E+02  0.91188000000E+02 0.  0.
    9900012    2    3    3    0    0 -0.18642157734E+02  0.11543933968E+02 -0.29580190060E+02  0.54367080668E+02  0.39999992000E+02 0.  0.
         12    1    3    3    0    0  0.18642157734E+02 -0.11543933968E+02  0.29580190060E+02  0.36820919332E+02  0.00000000000E+00 0. -1.
         11    1    4    4    0    0 -0.96204047842E+01  0.11691598866E+02 -0.26912777090E+02  0.30879495514E+02  0.51100000000E-03 0. -1.
        -11    1    4    4    0    0 -0.63165876657E+01  0.41540275485E+01  0.84049662990E+01  0.11304807975E+02  0.51100000000E-03 0.  1.
        -12    1    4    4    0    0 -0.27051652845E+01 -0.43016924466E+01 -0.11072379269E+02  0.12182777179E+02  0.00000000000E+00 0.  1.
</event>
<event>
 8    1  0.3106980E-007  0.9118800E+02  0.7816164E-02  0.1184000E+00
        -11   -1    0    0    0    0  0.00000000000E+00  0.00000000000E+00  0.45593999997E+02  0.45594000000E+02  0.51100000000E-03 0.  1.
         11   -1    0    0    0    0 -0.00000000000E+00 -0.00000000000E+00 -0.45593999997E+02  0.45594000000E+02  0.51100000000E-03 0. -1.
         23    2    1    2    0    0  0.35527136788E-14  0.00000000000E+00 -0.17763568394E-14  0.91188000000E+02  0.91188000000E+02 0.  0.
    9900012    2    3    3    0    0 -0.21266405906E+02  0.27064081467E+02  0.13078817311E+02  0.54367082194E+02  0.39999995478E+02 0.  0.
         12    1    3    3    0    0  0.21266405906E+02 -0.27064081467E+02 -0.13078817311E+02  0.36820917806E+02  0.00000000000E+00 0. -1.
         11    1    4    4    0    0 -0.19505480642E+02  0.86518369410E+00  0.82149469281E+01  0.21182485010E+02  0.51100000000E-03 0. -1.
        -11    1    4    4    0    0  0.68430857656E+01  0.14470583819E+02 -0.35284729404E+01  0.16391331258E+02  0.51100000000E-03 0.  1.
        -12    1    4    4    0    0 -0.86040110296E+01  0.11728313954E+02  0.83923433236E+01  0.16793265926E+02  0.00000000000E+00 0.  1.
</event>
<event>
 8    1  0.3106980E-007  0.9118800E+02  0.7816164E-02  0.1184000E+00
        -11   -1    0    0    0    0  0.00000000000E+00  0.00000000000E+00  0.45593999997E+02  0.45594000000E+02  0.51100000000E-03 0.  1.
         11   -1    0    0    0    0 -0.00000000000E+00 -0.00000000000E+00 -0.45593999997E+02  0.45594000000E+02  0.51100000000E-03 0. -1.
         23    2    1    2    0    0  0.00000000000E+00  0.35527136788E-14  0.00000000000E+00  0.91188000000E+02  0.91188000000E+02 0.  0.
    9900012    2    3    3    0    0  0.18356227375E+02 -0.31295742017E+02 -0.62773872963E+01  0.54367080089E+02  0.39999990679E+02 0.  0.
        -12    1    3    3    0    0 -0.18356227375E+02  0.31295742017E+02  0.62773872963E+01  0.36820919911E+02  0.00000000000E+00 0.  1.
         11    1    4    4    0    0 -0.52010681868E+00 -0.19384110727E+02  0.10223817286E+01  0.19418020611E+02  0.51100000000E-03 0. -1.
        -11    1    4    4    0    0  0.83604786024E+01 -0.18051937716E+02  0.14613935278E+01  0.19947574516E+02  0.51100000000E-03 0.  1.
        -12    1    4    4    0    0  0.10515855591E+02  0.61403064260E+01 -0.87611625527E+01  0.15001484963E+02  0.00000000000E+00 0.  1.
</event>
<event>
 8    1  0.3106980E-007  0.9118800E+02  0.7816164E-02  0.1184000E+00
        -11   -1    0    0    0    0  0.00000000000E+00  0.00000000000E+00  0.45593999997E+02  0.45594000000E+02  0.51100000000E-03 0.  1.
         11   -1    0    0    0    0 -0.00000000000E+00 -0.00000000000E+00 -0.45593999997E+02  0.45594000000E+02  0.51100000000E-03 0. -1.
         23    2    1    2    0    0 -0.33306690739E-15  0.71054273576E-14 -0.13322676296E-14  0.91188000000E+02  0.91188000000E+02 0.  0.
    9900012    2    3    3    0    0 -0.72153512379E+00  0.36793084745E+02  0.12363904176E+01  0.54367077153E+02  0.39999983987E+02 0.  0.
        -12    1    3    3    0    0  0.72153512379E+00 -0.36793084745E+02 -0.12363904176E+01  0.36820922847E+02  0.00000000000E+00 0.  1.
         11    1    4    4    0    0 -0.12867682694E+02  0.11865253553E+02 -0.78221526201E+01  0.19171530238E+02  0.51100000000E-03 0. -1.
        -11    1    4    4    0    0  0.61135107019E+01  0.25236121551E+02  0.22043352522E+01  0.26059469262E+02  0.51100000000E-03 0.  1.
        -12    1    4    4    0    0  0.60326368684E+01 -0.30829035834E+00  0.68542077855E+01  0.91360776539E+01  0.00000000000E+00 0.  1.
</event>
<event>
 8    1  0.3106980E-007  0.9118800E+02  0.7816164E-02  0.1184000E+00
        -11   -1    0    0    0    0  0.00000000000E+00  0.00000000000E+00  0.45593999997E+02  0.45594000000E+02  0.51100000000E-03 0. -1.
         11   -1    0    0    0    0 -0.00000000000E+00 -0.00000000000E+00 -0.45593999997E+02  0.45594000000E+02  0.51100000000E-03 0.  1.
         23    2    1    2    0    0  0.00000000000E+00 -0.88817841970E-15 -0.48849813084E-14  0.91188000000E+02  0.91188000000E+02 0.  0.
    9900012    2    3    3    0    0 -0.36546174111E+02  0.32665123483E+01  0.30801232078E+01  0.54367080619E+02  0.39999991888E+02 0.  0.
        -12    1    3    3    0    0  0.36546174111E+02 -0.32665123483E+01 -0.30801232078E+01  0.36820919381E+02  0.00000000000E+00 0.  1.
         11    1    4    4    0    0 -0.17291268087E+02 -0.85889750552E+01 -0.50871650058E+01  0.19965913268E+02  0.51100000000E-03 0. -1.
        -11    1    4    4    0    0 -0.16412362820E+02  0.13442964525E+02  0.15569107977E+02  0.26314940092E+02  0.51100000000E-03 0.  1.
        -12    1    4    4    0    0 -0.28425432033E+01 -0.15874771218E+01 -0.74018197637E+01  0.80862272593E+01  0.00000000000E+00 0.  1.
</event>
<event>
 8    1  0.3106980E-007  0.9118800E+02  0.7816164E-02  0.1184000E+00
        -11   -1    0    0    0    0  0.00000000000E+00  0.00000000000E+00  0.45593999997E+02  0.45594000000E+02  0.51100000000E-03 0. -1.
         11   -1    0    0    0    0 -0.00000000000E+00 -0.00000000000E+00 -0.45593999997E+02  0.45594000000E+02  0.51100000000E-03 0.  1.
         23    2    1    2    0    0  0.00000000000E+00  0.00000000000E+00 -0.35527136788E-14  0.91188000000E+02  0.91188000000E+02 0.  0.
    9900012    2    3    3    0    0  0.17162102366E+02 -0.86034663428E+01  0.31420093270E+02  0.54367086760E+02  0.40000005887E+02 0.  0.
        -12    1    3    3    0    0 -0.17162102366E+02  0.86034663428E+01 -0.31420093270E+02  0.36820913240E+02  0.00000000000E+00 0.  1.
         11    1    4    4    0    0 -0.16403810250E+01 -0.10743710220E+02  0.19936122551E+02  0.22706103625E+02  0.51100000000E-03 0. -1.
        -11    1    4    4    0    0 -0.14295613508E+01  0.59651169338E+01  0.90419517112E+01  0.10926259959E+02  0.51100000000E-03 0.  1.
        -12    1    4    4    0    0  0.20232044742E+02 -0.38248730565E+01  0.24420190075E+01  0.20734723176E+02  0.00000000000E+00 0.  1.
</event>
<event>
 8    1  0.3106980E-007  0.9118800E+02  0.7816164E-02  0.1184000E+00
        -11   -1    0    0    0    0  0.00000000000E+00  0.00000000000E+00  0.45593999997E+02  0.45594000000E+02  0.51100000000E-03 0. -1.
         11   -1    0    0    0    0 -0.00000000000E+00 -0.00000000000E+00 -0.45593999997E+02  0.45594000000E+02  0.51100000000E-03 0.  1.
         23    2    1    2    0    0  0.00000000000E+00  0.72164496601E-15  0.00000000000E+00  0.91188000000E+02  0.91188000000E+02 0.  0.
    9900012    2    3    3    0    0  0.80323122670E+01  0.41715912181E+00 -0.35931709465E+02  0.54367084651E+02  0.40000001078E+02 0.  0.
         12    1    3    3    0    0 -0.80323122670E+01 -0.41715912181E+00  0.35931709465E+02  0.36820915349E+02  0.00000000000E+00 0. -1.
         11    1    4    4    0    0  0.14783083250E+02 -0.12569550083E+02 -0.15568411349E+02  0.24877873137E+02  0.51100000000E-03 0. -1.
        -11    1    4    4    0    0 -0.11493563670E+02  0.10456912862E+02 -0.12392024949E+02  0.19874891573E+02  0.51100000000E-03 0.  1.
        -12    1    4    4    0    0  0.47427926875E+01  0.25297963424E+01 -0.79712731673E+01  0.96143199405E+01  0.00000000000E+00 0.  1.
</event>
<event>
 8    1  0.3106980E-007  0.9118800E+02  0.7816164E-02  0.1184000E+00
        -11   -1    0    0    0    0  0.00000000000E+00  0.00000000000E+00  0.45593999997E+02  0.45594000000E+02  0.51100000000E-03 0. -1.
         11   -1    0    0    0    0 -0.00000000000E+00 -0.00000000000E+00 -0.45593999997E+02  0.45594000000E+02  0.51100000000E-03 0.  1.
         23    2    1    2    0    0  0.00000000000E+00 -0.35527136788E-14  0.00000000000E+00  0.91188000000E+02  0.91188000000E+02 0.  0.
    9900012    2    3    3    0    0 -0.17612118235E+02  0.31303737347E+02  0.81035533147E+01  0.54367105702E+02  0.40000049068E+02 0.  0.
         12    1    3    3    0    0  0.17612118235E+02 -0.31303737347E+02 -0.81035533147E+01  0.36820894298E+02  0.00000000000E+00 0. -1.
         11    1    4    4    0    0 -0.57463560001E+00 -0.34729059950E+00 -0.24961828782E+01  0.25849073592E+01  0.51100000000E-03 0. -1.
        -11    1    4    4    0    0 -0.18974951081E+02  0.31326336319E+00  0.67837095653E+01  0.20153551007E+02  0.51100000000E-03 0.  1.
         12    1    4    4    0    0  0.19374684460E+01  0.31337764584E+02  0.38160266276E+01  0.31628647336E+02  0.00000000000E+00 0. -1.
</event>
<event>
 8    1  0.3106980E-007  0.9118800E+02  0.7816164E-02  0.1184000E+00
        -11   -1    0    0    0    0  0.00000000000E+00  0.00000000000E+00  0.45593999997E+02  0.45594000000E+02  0.51100000000E-03 0. -1.
         11   -1    0    0    0    0 -0.00000000000E+00 -0.00000000000E+00 -0.45593999997E+02  0.45594000000E+02  0.51100000000E-03 0.  1.
         23    2    1    2    0    0  0.00000000000E+00  0.00000000000E+00  0.00000000000E+00  0.91188000000E+02  0.91188000000E+02 0.  0.
    9900012    2    3    3    0    0  0.34072838418E+02 -0.11075120925E+02  0.84951695127E+01  0.54367020567E+02  0.39999854985E+02 0.  0.
        -12    1    3    3    0    0 -0.34072838418E+02  0.11075120925E+02 -0.84951695127E+01  0.36820979433E+02  0.00000000000E+00 0.  1.
         11    1    4    4    0    0  0.96670409935E+01 -0.13342631876E+02  0.47363079538E+00  0.16483380519E+02  0.51100000000E-03 0. -1.
        -11    1    4    4    0    0  0.16802571256E+02  0.25023727117E+01 -0.90108645381E+01  0.19229767289E+02  0.51100000000E-03 0.  1.
        -12    1    4    4    0    0  0.76032261689E+01 -0.23486176037E+00  0.17032403255E+02  0.18653872758E+02  0.00000000000E+00 0.  1.
</event>
<event>
 8    1  0.3106980E-007  0.9118800E+02  0.7816164E-02  0.1184000E+00
        -11   -1    0    0    0    0  0.00000000000E+00  0.00000000000E+00  0.45593999997E+02  0.45594000000E+02  0.51100000000E-03 0. -1.
         11   -1    0    0    0    0 -0.00000000000E+00 -0.00000000000E+00 -0.45593999997E+02  0.45594000000E+02  0.51100000000E-03 0.  1.
         23    2    1    2    0    0  0.00000000000E+00  0.00000000000E+00  0.00000000000E+00  0.91188000000E+02  0.91188000000E+02 0.  0.
    9900012    2    3    3    0    0 -0.12497634696E+02  0.97883075593E+01 -0.33223158698E+02  0.54367080515E+02  0.39999991649E+02 0.  0.
         12    1    3    3    0    0  0.12497634696E+02 -0.97883075593E+01  0.33223158698E+02  0.36820919485E+02  0.00000000000E+00 0. -1.
         11    1    4    4    0    0 -0.76212811343E+01  0.10541032168E+02 -0.16594902837E+01  0.13113016188E+02  0.51100000000E-03 0. -1.
        -11    1    4    4    0    0  0.92258400314E+01  0.39933547372E+01 -0.60918428682E+01  0.11754724843E+02  0.51100000000E-03 0.  1.
         12    1    4    4    0    0 -0.14102193594E+02 -0.47460793459E+01 -0.25471825546E+02  0.29499339483E+02  0.00000000000E+00 0. -1.
</event>
<event>
 8    1  0.3106980E-007  0.9118800E+02  0.7816164E-02  0.1184000E+00
        -11   -1    0    0    0    0  0.00000000000E+00  0.00000000000E+00  0.45593999997E+02  0.45594000000E+02  0.51100000000E-03 0.  1.
         11   -1    0    0    0    0 -0.00000000000E+00 -0.00000000000E+00 -0.45593999997E+02  0.45594000000E+02  0.51100000000E-03 0. -1.
         23    2    1    2    0    0  0.35527136788E-14  0.00000000000E+00 -0.17763568394E-14  0.91188000000E+02  0.91188000000E+02 0.  0.
    9900012    2    3    3    0    0 -0.24408484918E+02 -0.27136380414E+02  0.48602891065E+01  0.54367086267E+02  0.40000004762E+02 0.  0.
         12    1    3    3    0    0  0.24408484918E+02  0.27136380414E+02 -0.48602891065E+01  0.36820913733E+02  0.00000000000E+00 0. -1.
         11    1    4    4    0    0 -0.27180821396E+02 -0.98266732576E+01  0.16563700117E+01  0.28950027996E+02  0.51100000000E-03 0. -1.
        -11    1    4    4    0    0 -0.19541637896E+01 -0.54682576381E+01  0.95486395446E+01  0.11175737789E+02  0.51100000000E-03 0.  1.
         12    1    4    4    0    0  0.47265002681E+01 -0.11841449518E+02 -0.63447204498E+01  0.14241320482E+02  0.00000000000E+00 0. -1.
</event>
<event>
 8    1  0.3106980E-007  0.9118800E+02  0.7816164E-02  0.1184000E+00
        -11   -1    0    0    0    0  0.00000000000E+00  0.00000000000E+00  0.45593999997E+02  0.45594000000E+02  0.51100000000E-03 0.  1.
         11   -1    0    0    0    0 -0.00000000000E+00 -0.00000000000E+00 -0.45593999997E+02  0.45594000000E+02  0.51100000000E-03 0. -1.
         23    2    1    2    0    0  0.00000000000E+00  0.00000000000E+00  0.00000000000E+00  0.91188000000E+02  0.91188000000E+02 0.  0.
    9900012    2    3    3    0    0 -0.29209484611E+02 -0.11868569074E+02  0.19019004453E+02  0.54367089453E+02  0.40000012027E+02 0.  0.
         12    1    3    3    0    0  0.29209484611E+02  0.11868569074E+02 -0.19019004453E+02  0.36820910547E+02  0.00000000000E+00 0. -1.
         11    1    4    4    0    0 -0.11644943377E+02 -0.13150078590E+02  0.23159540816E+02  0.29067053587E+02  0.51100000000E-03 0. -1.
        -11    1    4    4    0    0 -0.18653328488E+02 -0.15756449182E+01  0.16082478915E+01  0.18788714222E+02  0.51100000000E-03 0.  1.
        -12    1    4    4    0    0  0.10887872539E+01  0.28571544344E+01 -0.57487842545E+01  0.65113216440E+01  0.00000000000E+00 0.  1.
</event>
<event>
 8    1  0.3106980E-007  0.9118800E+02  0.7816164E-02  0.1184000E+00
        -11   -1    0    0    0    0  0.00000000000E+00  0.00000000000E+00  0.45593999997E+02  0.45594000000E+02  0.51100000000E-03 0. -1.
         11   -1    0    0    0    0 -0.00000000000E+00 -0.00000000000E+00 -0.45593999997E+02  0.45594000000E+02  0.51100000000E-03 0.  1.
         23    2    1    2    0    0 -0.17763568394E-14 -0.44408920985E-15  0.00000000000E+00  0.91188000000E+02  0.91188000000E+02 0.  0.
    9900012    2    3    3    0    0  0.95593327828E+01 -0.32708846517E+01 -0.35407627307E+02  0.54367087448E+02  0.40000007456E+02 0.  0.
         12    1    3    3    0    0 -0.95593327828E+01  0.32708846517E+01  0.35407627307E+02  0.36820912552E+02  0.00000000000E+00 0. -1.
         11    1    4    4    0    0  0.51086704362E+01  0.12139391587E+02 -0.30327028696E+01  0.13515199913E+02  0.51100000000E-03 0. -1.
        -11    1    4    4    0    0 -0.15719066989E+01 -0.25958144022E+01  0.20274851507E+01  0.36496355130E+01  0.51100000000E-03 0.  1.
        -12    1    4    4    0    0  0.60225690455E+01 -0.12814461837E+02 -0.34402409588E+02  0.37202252022E+02  0.00000000000E+00 0.  1.
</event>
<event>
 8    1  0.3106980E-007  0.9118800E+02  0.7816164E-02  0.1184000E+00
        -11   -1    0    0    0    0  0.00000000000E+00  0.00000000000E+00  0.45593999997E+02  0.45594000000E+02  0.51100000000E-03 0.  1.
         11   -1    0    0    0    0 -0.00000000000E+00 -0.00000000000E+00 -0.45593999997E+02  0.45594000000E+02  0.51100000000E-03 0. -1.
         23    2    1    2    0    0  0.00000000000E+00 -0.17763568394E-14  0.00000000000E+00  0.91188000000E+02  0.91188000000E+02 0.  0.
    9900012    2    3    3    0    0 -0.31009018492E+02  0.11614675542E+02  0.16103710366E+02  0.54366954342E+02  0.39999704013E+02 0.  0.
         12    1    3    3    0    0  0.31009018492E+02 -0.11614675542E+02 -0.16103710366E+02  0.36821045658E+02  0.00000000000E+00 0. -1.
         11    1    4    4    0    0  0.22430270379E+01 -0.63064768469E+01 -0.13078063078E+01  0.68200570461E+01  0.51100000000E-03 0. -1.
        -11    1    4    4    0    0 -0.34049507369E+02  0.94038496120E+01  0.11502049343E+02  0.37149676701E+02  0.51100000000E-03 0.  1.
        -12    1    4    4    0    0  0.79746183945E+00  0.85173027770E+01  0.59094673304E+01  0.10397220595E+02  0.00000000000E+00 0.  1.
</event>
<event>
 8    1  0.3106980E-007  0.9118800E+02  0.7816164E-02  0.1184000E+00
        -11   -1    0    0    0    0  0.00000000000E+00  0.00000000000E+00  0.45593999997E+02  0.45594000000E+02  0.51100000000E-03 0.  1.
         11   -1    0    0    0    0 -0.00000000000E+00 -0.00000000000E+00 -0.45593999997E+02  0.45594000000E+02  0.51100000000E-03 0. -1.
         23    2    1    2    0    0 -0.17763568394E-14 -0.35527136788E-14  0.00000000000E+00  0.91188000000E+02  0.91188000000E+02 0.  0.
    9900012    2    3    3    0    0 -0.88676479955E+01 -0.19363549251E+02 -0.30036614320E+02  0.54367076324E+02  0.39999982095E+02 0.  0.
        -12    1    3    3    0    0  0.88676479955E+01  0.19363549251E+02  0.30036614320E+02  0.36820923676E+02  0.00000000000E+00 0.  1.
         11    1    4    4    0    0 -0.43395624348E+01 -0.14867324155E+02  0.30996799999E+01  0.15794845552E+02  0.51100000000E-03 0. -1.
        -11    1    4    4    0    0 -0.67707264715E+01  0.52771004832E+01 -0.90078593980E+01  0.12443153043E+02  0.51100000000E-03 0.  1.
         12    1    4    4    0    0  0.22426409107E+01 -0.97733255794E+01 -0.24128434922E+02  0.26129077728E+02  0.00000000000E+00 0. -1.
</event>
<event>
 8    1  0.3106980E-007  0.9118800E+02  0.7816164E-02  0.1184000E+00
        -11   -1    0    0    0    0  0.00000000000E+00  0.00000000000E+00  0.45593999997E+02  0.45594000000E+02  0.51100000000E-03 0.  1.
         11   -1    0    0    0    0 -0.00000000000E+00 -0.00000000000E+00 -0.45593999997E+02  0.45594000000E+02  0.51100000000E-03 0. -1.
         23    2    1    2    0    0  0.35527136788E-14  0.88817841970E-15 -0.35527136788E-14  0.91188000000E+02  0.91188000000E+02 0.  0.
    9900012    2    3    3    0    0  0.27620846547E+02  0.28762879475E+01 -0.24178403498E+02  0.54367090288E+02  0.40000013930E+02 0.  0.
        -12    1    3    3    0    0 -0.27620846547E+02 -0.28762879475E+01  0.24178403498E+02  0.36820909712E+02  0.00000000000E+00 0.  1.
         11    1    4    4    0    0  0.25063169437E+02  0.17698524923E+01 -0.15838399073E+02  0.29701005464E+02  0.51100000000E-03 0. -1.
        -11    1    4    4    0    0 -0.20349255874E+01  0.27057620562E+01  0.74290812170E+01  0.81641483598E+01  0.51100000000E-03 0.  1.
         12    1    4    4    0    0  0.45926026969E+01 -0.15993266010E+01 -0.15769085642E+02  0.16501936465E+02  0.00000000000E+00 0. -1.
</event>
<event>
 8    1  0.3106980E-007  0.9118800E+02  0.7816164E-02  0.1184000E+00
        -11   -1    0    0    0    0  0.00000000000E+00  0.00000000000E+00  0.45593999997E+02  0.45594000000E+02  0.51100000000E-03 0.  1.
         11   -1    0    0    0    0 -0.00000000000E+00 -0.00000000000E+00 -0.45593999997E+02  0.45594000000E+02  0.51100000000E-03 0. -1.
         23    2    1    2    0    0  0.71054273576E-14  0.00000000000E+00 -0.88817841970E-15  0.91188000000E+02  0.91188000000E+02 0.  0.
    9900012    2    3    3    0    0  0.29947912100E+02 -0.21409527512E+02 -0.73171296967E+00  0.54367072373E+02  0.39999973088E+02 0.  0.
        -12    1    3    3    0    0 -0.29947912100E+02  0.21409527512E+02  0.73171296967E+00  0.36820927627E+02  0.00000000000E+00 0.  1.
         11    1    4    4    0    0  0.61078960690E+01  0.16546542189E+01 -0.10939896199E+02  0.12638259535E+02  0.51100000000E-03 0. -1.
        -11    1    4    4    0    0  0.26020342799E+02 -0.22145375320E+02  0.31834459238E+01  0.34316325789E+02  0.51100000000E-03 0.  1.
        -12    1    4    4    0    0 -0.21803267677E+01 -0.91880641149E+00  0.70247373055E+01  0.74124870487E+01  0.00000000000E+00 0.  1.
</event>
<event>
 8    1  0.3106980E-007  0.9118800E+02  0.7816164E-02  0.1184000E+00
        -11   -1    0    0    0    0  0.00000000000E+00  0.00000000000E+00  0.45593999997E+02  0.45594000000E+02  0.51100000000E-03 0. -1.
         11   -1    0    0    0    0 -0.00000000000E+00 -0.00000000000E+00 -0.45593999997E+02  0.45594000000E+02  0.51100000000E-03 0.  1.
         23    2    1    2    0    0 -0.17763568394E-14  0.17763568394E-14  0.00000000000E+00  0.91188000000E+02  0.91188000000E+02 0.  0.
    9900012    2    3    3    0    0 -0.86883849149E+01 -0.12483144239E+02 -0.33533029389E+02  0.54367068690E+02  0.39999964693E+02 0.  0.
         12    1    3    3    0    0  0.86883849149E+01  0.12483144239E+02  0.33533029389E+02  0.36820931310E+02  0.00000000000E+00 0. -1.
         11    1    4    4    0    0  0.60967984490E+01  0.30556689820E+01  0.93400839644E+00  0.68833448410E+01  0.51100000000E-03 0. -1.
        -11    1    4    4    0    0 -0.16277521165E+02 -0.26925189231E+01 -0.86970244354E+01  0.18650618963E+02  0.51100000000E-03 0.  1.
        -12    1    4    4    0    0  0.14923378011E+01 -0.12846294298E+02 -0.25770013350E+02  0.28833104886E+02  0.00000000000E+00 0.  1.
</event>
<event>
 8    1  0.3106980E-007  0.9118800E+02  0.7816164E-02  0.1184000E+00
        -11   -1    0    0    0    0  0.00000000000E+00  0.00000000000E+00  0.45593999997E+02  0.45594000000E+02  0.51100000000E-03 0. -1.
         11   -1    0    0    0    0 -0.00000000000E+00 -0.00000000000E+00 -0.45593999997E+02  0.45594000000E+02  0.51100000000E-03 0.  1.
         23    2    1    2    0    0 -0.71054273576E-14  0.00000000000E+00  0.00000000000E+00  0.91188000000E+02  0.91188000000E+02 0.  0.
    9900012    2    3    3    0    0 -0.34183496536E+02 -0.10615871150E+02 -0.86355188944E+01  0.54367077385E+02  0.39999984514E+02 0.  0.
         12    1    3    3    0    0  0.34183496536E+02  0.10615871150E+02  0.86355188944E+01  0.36820922615E+02  0.00000000000E+00 0. -1.
         11    1    4    4    0    0  0.23388454901E+01  0.98850187508E+01  0.26508900563E+00  0.10161400808E+02  0.51100000000E-03 0. -1.
        -11    1    4    4    0    0 -0.27427859208E+02 -0.12390263765E+02 -0.10585755232E+02  0.31903985816E+02  0.51100000000E-03 0.  1.
         12    1    4    4    0    0 -0.90944828182E+01 -0.81106261357E+01  0.16851473317E+01  0.12301690761E+02  0.00000000000E+00 0. -1.
</event>
<event>
 8    1  0.3106980E-007  0.9118800E+02  0.7816164E-02  0.1184000E+00
        -11   -1    0    0    0    0  0.00000000000E+00  0.00000000000E+00  0.45593999997E+02  0.45594000000E+02  0.51100000000E-03 0.  1.
         11   -1    0    0    0    0 -0.00000000000E+00 -0.00000000000E+00 -0.45593999997E+02  0.45594000000E+02  0.51100000000E-03 0. -1.
         23    2    1    2    0    0  0.00000000000E+00  0.00000000000E+00  0.35527136788E-14  0.91188000000E+02  0.91188000000E+02 0.  0.
    9900012    2    3    3    0    0  0.23121925086E+02 -0.25527431445E+02 -0.13019491740E+02  0.54367077401E+02  0.39999984551E+02 0.  0.
        -12    1    3    3    0    0 -0.23121925086E+02  0.25527431445E+02  0.13019491740E+02  0.36820922599E+02  0.00000000000E+00 0.  1.
         11    1    4    4    0    0 -0.58133946655E+01  0.47363173407E+01 -0.73308387362E+01  0.10486632268E+02  0.51100000000E-03 0. -1.
        -11    1    4    4    0    0  0.92972431902E+01 -0.16861846092E+02  0.67928260037E+00  0.19267122506E+02  0.51100000000E-03 0.  1.
        -12    1    4    4    0    0  0.19638076562E+02 -0.13401902694E+02 -0.63679356039E+01  0.24613322627E+02  0.00000000000E+00 0.  1.
</event>
<event>
 8    1  0.3106980E-007  0.9118800E+02  0.7816164E-02  0.1184000E+00
        -11   -1    0    0    0    0  0.00000000000E+00  0.00000000000E+00  0.45593999997E+02  0.45594000000E+02  0.51100000000E-03 0.  1.
         11   -1    0    0    0    0 -0.00000000000E+00 -0.00000000000E+00 -0.45593999997E+02  0.45594000000E+02  0.51100000000E-03 0. -1.
         23    2    1    2    0    0  0.35527136788E-14  0.00000000000E+00  0.44408920985E-15  0.91188000000E+02  0.91188000000E+02 0.  0.
    9900012    2    3    3    0    0  0.31273021907E+02 -0.19385382265E+02 -0.14088700590E+01  0.54367083939E+02  0.39999999456E+02 0.  0.
         12    1    3    3    0    0 -0.31273021907E+02  0.19385382265E+02  0.14088700590E+01  0.36820916061E+02  0.00000000000E+00 0. -1.
         11    1    4    4    0    0 -0.71306545299E+01  0.29949242892E+01  0.73356709147E+00  0.77687789556E+01  0.51100000000E-03 0. -1.
        -11    1    4    4    0    0  0.72504759234E+00  0.51710998535E+00  0.21227590519E+01  0.23019997831E+01  0.51100000000E-03 0.  1.
        -12    1    4    4    0    0  0.37678628844E+02 -0.22897416539E+02 -0.42651962024E+01  0.44296305200E+02  0.00000000000E+00 0.  1.
</event>
<event>
 8    1  0.3106980E-007  0.9118800E+02  0.7816164E-02  0.1184000E+00
        -11   -1    0    0    0    0  0.00000000000E+00  0.00000000000E+00  0.45593999997E+02  0.45594000000E+02  0.51100000000E-03 0. -1.
         11   -1    0    0    0    0 -0.00000000000E+00 -0.00000000000E+00 -0.45593999997E+02  0.45594000000E+02  0.51100000000E-03 0.  1.
         23    2    1    2    0    0 -0.35527136788E-14 -0.44408920985E-15  0.00000000000E+00  0.91188000000E+02  0.91188000000E+02 0.  0.
    9900012    2    3    3    0    0  0.25721378379E+02  0.29775451893E+01  0.26178724042E+02  0.54367072886E+02  0.39999974258E+02 0.  0.
        -12    1    3    3    0    0 -0.25721378379E+02 -0.29775451893E+01 -0.26178724042E+02  0.36820927114E+02  0.00000000000E+00 0.  1.
         11    1    4    4    0    0 -0.10551053127E+01  0.40656232035E+01 -0.45572814574E+01  0.61976893918E+01  0.51100000000E-03 0.  1.
        -11    1    4    4    0    0  0.28620190478E+02 -0.10212720179E+01  0.33979239508E+02  0.44438125718E+02  0.51100000000E-03 0. -1.
         12    1    4    4    0    0 -0.18437067862E+01 -0.66805996395E-01 -0.32432340086E+01  0.37312577757E+01  0.00000000000E+00 0. -1.
</event>
<event>
 8    1  0.3106980E-007  0.9118800E+02  0.7816164E-02  0.1184000E+00
        -11   -1    0    0    0    0  0.00000000000E+00  0.00000000000E+00  0.45593999997E+02  0.45594000000E+02  0.51100000000E-03 0.  1.
         11   -1    0    0    0    0 -0.00000000000E+00 -0.00000000000E+00 -0.45593999997E+02  0.45594000000E+02  0.51100000000E-03 0. -1.
         23    2    1    2    0    0  0.00000000000E+00  0.88817841970E-15 -0.22204460493E-15  0.91188000000E+02  0.91188000000E+02 0.  0.
    9900012    2    3    3    0    0 -0.36193135148E+02  0.67514748912E+01  0.51157899530E+00  0.54366984830E+02  0.39999773517E+02 0.  0.
        -12    1    3    3    0    0  0.36193135148E+02 -0.67514748912E+01 -0.51157899530E+00  0.36821015170E+02  0.00000000000E+00 0.  1.
         11    1    4    4    0    0 -0.30446263660E+01 -0.45208597825E+01  0.56087906936E+01  0.78208986816E+01  0.51100000000E-03 0. -1.
        -11    1    4    4    0    0 -0.86118908879E+01  0.18719959920E+02 -0.29214879773E+01  0.20811935430E+02  0.51100000000E-03 0.  1.
         12    1    4    4    0    0 -0.24536617894E+02 -0.74476252464E+01 -0.21757237211E+01  0.25734150719E+02  0.00000000000E+00 0. -1.
</event>
<event>
 8    1  0.3106980E-007  0.9118800E+02  0.7816164E-02  0.1184000E+00
        -11   -1    0    0    0    0  0.00000000000E+00  0.00000000000E+00  0.45593999997E+02  0.45594000000E+02  0.51100000000E-03 0.  1.
         11   -1    0    0    0    0 -0.00000000000E+00 -0.00000000000E+00 -0.45593999997E+02  0.45594000000E+02  0.51100000000E-03 0. -1.
         23    2    1    2    0    0 -0.35527136788E-14  0.00000000000E+00 -0.35527136788E-14  0.91188000000E+02  0.91188000000E+02 0.  0.
    9900012    2    3    3    0    0  0.30599190176E+02  0.51416156543E+01  0.19825070901E+02  0.54367080848E+02  0.39999992409E+02 0.  0.
         12    1    3    3    0    0 -0.30599190176E+02 -0.51416156543E+01 -0.19825070901E+02  0.36820919152E+02  0.00000000000E+00 0. -1.
         11    1    4    4    0    0 -0.45049671127E+01 -0.61992751387E+01 -0.49171822160E+01  0.91051865515E+01  0.51100000000E-03 0. -1.
        -11    1    4    4    0    0  0.28705933593E+02  0.12627090254E+02  0.20939644072E+02  0.37708655848E+02  0.51100000000E-03 0.  1.
         12    1    4    4    0    0  0.63982236954E+01 -0.12861994613E+01  0.38026090458E+01  0.75532384489E+01  0.00000000000E+00 0. -1.
</event>
<event>
 8    1  0.3106980E-007  0.9118800E+02  0.7816164E-02  0.1184000E+00
        -11   -1    0    0    0    0  0.00000000000E+00  0.00000000000E+00  0.45593999997E+02  0.45594000000E+02  0.51100000000E-03 0.  1.
         11   -1    0    0    0    0 -0.00000000000E+00 -0.00000000000E+00 -0.45593999997E+02  0.45594000000E+02  0.51100000000E-03 0. -1.
         23    2    1    2    0    0  0.00000000000E+00  0.00000000000E+00  0.00000000000E+00  0.91188000000E+02  0.91188000000E+02 0.  0.
    9900012    2    3    3    0    0  0.80295908772E+01 -0.11194205639E+02  0.34146682075E+02  0.54367075701E+02  0.39999980674E+02 0.  0.
         12    1    3    3    0    0 -0.80295908772E+01  0.11194205639E+02 -0.34146682075E+02  0.36820924299E+02  0.00000000000E+00 0. -1.
         11    1    4    4    0    0 -0.78004790526E+01  0.66082384854E+00  0.22434707399E+01  0.81435448566E+01  0.51100000000E-03 0. -1.
        -11    1    4    4    0    0  0.16868208997E+02 -0.73712635272E+01  0.52031130945E+01  0.19129672943E+02  0.51100000000E-03 0.  1.
         12    1    4    4    0    0 -0.10381390676E+01 -0.44837659608E+01  0.26700098240E+02  0.27093857901E+02  0.00000000000E+00 0. -1.
</event>
<event>
 8    1  0.3106980E-007  0.9118800E+02  0.7816164E-02  0.1184000E+00
        -11   -1    0    0    0    0  0.00000000000E+00  0.00000000000E+00  0.45593999997E+02  0.45594000000E+02  0.51100000000E-03 0. -1.
         11   -1    0    0    0    0 -0.00000000000E+00 -0.00000000000E+00 -0.45593999997E+02  0.45594000000E+02  0.51100000000E-03 0.  1.
         23    2    1    2    0    0  0.00000000000E+00  0.44408920985E-15 -0.35527136788E-14  0.91188000000E+02  0.91188000000E+02 0.  0.
    9900012    2    3    3    0    0  0.25416191014E+02 -0.20240869564E+01 -0.26565129260E+02  0.54367003459E+02  0.39999815985E+02 0.  0.
         12    1    3    3    0    0 -0.25416191014E+02  0.20240869564E+01  0.26565129260E+02  0.36820996541E+02  0.00000000000E+00 0. -1.
         11    1    4    4    0    0  0.10264288649E+02 -0.12678643884E+00  0.91264458572E+01  0.13735490909E+02  0.51100000000E-03 0. -1.
        -11    1    4    4    0    0  0.11415187779E+02  0.38126185201E+01 -0.17838271242E+02  0.21518515125E+02  0.51100000000E-03 0.  1.
        -12    1    4    4    0    0  0.37367145861E+01 -0.57099190377E+01 -0.17853303876E+02  0.19112997425E+02  0.00000000000E+00 0.  1.
</event>
<event>
 8    1  0.3106980E-007  0.9118800E+02  0.7816164E-02  0.1184000E+00
        -11   -1    0    0    0    0  0.00000000000E+00  0.00000000000E+00  0.45593999997E+02  0.45594000000E+02  0.51100000000E-03 0.  1.
         11   -1    0    0    0    0 -0.00000000000E+00 -0.00000000000E+00 -0.45593999997E+02  0.45594000000E+02  0.51100000000E-03 0. -1.
         23    2    1    2    0    0  0.00000000000E+00  0.00000000000E+00  0.00000000000E+00  0.91188000000E+02  0.91188000000E+02 0.  0.
    9900012    2    3    3    0    0 -0.14261045483E+02 -0.14303047519E+02  0.30786715469E+02  0.54367130429E+02  0.40000105439E+02 0.  0.
         12    1    3    3    0    0  0.14261045483E+02  0.14303047519E+02 -0.30786715469E+02  0.36820869571E+02  0.00000000000E+00 0. -1.
         11    1    4    4    0    0 -0.54040115506E+01  0.48713441538E+01 -0.74440972006E+01  0.10409030603E+02  0.51100000000E-03 0. -1.
        -11    1    4    4    0    0 -0.34574246873E+01 -0.38952673459E+01  0.65049774438E+01  0.83331641632E+01  0.51100000000E-03 0.  1.
         12    1    4    4    0    0 -0.53996092453E+01 -0.15279124327E+02  0.31725835226E+02  0.35624935663E+02  0.00000000000E+00 0. -1.
</event>
<event>
 8    1  0.3106980E-007  0.9118800E+02  0.7816164E-02  0.1184000E+00
        -11   -1    0    0    0    0  0.00000000000E+00  0.00000000000E+00  0.45593999997E+02  0.45594000000E+02  0.51100000000E-03 0. -1.
         11   -1    0    0    0    0 -0.00000000000E+00 -0.00000000000E+00 -0.45593999997E+02  0.45594000000E+02  0.51100000000E-03 0.  1.
         23    2    1    2    0    0  0.00000000000E+00  0.00000000000E+00  0.00000000000E+00  0.91188000000E+02  0.91188000000E+02 0.  0.
    9900012    2    3    3    0    0 -0.34689864764E+02  0.80841761916E+01  0.93295312053E+01  0.54367071514E+02  0.39999971131E+02 0.  0.
        -12    1    3    3    0    0  0.34689864764E+02 -0.80841761916E+01 -0.93295312053E+01  0.36820928486E+02  0.00000000000E+00 0.  1.
         11    1    4    4    0    0 -0.18160193876E+02 -0.22115282444E+01  0.11034803603E+02  0.21364699614E+02  0.51100000000E-03 0. -1.
        -11    1    4    4    0    0  0.37248703996E+01 -0.30517930035E+01  0.58677633300E+01  0.75907013370E+01  0.51100000000E-03 0.  1.
         12    1    4    4    0    0 -0.20254541288E+02  0.13347497440E+02 -0.75730357279E+01  0.25411670563E+02  0.00000000000E+00 0. -1.
</event>
<event>
 8    1  0.3106980E-007  0.9118800E+02  0.7816164E-02  0.1184000E+00
        -11   -1    0    0    0    0  0.00000000000E+00  0.00000000000E+00  0.45593999997E+02  0.45594000000E+02  0.51100000000E-03 0.  1.
         11   -1    0    0    0    0 -0.00000000000E+00 -0.00000000000E+00 -0.45593999997E+02  0.45594000000E+02  0.51100000000E-03 0. -1.
         23    2    1    2    0    0  0.35527136788E-14  0.88817841970E-15  0.00000000000E+00  0.91188000000E+02  0.91188000000E+02 0.  0.
    9900012    2    3    3    0    0 -0.23348895662E+02 -0.46417284403E+01 -0.28090280036E+02  0.54367076546E+02  0.39999982601E+02 0.  0.
        -12    1    3    3    0    0  0.23348895662E+02  0.46417284403E+01  0.28090280036E+02  0.36820923454E+02  0.00000000000E+00 0.  1.
         11    1    4    4    0    0 -0.21879639286E+02 -0.14552287989E+02 -0.12438409793E+02  0.29072353524E+02  0.51100000000E-03 0. -1.
        -11    1    4    4    0    0  0.77382536172E+01  0.34312547427E+01 -0.82540107186E+01  0.11822976417E+02  0.51100000000E-03 0.  1.
         12    1    4    4    0    0 -0.92075099927E+01  0.64793048056E+01 -0.73978595243E+01  0.13471746604E+02  0.00000000000E+00 0. -1.
</event>
<event>
 8    1  0.3106980E-007  0.9118800E+02  0.7816164E-02  0.1184000E+00
        -11   -1    0    0    0    0  0.00000000000E+00  0.00000000000E+00  0.45593999997E+02  0.45594000000E+02  0.51100000000E-03 0.  1.
         11   -1    0    0    0    0 -0.00000000000E+00 -0.00000000000E+00 -0.45593999997E+02  0.45594000000E+02  0.51100000000E-03 0. -1.
         23    2    1    2    0    0  0.00000000000E+00  0.17763568394E-14  0.88817841970E-15  0.91188000000E+02  0.91188000000E+02 0.  0.
    9900012    2    3    3    0    0 -0.35179269889E+02 -0.91282388064E+01 -0.59055876780E+01  0.54367058412E+02  0.39999941261E+02 0.  0.
        -12    1    3    3    0    0  0.35179269889E+02  0.91282388064E+01  0.59055876780E+01  0.36820941588E+02  0.00000000000E+00 0.  1.
         11    1    4    4    0    0 -0.19944236404E+01  0.86209097867E+01 -0.16548823010E+01  0.90020246000E+01  0.51100000000E-03 0.  1.
        -11    1    4    4    0    0 -0.24496002903E+02  0.41132054089E-01 -0.67503773787E+01  0.25409121297E+02  0.51100000000E-03 0. -1.
         12    1    4    4    0    0 -0.86888433460E+01 -0.17790280647E+02  0.24996720016E+01  0.19955912515E+02  0.00000000000E+00 0. -1.
</event>
<event>
 8    1  0.3106980E-007  0.9118800E+02  0.7816164E-02  0.1184000E+00
        -11   -1    0    0    0    0  0.00000000000E+00  0.00000000000E+00  0.45593999997E+02  0.45594000000E+02  0.51100000000E-03 0. -1.
         11   -1    0    0    0    0 -0.00000000000E+00 -0.00000000000E+00 -0.45593999997E+02  0.45594000000E+02  0.51100000000E-03 0.  1.
         23    2    1    2    0    0  0.00000000000E+00  0.17763568394E-14  0.00000000000E+00  0.91188000000E+02  0.91188000000E+02 0.  0.
    9900012    2    3    3    0    0 -0.26108288888E+02  0.14600988145E+02  0.21469555126E+02  0.54367171645E+02  0.40000199398E+02 0.  0.
        -12    1    3    3    0    0  0.26108288888E+02 -0.14600988145E+02 -0.21469555126E+02  0.36820828355E+02  0.00000000000E+00 0.  1.
         11    1    4    4    0    0 -0.68543467225E+00 -0.18852568292E+01  0.11792047859E+02  0.11961455052E+02  0.51100000000E-03 0. -1.
        -11    1    4    4    0    0 -0.25778025852E+02  0.11111362456E+01  0.75230068600E+01  0.26876325512E+02  0.51100000000E-03 0.  1.
         12    1    4    4    0    0  0.35517163644E+00  0.15375108729E+02  0.21545004071E+01  0.15529391080E+02  0.00000000000E+00 0. -1.
</event>
<event>
 8    1  0.3106980E-007  0.9118800E+02  0.7816164E-02  0.1184000E+00
        -11   -1    0    0    0    0  0.00000000000E+00  0.00000000000E+00  0.45593999997E+02  0.45594000000E+02  0.51100000000E-03 0.  1.
         11   -1    0    0    0    0 -0.00000000000E+00 -0.00000000000E+00 -0.45593999997E+02  0.45594000000E+02  0.51100000000E-03 0. -1.
         23    2    1    2    0    0  0.00000000000E+00  0.00000000000E+00  0.00000000000E+00  0.91188000000E+02  0.91188000000E+02 0.  0.
    9900012    2    3    3    0    0 -0.22289441271E+02 -0.36068353532E+01  0.29085251429E+02  0.54367077903E+02  0.39999985694E+02 0.  0.
         12    1    3    3    0    0  0.22289441271E+02  0.36068353532E+01 -0.29085251429E+02  0.36820922097E+02  0.00000000000E+00 0. -1.
         11    1    4    4    0    0 -0.23606508799E+01 -0.46305003476E+00 -0.36420626443E+01  0.43648262827E+01  0.51100000000E-03 0. -1.
        -11    1    4    4    0    0  0.70083132833E+01 -0.13472684325E+01  0.17745643697E+02  0.19126930172E+02  0.51100000000E-03 0.  1.
        -12    1    4    4    0    0 -0.26937103674E+02 -0.17965168860E+01  0.14981670376E+02  0.30875321448E+02  0.00000000000E+00 0.  1.
</event>
<event>
 8    1  0.3106980E-007  0.9118800E+02  0.7816164E-02  0.1184000E+00
        -11   -1    0    0    0    0  0.00000000000E+00  0.00000000000E+00  0.45593999997E+02  0.45594000000E+02  0.51100000000E-03 0. -1.
         11   -1    0    0    0    0 -0.00000000000E+00 -0.00000000000E+00 -0.45593999997E+02  0.45594000000E+02  0.51100000000E-03 0.  1.
         23    2    1    2    0    0  0.88817841970E-15  0.00000000000E+00  0.17763568394E-14  0.91188000000E+02  0.91188000000E+02 0.  0.
    9900012    2    3    3    0    0  0.56641004927E+01  0.33691363646E+02 -0.13732773323E+02  0.54367094500E+02  0.40000023531E+02 0.  0.
         12    1    3    3    0    0 -0.56641004927E+01 -0.33691363646E+02  0.13732773323E+02  0.36820905500E+02  0.00000000000E+00 0. -1.
         11    1    4    4    0    0  0.12659911064E+00  0.29227634171E+02  0.19028041696E+01  0.29289781333E+02  0.51100000000E-03 0. -1.
        -11    1    4    4    0    0 -0.28062825696E+01  0.58142622337E+01 -0.15313515179E+02  0.16618803043E+02  0.51100000000E-03 0.  1.
        -12    1    4    4    0    0  0.83437839517E+01 -0.13505327590E+01 -0.32206231296E+00  0.84585101230E+01  0.00000000000E+00 0.  1.
</event>
<event>
 8    1  0.3106980E-007  0.9118800E+02  0.7816164E-02  0.1184000E+00
        -11   -1    0    0    0    0  0.00000000000E+00  0.00000000000E+00  0.45593999997E+02  0.45594000000E+02  0.51100000000E-03 0.  1.
         11   -1    0    0    0    0 -0.00000000000E+00 -0.00000000000E+00 -0.45593999997E+02  0.45594000000E+02  0.51100000000E-03 0. -1.
         23    2    1    2    0    0  0.71054273576E-14 -0.13322676296E-14 -0.71054273576E-14  0.91188000000E+02  0.91188000000E+02 0.  0.
    9900012    2    3    3    0    0 -0.30057808307E+02 -0.36784805725E+01  0.20946995009E+02  0.54367086656E+02  0.40000005650E+02 0.  0.
         12    1    3    3    0    0  0.30057808307E+02  0.36784805725E+01 -0.20946995009E+02  0.36820913344E+02  0.00000000000E+00 0. -1.
         11    1    4    4    0    0 -0.68072805397E+01 -0.42567994505E+01  0.21145324000E+01  0.83024488821E+01  0.51100000000E-03 0. -1.
        -11    1    4    4    0    0 -0.20894272523E+02 -0.71120494094E+01  0.26816548839E+02  0.34731529811E+02  0.51100000000E-03 0.  1.
        -12    1    4    4    0    0 -0.23562552445E+01  0.76903682874E+01 -0.79840862305E+01  0.11333107963E+02  0.00000000000E+00 0.  1.
</event>
<event>
 8    1  0.3106980E-007  0.9118800E+02  0.7816164E-02  0.1184000E+00
        -11   -1    0    0    0    0  0.00000000000E+00  0.00000000000E+00  0.45593999997E+02  0.45594000000E+02  0.51100000000E-03 0. -1.
         11   -1    0    0    0    0 -0.00000000000E+00 -0.00000000000E+00 -0.45593999997E+02  0.45594000000E+02  0.51100000000E-03 0.  1.
         23    2    1    2    0    0 -0.35527136788E-14  0.00000000000E+00  0.35527136788E-14  0.91188000000E+02  0.91188000000E+02 0.  0.
    9900012    2    3    3    0    0  0.30019340408E+02 -0.53593195707E+01  0.20637269934E+02  0.54367081827E+02  0.39999994640E+02 0.  0.
        -12    1    3    3    0    0 -0.30019340408E+02  0.53593195707E+01 -0.20637269934E+02  0.36820918173E+02  0.00000000000E+00 0.  1.
         11    1    4    4    0    0  0.22032165690E+02  0.24316160128E+01  0.29128012010E+02  0.36602870998E+02  0.51100000000E-03 0. -1.
        -11    1    4    4    0    0  0.79547024498E+01 -0.72291409288E+01 -0.10889134039E+02  0.15300686586E+02  0.51100000000E-03 0.  1.
        -12    1    4    4    0    0  0.32472268212E-01 -0.56179465465E+00  0.23983919631E+01  0.24635242420E+01  0.00000000000E+00 0.  1.
</event>
<event>
 8    1  0.3106980E-007  0.9118800E+02  0.7816164E-02  0.1184000E+00
        -11   -1    0    0    0    0  0.00000000000E+00  0.00000000000E+00  0.45593999997E+02  0.45594000000E+02  0.51100000000E-03 0.  1.
         11   -1    0    0    0    0 -0.00000000000E+00 -0.00000000000E+00 -0.45593999997E+02  0.45594000000E+02  0.51100000000E-03 0. -1.
         23    2    1    2    0    0  0.00000000000E+00  0.00000000000E+00  0.71054273576E-14  0.91188000000E+02  0.91188000000E+02 0.  0.
    9900012    2    3    3    0    0 -0.95456554413E+01 -0.15046292680E+02 -0.32222188270E+02  0.54367083688E+02  0.39999998883E+02 0.  0.
        -12    1    3    3    0    0  0.95456554413E+01  0.15046292680E+02  0.32222188270E+02  0.36820916312E+02  0.00000000000E+00 0.  1.
         11    1    4    4    0    0 -0.75996904128E+01 -0.46722599153E+01  0.74653802560E+01  0.11632592562E+02  0.51100000000E-03 0.  1.
        -11    1    4    4    0    0 -0.35695346654E+01 -0.11041311361E+02 -0.39244471004E+02  0.40924083850E+02  0.51100000000E-03 0. -1.
         12    1    4    4    0    0  0.16235696369E+01  0.66727859646E+00 -0.44309752170E+00  0.18104072760E+01  0.00000000000E+00 0. -1.
</event>
<event>
 8    1  0.3106980E-007  0.9118800E+02  0.7816164E-02  0.1184000E+00
        -11   -1    0    0    0    0  0.00000000000E+00  0.00000000000E+00  0.45593999997E+02  0.45594000000E+02  0.51100000000E-03 0. -1.
         11   -1    0    0    0    0 -0.00000000000E+00 -0.00000000000E+00 -0.45593999997E+02  0.45594000000E+02  0.51100000000E-03 0.  1.
         23    2    1    2    0    0  0.00000000000E+00 -0.35527136788E-14  0.00000000000E+00  0.91188000000E+02  0.91188000000E+02 0.  0.
    9900012    2    3    3    0    0  0.23272205086E+02  0.22267413877E+02  0.17842216565E+02  0.54367109975E+02  0.40000058810E+02 0.  0.
        -12    1    3    3    0    0 -0.23272205086E+02 -0.22267413877E+02 -0.17842216565E+02  0.36820890025E+02  0.00000000000E+00 0.  1.
         11    1    4    4    0    0  0.17507534650E+02  0.27631433073E+02  0.11831833645E+02  0.34785085178E+02  0.51100000000E-03 0. -1.
        -11    1    4    4    0    0  0.64370886497E+01 -0.17142117664E+01  0.11301788764E+02  0.13118881881E+02  0.51100000000E-03 0.  1.
         12    1    4    4    0    0 -0.67241821432E+00 -0.36498074299E+01 -0.52914058452E+01  0.64631429157E+01  0.00000000000E+00 0. -1.
</event>
<event>
 8    1  0.3106980E-007  0.9118800E+02  0.7816164E-02  0.1184000E+00
        -11   -1    0    0    0    0  0.00000000000E+00  0.00000000000E+00  0.45593999997E+02  0.45594000000E+02  0.51100000000E-03 0. -1.
         11   -1    0    0    0    0 -0.00000000000E+00 -0.00000000000E+00 -0.45593999997E+02  0.45594000000E+02  0.51100000000E-03 0.  1.
         23    2    1    2    0    0  0.00000000000E+00  0.00000000000E+00  0.00000000000E+00  0.91188000000E+02  0.91188000000E+02 0.  0.
    9900012    2    3    3    0    0  0.59917817430E+01 -0.26685775997E+02 -0.24652525298E+02  0.54367094354E+02  0.40000023198E+02 0.  0.
         12    1    3    3    0    0 -0.59917817430E+01  0.26685775997E+02  0.24652525298E+02  0.36820905646E+02  0.00000000000E+00 0. -1.
         11    1    4    4    0    0 -0.47856068579E+01 -0.52696460444E+01 -0.24365438276E+02  0.25383967087E+02  0.51100000000E-03 0. -1.
        -11    1    4    4    0    0  0.71545163644E+01 -0.81641339409E+01 -0.77600785385E+01  0.13343875247E+02  0.51100000000E-03 0.  1.
         12    1    4    4    0    0  0.36228722366E+01 -0.13251996012E+02  0.74729915162E+01  0.15639252020E+02  0.00000000000E+00 0. -1.
</event>
<event>
 8    1  0.3106980E-007  0.9118800E+02  0.7816164E-02  0.1184000E+00
        -11   -1    0    0    0    0  0.00000000000E+00  0.00000000000E+00  0.45593999997E+02  0.45594000000E+02  0.51100000000E-03 0.  1.
         11   -1    0    0    0    0 -0.00000000000E+00 -0.00000000000E+00 -0.45593999997E+02  0.45594000000E+02  0.51100000000E-03 0. -1.
         23    2    1    2    0    0  0.00000000000E+00  0.00000000000E+00  0.35527136788E-14  0.91188000000E+02  0.91188000000E+02 0.  0.
    9900012    2    3    3    0    0  0.19214011410E+02  0.17009345315E+02 -0.26406124306E+02  0.54367089319E+02  0.40000011721E+02 0.  0.
        -12    1    3    3    0    0 -0.19214011410E+02 -0.17009345315E+02  0.26406124306E+02  0.36820910681E+02  0.00000000000E+00 0.  1.
         11    1    4    4    0    0  0.41245492366E+01 -0.22656810759E+01  0.57011327205E+01  0.73924374668E+01  0.51100000000E-03 0.  1.
        -11    1    4    4    0    0  0.58366532488E+01 -0.39608974271E+01 -0.11018692210E+01  0.71392818698E+01  0.51100000000E-03 0. -1.
         12    1    4    4    0    0  0.92528089243E+01  0.23235923818E+02 -0.31005387806E+02  0.39835369982E+02  0.00000000000E+00 0. -1.
</event>
<event>
 8    1  0.3106980E-007  0.9118800E+02  0.7816164E-02  0.1184000E+00
        -11   -1    0    0    0    0  0.00000000000E+00  0.00000000000E+00  0.45593999997E+02  0.45594000000E+02  0.51100000000E-03 0. -1.
         11   -1    0    0    0    0 -0.00000000000E+00 -0.00000000000E+00 -0.45593999997E+02  0.45594000000E+02  0.51100000000E-03 0.  1.
         23    2    1    2    0    0  0.00000000000E+00 -0.33306690739E-15 -0.35527136788E-14  0.91188000000E+02  0.91188000000E+02 0.  0.
    9900012    2    3    3    0    0 -0.35468990912E+02  0.57328728291E+00 -0.98692596383E+01  0.54367078496E+02  0.39999987047E+02 0.  0.
        -12    1    3    3    0    0  0.35468990912E+02 -0.57328728291E+00  0.98692596383E+01  0.36820921504E+02  0.00000000000E+00 0.  1.
         11    1    4    4    0    0 -0.61659633914E+01  0.18771315571E+01 -0.17192063525E+02  0.18360549446E+02  0.51100000000E-03 0. -1.
        -11    1    4    4    0    0 -0.43213790734E+01 -0.79324484881E+01 -0.36735325756E+00  0.90406307738E+01  0.51100000000E-03 0.  1.
         12    1    4    4    0    0 -0.24981648447E+02  0.66286042138E+01  0.76901571445E+01  0.26965898276E+02  0.00000000000E+00 0. -1.
</event>
<event>
 8    1  0.3106980E-007  0.9118800E+02  0.7816164E-02  0.1184000E+00
        -11   -1    0    0    0    0  0.00000000000E+00  0.00000000000E+00  0.45593999997E+02  0.45594000000E+02  0.51100000000E-03 0.  1.
         11   -1    0    0    0    0 -0.00000000000E+00 -0.00000000000E+00 -0.45593999997E+02  0.45594000000E+02  0.51100000000E-03 0. -1.
         23    2    1    2    0    0  0.35527136788E-14  0.00000000000E+00  0.44408920985E-15  0.91188000000E+02  0.91188000000E+02 0.  0.
    9900012    2    3    3    0    0 -0.28047719130E+02 -0.23720917477E+02  0.25343989759E+01  0.54367086751E+02  0.40000005866E+02 0.  0.
         12    1    3    3    0    0  0.28047719130E+02  0.23720917477E+02 -0.25343989759E+01  0.36820913249E+02  0.00000000000E+00 0. -1.
         11    1    4    4    0    0 -0.11340442704E+02 -0.11388935107E+02  0.47400927283E+01  0.16756549852E+02  0.51100000000E-03 0. -1.
        -11    1    4    4    0    0 -0.21532395955E+02  0.90796704155E+00  0.44815314888E+01  0.22012555609E+02  0.51100000000E-03 0.  1.
         12    1    4    4    0    0  0.48251195295E+01 -0.13239949411E+02 -0.66872252412E+01  0.15597981289E+02  0.00000000000E+00 0. -1.
</event>
<event>
 8    1  0.3106980E-007  0.9118800E+02  0.7816164E-02  0.1184000E+00
        -11   -1    0    0    0    0  0.00000000000E+00  0.00000000000E+00  0.45593999997E+02  0.45594000000E+02  0.51100000000E-03 0.  1.
         11   -1    0    0    0    0 -0.00000000000E+00 -0.00000000000E+00 -0.45593999997E+02  0.45594000000E+02  0.51100000000E-03 0. -1.
         23    2    1    2    0    0 -0.88817841970E-15 -0.35527136788E-14  0.35527136788E-14  0.91188000000E+02  0.91188000000E+02 0.  0.
    9900012    2    3    3    0    0 -0.72665403979E+01 -0.24581034501E+02  0.26433885232E+02  0.54367079928E+02  0.39999990311E+02 0.  0.
         12    1    3    3    0    0  0.72665403979E+01  0.24581034501E+02 -0.26433885232E+02  0.36820920072E+02  0.00000000000E+00 0. -1.
         11    1    4    4    0    0 -0.15512061376E+02  0.27084903849E+01  0.16600336535E+02  0.22880802906E+02  0.51100000000E-03 0. -1.
        -11    1    4    4    0    0  0.77167537382E+01 -0.27873988383E+02  0.10128641624E+02  0.30644687925E+02  0.51100000000E-03 0.  1.
        -12    1    4    4    0    0  0.52876723957E+00  0.58446349626E+00 -0.29509292710E+00  0.84158909673E+00  0.00000000000E+00 0.  1.
</event>
<event>
 8    1  0.3106980E-007  0.9118800E+02  0.7816164E-02  0.1184000E+00
        -11   -1    0    0    0    0  0.00000000000E+00  0.00000000000E+00  0.45593999997E+02  0.45594000000E+02  0.51100000000E-03 0. -1.
         11   -1    0    0    0    0 -0.00000000000E+00 -0.00000000000E+00 -0.45593999997E+02  0.45594000000E+02  0.51100000000E-03 0.  1.
         23    2    1    2    0    0 -0.88817841970E-15  0.17763568394E-14 -0.71054273576E-14  0.91188000000E+02  0.91188000000E+02 0.  0.
    9900012    2    3    3    0    0  0.43062951967E+01  0.72291097158E+01 -0.35846573740E+02  0.54367067713E+02  0.39999962464E+02 0.  0.
         12    1    3    3    0    0 -0.43062951967E+01 -0.72291097158E+01  0.35846573740E+02  0.36820932287E+02  0.00000000000E+00 0. -1.
         11    1    4    4    0    0 -0.10420929635E+02  0.78037342107E+01 -0.15001031183E+02  0.19862652867E+02  0.51100000000E-03 0.  1.
        -11    1    4    4    0    0  0.16460275445E+02 -0.81800313231E+01 -0.93768079594E+01  0.20634391388E+02  0.51100000000E-03 0. -1.
         12    1    4    4    0    0 -0.17330506138E+01  0.76054068281E+01 -0.11468734598E+02  0.13870023458E+02  0.00000000000E+00 0. -1.
</event>
<event>
 8    1  0.3106980E-007  0.9118800E+02  0.7816164E-02  0.1184000E+00
        -11   -1    0    0    0    0  0.00000000000E+00  0.00000000000E+00  0.45593999997E+02  0.45594000000E+02  0.51100000000E-03 0.  1.
         11   -1    0    0    0    0 -0.00000000000E+00 -0.00000000000E+00 -0.45593999997E+02  0.45594000000E+02  0.51100000000E-03 0. -1.
         23    2    1    2    0    0  0.35527136788E-14  0.00000000000E+00  0.44408920985E-15  0.91188000000E+02  0.91188000000E+02 0.  0.
    9900012    2    3    3    0    0 -0.19575427258E+02  0.30953407007E+02 -0.38036801265E+01  0.54367099140E+02  0.40000034108E+02 0.  0.
        -12    1    3    3    0    0  0.19575427258E+02 -0.30953407007E+02  0.38036801265E+01  0.36820900860E+02  0.00000000000E+00 0.  1.
         11    1    4    4    0    0  0.64694429219E+01  0.36643959593E+01 -0.45311145123E+01  0.87070367204E+01  0.51100000000E-03 0.  1.
        -11    1    4    4    0    0 -0.26174302011E+02  0.26361419825E+02  0.82712976004E+01  0.38058283004E+02  0.51100000000E-03 0. -1.
         12    1    4    4    0    0  0.12943183147E+00  0.92759122282E+00 -0.75438632146E+01  0.76017794151E+01  0.00000000000E+00 0. -1.
</event>
<event>
 8    1  0.3106980E-007  0.9118800E+02  0.7816164E-02  0.1184000E+00
        -11   -1    0    0    0    0  0.00000000000E+00  0.00000000000E+00  0.45593999997E+02  0.45594000000E+02  0.51100000000E-03 0.  1.
         11   -1    0    0    0    0 -0.00000000000E+00 -0.00000000000E+00 -0.45593999997E+02  0.45594000000E+02  0.51100000000E-03 0. -1.
         23    2    1    2    0    0  0.35527136788E-14 -0.88817841970E-15 -0.71054273576E-14  0.91188000000E+02  0.91188000000E+02 0.  0.
    9900012    2    3    3    0    0  0.21607451327E+02  0.44903122181E+01  0.29474314995E+02  0.54367080660E+02  0.39999991980E+02 0.  0.
         12    1    3    3    0    0 -0.21607451327E+02 -0.44903122181E+01 -0.29474314995E+02  0.36820919340E+02  0.00000000000E+00 0. -1.
         11    1    4    4    0    0  0.33444235081E+01 -0.11725365352E+02  0.16768708474E+01  0.12307772233E+02  0.51100000000E-03 0.  1.
        -11    1    4    4    0    0  0.94945727327E+01  0.14124728139E+02  0.28308319510E+02  0.33030528457E+02  0.51100000000E-03 0. -1.
        -12    1    4    4    0    0  0.87684550859E+01  0.20909494312E+01 -0.51087536301E+00  0.90287799704E+01  0.00000000000E+00 0.  1.
</event>
<event>
 8    1  0.3106980E-007  0.9118800E+02  0.7816164E-02  0.1184000E+00
        -11   -1    0    0    0    0  0.00000000000E+00  0.00000000000E+00  0.45593999997E+02  0.45594000000E+02  0.51100000000E-03 0.  1.
         11   -1    0    0    0    0 -0.00000000000E+00 -0.00000000000E+00 -0.45593999997E+02  0.45594000000E+02  0.51100000000E-03 0. -1.
         23    2    1    2    0    0  0.35527136788E-14  0.00000000000E+00  0.00000000000E+00  0.91188000000E+02  0.91188000000E+02 0.  0.
    9900012    2    3    3    0    0 -0.31608193837E+02  0.17139332840E+02  0.79333739956E+01  0.54367176125E+02  0.40000209612E+02 0.  0.
         12    1    3    3    0    0  0.31608193837E+02 -0.17139332840E+02 -0.79333739956E+01  0.36820823875E+02  0.00000000000E+00 0. -1.
         11    1    4    4    0    0 -0.14543419897E+02 -0.28847654330E+01 -0.22241785581E+01  0.14992661686E+02  0.51100000000E-03 0.  1.
        -11    1    4    4    0    0 -0.21634908453E+02  0.19731697234E+02  0.11904679837E+01  0.29305739264E+02  0.51100000000E-03 0. -1.
         12    1    4    4    0    0  0.45701345137E+01  0.29240103930E+00  0.89670845699E+01  0.10068775175E+02  0.00000000000E+00 0. -1.
</event>
<event>
 8    1  0.3106980E-007  0.9118800E+02  0.7816164E-02  0.1184000E+00
        -11   -1    0    0    0    0  0.00000000000E+00  0.00000000000E+00  0.45593999997E+02  0.45594000000E+02  0.51100000000E-03 0. -1.
         11   -1    0    0    0    0 -0.00000000000E+00 -0.00000000000E+00 -0.45593999997E+02  0.45594000000E+02  0.51100000000E-03 0.  1.
         23    2    1    2    0    0  0.00000000000E+00 -0.17763568394E-14  0.17763568394E-14  0.91188000000E+02  0.91188000000E+02 0.  0.
    9900012    2    3    3    0    0 -0.34366979723E+02  0.93269141032E+01 -0.93648433740E+01  0.54367069629E+02  0.39999966832E+02 0.  0.
        -12    1    3    3    0    0  0.34366979723E+02 -0.93269141032E+01  0.93648433740E+01  0.36820930371E+02  0.00000000000E+00 0.  1.
         11    1    4    4    0    0 -0.17015472766E+02  0.21057097172E+01  0.10422665475E+02  0.20064702408E+02  0.51100000000E-03 0. -1.
        -11    1    4    4    0    0  0.25598329976E+01  0.67511897502E+01 -0.93591388447E+01  0.11820524024E+02  0.51100000000E-03 0.  1.
         12    1    4    4    0    0 -0.19911339955E+02  0.47001463589E+00 -0.10428370004E+02  0.22481843197E+02  0.00000000000E+00 0. -1.
</event>
<event>
 8    1  0.3106980E-007  0.9118800E+02  0.7816164E-02  0.1184000E+00
        -11   -1    0    0    0    0  0.00000000000E+00  0.00000000000E+00  0.45593999997E+02  0.45594000000E+02  0.51100000000E-03 0.  1.
         11   -1    0    0    0    0 -0.00000000000E+00 -0.00000000000E+00 -0.45593999997E+02  0.45594000000E+02  0.51100000000E-03 0. -1.
         23    2    1    2    0    0  0.00000000000E+00  0.00000000000E+00  0.00000000000E+00  0.91188000000E+02  0.91188000000E+02 0.  0.
    9900012    2    3    3    0    0 -0.79211419613E+01  0.16149902723E+02 -0.32128114983E+02  0.54367087188E+02  0.40000006864E+02 0.  0.
        -12    1    3    3    0    0  0.79211419613E+01 -0.16149902723E+02  0.32128114983E+02  0.36820912812E+02  0.00000000000E+00 0.  1.
         11    1    4    4    0    0 -0.37818501330E+01  0.13962487819E+02  0.18971542402E+01  0.14589470553E+02  0.51100000000E-03 0. -1.
        -11    1    4    4    0    0  0.19356410348E+01 -0.39487094355E+01  0.27597912061E+00  0.44062656703E+01  0.51100000000E-03 0.  1.
         12    1    4    4    0    0 -0.60749328631E+01  0.61361243388E+01 -0.34301248344E+02  0.35371350965E+02  0.00000000000E+00 0. -1.
</event>
<event>
 8    1  0.3106980E-007  0.9118800E+02  0.7816164E-02  0.1184000E+00
        -11   -1    0    0    0    0  0.00000000000E+00  0.00000000000E+00  0.45593999997E+02  0.45594000000E+02  0.51100000000E-03 0. -1.
         11   -1    0    0    0    0 -0.00000000000E+00 -0.00000000000E+00 -0.45593999997E+02  0.45594000000E+02  0.51100000000E-03 0.  1.
         23    2    1    2    0    0  0.00000000000E+00 -0.88817841970E-15  0.00000000000E+00  0.91188000000E+02  0.91188000000E+02 0.  0.
    9900012    2    3    3    0    0  0.21390098356E+02 -0.64254414897E+01 -0.29273811023E+02  0.54367100800E+02  0.40000037895E+02 0.  0.
         12    1    3    3    0    0 -0.21390098356E+02  0.64254414897E+01  0.29273811023E+02  0.36820899200E+02  0.00000000000E+00 0. -1.
         11    1    4    4    0    0 -0.14003474580E+01  0.40937840078E+01 -0.20095161586E+02  0.20555669776E+02  0.51100000000E-03 0. -1.
        -11    1    4    4    0    0  0.21095067937E+01 -0.11391968998E+02 -0.12794730513E+01  0.11656072585E+02  0.51100000000E-03 0.  1.
         12    1    4    4    0    0  0.20680939021E+02  0.87274350029E+00 -0.78991763859E+01  0.22155358439E+02  0.00000000000E+00 0. -1.
</event>
<event>
 8    1  0.3106980E-007  0.9118800E+02  0.7816164E-02  0.1184000E+00
        -11   -1    0    0    0    0  0.00000000000E+00  0.00000000000E+00  0.45593999997E+02  0.45594000000E+02  0.51100000000E-03 0. -1.
         11   -1    0    0    0    0 -0.00000000000E+00 -0.00000000000E+00 -0.45593999997E+02  0.45594000000E+02  0.51100000000E-03 0.  1.
         23    2    1    2    0    0  0.17763568394E-14 -0.88817841970E-15  0.00000000000E+00  0.91188000000E+02  0.91188000000E+02 0.  0.
    9900012    2    3    3    0    0 -0.15514517800E+02  0.54344437400E+01 -0.32947610420E+02  0.54367102758E+02  0.40000042357E+02 0.  0.
         12    1    3    3    0    0  0.15514517800E+02 -0.54344437400E+01  0.32947610420E+02  0.36820897242E+02  0.00000000000E+00 0. -1.
         11    1    4    4    0    0 -0.14589437404E+02 -0.49722941105E+01 -0.19839765973E+02  0.25123528945E+02  0.51100000000E-03 0. -1.
        -11    1    4    4    0    0  0.89140461525E+01  0.11336375891E+02 -0.12914608037E+02  0.19358738031E+02  0.51100000000E-03 0.  1.
        -12    1    4    4    0    0 -0.98391265489E+01 -0.92963804019E+00 -0.19323640924E+00  0.98848357822E+01  0.00000000000E+00 0.  1.
</event>
<event>
 8    1  0.3106980E-007  0.9118800E+02  0.7816164E-02  0.1184000E+00
        -11   -1    0    0    0    0  0.00000000000E+00  0.00000000000E+00  0.45593999997E+02  0.45594000000E+02  0.51100000000E-03 0. -1.
         11   -1    0    0    0    0 -0.00000000000E+00 -0.00000000000E+00 -0.45593999997E+02  0.45594000000E+02  0.51100000000E-03 0.  1.
         23    2    1    2    0    0  0.15543122345E-14  0.00000000000E+00  0.00000000000E+00  0.91188000000E+02  0.91188000000E+02 0.  0.
    9900012    2    3    3    0    0 -0.13810424066E+01  0.31167610136E+02  0.19556390478E+02  0.54367087352E+02  0.40000007237E+02 0.  0.
        -12    1    3    3    0    0  0.13810424066E+01 -0.31167610136E+02 -0.19556390478E+02  0.36820912648E+02  0.00000000000E+00 0.  1.
         11    1    4    4    0    0 -0.10785861926E+02 -0.41010232947E+01  0.15855335950E+01  0.11647623217E+02  0.51100000000E-03 0.  1.
        -11    1    4    4    0    0  0.49242787512E+01  0.17535057643E+02  0.16142689159E+02  0.24337485106E+02  0.51100000000E-03 0. -1.
        -12    1    4    4    0    0  0.44805407687E+01  0.17733575788E+02  0.18281677240E+01  0.18381979029E+02  0.00000000000E+00 0.  1.
</event>
<event>
 8    1  0.3106980E-007  0.9118800E+02  0.7816164E-02  0.1184000E+00
        -11   -1    0    0    0    0  0.00000000000E+00  0.00000000000E+00  0.45593999997E+02  0.45594000000E+02  0.51100000000E-03 0. -1.
         11   -1    0    0    0    0 -0.00000000000E+00 -0.00000000000E+00 -0.45593999997E+02  0.45594000000E+02  0.51100000000E-03 0.  1.
         23    2    1    2    0    0  0.00000000000E+00  0.00000000000E+00  0.00000000000E+00  0.91188000000E+02  0.91188000000E+02 0.  0.
    9900012    2    3    3    0    0  0.16090403535E+02 -0.16681209540E+02 -0.28611467249E+02  0.54367083448E+02  0.39999998336E+02 0.  0.
         12    1    3    3    0    0 -0.16090403535E+02  0.16681209540E+02  0.28611467249E+02  0.36820916552E+02  0.00000000000E+00 0. -1.
         11    1    4    4    0    0  0.11260005948E+02 -0.41807755467E+01  0.10892786309E+01  0.12060395778E+02  0.51100000000E-03 0.  1.
        -11    1    4    4    0    0 -0.28133937334E+01  0.78154356732E+01 -0.66117465426E+01  0.10616563082E+02  0.51100000000E-03 0. -1.
         12    1    4    4    0    0  0.76437913200E+01 -0.20315869666E+02 -0.23088999337E+02  0.31690124588E+02  0.00000000000E+00 0. -1.
</event>
<event>
 8    1  0.3106980E-007  0.9118800E+02  0.7816164E-02  0.1184000E+00
        -11   -1    0    0    0    0  0.00000000000E+00  0.00000000000E+00  0.45593999997E+02  0.45594000000E+02  0.51100000000E-03 0. -1.
         11   -1    0    0    0    0 -0.00000000000E+00 -0.00000000000E+00 -0.45593999997E+02  0.45594000000E+02  0.51100000000E-03 0.  1.
         23    2    1    2    0    0 -0.35527136788E-14  0.00000000000E+00 -0.71054273576E-14  0.91188000000E+02  0.91188000000E+02 0.  0.
    9900012    2    3    3    0    0 -0.10704314714E+02  0.81618158493E+01  0.34272122075E+02  0.54367137124E+02  0.40000120701E+02 0.  0.
        -12    1    3    3    0    0  0.10704314714E+02 -0.81618158493E+01 -0.34272122075E+02  0.36820862876E+02  0.00000000000E+00 0.  1.
         11    1    4    4    0    0  0.95646561353E+01  0.10086466301E+02  0.75559787122E+01  0.15821259874E+02  0.51100000000E-03 0. -1.
        -11    1    4    4    0    0  0.33759450754E+01  0.17288712994E+01  0.46248578646E+01  0.59812466636E+01  0.51100000000E-03 0.  1.
         12    1    4    4    0    0 -0.23644915925E+02 -0.36535217514E+01  0.22091285498E+02  0.32564630586E+02  0.00000000000E+00 0. -1.
</event>
<event>
 8    1  0.3106980E-007  0.9118800E+02  0.7816164E-02  0.1184000E+00
        -11   -1    0    0    0    0  0.00000000000E+00  0.00000000000E+00  0.45593999997E+02  0.45594000000E+02  0.51100000000E-03 0.  1.
         11   -1    0    0    0    0 -0.00000000000E+00 -0.00000000000E+00 -0.45593999997E+02  0.45594000000E+02  0.51100000000E-03 0. -1.
         23    2    1    2    0    0  0.00000000000E+00  0.00000000000E+00  0.00000000000E+00  0.91188000000E+02  0.91188000000E+02 0.  0.
    9900012    2    3    3    0    0 -0.44801386383E+01  0.34463797062E+02  0.12163655503E+02  0.54367089292E+02  0.40000011659E+02 0.  0.
         12    1    3    3    0    0  0.44801386383E+01 -0.34463797062E+02 -0.12163655503E+02  0.36820910708E+02  0.00000000000E+00 0. -1.
         11    1    4    4    0    0 -0.59887121516E+01  0.36869715954E+02 -0.38531556851E+01  0.37551130965E+02  0.51100000000E-03 0. -1.
        -11    1    4    4    0    0 -0.11104870904E+01 -0.94896284848E+00  0.98691523844E+01  0.99766668338E+01  0.51100000000E-03 0.  1.
         12    1    4    4    0    0  0.26190606037E+01 -0.14569560436E+01  0.61476588039E+01  0.68392914932E+01  0.00000000000E+00 0. -1.
</event>
<event>
 8    1  0.3106980E-007  0.9118800E+02  0.7816164E-02  0.1184000E+00
        -11   -1    0    0    0    0  0.00000000000E+00  0.00000000000E+00  0.45593999997E+02  0.45594000000E+02  0.51100000000E-03 0.  1.
         11   -1    0    0    0    0 -0.00000000000E+00 -0.00000000000E+00 -0.45593999997E+02  0.45594000000E+02  0.51100000000E-03 0. -1.
         23    2    1    2    0    0  0.00000000000E+00  0.00000000000E+00 -0.88817841970E-15  0.91188000000E+02  0.91188000000E+02 0.  0.
    9900012    2    3    3    0    0 -0.14018221112E+02 -0.33223818253E+02  0.74462886135E+01  0.54367084251E+02  0.40000000168E+02 0.  0.
        -12    1    3    3    0    0  0.14018221112E+02  0.33223818253E+02 -0.74462886135E+01  0.36820915749E+02  0.00000000000E+00 0.  1.
         11    1    4    4    0    0 -0.76409183687E+01 -0.17840790650E+02 -0.34076727950E+01  0.19705067335E+02  0.51100000000E-03 0. -1.
        -11    1    4    4    0    0 -0.51030695332E+01 -0.22680473409E+02  0.23224322867E+01  0.23363195088E+02  0.51100000000E-03 0.  1.
         12    1    4    4    0    0 -0.12742332105E+01  0.72974458059E+01  0.85315291219E+01  0.11298821829E+02  0.00000000000E+00 0. -1.
</event>
<event>
 8    1  0.3106980E-007  0.9118800E+02  0.7816164E-02  0.1184000E+00
        -11   -1    0    0    0    0  0.00000000000E+00  0.00000000000E+00  0.45593999997E+02  0.45594000000E+02  0.51100000000E-03 0.  1.
         11   -1    0    0    0    0 -0.00000000000E+00 -0.00000000000E+00 -0.45593999997E+02  0.45594000000E+02  0.51100000000E-03 0. -1.
         23    2    1    2    0    0  0.00000000000E+00  0.00000000000E+00 -0.35527136788E-14  0.91188000000E+02  0.91188000000E+02 0.  0.
    9900012    2    3    3    0    0  0.50450962811E+01 -0.21520435441E+02 -0.29448181096E+02  0.54367115873E+02  0.40000072256E+02 0.  0.
        -12    1    3    3    0    0 -0.50450962811E+01  0.21520435441E+02  0.29448181096E+02  0.36820884127E+02  0.00000000000E+00 0.  1.
         11    1    4    4    0    0  0.90111205497E+01  0.65052669527E+01 -0.94152875885E+01  0.14565933967E+02  0.51100000000E-03 0. -1.
        -11    1    4    4    0    0 -0.62562851383E+01 -0.16135234932E+02 -0.21504471486E+02  0.27603065123E+02  0.51100000000E-03 0.  1.
        -12    1    4    4    0    0  0.22902608697E+01 -0.11890467461E+02  0.14715779788E+01  0.12198116783E+02  0.00000000000E+00 0.  1.
</event>
<event>
 8    1  0.3106980E-007  0.9118800E+02  0.7816164E-02  0.1184000E+00
        -11   -1    0    0    0    0  0.00000000000E+00  0.00000000000E+00  0.45593999997E+02  0.45594000000E+02  0.51100000000E-03 0.  1.
         11   -1    0    0    0    0 -0.00000000000E+00 -0.00000000000E+00 -0.45593999997E+02  0.45594000000E+02  0.51100000000E-03 0. -1.
         23    2    1    2    0    0 -0.88817841970E-15 -0.17763568394E-14  0.00000000000E+00  0.91188000000E+02  0.91188000000E+02 0.  0.
    9900012    2    3    3    0    0  0.56303364868E+01  0.11165233983E+02 -0.34632455623E+02  0.54367216177E+02  0.40000300919E+02 0.  0.
        -12    1    3    3    0    0 -0.56303364868E+01 -0.11165233983E+02  0.34632455623E+02  0.36820783823E+02  0.00000000000E+00 0.  1.
         11    1    4    4    0    0  0.81990055821E+01  0.14834179704E+01 -0.15284447601E+02  0.17408002761E+02  0.51100000000E-03 0. -1.
        -11    1    4    4    0    0  0.24219632451E+01 -0.10422638667E+02 -0.53938402046E+01  0.11982938502E+02  0.51100000000E-03 0.  1.
        -12    1    4    4    0    0 -0.49906323404E+01  0.20104454679E+02 -0.13954167817E+02  0.24976274914E+02  0.00000000000E+00 0.  1.
</event>
<event>
 8    1  0.3106980E-007  0.9118800E+02  0.7816164E-02  0.1184000E+00
        -11   -1    0    0    0    0  0.00000000000E+00  0.00000000000E+00  0.45593999997E+02  0.45594000000E+02  0.51100000000E-03 0. -1.
         11   -1    0    0    0    0 -0.00000000000E+00 -0.00000000000E+00 -0.45593999997E+02  0.45594000000E+02  0.51100000000E-03 0.  1.
         23    2    1    2    0    0  0.00000000000E+00  0.00000000000E+00  0.00000000000E+00  0.91188000000E+02  0.91188000000E+02 0.  0.
    9900012    2    3    3    0    0 -0.33046631613E+02  0.14203983005E+02  0.78707254227E+01  0.54367064205E+02  0.39999954468E+02 0.  0.
        -12    1    3    3    0    0  0.33046631613E+02 -0.14203983005E+02 -0.78707254227E+01  0.36820935795E+02  0.00000000000E+00 0.  1.
         11    1    4    4    0    0 -0.88067400756E+01 -0.37001064769E+01  0.72115179356E+01  0.11968936874E+02  0.51100000000E-03 0. -1.
        -11    1    4    4    0    0 -0.96954966853E+01  0.24273254420E+02 -0.23290727247E+01  0.26241534180E+02  0.51100000000E-03 0.  1.
        -12    1    4    4    0    0 -0.14544394852E+02 -0.63691649380E+01  0.29882802118E+01  0.16156593151E+02  0.00000000000E+00 0.  1.
</event>
<event>
 8    1  0.3106980E-007  0.9118800E+02  0.7816164E-02  0.1184000E+00
        -11   -1    0    0    0    0  0.00000000000E+00  0.00000000000E+00  0.45593999997E+02  0.45594000000E+02  0.51100000000E-03 0. -1.
         11   -1    0    0    0    0 -0.00000000000E+00 -0.00000000000E+00 -0.45593999997E+02  0.45594000000E+02  0.51100000000E-03 0.  1.
         23    2    1    2    0    0  0.00000000000E+00  0.00000000000E+00 -0.88817841970E-15  0.91188000000E+02  0.91188000000E+02 0.  0.
    9900012    2    3    3    0    0  0.11126125216E+02 -0.34654963583E+02  0.55697736834E+01  0.54367088249E+02  0.40000009282E+02 0.  0.
        -12    1    3    3    0    0 -0.11126125216E+02  0.34654963583E+02 -0.55697736834E+01  0.36820911751E+02  0.00000000000E+00 0.  1.
         11    1    4    4    0    0 -0.57960271063E+01 -0.12466275170E+02 -0.30305639181E+00  0.13751137781E+02  0.51100000000E-03 0. -1.
        -11    1    4    4    0    0  0.43961503133E+01  0.68715054904E+01  0.35177635392E+01  0.88836020769E+01  0.51100000000E-03 0.  1.
        -12    1    4    4    0    0  0.12526002009E+02 -0.29060193904E+02  0.23550665360E+01  0.31732348392E+02  0.00000000000E+00 0.  1.
</event>
<event>
 8    1  0.3106980E-007  0.9118800E+02  0.7816164E-02  0.1184000E+00
        -11   -1    0    0    0    0  0.00000000000E+00  0.00000000000E+00  0.45593999997E+02  0.45594000000E+02  0.51100000000E-03 0. -1.
         11   -1    0    0    0    0 -0.00000000000E+00 -0.00000000000E+00 -0.45593999997E+02  0.45594000000E+02  0.51100000000E-03 0.  1.
         23    2    1    2    0    0 -0.17763568394E-14  0.00000000000E+00  0.00000000000E+00  0.91188000000E+02  0.91188000000E+02 0.  0.
    9900012    2    3    3    0    0 -0.95129372115E+01 -0.84516095774E+01  0.34552228349E+02  0.54367052664E+02  0.39999928159E+02 0.  0.
        -12    1    3    3    0    0  0.95129372115E+01  0.84516095774E+01 -0.34552228349E+02  0.36820947336E+02  0.00000000000E+00 0.  1.
         11    1    4    4    0    0 -0.38847060458E+01 -0.99278365595E+01  0.57691064843E+01  0.12121694176E+02  0.51100000000E-03 0. -1.
        -11    1    4    4    0    0 -0.18058176239E+02  0.31274412512E+01  0.15827861147E+02  0.24215693395E+02  0.51100000000E-03 0.  1.
         12    1    4    4    0    0  0.12429945074E+02 -0.16512142691E+01  0.12955260717E+02  0.18029665093E+02  0.00000000000E+00 0. -1.
</event>
<event>
 8    1  0.3106980E-007  0.9118800E+02  0.7816164E-02  0.1184000E+00
        -11   -1    0    0    0    0  0.00000000000E+00  0.00000000000E+00  0.45593999997E+02  0.45594000000E+02  0.51100000000E-03 0. -1.
         11   -1    0    0    0    0 -0.00000000000E+00 -0.00000000000E+00 -0.45593999997E+02  0.45594000000E+02  0.51100000000E-03 0.  1.
         23    2    1    2    0    0 -0.16653345369E-14  0.00000000000E+00  0.35527136788E-14  0.91188000000E+02  0.91188000000E+02 0.  0.
    9900012    2    3    3    0    0  0.55983482250E+00 -0.31324437259E+02  0.19345469950E+02  0.54367068559E+02  0.39999964394E+02 0.  0.
        -12    1    3    3    0    0 -0.55983482250E+00  0.31324437259E+02 -0.19345469950E+02  0.36820931441E+02  0.00000000000E+00 0.  1.
         11    1    4    4    0    0 -0.11491532936E+02 -0.11894633048E+02  0.16142244757E+02  0.23110813283E+02  0.51100000000E-03 0. -1.
        -11    1    4    4    0    0  0.42625041618E+01 -0.17816931436E+02 -0.58254263297E+01  0.19223620359E+02  0.51100000000E-03 0.  1.
         12    1    4    4    0    0  0.77888635966E+01 -0.16128727748E+01  0.90286515222E+01  0.12032634916E+02  0.00000000000E+00 0. -1.
</event>
<event>
 8    1  0.3106980E-007  0.9118800E+02  0.7816164E-02  0.1184000E+00
        -11   -1    0    0    0    0  0.00000000000E+00  0.00000000000E+00  0.45593999997E+02  0.45594000000E+02  0.51100000000E-03 0.  1.
         11   -1    0    0    0    0 -0.00000000000E+00 -0.00000000000E+00 -0.45593999997E+02  0.45594000000E+02  0.51100000000E-03 0. -1.
         23    2    1    2    0    0  0.00000000000E+00  0.00000000000E+00  0.00000000000E+00  0.91188000000E+02  0.91188000000E+02 0.  0.
    9900012    2    3    3    0    0  0.98506395070E+01  0.19352148821E+02  0.29736160854E+02  0.54367081692E+02  0.39999994334E+02 0.  0.
         12    1    3    3    0    0 -0.98506395070E+01 -0.19352148821E+02 -0.29736160854E+02  0.36820918308E+02  0.00000000000E+00 0. -1.
         11    1    4    4    0    0  0.47532116372E+01  0.88144108086E+01 -0.51885683500E+01  0.11278656859E+02  0.51100000000E-03 0. -1.
        -11    1    4    4    0    0  0.12943464189E+02  0.84801055473E+01  0.29554755081E+02  0.33360590575E+02  0.51100000000E-03 0.  1.
        -12    1    4    4    0    0 -0.78460363188E+01  0.20576324649E+01  0.53699741226E+01  0.97278342582E+01  0.00000000000E+00 0.  1.
</event>
<event>
 8    1  0.3106980E-007  0.9118800E+02  0.7816164E-02  0.1184000E+00
        -11   -1    0    0    0    0  0.00000000000E+00  0.00000000000E+00  0.45593999997E+02  0.45594000000E+02  0.51100000000E-03 0.  1.
         11   -1    0    0    0    0 -0.00000000000E+00 -0.00000000000E+00 -0.45593999997E+02  0.45594000000E+02  0.51100000000E-03 0. -1.
         23    2    1    2    0    0  0.00000000000E+00  0.00000000000E+00 -0.17763568394E-14  0.91188000000E+02  0.91188000000E+02 0.  0.
    9900012    2    3    3    0    0 -0.33758260869E+02  0.98694876239E+01  0.10898154489E+02  0.54366854797E+02  0.39999477076E+02 0.  0.
         12    1    3    3    0    0  0.33758260869E+02 -0.98694876239E+01 -0.10898154489E+02  0.36821145203E+02  0.00000000000E+00 0. -1.
         11    1    4    4    0    0 -0.26959920850E+02  0.15611820582E+02  0.21716108237E+02  0.37975724237E+02  0.51100000000E-03 0.  1.
        -11    1    4    4    0    0 -0.70953419134E+01 -0.85389028538E+00 -0.80540854203E+01  0.10767604084E+02  0.51100000000E-03 0. -1.
        -12    1    4    4    0    0  0.29700189530E+00 -0.48884426723E+01 -0.27638683277E+01  0.56235264754E+01  0.00000000000E+00 0.  1.
</event>
<event>
 8    1  0.3106980E-007  0.9118800E+02  0.7816164E-02  0.1184000E+00
        -11   -1    0    0    0    0  0.00000000000E+00  0.00000000000E+00  0.45593999997E+02  0.45594000000E+02  0.51100000000E-03 0.  1.
         11   -1    0    0    0    0 -0.00000000000E+00 -0.00000000000E+00 -0.45593999997E+02  0.45594000000E+02  0.51100000000E-03 0. -1.
         23    2    1    2    0    0 -0.44408920985E-15  0.35527136788E-14  0.00000000000E+00  0.91188000000E+02  0.91188000000E+02 0.  0.
    9900012    2    3    3    0    0  0.29827373699E+01 -0.24858659651E+02  0.26998708315E+02  0.54367082949E+02  0.39999997198E+02 0.  0.
         12    1    3    3    0    0 -0.29827373699E+01  0.24858659651E+02 -0.26998708315E+02  0.36820917051E+02  0.00000000000E+00 0. -1.
         11    1    4    4    0    0 -0.11633377295E+02 -0.18440312199E+01  0.63875249479E+01  0.13399119137E+02  0.51100000000E-03 0. -1.
        -11    1    4    4    0    0 -0.52130330080E+00 -0.44789144625E+01  0.15965138406E+02  0.16589697902E+02  0.51100000000E-03 0.  1.
         12    1    4    4    0    0  0.15137417966E+02 -0.18535713968E+02  0.46460449609E+01  0.24378265910E+02  0.00000000000E+00 0. -1.
</event>
<event>
 8    1  0.3106980E-007  0.9118800E+02  0.7816164E-02  0.1184000E+00
        -11   -1    0    0    0    0  0.00000000000E+00  0.00000000000E+00  0.45593999997E+02  0.45594000000E+02  0.51100000000E-03 0.  1.
         11   -1    0    0    0    0 -0.00000000000E+00 -0.00000000000E+00 -0.45593999997E+02  0.45594000000E+02  0.51100000000E-03 0. -1.
         23    2    1    2    0    0  0.00000000000E+00 -0.26645352591E-14 -0.35527136788E-14  0.91188000000E+02  0.91188000000E+02 0.  0.
    9900012    2    3    3    0    0  0.21404138101E+02  0.43673549120E+01  0.29640658330E+02  0.54367088238E+02  0.40000009255E+02 0.  0.
         12    1    3    3    0    0 -0.21404138101E+02 -0.43673549120E+01 -0.29640658330E+02  0.36820911762E+02  0.00000000000E+00 0. -1.
         11    1    4    4    0    0  0.48787078623E+01  0.92218123310E+01  0.29602238919E+01  0.10844654850E+02  0.51100000000E-03 0. -1.
        -11    1    4    4    0    0  0.11701271617E+02  0.11403104799E+02  0.18538785476E+02  0.24711072897E+02  0.51100000000E-03 0.  1.
        -12    1    4    4    0    0  0.48241586216E+01 -0.16257562218E+02  0.81416489622E+01  0.18811360491E+02  0.00000000000E+00 0.  1.
</event>
<event>
 8    1  0.3106980E-007  0.9118800E+02  0.7816164E-02  0.1184000E+00
        -11   -1    0    0    0    0  0.00000000000E+00  0.00000000000E+00  0.45593999997E+02  0.45594000000E+02  0.51100000000E-03 0.  1.
         11   -1    0    0    0    0 -0.00000000000E+00 -0.00000000000E+00 -0.45593999997E+02  0.45594000000E+02  0.51100000000E-03 0. -1.
         23    2    1    2    0    0  0.71054273576E-14  0.88817841970E-15 -0.88817841970E-15  0.91188000000E+02  0.91188000000E+02 0.  0.
    9900012    2    3    3    0    0 -0.36284265942E+02 -0.33289550734E+01  0.53055565615E+01  0.54367097957E+02  0.40000031412E+02 0.  0.
        -12    1    3    3    0    0  0.36284265942E+02  0.33289550734E+01 -0.53055565615E+01  0.36820902043E+02  0.00000000000E+00 0.  1.
         11    1    4    4    0    0 -0.16065741898E+02  0.41375454429E+01 -0.10285291512E+02  0.19519594431E+02  0.51100000000E-03 0.  1.
        -11    1    4    4    0    0 -0.19234266975E+02 -0.89036652356E+01  0.21607967365E+01  0.21304960068E+02  0.51100000000E-03 0. -1.
        -12    1    4    4    0    0 -0.98425706997E+00  0.14371647193E+01  0.13430051337E+02  0.13542543458E+02  0.00000000000E+00 0.  1.
</event>
<event>
 8    1  0.3106980E-007  0.9118800E+02  0.7816164E-02  0.1184000E+00
        -11   -1    0    0    0    0  0.00000000000E+00  0.00000000000E+00  0.45593999997E+02  0.45594000000E+02  0.51100000000E-03 0.  1.
         11   -1    0    0    0    0 -0.00000000000E+00 -0.00000000000E+00 -0.45593999997E+02  0.45594000000E+02  0.51100000000E-03 0. -1.
         23    2    1    2    0    0  0.00000000000E+00  0.00000000000E+00  0.00000000000E+00  0.91188000000E+02  0.91188000000E+02 0.  0.
    9900012    2    3    3    0    0 -0.28836089534E+02 -0.85325968950E+01 -0.21247474308E+02  0.54367076140E+02  0.39999981677E+02 0.  0.
        -12    1    3    3    0    0  0.28836089534E+02  0.85325968950E+01  0.21247474308E+02  0.36820923860E+02  0.00000000000E+00 0.  1.
         11    1    4    4    0    0 -0.10767383893E+01  0.33050446006E+01  0.52017741206E+01  0.62562880076E+01  0.51100000000E-03 0. -1.
        -11    1    4    4    0    0  0.43180895014E+01  0.15240236970E+01 -0.23924756569E+00  0.45853881875E+01  0.51100000000E-03 0.  1.
         12    1    4    4    0    0 -0.32077440646E+02 -0.13361665193E+02 -0.26210000863E+02  0.43525399945E+02  0.00000000000E+00 0. -1.
</event>
<event>
 8    1  0.3106980E-007  0.9118800E+02  0.7816164E-02  0.1184000E+00
        -11   -1    0    0    0    0  0.00000000000E+00  0.00000000000E+00  0.45593999997E+02  0.45594000000E+02  0.51100000000E-03 0. -1.
         11   -1    0    0    0    0 -0.00000000000E+00 -0.00000000000E+00 -0.45593999997E+02  0.45594000000E+02  0.51100000000E-03 0.  1.
         23    2    1    2    0    0  0.00000000000E+00  0.35527136788E-14  0.35527136788E-14  0.91188000000E+02  0.91188000000E+02 0.  0.
    9900012    2    3    3    0    0 -0.67628136734E+01 -0.31697388042E+02 -0.17473391652E+02  0.54367089185E+02  0.40000011414E+02 0.  0.
        -12    1    3    3    0    0  0.67628136734E+01  0.31697388042E+02  0.17473391652E+02  0.36820910815E+02  0.00000000000E+00 0.  1.
         11    1    4    4    0    0  0.69617784646E+01 -0.21572303053E+02 -0.10606090832E+02  0.25026381708E+02  0.51100000000E-03 0. -1.
        -11    1    4    4    0    0 -0.55619875413E+01 -0.16977384284E+02 -0.45065218394E+01  0.18424875084E+02  0.51100000000E-03 0.  1.
        -12    1    4    4    0    0 -0.81626045966E+01  0.68522992947E+01 -0.23607789807E+01  0.10915832392E+02  0.00000000000E+00 0.  1.
</event>
<event>
 8    1  0.3106980E-007  0.9118800E+02  0.7816164E-02  0.1184000E+00
        -11   -1    0    0    0    0  0.00000000000E+00  0.00000000000E+00  0.45593999997E+02  0.45594000000E+02  0.51100000000E-03 0.  1.
         11   -1    0    0    0    0 -0.00000000000E+00 -0.00000000000E+00 -0.45593999997E+02  0.45594000000E+02  0.51100000000E-03 0. -1.
         23    2    1    2    0    0  0.00000000000E+00  0.00000000000E+00  0.00000000000E+00  0.91188000000E+02  0.91188000000E+02 0.  0.
    9900012    2    3    3    0    0 -0.32371818760E+02  0.11914055798E+02  0.12879764751E+02  0.54367248848E+02  0.40000375396E+02 0.  0.
         12    1    3    3    0    0  0.32371818760E+02 -0.11914055798E+02 -0.12879764751E+02  0.36820751152E+02  0.00000000000E+00 0. -1.
         11    1    4    4    0    0 -0.75165364662E+01  0.22533406762E+01 -0.18752492733E+01  0.80679876517E+01  0.51100000000E-03 0. -1.
        -11    1    4    4    0    0 -0.54962145088E+01 -0.73858161917E+01 -0.77753736971E+01  0.12050522442E+02  0.51100000000E-03 0.  1.
        -12    1    4    4    0    0 -0.19359067785E+02  0.17046531313E+02  0.22530387722E+02  0.34248738753E+02  0.00000000000E+00 0.  1.
</event>
<event>
 8    1  0.3106980E-007  0.9118800E+02  0.7816164E-02  0.1184000E+00
        -11   -1    0    0    0    0  0.00000000000E+00  0.00000000000E+00  0.45593999997E+02  0.45594000000E+02  0.51100000000E-03 0.  1.
         11   -1    0    0    0    0 -0.00000000000E+00 -0.00000000000E+00 -0.45593999997E+02  0.45594000000E+02  0.51100000000E-03 0. -1.
         23    2    1    2    0    0  0.88817841970E-15  0.71054273576E-14  0.88817841970E-15  0.91188000000E+02  0.91188000000E+02 0.  0.
    9900012    2    3    3    0    0  0.64835199595E+01 -0.35672306838E+02 -0.64211306905E+01  0.54367076254E+02  0.39999981935E+02 0.  0.
        -12    1    3    3    0    0 -0.64835199595E+01  0.35672306838E+02  0.64211306905E+01  0.36820923746E+02  0.00000000000E+00 0.  1.
         11    1    4    4    0    0  0.96761607699E+01  0.16993388145E+01 -0.48368450770E+01  0.10950384021E+02  0.51100000000E-03 0. -1.
        -11    1    4    4    0    0  0.41028711972E+01 -0.80462169310E+01  0.76305022423E+01  0.11823693319E+02  0.51100000000E-03 0.  1.
         12    1    4    4    0    0 -0.72955120076E+01 -0.29325428721E+02 -0.92147878558E+01  0.31592998914E+02  0.00000000000E+00 0. -1.
</event>
<event>
 8    1  0.3106980E-007  0.9118800E+02  0.7816164E-02  0.1184000E+00
        -11   -1    0    0    0    0  0.00000000000E+00  0.00000000000E+00  0.45593999997E+02  0.45594000000E+02  0.51100000000E-03 0.  1.
         11   -1    0    0    0    0 -0.00000000000E+00 -0.00000000000E+00 -0.45593999997E+02  0.45594000000E+02  0.51100000000E-03 0. -1.
         23    2    1    2    0    0 -0.35527136788E-14  0.00000000000E+00  0.17763568394E-14  0.91188000000E+02  0.91188000000E+02 0.  0.
    9900012    2    3    3    0    0 -0.21157662832E+02  0.26968756335E+02  0.13446894653E+02  0.54367088949E+02  0.40000010877E+02 0.  0.
        -12    1    3    3    0    0  0.21157662832E+02 -0.26968756335E+02 -0.13446894653E+02  0.36820911051E+02  0.00000000000E+00 0.  1.
         11    1    4    4    0    0  0.46699789469E+01  0.99212584702E+00 -0.28773800582E+01  0.55742563021E+01  0.51100000000E-03 0. -1.
        -11    1    4    4    0    0 -0.89081787166E+01 -0.32606154957E+01 -0.29077664612E+01  0.99218127130E+01  0.51100000000E-03 0.  1.
         12    1    4    4    0    0 -0.16919463063E+02  0.29237245984E+02  0.19232041172E+02  0.38871019934E+02  0.00000000000E+00 0. -1.
</event>
<event>
 8    1  0.3106980E-007  0.9118800E+02  0.7816164E-02  0.1184000E+00
        -11   -1    0    0    0    0  0.00000000000E+00  0.00000000000E+00  0.45593999997E+02  0.45594000000E+02  0.51100000000E-03 0. -1.
         11   -1    0    0    0    0 -0.00000000000E+00 -0.00000000000E+00 -0.45593999997E+02  0.45594000000E+02  0.51100000000E-03 0.  1.
         23    2    1    2    0    0  0.00000000000E+00  0.00000000000E+00  0.00000000000E+00  0.91188000000E+02  0.91188000000E+02 0.  0.
    9900012    2    3    3    0    0 -0.32250948926E+02 -0.12058208693E+02 -0.13047975322E+02  0.54367166719E+02  0.40000188169E+02 0.  0.
         12    1    3    3    0    0  0.32250948926E+02  0.12058208693E+02  0.13047975322E+02  0.36820833281E+02  0.00000000000E+00 0. -1.
         11    1    4    4    0    0 -0.13900348908E+02 -0.15671629046E+02 -0.12378264690E+02  0.24331894577E+02  0.51100000000E-03 0. -1.
        -11    1    4    4    0    0 -0.12961066143E+02 -0.73851568478E+01 -0.67353723161E+01  0.16367498824E+02  0.51100000000E-03 0.  1.
         12    1    4    4    0    0 -0.53895338739E+01  0.10998577201E+02  0.60656616838E+01  0.13667773318E+02  0.00000000000E+00 0. -1.
</event>
<event>
 8    1  0.3106980E-007  0.9118800E+02  0.7816164E-02  0.1184000E+00
        -11   -1    0    0    0    0  0.00000000000E+00  0.00000000000E+00  0.45593999997E+02  0.45594000000E+02  0.51100000000E-03 0. -1.
         11   -1    0    0    0    0 -0.00000000000E+00 -0.00000000000E+00 -0.45593999997E+02  0.45594000000E+02  0.51100000000E-03 0.  1.
         23    2    1    2    0    0  0.00000000000E+00  0.00000000000E+00  0.00000000000E+00  0.91188000000E+02  0.91188000000E+02 0.  0.
    9900012    2    3    3    0    0 -0.11549308440E+02 -0.34918501893E+02  0.17582378070E+01  0.54367086105E+02  0.40000004393E+02 0.  0.
         12    1    3    3    0    0  0.11549308440E+02  0.34918501893E+02 -0.17582378070E+01  0.36820913895E+02  0.00000000000E+00 0. -1.
         11    1    4    4    0    0 -0.12223968336E+01 -0.25520861023E+02 -0.45597074486E+00  0.25554187738E+02  0.51100000000E-03 0. -1.
        -11    1    4    4    0    0  0.75010762579E+01 -0.21279146694E+01 -0.37569667773E+01  0.86549965623E+01  0.51100000000E-03 0.  1.
         12    1    4    4    0    0 -0.17827987865E+02 -0.72697262010E+01  0.59711753291E+01  0.20157901804E+02  0.00000000000E+00 0. -1.
</event>
<event>
 8    1  0.3106980E-007  0.9118800E+02  0.7816164E-02  0.1184000E+00
        -11   -1    0    0    0    0  0.00000000000E+00  0.00000000000E+00  0.45593999997E+02  0.45594000000E+02  0.51100000000E-03 0.  1.
         11   -1    0    0    0    0 -0.00000000000E+00 -0.00000000000E+00 -0.45593999997E+02  0.45594000000E+02  0.51100000000E-03 0. -1.
         23    2    1    2    0    0  0.00000000000E+00  0.17763568394E-14  0.17763568394E-14  0.91188000000E+02  0.91188000000E+02 0.  0.
    9900012    2    3    3    0    0 -0.32894533536E+02  0.10155999363E+02  0.13060829378E+02  0.54367083069E+02  0.39999997473E+02 0.  0.
        -12    1    3    3    0    0  0.32894533536E+02 -0.10155999363E+02 -0.13060829378E+02  0.36820916931E+02  0.00000000000E+00 0.  1.
         11    1    4    4    0    0 -0.17235596869E+02  0.32199006970E+00  0.75050013043E+01  0.18801449994E+02  0.51100000000E-03 0. -1.
        -11    1    4    4    0    0 -0.16627078100E+02  0.17980723244E+02 -0.17873391000E+01  0.24555258415E+02  0.51100000000E-03 0.  1.
        -12    1    4    4    0    0  0.96814143271E+00 -0.81467139506E+01  0.73431671732E+01  0.11010374660E+02  0.00000000000E+00 0.  1.
</event>
<event>
 8    1  0.3106980E-007  0.9118800E+02  0.7816164E-02  0.1184000E+00
        -11   -1    0    0    0    0  0.00000000000E+00  0.00000000000E+00  0.45593999997E+02  0.45594000000E+02  0.51100000000E-03 0.  1.
         11   -1    0    0    0    0 -0.00000000000E+00 -0.00000000000E+00 -0.45593999997E+02  0.45594000000E+02  0.51100000000E-03 0. -1.
         23    2    1    2    0    0 -0.35527136788E-14  0.00000000000E+00  0.17763568394E-14  0.91188000000E+02  0.91188000000E+02 0.  0.
    9900012    2    3    3    0    0 -0.31655960218E+02  0.16458142828E+02 -0.90998934083E+01  0.54367104536E+02  0.40000046412E+02 0.  0.
        -12    1    3    3    0    0  0.31655960218E+02 -0.16458142828E+02  0.90998934083E+01  0.36820895464E+02  0.00000000000E+00 0.  1.
         11    1    4    4    0    0  0.14044134788E+01  0.32515766660E+00  0.32087796052E+01  0.35177224938E+01  0.51100000000E-03 0.  1.
        -11    1    4    4    0    0 -0.24843829338E+02  0.60296408020E+01 -0.22700275292E+02  0.34188812834E+02  0.51100000000E-03 0. -1.
         12    1    4    4    0    0 -0.82165443589E+01  0.10103344359E+02  0.10391602278E+02  0.16660569209E+02  0.00000000000E+00 0. -1.
</event>
<event>
 8    1  0.3106980E-007  0.9118800E+02  0.7816164E-02  0.1184000E+00
        -11   -1    0    0    0    0  0.00000000000E+00  0.00000000000E+00  0.45593999997E+02  0.45594000000E+02  0.51100000000E-03 0. -1.
         11   -1    0    0    0    0 -0.00000000000E+00 -0.00000000000E+00 -0.45593999997E+02  0.45594000000E+02  0.51100000000E-03 0.  1.
         23    2    1    2    0    0  0.00000000000E+00  0.00000000000E+00  0.35527136788E-14  0.91188000000E+02  0.91188000000E+02 0.  0.
    9900012    2    3    3    0    0  0.28633682967E+02 -0.40754171960E+01  0.22787774105E+02  0.54367089171E+02  0.40000011384E+02 0.  0.
        -12    1    3    3    0    0 -0.28633682967E+02  0.40754171960E+01 -0.22787774105E+02  0.36820910829E+02  0.00000000000E+00 0.  1.
         11    1    4    4    0    0 -0.24940768579E+01  0.39273253358E+01  0.77755254177E+00  0.47168731043E+01  0.51100000000E-03 0. -1.
        -11    1    4    4    0    0 -0.89200030456E+00 -0.59616389793E+01  0.15879287864E+02  0.16984951787E+02  0.51100000000E-03 0.  1.
         12    1    4    4    0    0  0.32019760130E+02 -0.20411035525E+01  0.61309336987E+01  0.32665264280E+02  0.00000000000E+00 0. -1.
</event>
<event>
 8    1  0.3106980E-007  0.9118800E+02  0.7816164E-02  0.1184000E+00
        -11   -1    0    0    0    0  0.00000000000E+00  0.00000000000E+00  0.45593999997E+02  0.45594000000E+02  0.51100000000E-03 0.  1.
         11   -1    0    0    0    0 -0.00000000000E+00 -0.00000000000E+00 -0.45593999997E+02  0.45594000000E+02  0.51100000000E-03 0. -1.
         23    2    1    2    0    0 -0.22204460493E-15  0.00000000000E+00  0.22204460493E-15  0.91188000000E+02  0.91188000000E+02 0.  0.
    9900012    2    3    3    0    0  0.19380579281E+01  0.36716931703E+02  0.19720108115E+01  0.54367109614E+02  0.40000057986E+02 0.  0.
         12    1    3    3    0    0 -0.19380579281E+01 -0.36716931703E+02 -0.19720108115E+01  0.36820890386E+02  0.00000000000E+00 0. -1.
         11    1    4    4    0    0 -0.87072272206E-01  0.10894765570E+02  0.46554506629E+00  0.10905055290E+02  0.51100000000E-03 0. -1.
        -11    1    4    4    0    0 -0.48846957720E+01  0.33056587263E+02  0.65805850433E+00  0.33422017526E+02  0.51100000000E-03 0.  1.
         12    1    4    4    0    0  0.69098259723E+01 -0.72344211301E+01  0.84840724086E+00  0.10040036798E+02  0.00000000000E+00 0. -1.
</event>
<event>
 8    1  0.3106980E-007  0.9118800E+02  0.7816164E-02  0.1184000E+00
        -11   -1    0    0    0    0  0.00000000000E+00  0.00000000000E+00  0.45593999997E+02  0.45594000000E+02  0.51100000000E-03 0.  1.
         11   -1    0    0    0    0 -0.00000000000E+00 -0.00000000000E+00 -0.45593999997E+02  0.45594000000E+02  0.51100000000E-03 0. -1.
         23    2    1    2    0    0  0.35527136788E-14  0.00000000000E+00 -0.44408920985E-15  0.91188000000E+02  0.91188000000E+02 0.  0.
    9900012    2    3    3    0    0  0.27406201222E+02 -0.24441625070E+02  0.26986966503E+01  0.54367138181E+02  0.40000123110E+02 0.  0.
         12    1    3    3    0    0 -0.27406201222E+02  0.24441625070E+02 -0.26986966503E+01  0.36820861819E+02  0.00000000000E+00 0. -1.
         11    1    4    4    0    0  0.31053631958E+02 -0.14053981500E+02  0.22735296982E+01  0.34161548433E+02  0.51100000000E-03 0. -1.
        -11    1    4    4    0    0  0.17935964724E+01 -0.94484693617E+01 -0.63054422649E+01  0.11499963652E+02  0.51100000000E-03 0.  1.
        -12    1    4    4    0    0 -0.54410272084E+01 -0.93917420858E+00  0.67306092169E+01  0.87056260951E+01  0.00000000000E+00 0.  1.
</event>
<event>
 8    1  0.3106980E-007  0.9118800E+02  0.7816164E-02  0.1184000E+00
        -11   -1    0    0    0    0  0.00000000000E+00  0.00000000000E+00  0.45593999997E+02  0.45594000000E+02  0.51100000000E-03 0.  1.
         11   -1    0    0    0    0 -0.00000000000E+00 -0.00000000000E+00 -0.45593999997E+02  0.45594000000E+02  0.51100000000E-03 0. -1.
         23    2    1    2    0    0  0.00000000000E+00  0.00000000000E+00 -0.35527136788E-14  0.91188000000E+02  0.91188000000E+02 0.  0.
    9900012    2    3    3    0    0  0.22619305665E+02  0.80663295159E+01  0.27912338901E+02  0.54366846792E+02  0.39999458828E+02 0.  0.
         12    1    3    3    0    0 -0.22619305665E+02 -0.80663295159E+01 -0.27912338901E+02  0.36821153208E+02  0.00000000000E+00 0. -1.
         11    1    4    4    0    0  0.10932418922E+02  0.23704940415E+01  0.27787561851E+02  0.29954726161E+02  0.51100000000E-03 0. -1.
        -11    1    4    4    0    0  0.46255925493E+01 -0.18026799994E+01  0.93490881869E+01  0.10585424498E+02  0.51100000000E-03 0.  1.
         12    1    4    4    0    0  0.70612941944E+01  0.74985154738E+01 -0.92243111367E+01  0.13826696133E+02  0.00000000000E+00 0. -1.
</event>
<event>
 8    1  0.3106980E-007  0.9118800E+02  0.7816164E-02  0.1184000E+00
        -11   -1    0    0    0    0  0.00000000000E+00  0.00000000000E+00  0.45593999997E+02  0.45594000000E+02  0.51100000000E-03 0.  1.
         11   -1    0    0    0    0 -0.00000000000E+00 -0.00000000000E+00 -0.45593999997E+02  0.45594000000E+02  0.51100000000E-03 0. -1.
         23    2    1    2    0    0  0.00000000000E+00  0.00000000000E+00  0.00000000000E+00  0.91188000000E+02  0.91188000000E+02 0.  0.
    9900012    2    3    3    0    0  0.23451005528E+02  0.17504845208E+02  0.22347491826E+02  0.54367086691E+02  0.40000005729E+02 0.  0.
         12    1    3    3    0    0 -0.23451005528E+02 -0.17504845208E+02 -0.22347491826E+02  0.36820913309E+02  0.00000000000E+00 0. -1.
         11    1    4    4    0    0  0.13058039406E+02 -0.53184809861E+01  0.13186586316E+02  0.19305043177E+02  0.51100000000E-03 0. -1.
        -11    1    4    4    0    0  0.78134603564E+01 -0.25838374537E+01  0.12293006009E+01  0.83209109451E+01  0.51100000000E-03 0.  1.
        -12    1    4    4    0    0  0.25795057653E+01  0.25407163648E+02  0.79316049090E+01  0.26741132568E+02  0.00000000000E+00 0.  1.
</event>
<event>
 8    1  0.3106980E-007  0.9118800E+02  0.7816164E-02  0.1184000E+00
        -11   -1    0    0    0    0  0.00000000000E+00  0.00000000000E+00  0.45593999997E+02  0.45594000000E+02  0.51100000000E-03 0.  1.
         11   -1    0    0    0    0 -0.00000000000E+00 -0.00000000000E+00 -0.45593999997E+02  0.45594000000E+02  0.51100000000E-03 0. -1.
         23    2    1    2    0    0  0.00000000000E+00  0.00000000000E+00  0.00000000000E+00  0.91188000000E+02  0.91188000000E+02 0.  0.
    9900012    2    3    3    0    0  0.15427077463E+02  0.18486716405E+02 -0.27857248170E+02  0.54367086403E+02  0.40000005073E+02 0.  0.
        -12    1    3    3    0    0 -0.15427077463E+02 -0.18486716405E+02  0.27857248170E+02  0.36820913597E+02  0.00000000000E+00 0.  1.
         11    1    4    4    0    0 -0.50334789691E+01 -0.19359150805E+01 -0.91724368307E+00  0.54703760352E+01  0.51100000000E-03 0.  1.
        -11    1    4    4    0    0  0.25626813556E+02  0.82676646150E+01 -0.22083344241E+02  0.34824731792E+02  0.51100000000E-03 0. -1.
         12    1    4    4    0    0 -0.51662571237E+01  0.12154966871E+02 -0.48566602460E+01  0.14071978576E+02  0.00000000000E+00 0. -1.
</event>
<event>
 8    1  0.3106980E-007  0.9118800E+02  0.7816164E-02  0.1184000E+00
        -11   -1    0    0    0    0  0.00000000000E+00  0.00000000000E+00  0.45593999997E+02  0.45594000000E+02  0.51100000000E-03 0. -1.
         11   -1    0    0    0    0 -0.00000000000E+00 -0.00000000000E+00 -0.45593999997E+02  0.45594000000E+02  0.51100000000E-03 0.  1.
         23    2    1    2    0    0  0.00000000000E+00  0.00000000000E+00  0.00000000000E+00  0.91188000000E+02  0.91188000000E+02 0.  0.
    9900012    2    3    3    0    0 -0.99690550890E+01 -0.21021634839E+02  0.28539244945E+02  0.54367086204E+02  0.40000004620E+02 0.  0.
        -12    1    3    3    0    0  0.99690550890E+01  0.21021634839E+02 -0.28539244945E+02  0.36820913796E+02  0.00000000000E+00 0.  1.
         11    1    4    4    0    0 -0.94659812889E+00 -0.23310337095E+02 -0.59848068476E+00  0.23337224404E+02  0.51100000000E-03 0.  1.
        -11    1    4    4    0    0 -0.24844541089E+01  0.15298823365E+01  0.34796772336E+01  0.45410578166E+01  0.51100000000E-03 0. -1.
        -12    1    4    4    0    0 -0.65380028512E+01  0.75881991914E+00  0.25658048397E+02  0.26488803983E+02  0.00000000000E+00 0.  1.
</event>
<event>
 8    1  0.3106980E-007  0.9118800E+02  0.7816164E-02  0.1184000E+00
        -11   -1    0    0    0    0  0.00000000000E+00  0.00000000000E+00  0.45593999997E+02  0.45594000000E+02  0.51100000000E-03 0.  1.
         11   -1    0    0    0    0 -0.00000000000E+00 -0.00000000000E+00 -0.45593999997E+02  0.45594000000E+02  0.51100000000E-03 0. -1.
         23    2    1    2    0    0  0.00000000000E+00  0.35527136788E-14  0.00000000000E+00  0.91188000000E+02  0.91188000000E+02 0.  0.
    9900012    2    3    3    0    0  0.23300673819E+02 -0.37951923874E+01  0.28257004313E+02  0.54367038872E+02  0.39999896716E+02 0.  0.
         12    1    3    3    0    0 -0.23300673819E+02  0.37951923874E+01 -0.28257004313E+02  0.36820961128E+02  0.00000000000E+00 0. -1.
         11    1    4    4    0    0 -0.33444727652E+01 -0.11156249376E+02  0.72584372854E+01  0.13723421960E+02  0.51100000000E-03 0. -1.
        -11    1    4    4    0    0 -0.27498007580E+01 -0.25692697491E+01  0.25561717031E+01  0.45493477872E+01  0.51100000000E-03 0.  1.
         12    1    4    4    0    0  0.29394947342E+02  0.99303267374E+01  0.18442395324E+02  0.36094269125E+02  0.00000000000E+00 0. -1.
</event>
<event>
 8    1  0.3106980E-007  0.9118800E+02  0.7816164E-02  0.1184000E+00
        -11   -1    0    0    0    0  0.00000000000E+00  0.00000000000E+00  0.45593999997E+02  0.45594000000E+02  0.51100000000E-03 0. -1.
         11   -1    0    0    0    0 -0.00000000000E+00 -0.00000000000E+00 -0.45593999997E+02  0.45594000000E+02  0.51100000000E-03 0.  1.
         23    2    1    2    0    0 -0.88817841970E-15 -0.88817841970E-15  0.00000000000E+00  0.91188000000E+02  0.91188000000E+02 0.  0.
    9900012    2    3    3    0    0 -0.68325657606E+01 -0.51102286846E+01 -0.35818744855E+02  0.54367070149E+02  0.39999968019E+02 0.  0.
         12    1    3    3    0    0  0.68325657606E+01  0.51102286846E+01  0.35818744855E+02  0.36820929851E+02  0.00000000000E+00 0. -1.
         11    1    4    4    0    0  0.53654953838E+01 -0.12840362297E+02 -0.16246731919E+02  0.21392048591E+02  0.51100000000E-03 0. -1.
        -11    1    4    4    0    0  0.30611966276E+01 -0.49418094376E+01 -0.83845954709E+01  0.10202639207E+02  0.51100000000E-03 0.  1.
        -12    1    4    4    0    0 -0.15259257772E+02  0.12671943050E+02 -0.11187417465E+02  0.22772382351E+02  0.00000000000E+00 0.  1.
</event>
<event>
 8    1  0.3106980E-007  0.9118800E+02  0.7816164E-02  0.1184000E+00
        -11   -1    0    0    0    0  0.00000000000E+00  0.00000000000E+00  0.45593999997E+02  0.45594000000E+02  0.51100000000E-03 0. -1.
         11   -1    0    0    0    0 -0.00000000000E+00 -0.00000000000E+00 -0.45593999997E+02  0.45594000000E+02  0.51100000000E-03 0.  1.
         23    2    1    2    0    0  0.71054273576E-14 -0.17763568394E-14 -0.35527136788E-14  0.91188000000E+02  0.91188000000E+02 0.  0.
    9900012    2    3    3    0    0 -0.29288866418E+02  0.14590165682E+02  0.16884017853E+02  0.54367072668E+02  0.39999973762E+02 0.  0.
        -12    1    3    3    0    0  0.29288866418E+02 -0.14590165682E+02 -0.16884017853E+02  0.36820927332E+02  0.00000000000E+00 0.  1.
         11    1    4    4    0    0 -0.26700132954E+01  0.16404119284E+02 -0.97099290027E-01  0.16620274637E+02  0.51100000000E-03 0. -1.
        -11    1    4    4    0    0 -0.56620451673E+01 -0.74858543994E+01  0.12410498373E+02  0.15560117020E+02  0.51100000000E-03 0.  1.
         12    1    4    4    0    0 -0.20956807955E+02  0.56719007977E+01  0.45706187702E+01  0.22186681011E+02  0.00000000000E+00 0. -1.
</event>
<event>
 8    1  0.3106980E-007  0.9118800E+02  0.7816164E-02  0.1184000E+00
        -11   -1    0    0    0    0  0.00000000000E+00  0.00000000000E+00  0.45593999997E+02  0.45594000000E+02  0.51100000000E-03 0.  1.
         11   -1    0    0    0    0 -0.00000000000E+00 -0.00000000000E+00 -0.45593999997E+02  0.45594000000E+02  0.51100000000E-03 0. -1.
         23    2    1    2    0    0 -0.35527136788E-14  0.35527136788E-14 -0.35527136788E-14  0.91188000000E+02  0.91188000000E+02 0.  0.
    9900012    2    3    3    0    0  0.18048075687E+02 -0.27795769669E+02  0.16044993137E+02  0.54367086754E+02  0.40000005873E+02 0.  0.
         12    1    3    3    0    0 -0.18048075687E+02  0.27795769669E+02 -0.16044993137E+02  0.36820913246E+02  0.00000000000E+00 0. -1.
         11    1    4    4    0    0  0.46536709211E+01 -0.20643862382E+02  0.56919554249E+01  0.21914015239E+02  0.51100000000E-03 0. -1.
        -11    1    4    4    0    0  0.15007680939E+02 -0.16166266727E+01  0.17603949500E+02  0.23189286476E+02  0.51100000000E-03 0.  1.
         12    1    4    4    0    0 -0.16132761739E+01 -0.55352806147E+01 -0.72509117881E+01  0.92637850394E+01  0.00000000000E+00 0. -1.
</event>
<event>
 8    1  0.3106980E-007  0.9118800E+02  0.7816164E-02  0.1184000E+00
        -11   -1    0    0    0    0  0.00000000000E+00  0.00000000000E+00  0.45593999997E+02  0.45594000000E+02  0.51100000000E-03 0. -1.
         11   -1    0    0    0    0 -0.00000000000E+00 -0.00000000000E+00 -0.45593999997E+02  0.45594000000E+02  0.51100000000E-03 0.  1.
         23    2    1    2    0    0  0.17763568394E-14  0.00000000000E+00 -0.22204460493E-15  0.91188000000E+02  0.91188000000E+02 0.  0.
    9900012    2    3    3    0    0  0.14076386686E+02 -0.33980901543E+02 -0.17127546218E+01  0.54367083930E+02  0.39999999436E+02 0.  0.
        -12    1    3    3    0    0 -0.14076386686E+02  0.33980901543E+02  0.17127546218E+01  0.36820916070E+02  0.00000000000E+00 0.  1.
         11    1    4    4    0    0  0.11327508317E+01 -0.12121558449E+02  0.86740943151E+01  0.14948418516E+02  0.51100000000E-03 0. -1.
        -11    1    4    4    0    0  0.14469598787E+02 -0.10774304750E+02  0.64875306775E+01  0.19171410654E+02  0.51100000000E-03 0.  1.
        -12    1    4    4    0    0 -0.15259629334E+01 -0.11085038345E+02 -0.16874379615E+02  0.20247254761E+02  0.00000000000E+00 0.  1.
</event>
<event>
 8    1  0.3106980E-007  0.9118800E+02  0.7816164E-02  0.1184000E+00
        -11   -1    0    0    0    0  0.00000000000E+00  0.00000000000E+00  0.45593999997E+02  0.45594000000E+02  0.51100000000E-03 0.  1.
         11   -1    0    0    0    0 -0.00000000000E+00 -0.00000000000E+00 -0.45593999997E+02  0.45594000000E+02  0.51100000000E-03 0. -1.
         23    2    1    2    0    0  0.17763568394E-14  0.00000000000E+00  0.00000000000E+00  0.91188000000E+02  0.91188000000E+02 0.  0.
    9900012    2    3    3    0    0  0.66165844779E+01  0.25116112845E+02  0.26099441464E+02  0.54367093447E+02  0.40000021132E+02 0.  0.
         12    1    3    3    0    0 -0.66165844779E+01 -0.25116112845E+02 -0.26099441464E+02  0.36820906553E+02  0.00000000000E+00 0. -1.
         11    1    4    4    0    0  0.52529621278E+01  0.18170691449E+02  0.44837807226E+01  0.19438928178E+02  0.51100000000E-03 0. -1.
        -11    1    4    4    0    0  0.11835255780E+02 -0.37031006445E+01  0.83276821657E+01  0.14937754995E+02  0.51100000000E-03 0.  1.
        -12    1    4    4    0    0 -0.10471633430E+02  0.10648522040E+02  0.13287978576E+02  0.19990410275E+02  0.00000000000E+00 0.  1.
</event>
<event>
 8    1  0.3106980E-007  0.9118800E+02  0.7816164E-02  0.1184000E+00
        -11   -1    0    0    0    0  0.00000000000E+00  0.00000000000E+00  0.45593999997E+02  0.45594000000E+02  0.51100000000E-03 0. -1.
         11   -1    0    0    0    0 -0.00000000000E+00 -0.00000000000E+00 -0.45593999997E+02  0.45594000000E+02  0.51100000000E-03 0.  1.
         23    2    1    2    0    0 -0.35527136788E-14  0.00000000000E+00  0.00000000000E+00  0.91188000000E+02  0.91188000000E+02 0.  0.
    9900012    2    3    3    0    0  0.25306781405E+02  0.97432639489E+01 -0.24908144791E+02  0.54367081294E+02  0.39999993425E+02 0.  0.
         12    1    3    3    0    0 -0.25306781405E+02 -0.97432639489E+01  0.24908144791E+02  0.36820918706E+02  0.00000000000E+00 0. -1.
         11    1    4    4    0    0  0.78858949150E+01  0.71371000005E+01 -0.74720295191E+01  0.12998336833E+02  0.51100000000E-03 0. -1.
        -11    1    4    4    0    0  0.19673544104E+02 -0.75343252585E+00 -0.25577850160E+02  0.32277583820E+02  0.51100000000E-03 0.  1.
         12    1    4    4    0    0 -0.22526576136E+01  0.33595964742E+01  0.81417348889E+01  0.90911606407E+01  0.00000000000E+00 0. -1.
</event>
<event>
 8    1  0.3106980E-007  0.9118800E+02  0.7816164E-02  0.1184000E+00
        -11   -1    0    0    0    0  0.00000000000E+00  0.00000000000E+00  0.45593999997E+02  0.45594000000E+02  0.51100000000E-03 0.  1.
         11   -1    0    0    0    0 -0.00000000000E+00 -0.00000000000E+00 -0.45593999997E+02  0.45594000000E+02  0.51100000000E-03 0. -1.
         23    2    1    2    0    0  0.88817841970E-15 -0.35527136788E-14 -0.35527136788E-14  0.91188000000E+02  0.91188000000E+02 0.  0.
    9900012    2    3    3    0    0 -0.76105960454E+01 -0.27744625420E+02 -0.22980302475E+02  0.54367085920E+02  0.40000003972E+02 0.  0.
        -12    1    3    3    0    0  0.76105960454E+01  0.27744625420E+02  0.22980302475E+02  0.36820914080E+02  0.00000000000E+00 0.  1.
         11    1    4    4    0    0 -0.42105722628E+01 -0.26501047206E+02 -0.99380866093E+01  0.28614681328E+02  0.51100000000E-03 0.  1.
        -11    1    4    4    0    0 -0.91634366769E+01 -0.74092568450E+01 -0.12671806058E+02  0.17304344188E+02  0.51100000000E-03 0. -1.
        -12    1    4    4    0    0  0.57634128942E+01  0.61656786309E+01 -0.37040980739E+00  0.84480604043E+01  0.00000000000E+00 0.  1.
</event>
<event>
 8    1  0.3106980E-007  0.9118800E+02  0.7816164E-02  0.1184000E+00
        -11   -1    0    0    0    0  0.00000000000E+00  0.00000000000E+00  0.45593999997E+02  0.45594000000E+02  0.51100000000E-03 0.  1.
         11   -1    0    0    0    0 -0.00000000000E+00 -0.00000000000E+00 -0.45593999997E+02  0.45594000000E+02  0.51100000000E-03 0. -1.
         23    2    1    2    0    0 -0.35527136788E-14 -0.80491169285E-15  0.00000000000E+00  0.91188000000E+02  0.91188000000E+02 0.  0.
    9900012    2    3    3    0    0  0.24479399549E+02  0.16702468007E+00  0.27504744766E+02  0.54367083605E+02  0.39999998695E+02 0.  0.
         12    1    3    3    0    0 -0.24479399549E+02 -0.16702468007E+00 -0.27504744766E+02  0.36820916395E+02  0.00000000000E+00 0. -1.
         11    1    4    4    0    0  0.16709010604E+02 -0.82273101717E+01  0.23896029295E+01  0.18777376560E+02  0.51100000000E-03 0. -1.
        -11    1    4    4    0    0 -0.65482215067E+01  0.31838329581E+01  0.14202226431E+01  0.74184250230E+01  0.51100000000E-03 0.  1.
        -12    1    4    4    0    0  0.14318610451E+02  0.52105018937E+01  0.23694919193E+02  0.28171282023E+02  0.00000000000E+00 0.  1.
</event>
<event>
 8    1  0.3106980E-007  0.9118800E+02  0.7816164E-02  0.1184000E+00
        -11   -1    0    0    0    0  0.00000000000E+00  0.00000000000E+00  0.45593999997E+02  0.45594000000E+02  0.51100000000E-03 0.  1.
         11   -1    0    0    0    0 -0.00000000000E+00 -0.00000000000E+00 -0.45593999997E+02  0.45594000000E+02  0.51100000000E-03 0. -1.
         23    2    1    2    0    0  0.17763568394E-14  0.88817841970E-15 -0.71054273576E-14  0.91188000000E+02  0.91188000000E+02 0.  0.
    9900012    2    3    3    0    0 -0.14446633426E+02  0.45120111454E+01 -0.33566603767E+02  0.54367077274E+02  0.39999984262E+02 0.  0.
        -12    1    3    3    0    0  0.14446633426E+02 -0.45120111454E+01  0.33566603767E+02  0.36820922726E+02  0.00000000000E+00 0.  1.
         11    1    4    4    0    0 -0.11226326475E+01  0.90141217974E+00  0.15158260780E+01  0.20905924851E+01  0.51100000000E-03 0. -1.
        -11    1    4    4    0    0  0.11731636820E+02  0.18477900372E+01 -0.19144530384E+02  0.22529062883E+02  0.51100000000E-03 0.  1.
        -12    1    4    4    0    0 -0.25055637599E+02  0.17628089285E+01 -0.15937899461E+02  0.29747421906E+02  0.00000000000E+00 0.  1.
</event>
<event>
 8    1  0.3106980E-007  0.9118800E+02  0.7816164E-02  0.1184000E+00
        -11   -1    0    0    0    0  0.00000000000E+00  0.00000000000E+00  0.45593999997E+02  0.45594000000E+02  0.51100000000E-03 0.  1.
         11   -1    0    0    0    0 -0.00000000000E+00 -0.00000000000E+00 -0.45593999997E+02  0.45594000000E+02  0.51100000000E-03 0. -1.
         23    2    1    2    0    0  0.00000000000E+00  0.00000000000E+00  0.00000000000E+00  0.91188000000E+02  0.91188000000E+02 0.  0.
    9900012    2    3    3    0    0  0.99519829054E+01  0.31210270146E+02  0.16812173907E+02  0.54367189066E+02  0.40000239114E+02 0.  0.
        -12    1    3    3    0    0 -0.99519829054E+01 -0.31210270146E+02 -0.16812173907E+02  0.36820810934E+02  0.00000000000E+00 0.  1.
         11    1    4    4    0    0 -0.51993309052E+01  0.32873587998E+01  0.14502184589E+01  0.63200398401E+01  0.51100000000E-03 0. -1.
        -11    1    4    4    0    0  0.97465314330E+01  0.11738707509E+02  0.24370198253E+02  0.28752368461E+02  0.51100000000E-03 0.  1.
        -12    1    4    4    0    0  0.54047823776E+01  0.16184203837E+02 -0.90082428044E+01  0.19294780766E+02  0.00000000000E+00 0.  1.
</event>
<event>
 8    1  0.3106980E-007  0.9118800E+02  0.7816164E-02  0.1184000E+00
        -11   -1    0    0    0    0  0.00000000000E+00  0.00000000000E+00  0.45593999997E+02  0.45594000000E+02  0.51100000000E-03 0.  1.
         11   -1    0    0    0    0 -0.00000000000E+00 -0.00000000000E+00 -0.45593999997E+02  0.45594000000E+02  0.51100000000E-03 0. -1.
         23    2    1    2    0    0  0.35527136788E-14  0.35527136788E-14 -0.17763568394E-14  0.91188000000E+02  0.91188000000E+02 0.  0.
    9900012    2    3    3    0    0 -0.22406426615E+02 -0.27565473251E+02  0.96890599765E+01  0.54367066383E+02  0.39999959433E+02 0.  0.
         12    1    3    3    0    0  0.22406426615E+02  0.27565473251E+02 -0.96890599765E+01  0.36820933617E+02  0.00000000000E+00 0. -1.
         11    1    4    4    0    0 -0.75049312203E+01 -0.80377370657E+00  0.13086013270E+02  0.15106746452E+02  0.51100000000E-03 0. -1.
        -11    1    4    4    0    0 -0.21164919087E+02 -0.20132136848E+02  0.79795096190E+00  0.29221455474E+02  0.51100000000E-03 0.  1.
         12    1    4    4    0    0  0.62634236920E+01 -0.66295626963E+01 -0.41949042552E+01  0.10038864458E+02  0.00000000000E+00 0. -1.
</event>
<event>
 8    1  0.3106980E-007  0.9118800E+02  0.7816164E-02  0.1184000E+00
        -11   -1    0    0    0    0  0.00000000000E+00  0.00000000000E+00  0.45593999997E+02  0.45594000000E+02  0.51100000000E-03 0.  1.
         11   -1    0    0    0    0 -0.00000000000E+00 -0.00000000000E+00 -0.45593999997E+02  0.45594000000E+02  0.51100000000E-03 0. -1.
         23    2    1    2    0    0 -0.88817841970E-15  0.00000000000E+00  0.26645352591E-14  0.91188000000E+02  0.91188000000E+02 0.  0.
    9900012    2    3    3    0    0  0.60329480239E+01  0.35440931846E+02 -0.79575526725E+01  0.54367098917E+02  0.40000033602E+02 0.  0.
        -12    1    3    3    0    0 -0.60329480239E+01 -0.35440931846E+02  0.79575526725E+01  0.36820901083E+02  0.00000000000E+00 0.  1.
         11    1    4    4    0    0  0.62808607960E+01  0.15480773330E+02  0.64052470360E+01  0.17892197883E+02  0.51100000000E-03 0. -1.
        -11    1    4    4    0    0 -0.10835702552E+02  0.55612408927E+01  0.18805152984E+01  0.12323805748E+02  0.51100000000E-03 0.  1.
         12    1    4    4    0    0  0.10587789780E+02  0.14398917624E+02 -0.16243315007E+02  0.24151095287E+02  0.00000000000E+00 0. -1.
</event>
<event>
 8    1  0.3106980E-007  0.9118800E+02  0.7816164E-02  0.1184000E+00
        -11   -1    0    0    0    0  0.00000000000E+00  0.00000000000E+00  0.45593999997E+02  0.45594000000E+02  0.51100000000E-03 0. -1.
         11   -1    0    0    0    0 -0.00000000000E+00 -0.00000000000E+00 -0.45593999997E+02  0.45594000000E+02  0.51100000000E-03 0.  1.
         23    2    1    2    0    0 -0.17763568394E-14  0.00000000000E+00  0.00000000000E+00  0.91188000000E+02  0.91188000000E+02 0.  0.
    9900012    2    3    3    0    0  0.13415463414E+02  0.27713182826E+02  0.20193659097E+02  0.54367095222E+02  0.40000025178E+02 0.  0.
         12    1    3    3    0    0 -0.13415463414E+02 -0.27713182826E+02 -0.20193659097E+02  0.36820904778E+02  0.00000000000E+00 0. -1.
         11    1    4    4    0    0 -0.60926954016E+01  0.73156376973E+01  0.27780321651E+01  0.99175075067E+01  0.51100000000E-03 0. -1.
        -11    1    4    4    0    0  0.72041200891E+00  0.79826921152E+01 -0.74216393731E+01  0.10923511254E+02  0.51100000000E-03 0.  1.
        -12    1    4    4    0    0  0.18787746807E+02  0.12414853013E+02  0.24837266304E+02  0.33526076462E+02  0.00000000000E+00 0.  1.
</event>
<event>
 8    1  0.3106980E-007  0.9118800E+02  0.7816164E-02  0.1184000E+00
        -11   -1    0    0    0    0  0.00000000000E+00  0.00000000000E+00  0.45593999997E+02  0.45594000000E+02  0.51100000000E-03 0.  1.
         11   -1    0    0    0    0 -0.00000000000E+00 -0.00000000000E+00 -0.45593999997E+02  0.45594000000E+02  0.51100000000E-03 0. -1.
         23    2    1    2    0    0  0.17763568394E-14  0.00000000000E+00  0.00000000000E+00  0.91188000000E+02  0.91188000000E+02 0.  0.
    9900012    2    3    3    0    0  0.14081915631E+02  0.11090109069E+02  0.32163468132E+02  0.54367088152E+02  0.40000009060E+02 0.  0.
         12    1    3    3    0    0 -0.14081915631E+02 -0.11090109069E+02 -0.32163468132E+02  0.36820911848E+02  0.00000000000E+00 0. -1.
         11    1    4    4    0    0  0.77016109057E+01  0.42393276704E+01  0.28602442353E+00  0.87959376915E+01  0.51100000000E-03 0. -1.
        -11    1    4    4    0    0  0.14094727722E+02 -0.33293803746E+01  0.41853593308E+01  0.15075256424E+02  0.51100000000E-03 0.  1.
        -12    1    4    4    0    0 -0.77144229971E+01  0.10180161774E+02  0.27692084378E+02  0.30495894037E+02  0.00000000000E+00 0.  1.
</event>
<event>
 8    1  0.3106980E-007  0.9118800E+02  0.7816164E-02  0.1184000E+00
        -11   -1    0    0    0    0  0.00000000000E+00  0.00000000000E+00  0.45593999997E+02  0.45594000000E+02  0.51100000000E-03 0.  1.
         11   -1    0    0    0    0 -0.00000000000E+00 -0.00000000000E+00 -0.45593999997E+02  0.45594000000E+02  0.51100000000E-03 0. -1.
         23    2    1    2    0    0  0.26645352591E-14  0.00000000000E+00 -0.17763568394E-14  0.91188000000E+02  0.91188000000E+02 0.  0.
    9900012    2    3    3    0    0  0.60824557647E+01 -0.35309837567E+02 -0.84849755275E+01  0.54367140330E+02  0.40000128010E+02 0.  0.
         12    1    3    3    0    0 -0.60824557647E+01  0.35309837567E+02  0.84849755275E+01  0.36820859670E+02  0.00000000000E+00 0. -1.
         11    1    4    4    0    0  0.14812141025E+02 -0.22736900172E+02 -0.12522722670E+02  0.29886196388E+02  0.51100000000E-03 0. -1.
        -11    1    4    4    0    0  0.58432615943E+01 -0.21395764349E+01  0.99350743282E+00  0.63014721027E+01  0.51100000000E-03 0.  1.
        -12    1    4    4    0    0 -0.14572946855E+02 -0.10433360960E+02  0.30442397099E+01  0.18179471840E+02  0.00000000000E+00 0.  1.
</event>
