<event>
 8    1  0.2511738E-006  0.9118800E+02  0.7816164E-02  0.1184000E+00
        -11   -1    0    0    0    0  0.00000000000E+00  0.00000000000E+00  0.45593999997E+02  0.45594000000E+02  0.51100000000E-03 0. -1.
         11   -1    0    0    0    0 -0.00000000000E+00 -0.00000000000E+00 -0.45593999997E+02  0.45594000000E+02  0.51100000000E-03 0.  1.
         23    2    1    2    0    0  0.00000000000E+00  0.00000000000E+00  0.00000000000E+00  0.91188000000E+02  0.91188000000E+02 0.  0.
    9900012    2    3    3    0    0 -0.14335822946E+02  0.27855125061E+02 -0.19348246187E+02  0.54367103186E+02  0.40000043332E+02 0.  0.
         12    1    3    3    0    0  0.14335822946E+02 -0.27855125061E+02  0.19348246187E+02  0.36820896814E+02  0.00000000000E+00 0. -1.
         11    1    4    4    0    0 -0.17357701777E+02  0.56635107723E+00 -0.12921300193E+02  0.21646490788E+02  0.51100000000E-03 0. -1.
        -11    1    4    4    0    0 -0.39121354902E+01  0.24158687669E+02 -0.47447352036E+01  0.24929089562E+02  0.51100000000E-03 0.  1.
         12    1    4    4    0    0  0.69340143213E+01  0.31300863148E+01 -0.16822107907E+01  0.77915228351E+01  0.00000000000E+00 0. -1.
</event>
<event>
 8    1  0.2511738E-006  0.9118800E+02  0.7816164E-02  0.1184000E+00
        -11   -1    0    0    0    0  0.00000000000E+00  0.00000000000E+00  0.45593999997E+02  0.45594000000E+02  0.51100000000E-03 0.  1.
         11   -1    0    0    0    0 -0.00000000000E+00 -0.00000000000E+00 -0.45593999997E+02  0.45594000000E+02  0.51100000000E-03 0. -1.
         23    2    1    2    0    0 -0.71054273576E-14  0.00000000000E+00  0.19984014443E-14  0.91188000000E+02  0.91188000000E+02 0.  0.
    9900012    2    3    3    0    0  0.34384275511E+02  0.13075785891E+02 -0.15883886674E+01  0.54367115197E+02  0.40000070715E+02 0.  0.
        -12    1    3    3    0    0 -0.34384275511E+02 -0.13075785891E+02  0.15883886674E+01  0.36820884803E+02  0.00000000000E+00 0.  1.
         11    1    4    4    0    0  0.29081993188E+02  0.69018844107E+00 -0.99824597443E+01  0.30755295327E+02  0.51100000000E-03 0. -1.
        -11    1    4    4    0    0  0.82422116284E+01  0.56013414453E+01  0.11822104603E+02  0.15461928600E+02  0.51100000000E-03 0.  1.
        -12    1    4    4    0    0 -0.29399293045E+01  0.67842560048E+01 -0.34280335265E+01  0.81498912700E+01  0.00000000000E+00 0.  1.
</event>
<event>
 8    1  0.2511738E-006  0.9118800E+02  0.7816164E-02  0.1184000E+00
        -11   -1    0    0    0    0  0.00000000000E+00  0.00000000000E+00  0.45593999997E+02  0.45594000000E+02  0.51100000000E-03 0. -1.
         11   -1    0    0    0    0 -0.00000000000E+00 -0.00000000000E+00 -0.45593999997E+02  0.45594000000E+02  0.51100000000E-03 0.  1.
         23    2    1    2    0    0  0.17763568394E-14  0.88817841970E-15 -0.71054273576E-14  0.91188000000E+02  0.91188000000E+02 0.  0.
    9900012    2    3    3    0    0 -0.13727292928E+02  0.48185161653E+01  0.33824897072E+02  0.54367077536E+02  0.39999984859E+02 0.  0.
        -12    1    3    3    0    0  0.13727292928E+02 -0.48185161653E+01 -0.33824897072E+02  0.36820922464E+02  0.00000000000E+00 0.  1.
         11    1    4    4    0    0  0.24702143360E+01 -0.48254835890E+01  0.15067409485E+02  0.16012934759E+02  0.51100000000E-03 0.  1.
        -11    1    4    4    0    0 -0.75077306871E+01  0.21392263673E+01 -0.67892029875E+01  0.10345800452E+02  0.51100000000E-03 0. -1.
         12    1    4    4    0    0 -0.86897765766E+01  0.75047733870E+01  0.25546690574E+02  0.28008342326E+02  0.00000000000E+00 0. -1.
</event>
<event>
 8    1  0.2511738E-006  0.9118800E+02  0.7816164E-02  0.1184000E+00
        -11   -1    0    0    0    0  0.00000000000E+00  0.00000000000E+00  0.45593999997E+02  0.45594000000E+02  0.51100000000E-03 0.  1.
         11   -1    0    0    0    0 -0.00000000000E+00 -0.00000000000E+00 -0.45593999997E+02  0.45594000000E+02  0.51100000000E-03 0. -1.
         23    2    1    2    0    0  0.00000000000E+00  0.00000000000E+00 -0.35527136788E-14  0.91188000000E+02  0.91188000000E+02 0.  0.
    9900012    2    3    3    0    0 -0.24989390250E+02 -0.16627628612E+02 -0.21326799541E+02  0.54367081530E+02  0.39999993963E+02 0.  0.
        -12    1    3    3    0    0  0.24989390250E+02  0.16627628612E+02  0.21326799541E+02  0.36820918470E+02  0.00000000000E+00 0.  1.
         11    1    4    4    0    0  0.45491738575E+01 -0.90768628173E+01  0.63627447981E+00  0.10172967456E+02  0.51100000000E-03 0. -1.
        -11    1    4    4    0    0 -0.29479243676E+01 -0.47154656908E+00  0.49007042908E+01  0.57384246140E+01  0.51100000000E-03 0.  1.
         12    1    4    4    0    0 -0.26590639740E+02 -0.70792192253E+01 -0.26863778312E+02  0.38455689460E+02  0.00000000000E+00 0. -1.
</event>
<event>
 8    1  0.2511738E-006  0.9118800E+02  0.7816164E-02  0.1184000E+00
        -11   -1    0    0    0    0  0.00000000000E+00  0.00000000000E+00  0.45593999997E+02  0.45594000000E+02  0.51100000000E-03 0. -1.
         11   -1    0    0    0    0 -0.00000000000E+00 -0.00000000000E+00 -0.45593999997E+02  0.45594000000E+02  0.51100000000E-03 0.  1.
         23    2    1    2    0    0 -0.17763568394E-14  0.00000000000E+00 -0.71054273576E-14  0.91188000000E+02  0.91188000000E+02 0.  0.
    9900012    2    3    3    0    0 -0.69948882349E+01  0.24374523833E+02 -0.26697084415E+02  0.54367079455E+02  0.39999989233E+02 0.  0.
         12    1    3    3    0    0  0.69948882349E+01 -0.24374523833E+02  0.26697084415E+02  0.36820920545E+02  0.00000000000E+00 0. -1.
         11    1    4    4    0    0 -0.11267470228E+02  0.23323347297E+02 -0.96803537169E+01  0.27652190923E+02  0.51100000000E-03 0. -1.
        -11    1    4    4    0    0 -0.73883917336E+00 -0.29040306500E+01 -0.19600081309E+02  0.19827820478E+02  0.51100000000E-03 0.  1.
        -12    1    4    4    0    0  0.50114211668E+01  0.39552071861E+01  0.25833506103E+01  0.68870680534E+01  0.00000000000E+00 0.  1.
</event>
<event>
 8    1  0.2511738E-006  0.9118800E+02  0.7816164E-02  0.1184000E+00
        -11   -1    0    0    0    0  0.00000000000E+00  0.00000000000E+00  0.45593999997E+02  0.45594000000E+02  0.51100000000E-03 0.  1.
         11   -1    0    0    0    0 -0.00000000000E+00 -0.00000000000E+00 -0.45593999997E+02  0.45594000000E+02  0.51100000000E-03 0. -1.
         23    2    1    2    0    0  0.00000000000E+00  0.13322676296E-14  0.00000000000E+00  0.91188000000E+02  0.91188000000E+02 0.  0.
    9900012    2    3    3    0    0 -0.84784835373E+01 -0.16909395909E+01 -0.35791530928E+02  0.54367113998E+02  0.40000067980E+02 0.  0.
        -12    1    3    3    0    0  0.84784835373E+01  0.16909395909E+01  0.35791530928E+02  0.36820886002E+02  0.00000000000E+00 0.  1.
         11    1    4    4    0    0 -0.13055157221E+02  0.94257798367E+01 -0.15065718352E+02  0.22051265844E+02  0.51100000000E-03 0. -1.
        -11    1    4    4    0    0  0.53366589272E+00  0.34539717513E+01  0.27118334224E+01  0.44236592223E+01  0.51100000000E-03 0.  1.
         12    1    4    4    0    0  0.40430077908E+01 -0.14570691179E+02 -0.23437645999E+02  0.27892188932E+02  0.00000000000E+00 0. -1.
</event>
<event>
 8    1  0.2511738E-006  0.9118800E+02  0.7816164E-02  0.1184000E+00
        -11   -1    0    0    0    0  0.00000000000E+00  0.00000000000E+00  0.45593999997E+02  0.45594000000E+02  0.51100000000E-03 0.  1.
         11   -1    0    0    0    0 -0.00000000000E+00 -0.00000000000E+00 -0.45593999997E+02  0.45594000000E+02  0.51100000000E-03 0. -1.
         23    2    1    2    0    0  0.17763568394E-14  0.35527136788E-14  0.35527136788E-14  0.91188000000E+02  0.91188000000E+02 0.  0.
    9900012    2    3    3    0    0 -0.88323873465E+01  0.29404100450E+02  0.20326448786E+02  0.54367126711E+02  0.40000096963E+02 0.  0.
         12    1    3    3    0    0  0.88323873465E+01 -0.29404100450E+02 -0.20326448786E+02  0.36820873289E+02  0.00000000000E+00 0. -1.
         11    1    4    4    0    0 -0.16503301602E+02  0.73433045087E+01  0.84729617315E+01  0.19951796050E+02  0.51100000000E-03 0. -1.
        -11    1    4    4    0    0  0.15151790166E+02  0.11210918724E+02  0.47230605910E+01  0.19431128261E+02  0.51100000000E-03 0.  1.
        -12    1    4    4    0    0 -0.74808759101E+01  0.10849877217E+02  0.71304264632E+01  0.14984202400E+02  0.00000000000E+00 0.  1.
</event>
<event>
 8    1  0.2511738E-006  0.9118800E+02  0.7816164E-02  0.1184000E+00
        -11   -1    0    0    0    0  0.00000000000E+00  0.00000000000E+00  0.45593999997E+02  0.45594000000E+02  0.51100000000E-03 0.  1.
         11   -1    0    0    0    0 -0.00000000000E+00 -0.00000000000E+00 -0.45593999997E+02  0.45594000000E+02  0.51100000000E-03 0. -1.
         23    2    1    2    0    0  0.35527136788E-14  0.35527136788E-14  0.35527136788E-14  0.91188000000E+02  0.91188000000E+02 0.  0.
    9900012    2    3    3    0    0  0.21053338204E+02  0.12549393336E+02 -0.27478156592E+02  0.54367090012E+02  0.40000013301E+02 0.  0.
        -12    1    3    3    0    0 -0.21053338204E+02 -0.12549393336E+02  0.27478156592E+02  0.36820909988E+02  0.00000000000E+00 0.  1.
         11    1    4    4    0    0 -0.20345465792E+01 -0.67844595536E+01 -0.70063063631E+01  0.99627606783E+01  0.51100000000E-03 0. -1.
        -11    1    4    4    0    0  0.52491085329E+01 -0.39150786835E+01  0.26624799635E+01  0.70689307045E+01  0.51100000000E-03 0.  1.
         12    1    4    4    0    0  0.17838776250E+02  0.23248931573E+02 -0.23134330192E+02  0.37335398630E+02  0.00000000000E+00 0. -1.
</event>
<event>
 8    1  0.2511738E-006  0.9118800E+02  0.7816164E-02  0.1184000E+00
        -11   -1    0    0    0    0  0.00000000000E+00  0.00000000000E+00  0.45593999997E+02  0.45594000000E+02  0.51100000000E-03 0.  1.
         11   -1    0    0    0    0 -0.00000000000E+00 -0.00000000000E+00 -0.45593999997E+02  0.45594000000E+02  0.51100000000E-03 0. -1.
         23    2    1    2    0    0  0.44408920985E-15 -0.88817841970E-15  0.00000000000E+00  0.91188000000E+02  0.91188000000E+02 0.  0.
    9900012    2    3    3    0    0  0.48855809922E+00 -0.70546002903E+01  0.36135503995E+02  0.54367072211E+02  0.39999972719E+02 0.  0.
         12    1    3    3    0    0 -0.48855809922E+00  0.70546002903E+01 -0.36135503995E+02  0.36820927789E+02  0.00000000000E+00 0. -1.
         11    1    4    4    0    0  0.23899353159E+01 -0.48761861665E+01  0.18758732496E+01  0.57452487374E+01  0.51100000000E-03 0. -1.
        -11    1    4    4    0    0  0.21072755366E+00 -0.16900794295E+02  0.27513055242E+02  0.32290083043E+02  0.51100000000E-03 0.  1.
         12    1    4    4    0    0 -0.21121047704E+01  0.14722380171E+02  0.67465755033E+01  0.16331740431E+02  0.00000000000E+00 0. -1.
</event>
<event>
 8    1  0.2511738E-006  0.9118800E+02  0.7816164E-02  0.1184000E+00
        -11   -1    0    0    0    0  0.00000000000E+00  0.00000000000E+00  0.45593999997E+02  0.45594000000E+02  0.51100000000E-03 0. -1.
         11   -1    0    0    0    0 -0.00000000000E+00 -0.00000000000E+00 -0.45593999997E+02  0.45594000000E+02  0.51100000000E-03 0.  1.
         23    2    1    2    0    0 -0.35527136788E-14  0.00000000000E+00 -0.35527136788E-14  0.91188000000E+02  0.91188000000E+02 0.  0.
    9900012    2    3    3    0    0 -0.18641921006E+02  0.25623832929E+02 -0.18753057277E+02  0.54367093032E+02  0.40000020185E+02 0.  0.
         12    1    3    3    0    0  0.18641921006E+02 -0.25623832929E+02  0.18753057277E+02  0.36820906968E+02  0.00000000000E+00 0. -1.
         11    1    4    4    0    0 -0.18034466625E+02  0.16944603363E+02 -0.82010695454E+01  0.26069505395E+02  0.51100000000E-03 0. -1.
        -11    1    4    4    0    0  0.29901792584E+01 -0.29510953982E+01 -0.14814656327E+02  0.15398836917E+02  0.51100000000E-03 0.  1.
         12    1    4    4    0    0 -0.35976336390E+01  0.11630324963E+02  0.42626685964E+01  0.12898750719E+02  0.00000000000E+00 0. -1.
</event>
<event>
 8    1  0.2511738E-006  0.9118800E+02  0.7816164E-02  0.1184000E+00
        -11   -1    0    0    0    0  0.00000000000E+00  0.00000000000E+00  0.45593999997E+02  0.45594000000E+02  0.51100000000E-03 0. -1.
         11   -1    0    0    0    0 -0.00000000000E+00 -0.00000000000E+00 -0.45593999997E+02  0.45594000000E+02  0.51100000000E-03 0.  1.
         23    2    1    2    0    0 -0.44408920985E-15  0.00000000000E+00  0.00000000000E+00  0.91188000000E+02  0.91188000000E+02 0.  0.
    9900012    2    3    3    0    0  0.23357443394E+01 -0.23426629312E+02  0.28311098968E+02  0.54367068625E+02  0.39999964545E+02 0.  0.
        -12    1    3    3    0    0 -0.23357443394E+01  0.23426629312E+02 -0.28311098968E+02  0.36820931375E+02  0.00000000000E+00 0.  1.
         11    1    4    4    0    0  0.74899306252E+01  0.81350366089E+00  0.17181530656E+02  0.18760752781E+02  0.51100000000E-03 0. -1.
        -11    1    4    4    0    0 -0.13311381797E+02 -0.21349420146E+02  0.79280023112E+01  0.26378852265E+02  0.51100000000E-03 0.  1.
         12    1    4    4    0    0  0.81571955108E+01 -0.28907128270E+01  0.32015660010E+01  0.92274635794E+01  0.00000000000E+00 0. -1.
</event>
<event>
 8    1  0.2511738E-006  0.9118800E+02  0.7816164E-02  0.1184000E+00
        -11   -1    0    0    0    0  0.00000000000E+00  0.00000000000E+00  0.45593999997E+02  0.45594000000E+02  0.51100000000E-03 0.  1.
         11   -1    0    0    0    0 -0.00000000000E+00 -0.00000000000E+00 -0.45593999997E+02  0.45594000000E+02  0.51100000000E-03 0. -1.
         23    2    1    2    0    0  0.00000000000E+00  0.00000000000E+00  0.00000000000E+00  0.91188000000E+02  0.91188000000E+02 0.  0.
    9900012    2    3    3    0    0 -0.13212280807E+02 -0.19145542207E+02 -0.28542405603E+02  0.54367013211E+02  0.39999838216E+02 0.  0.
        -12    1    3    3    0    0  0.13212280807E+02  0.19145542207E+02  0.28542405603E+02  0.36820986789E+02  0.00000000000E+00 0.  1.
         11    1    4    4    0    0 -0.10170463633E+01 -0.11367022623E+02 -0.12422117210E+02  0.16868686460E+02  0.51100000000E-03 0. -1.
        -11    1    4    4    0    0 -0.69101351467E+01 -0.11605282115E+02 -0.23833916360E+02  0.27395038055E+02  0.51100000000E-03 0.  1.
        -12    1    4    4    0    0 -0.52850992974E+01  0.38267625313E+01  0.77136279677E+01  0.10103288696E+02  0.00000000000E+00 0.  1.
</event>
<event>
 8    1  0.2511738E-006  0.9118800E+02  0.7816164E-02  0.1184000E+00
        -11   -1    0    0    0    0  0.00000000000E+00  0.00000000000E+00  0.45593999997E+02  0.45594000000E+02  0.51100000000E-03 0.  1.
         11   -1    0    0    0    0 -0.00000000000E+00 -0.00000000000E+00 -0.45593999997E+02  0.45594000000E+02  0.51100000000E-03 0. -1.
         23    2    1    2    0    0  0.00000000000E+00  0.17763568394E-14  0.00000000000E+00  0.91188000000E+02  0.91188000000E+02 0.  0.
    9900012    2    3    3    0    0  0.33539739699E+02 -0.13509454039E+02 -0.69541336353E+01  0.54367089336E+02  0.40000011760E+02 0.  0.
        -12    1    3    3    0    0 -0.33539739699E+02  0.13509454039E+02  0.69541336353E+01  0.36820910664E+02  0.00000000000E+00 0.  1.
         11    1    4    4    0    0  0.16980179522E+02 -0.16268744022E+01 -0.22808513885E+02  0.28481599724E+02  0.51100000000E-03 0. -1.
        -11    1    4    4    0    0  0.15567533619E+02 -0.11569602155E+02  0.15316997707E+02  0.24714655895E+02  0.51100000000E-03 0.  1.
         12    1    4    4    0    0  0.99202655823E+00 -0.31297748164E+00  0.53738254329E+00  0.11708337175E+01  0.00000000000E+00 0. -1.
</event>
<event>
 8    1  0.2511738E-006  0.9118800E+02  0.7816164E-02  0.1184000E+00
        -11   -1    0    0    0    0  0.00000000000E+00  0.00000000000E+00  0.45593999997E+02  0.45594000000E+02  0.51100000000E-03 0.  1.
         11   -1    0    0    0    0 -0.00000000000E+00 -0.00000000000E+00 -0.45593999997E+02  0.45594000000E+02  0.51100000000E-03 0. -1.
         23    2    1    2    0    0  0.00000000000E+00  0.00000000000E+00  0.00000000000E+00  0.91188000000E+02  0.91188000000E+02 0.  0.
    9900012    2    3    3    0    0  0.13894340622E+02 -0.19344480576E+02  0.28080540383E+02  0.54367104054E+02  0.40000045312E+02 0.  0.
         12    1    3    3    0    0 -0.13894340622E+02  0.19344480576E+02 -0.28080540383E+02  0.36820895946E+02  0.00000000000E+00 0. -1.
         11    1    4    4    0    0  0.24548195927E+01  0.20231562066E+01 -0.34042110958E+01  0.46591795109E+01  0.51100000000E-03 0. -1.
        -11    1    4    4    0    0  0.19191860395E+02 -0.19525826109E+02  0.31505920756E+02  0.41739770407E+02  0.51100000000E-03 0.  1.
        -12    1    4    4    0    0 -0.77523393658E+01 -0.18418106739E+01 -0.21169277596E-01  0.79681541363E+01  0.00000000000E+00 0.  1.
</event>
<event>
 8    1  0.2511738E-006  0.9118800E+02  0.7816164E-02  0.1184000E+00
        -11   -1    0    0    0    0  0.00000000000E+00  0.00000000000E+00  0.45593999997E+02  0.45594000000E+02  0.51100000000E-03 0. -1.
         11   -1    0    0    0    0 -0.00000000000E+00 -0.00000000000E+00 -0.45593999997E+02  0.45594000000E+02  0.51100000000E-03 0.  1.
         23    2    1    2    0    0  0.00000000000E+00  0.00000000000E+00  0.00000000000E+00  0.91188000000E+02  0.91188000000E+02 0.  0.
    9900012    2    3    3    0    0  0.20223655746E+02 -0.30627928296E+02  0.29519111729E+01  0.54367081719E+02  0.39999994396E+02 0.  0.
         12    1    3    3    0    0 -0.20223655746E+02  0.30627928296E+02 -0.29519111729E+01  0.36820918281E+02  0.00000000000E+00 0. -1.
         11    1    4    4    0    0  0.12773702266E+02 -0.14306678841E+02  0.25731675480E+01  0.19351220131E+02  0.51100000000E-03 0. -1.
        -11    1    4    4    0    0  0.19132851908E+02 -0.11518791559E+02 -0.65402197969E+00  0.22342254276E+02  0.51100000000E-03 0.  1.
        -12    1    4    4    0    0 -0.11682898428E+02 -0.48024578952E+01  0.10327656045E+01  0.12673607313E+02  0.00000000000E+00 0.  1.
</event>
<event>
 8    1  0.2511738E-006  0.9118800E+02  0.7816164E-02  0.1184000E+00
        -11   -1    0    0    0    0  0.00000000000E+00  0.00000000000E+00  0.45593999997E+02  0.45594000000E+02  0.51100000000E-03 0.  1.
         11   -1    0    0    0    0 -0.00000000000E+00 -0.00000000000E+00 -0.45593999997E+02  0.45594000000E+02  0.51100000000E-03 0. -1.
         23    2    1    2    0    0 -0.13322676296E-14  0.00000000000E+00  0.00000000000E+00  0.91188000000E+02  0.91188000000E+02 0.  0.
    9900012    2    3    3    0    0 -0.26452703583E+01  0.32298050548E+02  0.17481938089E+02  0.54367086326E+02  0.40000004897E+02 0.  0.
         12    1    3    3    0    0  0.26452703583E+01 -0.32298050548E+02 -0.17481938089E+02  0.36820913674E+02  0.00000000000E+00 0. -1.
         11    1    4    4    0    0 -0.88834040524E+01 -0.84586029953E+00 -0.31524375502E+01  0.94640482867E+01  0.51100000000E-03 0.  1.
        -11    1    4    4    0    0  0.52350843632E+01  0.19418012366E+01 -0.24293537179E+01  0.60892084937E+01  0.51100000000E-03 0. -1.
        -12    1    4    4    0    0  0.10030493310E+01  0.31202109611E+02  0.23063729357E+02  0.38813829545E+02  0.00000000000E+00 0.  1.
</event>
<event>
 8    1  0.2511738E-006  0.9118800E+02  0.7816164E-02  0.1184000E+00
        -11   -1    0    0    0    0  0.00000000000E+00  0.00000000000E+00  0.45593999997E+02  0.45594000000E+02  0.51100000000E-03 0. -1.
         11   -1    0    0    0    0 -0.00000000000E+00 -0.00000000000E+00 -0.45593999997E+02  0.45594000000E+02  0.51100000000E-03 0.  1.
         23    2    1    2    0    0  0.17763568394E-14  0.00000000000E+00  0.35527136788E-14  0.91188000000E+02  0.91188000000E+02 0.  0.
    9900012    2    3    3    0    0  0.15896140138E+02 -0.92342812628E+01 -0.31903303243E+02  0.54367082310E+02  0.39999995742E+02 0.  0.
         12    1    3    3    0    0 -0.15896140138E+02  0.92342812628E+01  0.31903303243E+02  0.36820917690E+02  0.00000000000E+00 0. -1.
         11    1    4    4    0    0 -0.33243623386E+01 -0.45856862920E+01  0.16293510760E+01  0.58936142491E+01  0.51100000000E-03 0. -1.
        -11    1    4    4    0    0  0.33753029310E+01  0.77896844500E+01 -0.25345076205E+02  0.26729099158E+02  0.51100000000E-03 0.  1.
        -12    1    4    4    0    0  0.15845199546E+02 -0.12438279421E+02 -0.81875781139E+01  0.21744368903E+02  0.00000000000E+00 0.  1.
</event>
<event>
 8    1  0.2511738E-006  0.9118800E+02  0.7816164E-02  0.1184000E+00
        -11   -1    0    0    0    0  0.00000000000E+00  0.00000000000E+00  0.45593999997E+02  0.45594000000E+02  0.51100000000E-03 0. -1.
         11   -1    0    0    0    0 -0.00000000000E+00 -0.00000000000E+00 -0.45593999997E+02  0.45594000000E+02  0.51100000000E-03 0.  1.
         23    2    1    2    0    0 -0.35527136788E-14 -0.88817841970E-15  0.00000000000E+00  0.91188000000E+02  0.91188000000E+02 0.  0.
    9900012    2    3    3    0    0 -0.24452969499E+02 -0.35348084092E+01  0.27300867122E+02  0.54367082936E+02  0.39999997169E+02 0.  0.
        -12    1    3    3    0    0  0.24452969499E+02  0.35348084092E+01 -0.27300867122E+02  0.36820917064E+02  0.00000000000E+00 0.  1.
         11    1    4    4    0    0 -0.59228144393E+01  0.77392507042E-01  0.28287263101E+02  0.28900778095E+02  0.51100000000E-03 0. -1.
        -11    1    4    4    0    0 -0.17955604468E+02 -0.18025488598E+01  0.53736173850E+01  0.18828931947E+02  0.51100000000E-03 0.  1.
        -12    1    4    4    0    0 -0.57455059163E+00 -0.18096520565E+01 -0.63600133637E+01  0.66373728941E+01  0.00000000000E+00 0.  1.
</event>
<event>
 8    1  0.2511738E-006  0.9118800E+02  0.7816164E-02  0.1184000E+00
        -11   -1    0    0    0    0  0.00000000000E+00  0.00000000000E+00  0.45593999997E+02  0.45594000000E+02  0.51100000000E-03 0.  1.
         11   -1    0    0    0    0 -0.00000000000E+00 -0.00000000000E+00 -0.45593999997E+02  0.45594000000E+02  0.51100000000E-03 0. -1.
         23    2    1    2    0    0  0.00000000000E+00  0.00000000000E+00  0.00000000000E+00  0.91188000000E+02  0.91188000000E+02 0.  0.
    9900012    2    3    3    0    0  0.34670510975E+02 -0.12165585407E+02 -0.23947530194E+01  0.54367073320E+02  0.39999975247E+02 0.  0.
         12    1    3    3    0    0 -0.34670510975E+02  0.12165585407E+02  0.23947530194E+01  0.36820926680E+02  0.00000000000E+00 0. -1.
         11    1    4    4    0    0  0.58280854118E+01  0.53286569003E+00 -0.85756064020E+01  0.10382270986E+02  0.51100000000E-03 0. -1.
        -11    1    4    4    0    0  0.29262322455E+02 -0.94981200079E+01 -0.60334237091E+01  0.31351236037E+02  0.51100000000E-03 0.  1.
         12    1    4    4    0    0 -0.41989689188E+00 -0.32003310890E+01  0.12214277092E+02  0.12633566296E+02  0.00000000000E+00 0. -1.
</event>
<event>
 8    1  0.2511738E-006  0.9118800E+02  0.7816164E-02  0.1184000E+00
        -11   -1    0    0    0    0  0.00000000000E+00  0.00000000000E+00  0.45593999997E+02  0.45594000000E+02  0.51100000000E-03 0.  1.
         11   -1    0    0    0    0 -0.00000000000E+00 -0.00000000000E+00 -0.45593999997E+02  0.45594000000E+02  0.51100000000E-03 0. -1.
         23    2    1    2    0    0  0.35527136788E-14  0.00000000000E+00  0.35527136788E-14  0.91188000000E+02  0.91188000000E+02 0.  0.
    9900012    2    3    3    0    0 -0.19382537383E+02 -0.10237832205E+02 -0.29585226449E+02  0.54367060473E+02  0.39999945959E+02 0.  0.
        -12    1    3    3    0    0  0.19382537383E+02  0.10237832205E+02  0.29585226449E+02  0.36820939527E+02  0.00000000000E+00 0.  1.
         11    1    4    4    0    0  0.54420277273E+00 -0.56398462012E+01 -0.74889668459E+01  0.93908810296E+01  0.51100000000E-03 0. -1.
        -11    1    4    4    0    0 -0.62085915272E+00 -0.15185560408E+01  0.85057417144E+01  0.86625123901E+01  0.51100000000E-03 0.  1.
         12    1    4    4    0    0 -0.19305881003E+02 -0.30794299628E+01 -0.30602001317E+02  0.36313667053E+02  0.00000000000E+00 0. -1.
</event>
<event>
 8    1  0.2511738E-006  0.9118800E+02  0.7816164E-02  0.1184000E+00
        -11   -1    0    0    0    0  0.00000000000E+00  0.00000000000E+00  0.45593999997E+02  0.45594000000E+02  0.51100000000E-03 0.  1.
         11   -1    0    0    0    0 -0.00000000000E+00 -0.00000000000E+00 -0.45593999997E+02  0.45594000000E+02  0.51100000000E-03 0. -1.
         23    2    1    2    0    0  0.17763568394E-14  0.00000000000E+00  0.00000000000E+00  0.91188000000E+02  0.91188000000E+02 0.  0.
    9900012    2    3    3    0    0 -0.84929843074E+01  0.12684086017E+02  0.33507659712E+02  0.54367080947E+02  0.39999992634E+02 0.  0.
         12    1    3    3    0    0  0.84929843074E+01 -0.12684086017E+02 -0.33507659712E+02  0.36820919053E+02  0.00000000000E+00 0. -1.
         11    1    4    4    0    0  0.22482738167E+01  0.12847049965E+02  0.12901458306E+02  0.18345273359E+02  0.51100000000E-03 0. -1.
        -11    1    4    4    0    0 -0.19429486080E+02 -0.31790512114E+01  0.10337737980E+02  0.22236909019E+02  0.51100000000E-03 0.  1.
         12    1    4    4    0    0  0.86882279555E+01  0.30160872629E+01  0.10268463427E+02  0.13784898568E+02  0.00000000000E+00 0. -1.
</event>
<event>
 8    1  0.2511738E-006  0.9118800E+02  0.7816164E-02  0.1184000E+00
        -11   -1    0    0    0    0  0.00000000000E+00  0.00000000000E+00  0.45593999997E+02  0.45594000000E+02  0.51100000000E-03 0.  1.
         11   -1    0    0    0    0 -0.00000000000E+00 -0.00000000000E+00 -0.45593999997E+02  0.45594000000E+02  0.51100000000E-03 0. -1.
         23    2    1    2    0    0  0.00000000000E+00  0.00000000000E+00 -0.17763568394E-14  0.91188000000E+02  0.91188000000E+02 0.  0.
    9900012    2    3    3    0    0 -0.22969741160E+02 -0.25327484856E+02  0.13663479437E+02  0.54367066165E+02  0.39999958937E+02 0.  0.
         12    1    3    3    0    0  0.22969741160E+02  0.25327484856E+02 -0.13663479437E+02  0.36820933835E+02  0.00000000000E+00 0. -1.
         11    1    4    4    0    0 -0.10709284738E+02 -0.89978012423E+01 -0.92033232028E+01  0.16743666415E+02  0.51100000000E-03 0. -1.
        -11    1    4    4    0    0 -0.10982272513E+02  0.32559531608E-01  0.21455265426E+01  0.11189935392E+02  0.51100000000E-03 0.  1.
         12    1    4    4    0    0 -0.12781839096E+01 -0.16362243145E+02  0.20721276098E+02  0.26433464358E+02  0.00000000000E+00 0. -1.
</event>
<event>
 8    1  0.2511738E-006  0.9118800E+02  0.7816164E-02  0.1184000E+00
        -11   -1    0    0    0    0  0.00000000000E+00  0.00000000000E+00  0.45593999997E+02  0.45594000000E+02  0.51100000000E-03 0.  1.
         11   -1    0    0    0    0 -0.00000000000E+00 -0.00000000000E+00 -0.45593999997E+02  0.45594000000E+02  0.51100000000E-03 0. -1.
         23    2    1    2    0    0 -0.13322676296E-14 -0.71054273576E-14 -0.17763568394E-14  0.91188000000E+02  0.91188000000E+02 0.  0.
    9900012    2    3    3    0    0  0.25824015058E+01 -0.35336925643E+02  0.10020643823E+02  0.54367076410E+02  0.39999982291E+02 0.  0.
         12    1    3    3    0    0 -0.25824015058E+01  0.35336925643E+02 -0.10020643823E+02  0.36820923590E+02  0.00000000000E+00 0. -1.
         11    1    4    4    0    0 -0.62906017345E+01 -0.84334299588E+01 -0.99396175760E+01  0.14473783502E+02  0.51100000000E-03 0. -1.
        -11    1    4    4    0    0  0.84022019747E+01 -0.91221617617E+01  0.18193090077E+02  0.22018159778E+02  0.51100000000E-03 0.  1.
        -12    1    4    4    0    0  0.47080126561E+00 -0.17781333922E+02  0.17671713222E+01  0.17875133129E+02  0.00000000000E+00 0.  1.
</event>
<event>
 8    1  0.2511738E-006  0.9118800E+02  0.7816164E-02  0.1184000E+00
        -11   -1    0    0    0    0  0.00000000000E+00  0.00000000000E+00  0.45593999997E+02  0.45594000000E+02  0.51100000000E-03 0. -1.
         11   -1    0    0    0    0 -0.00000000000E+00 -0.00000000000E+00 -0.45593999997E+02  0.45594000000E+02  0.51100000000E-03 0.  1.
         23    2    1    2    0    0  0.00000000000E+00  0.00000000000E+00  0.55511151231E-15  0.91188000000E+02  0.91188000000E+02 0.  0.
    9900012    2    3    3    0    0  0.32678591881E+02  0.16950314976E+02  0.75936338807E+00  0.54367079617E+02  0.39999989602E+02 0.  0.
         12    1    3    3    0    0 -0.32678591881E+02 -0.16950314976E+02 -0.75936338807E+00  0.36820920383E+02  0.00000000000E+00 0. -1.
         11    1    4    4    0    0  0.41482703915E+01  0.65072611633E+01  0.43054411937E+01  0.88368217829E+01  0.51100000000E-03 0. -1.
        -11    1    4    4    0    0  0.21305893444E+02  0.10873776517E+02 -0.17616769836E+02  0.29707418112E+02  0.51100000000E-03 0.  1.
         12    1    4    4    0    0  0.72244280458E+01 -0.43072270489E+00  0.14070692030E+02  0.15822839721E+02  0.00000000000E+00 0. -1.
</event>
<event>
 8    1  0.2511738E-006  0.9118800E+02  0.7816164E-02  0.1184000E+00
        -11   -1    0    0    0    0  0.00000000000E+00  0.00000000000E+00  0.45593999997E+02  0.45594000000E+02  0.51100000000E-03 0.  1.
         11   -1    0    0    0    0 -0.00000000000E+00 -0.00000000000E+00 -0.45593999997E+02  0.45594000000E+02  0.51100000000E-03 0. -1.
         23    2    1    2    0    0  0.00000000000E+00  0.00000000000E+00  0.00000000000E+00  0.91188000000E+02  0.91188000000E+02 0.  0.
    9900012    2    3    3    0    0 -0.19008532618E+02 -0.20344258292E+02 -0.24094958801E+02  0.54367079352E+02  0.39999988998E+02 0.  0.
        -12    1    3    3    0    0  0.19008532618E+02  0.20344258292E+02  0.24094958801E+02  0.36820920648E+02  0.00000000000E+00 0.  1.
         11    1    4    4    0    0 -0.23209469178E+02 -0.18502690053E+02 -0.71221364225E+01  0.30524642933E+02  0.51100000000E-03 0. -1.
        -11    1    4    4    0    0  0.88066376611E+01  0.18342668327E+01 -0.45235427580E+01  0.10068954318E+02  0.51100000000E-03 0.  1.
         12    1    4    4    0    0 -0.46057011015E+01 -0.36758350713E+01 -0.12449279621E+02  0.13773482101E+02  0.00000000000E+00 0. -1.
</event>
<event>
 8    1  0.2511738E-006  0.9118800E+02  0.7816164E-02  0.1184000E+00
        -11   -1    0    0    0    0  0.00000000000E+00  0.00000000000E+00  0.45593999997E+02  0.45594000000E+02  0.51100000000E-03 0.  1.
         11   -1    0    0    0    0 -0.00000000000E+00 -0.00000000000E+00 -0.45593999997E+02  0.45594000000E+02  0.51100000000E-03 0. -1.
         23    2    1    2    0    0  0.00000000000E+00  0.00000000000E+00  0.00000000000E+00  0.91188000000E+02  0.91188000000E+02 0.  0.
    9900012    2    3    3    0    0  0.85271044245E+01  0.17346374476E+02 -0.31339626778E+02  0.54367076276E+02  0.39999981985E+02 0.  0.
        -12    1    3    3    0    0 -0.85271044245E+01 -0.17346374476E+02  0.31339626778E+02  0.36820923724E+02  0.00000000000E+00 0.  1.
         11    1    4    4    0    0  0.46120804135E+01  0.26578049839E+02 -0.22864956304E+02  0.35361988718E+02  0.51100000000E-03 0. -1.
        -11    1    4    4    0    0  0.62607777356E+01  0.36052497857E+00 -0.46165485431E+00  0.62881190813E+01  0.51100000000E-03 0.  1.
         12    1    4    4    0    0 -0.23457537246E+01 -0.95922003413E+01 -0.80130156192E+01  0.12716968477E+02  0.00000000000E+00 0. -1.
</event>
<event>
 8    1  0.2511738E-006  0.9118800E+02  0.7816164E-02  0.1184000E+00
        -11   -1    0    0    0    0  0.00000000000E+00  0.00000000000E+00  0.45593999997E+02  0.45594000000E+02  0.51100000000E-03 0.  1.
         11   -1    0    0    0    0 -0.00000000000E+00 -0.00000000000E+00 -0.45593999997E+02  0.45594000000E+02  0.51100000000E-03 0. -1.
         23    2    1    2    0    0 -0.35527136788E-14  0.00000000000E+00  0.88817841970E-15  0.91188000000E+02  0.91188000000E+02 0.  0.
    9900012    2    3    3    0    0  0.26812019609E+02 -0.24909390721E+02  0.40519289630E+01  0.54367078367E+02  0.39999986752E+02 0.  0.
         12    1    3    3    0    0 -0.26812019609E+02  0.24909390721E+02 -0.40519289630E+01  0.36820921633E+02  0.00000000000E+00 0. -1.
         11    1    4    4    0    0 -0.17516317126E+01  0.50407060413E+01  0.15973088201E+01  0.55703076019E+01  0.51100000000E-03 0. -1.
        -11    1    4    4    0    0  0.12348094180E+02 -0.25158818238E+02 -0.77115254948E+01  0.29067321699E+02  0.51100000000E-03 0.  1.
         12    1    4    4    0    0  0.16215557142E+02 -0.47912785242E+01  0.10166145638E+02  0.19729449066E+02  0.00000000000E+00 0. -1.
</event>
<event>
 8    1  0.2511738E-006  0.9118800E+02  0.7816164E-02  0.1184000E+00
        -11   -1    0    0    0    0  0.00000000000E+00  0.00000000000E+00  0.45593999997E+02  0.45594000000E+02  0.51100000000E-03 0.  1.
         11   -1    0    0    0    0 -0.00000000000E+00 -0.00000000000E+00 -0.45593999997E+02  0.45594000000E+02  0.51100000000E-03 0. -1.
         23    2    1    2    0    0  0.00000000000E+00  0.17763568394E-14  0.88817841970E-15  0.91188000000E+02  0.91188000000E+02 0.  0.
    9900012    2    3    3    0    0 -0.34041106829E+02 -0.11658279426E+02 -0.78144848401E+01  0.54367100953E+02  0.40000038243E+02 0.  0.
        -12    1    3    3    0    0  0.34041106829E+02  0.11658279426E+02  0.78144848401E+01  0.36820899047E+02  0.00000000000E+00 0.  1.
         11    1    4    4    0    0 -0.11267137419E+01  0.39968858778E+01 -0.60648511308E+01  0.73503061212E+01  0.51100000000E-03 0. -1.
        -11    1    4    4    0    0 -0.68420739092E+01 -0.72108925987E+01  0.12626109951E+02  0.16069523957E+02  0.51100000000E-03 0.  1.
         12    1    4    4    0    0 -0.26072319178E+02 -0.84442727050E+01 -0.14375743660E+02  0.30947270875E+02  0.00000000000E+00 0. -1.
</event>
<event>
 8    1  0.2511738E-006  0.9118800E+02  0.7816164E-02  0.1184000E+00
        -11   -1    0    0    0    0  0.00000000000E+00  0.00000000000E+00  0.45593999997E+02  0.45594000000E+02  0.51100000000E-03 0. -1.
         11   -1    0    0    0    0 -0.00000000000E+00 -0.00000000000E+00 -0.45593999997E+02  0.45594000000E+02  0.51100000000E-03 0.  1.
         23    2    1    2    0    0  0.88817841970E-15  0.35527136788E-14 -0.35527136788E-14  0.91188000000E+02  0.91188000000E+02 0.  0.
    9900012    2    3    3    0    0  0.39137191324E+01  0.25808148887E+02 -0.25969259618E+02  0.54367079431E+02  0.39999989179E+02 0.  0.
         12    1    3    3    0    0 -0.39137191324E+01 -0.25808148887E+02  0.25969259618E+02  0.36820920569E+02  0.00000000000E+00 0. -1.
         11    1    4    4    0    0  0.66488847079E+01  0.43026464058E+01 -0.22005068786E+02  0.23386822924E+02  0.51100000000E-03 0. -1.
        -11    1    4    4    0    0 -0.52710906982E+01  0.10001234991E+02  0.82616787039E+01  0.14002301016E+02  0.51100000000E-03 0.  1.
        -12    1    4    4    0    0  0.25359251226E+01  0.11504267490E+02 -0.12225869536E+02  0.16977955490E+02  0.00000000000E+00 0.  1.
</event>
<event>
 8    1  0.2511738E-006  0.9118800E+02  0.7816164E-02  0.1184000E+00
        -11   -1    0    0    0    0  0.00000000000E+00  0.00000000000E+00  0.45593999997E+02  0.45594000000E+02  0.51100000000E-03 0. -1.
         11   -1    0    0    0    0 -0.00000000000E+00 -0.00000000000E+00 -0.45593999997E+02  0.45594000000E+02  0.51100000000E-03 0.  1.
         23    2    1    2    0    0 -0.71054273576E-14  0.88817841970E-15 -0.44408920985E-15  0.91188000000E+02  0.91188000000E+02 0.  0.
    9900012    2    3    3    0    0 -0.36540972058E+02 -0.40112167813E+01 -0.21088181138E+01  0.54367087289E+02  0.40000007093E+02 0.  0.
         12    1    3    3    0    0  0.36540972058E+02  0.40112167813E+01  0.21088181138E+01  0.36820912711E+02  0.00000000000E+00 0. -1.
         11    1    4    4    0    0 -0.23658216168E+02 -0.12322632697E+02 -0.88369673946E+01  0.28100719952E+02  0.51100000000E-03 0. -1.
        -11    1    4    4    0    0 -0.12975112919E+02 -0.16712139534E+01 -0.17116734885E+01  0.13193799215E+02  0.51100000000E-03 0.  1.
         12    1    4    4    0    0  0.92357028930E-01  0.99826298686E+01  0.84398227694E+01  0.13072568122E+02  0.00000000000E+00 0. -1.
</event>
<event>
 8    1  0.2511738E-006  0.9118800E+02  0.7816164E-02  0.1184000E+00
        -11   -1    0    0    0    0  0.00000000000E+00  0.00000000000E+00  0.45593999997E+02  0.45594000000E+02  0.51100000000E-03 0.  1.
         11   -1    0    0    0    0 -0.00000000000E+00 -0.00000000000E+00 -0.45593999997E+02  0.45594000000E+02  0.51100000000E-03 0. -1.
         23    2    1    2    0    0  0.00000000000E+00  0.00000000000E+00  0.00000000000E+00  0.91188000000E+02  0.91188000000E+02 0.  0.
    9900012    2    3    3    0    0  0.34948141283E+02  0.74576135587E+01  0.88765146837E+01  0.54367067203E+02  0.39999961302E+02 0.  0.
         12    1    3    3    0    0 -0.34948141283E+02 -0.74576135587E+01 -0.88765146837E+01  0.36820932797E+02  0.00000000000E+00 0. -1.
         11    1    4    4    0    0 -0.33115991205E+01  0.14369406614E+01 -0.26576104581E+01  0.44826756303E+01  0.51100000000E-03 0. -1.
        -11    1    4    4    0    0  0.13649606923E+02  0.33647730228E+01 -0.98565924686E+01  0.17169329690E+02  0.51100000000E-03 0.  1.
        -12    1    4    4    0    0  0.24610133481E+02  0.26558998745E+01  0.21390717610E+02  0.32715061883E+02  0.00000000000E+00 0.  1.
</event>
<event>
 8    1  0.2511738E-006  0.9118800E+02  0.7816164E-02  0.1184000E+00
        -11   -1    0    0    0    0  0.00000000000E+00  0.00000000000E+00  0.45593999997E+02  0.45594000000E+02  0.51100000000E-03 0.  1.
         11   -1    0    0    0    0 -0.00000000000E+00 -0.00000000000E+00 -0.45593999997E+02  0.45594000000E+02  0.51100000000E-03 0. -1.
         23    2    1    2    0    0 -0.35527136788E-14  0.00000000000E+00  0.00000000000E+00  0.91188000000E+02  0.91188000000E+02 0.  0.
    9900012    2    3    3    0    0 -0.13615540029E+02  0.99258039486E+01  0.32739527570E+02  0.54367066011E+02  0.39999958586E+02 0.  0.
         12    1    3    3    0    0  0.13615540029E+02 -0.99258039486E+01 -0.32739527570E+02  0.36820933989E+02  0.00000000000E+00 0. -1.
         11    1    4    4    0    0  0.35997377779E+01  0.42920626370E+01 -0.48833109659E+01  0.74314628439E+01  0.51100000000E-03 0. -1.
        -11    1    4    4    0    0  0.36647950969E+01  0.55249892592E+01  0.13435261507E+02  0.14982072001E+02  0.51100000000E-03 0.  1.
         12    1    4    4    0    0 -0.20880072904E+02  0.10875205230E+00  0.24187577028E+02  0.31953531166E+02  0.00000000000E+00 0. -1.
</event>
<event>
 8    1  0.2511738E-006  0.9118800E+02  0.7816164E-02  0.1184000E+00
        -11   -1    0    0    0    0  0.00000000000E+00  0.00000000000E+00  0.45593999997E+02  0.45594000000E+02  0.51100000000E-03 0. -1.
         11   -1    0    0    0    0 -0.00000000000E+00 -0.00000000000E+00 -0.45593999997E+02  0.45594000000E+02  0.51100000000E-03 0.  1.
         23    2    1    2    0    0  0.00000000000E+00 -0.35527136788E-14  0.35527136788E-14  0.91188000000E+02  0.91188000000E+02 0.  0.
    9900012    2    3    3    0    0  0.57470936162E+01  0.31475111962E+02  0.18222743511E+02  0.54367080143E+02  0.39999990801E+02 0.  0.
        -12    1    3    3    0    0 -0.57470936162E+01 -0.31475111962E+02 -0.18222743511E+02  0.36820919857E+02  0.00000000000E+00 0.  1.
         11    1    4    4    0    0  0.37451168738E+01 -0.55810095362E+01 -0.97869337541E+00  0.67920106615E+01  0.51100000000E-03 0. -1.
        -11    1    4    4    0    0 -0.13831526567E+01 -0.28627505178E+01  0.29663648207E+01  0.43483068325E+01  0.51100000000E-03 0.  1.
         12    1    4    4    0    0  0.33851293991E+01  0.39918872016E+02  0.16235072066E+02  0.43226762649E+02  0.00000000000E+00 0. -1.
</event>
<event>
 8    1  0.2511738E-006  0.9118800E+02  0.7816164E-02  0.1184000E+00
        -11   -1    0    0    0    0  0.00000000000E+00  0.00000000000E+00  0.45593999997E+02  0.45594000000E+02  0.51100000000E-03 0.  1.
         11   -1    0    0    0    0 -0.00000000000E+00 -0.00000000000E+00 -0.45593999997E+02  0.45594000000E+02  0.51100000000E-03 0. -1.
         23    2    1    2    0    0 -0.41980308119E-15 -0.71054273576E-14  0.44408920985E-15  0.91188000000E+02  0.91188000000E+02 0.  0.
    9900012    2    3    3    0    0  0.20452138674E-01  0.36607920174E+02  0.39545598066E+01  0.54367098585E+02  0.40000032843E+02 0.  0.
         12    1    3    3    0    0 -0.20452138674E-01 -0.36607920174E+02 -0.39545598066E+01  0.36820901415E+02  0.00000000000E+00 0. -1.
         11    1    4    4    0    0  0.17086699515E+01  0.11816478324E+00  0.29278491669E+01  0.33920225419E+01  0.51100000000E-03 0. -1.
        -11    1    4    4    0    0  0.92098759002E+01  0.40615348701E+01 -0.10813785073E+02  0.14773483931E+02  0.51100000000E-03 0.  1.
         12    1    4    4    0    0 -0.10898093713E+02  0.32428220521E+02  0.11840495712E+02  0.36201592112E+02  0.00000000000E+00 0. -1.
</event>
<event>
 8    1  0.2511738E-006  0.9118800E+02  0.7816164E-02  0.1184000E+00
        -11   -1    0    0    0    0  0.00000000000E+00  0.00000000000E+00  0.45593999997E+02  0.45594000000E+02  0.51100000000E-03 0. -1.
         11   -1    0    0    0    0 -0.00000000000E+00 -0.00000000000E+00 -0.45593999997E+02  0.45594000000E+02  0.51100000000E-03 0.  1.
         23    2    1    2    0    0  0.13322676296E-14  0.17763568394E-14  0.00000000000E+00  0.91188000000E+02  0.91188000000E+02 0.  0.
    9900012    2    3    3    0    0 -0.13134194144E+01 -0.75073456259E+01  0.36023533589E+02  0.54367078214E+02  0.39999986405E+02 0.  0.
        -12    1    3    3    0    0  0.13134194144E+01  0.75073456259E+01 -0.36023533589E+02  0.36820921786E+02  0.00000000000E+00 0.  1.
         11    1    4    4    0    0  0.85496296827E+01  0.16120460755E+01  0.23550310294E+01  0.90133807016E+01  0.51100000000E-03 0. -1.
        -11    1    4    4    0    0 -0.14197492279E+02 -0.84188917062E+00  0.47997446513E+01  0.15010500103E+02  0.51100000000E-03 0.  1.
         12    1    4    4    0    0  0.43344431815E+01 -0.82775025308E+01  0.28868757908E+02  0.30343197409E+02  0.00000000000E+00 0. -1.
</event>
<event>
 8    1  0.2511738E-006  0.9118800E+02  0.7816164E-02  0.1184000E+00
        -11   -1    0    0    0    0  0.00000000000E+00  0.00000000000E+00  0.45593999997E+02  0.45594000000E+02  0.51100000000E-03 0.  1.
         11   -1    0    0    0    0 -0.00000000000E+00 -0.00000000000E+00 -0.45593999997E+02  0.45594000000E+02  0.51100000000E-03 0. -1.
         23    2    1    2    0    0 -0.17763568394E-14  0.00000000000E+00  0.00000000000E+00  0.91188000000E+02  0.91188000000E+02 0.  0.
    9900012    2    3    3    0    0 -0.11836386278E+02  0.28470082327E+02 -0.20128364522E+02  0.54366855448E+02  0.39999478561E+02 0.  0.
        -12    1    3    3    0    0  0.11836386278E+02 -0.28470082327E+02  0.20128364522E+02  0.36821144552E+02  0.00000000000E+00 0.  1.
         11    1    4    4    0    0 -0.82610507234E+01  0.28747400540E+01 -0.22432452593E+02  0.24077458733E+02  0.51100000000E-03 0. -1.
        -11    1    4    4    0    0 -0.27379484091E+01  0.39123591663E+01  0.66226281992E+01  0.81646873954E+01  0.51100000000E-03 0.  1.
         12    1    4    4    0    0 -0.83738714586E+00  0.21682983107E+02 -0.43185401277E+01  0.22124709319E+02  0.00000000000E+00 0. -1.
</event>
<event>
 8    1  0.2511738E-006  0.9118800E+02  0.7816164E-02  0.1184000E+00
        -11   -1    0    0    0    0  0.00000000000E+00  0.00000000000E+00  0.45593999997E+02  0.45594000000E+02  0.51100000000E-03 0.  1.
         11   -1    0    0    0    0 -0.00000000000E+00 -0.00000000000E+00 -0.45593999997E+02  0.45594000000E+02  0.51100000000E-03 0. -1.
         23    2    1    2    0    0 -0.35527136788E-14 -0.13322676296E-14  0.00000000000E+00  0.91188000000E+02  0.91188000000E+02 0.  0.
    9900012    2    3    3    0    0  0.30425347626E+02  0.37242575683E+01  0.20401183527E+02  0.54367079833E+02  0.39999990096E+02 0.  0.
         12    1    3    3    0    0 -0.30425347626E+02 -0.37242575683E+01 -0.20401183527E+02  0.36820920167E+02  0.00000000000E+00 0. -1.
         11    1    4    4    0    0  0.18704104233E+02  0.13931190594E+02  0.21878097989E+01  0.23424519173E+02  0.51100000000E-03 0. -1.
        -11    1    4    4    0    0  0.92975329487E+01 -0.11885968940E+02  0.29234940732E+01  0.15370985474E+02  0.51100000000E-03 0.  1.
         12    1    4    4    0    0  0.24237104445E+01  0.16790359146E+01  0.15289879655E+02  0.15571575187E+02  0.00000000000E+00 0. -1.
</event>
<event>
 8    1  0.2511738E-006  0.9118800E+02  0.7816164E-02  0.1184000E+00
        -11   -1    0    0    0    0  0.00000000000E+00  0.00000000000E+00  0.45593999997E+02  0.45594000000E+02  0.51100000000E-03 0.  1.
         11   -1    0    0    0    0 -0.00000000000E+00 -0.00000000000E+00 -0.45593999997E+02  0.45594000000E+02  0.51100000000E-03 0. -1.
         23    2    1    2    0    0  0.00000000000E+00  0.35527136788E-14  0.00000000000E+00  0.91188000000E+02  0.91188000000E+02 0.  0.
    9900012    2    3    3    0    0  0.30018250868E+02  0.18519161113E+02  0.10570449524E+02  0.54366958235E+02  0.39999712888E+02 0.  0.
        -12    1    3    3    0    0 -0.30018250868E+02 -0.18519161113E+02 -0.10570449524E+02  0.36821041765E+02  0.00000000000E+00 0.  1.
         11    1    4    4    0    0  0.35556074776E+01  0.42079726686E+01 -0.64513769561E+01  0.84834924062E+01  0.51100000000E-03 0. -1.
        -11    1    4    4    0    0  0.78812504534E+01 -0.83842973044E+01  0.11042848907E+02  0.15948512853E+02  0.51100000000E-03 0.  1.
         12    1    4    4    0    0  0.18581392937E+02  0.22695485749E+02  0.59789775739E+01  0.29934952976E+02  0.00000000000E+00 0. -1.
</event>
<event>
 8    1  0.2511738E-006  0.9118800E+02  0.7816164E-02  0.1184000E+00
        -11   -1    0    0    0    0  0.00000000000E+00  0.00000000000E+00  0.45593999997E+02  0.45594000000E+02  0.51100000000E-03 0. -1.
         11   -1    0    0    0    0 -0.00000000000E+00 -0.00000000000E+00 -0.45593999997E+02  0.45594000000E+02  0.51100000000E-03 0.  1.
         23    2    1    2    0    0  0.00000000000E+00  0.00000000000E+00  0.00000000000E+00  0.91188000000E+02  0.91188000000E+02 0.  0.
    9900012    2    3    3    0    0  0.30216960206E+02 -0.14883432893E+02  0.14872723726E+02  0.54367093305E+02  0.40000020808E+02 0.  0.
        -12    1    3    3    0    0 -0.30216960206E+02  0.14883432893E+02 -0.14872723726E+02  0.36820906695E+02  0.00000000000E+00 0.  1.
         11    1    4    4    0    0  0.80994614425E+01  0.40600047207E+00  0.43183293037E+01  0.91877135501E+01  0.51100000000E-03 0. -1.
        -11    1    4    4    0    0  0.16689942269E+02 -0.24741963730E+01  0.21602068708E+02  0.27410311807E+02  0.51100000000E-03 0.  1.
        -12    1    4    4    0    0  0.54275564949E+01 -0.12815236992E+02 -0.11047674285E+02  0.17769067949E+02  0.00000000000E+00 0.  1.
</event>
<event>
 8    1  0.2511738E-006  0.9118800E+02  0.7816164E-02  0.1184000E+00
        -11   -1    0    0    0    0  0.00000000000E+00  0.00000000000E+00  0.45593999997E+02  0.45594000000E+02  0.51100000000E-03 0.  1.
         11   -1    0    0    0    0 -0.00000000000E+00 -0.00000000000E+00 -0.45593999997E+02  0.45594000000E+02  0.51100000000E-03 0. -1.
         23    2    1    2    0    0  0.00000000000E+00  0.00000000000E+00  0.00000000000E+00  0.91188000000E+02  0.91188000000E+02 0.  0.
    9900012    2    3    3    0    0  0.27425535651E+02 -0.82971511859E+01 -0.23125257363E+02  0.54367078615E+02  0.39999987319E+02 0.  0.
        -12    1    3    3    0    0 -0.27425535651E+02  0.82971511859E+01  0.23125257363E+02  0.36820921385E+02  0.00000000000E+00 0.  1.
         11    1    4    4    0    0  0.17153428283E+01 -0.14479252465E+02 -0.76571607632E+01  0.16468857404E+02  0.51100000000E-03 0. -1.
        -11    1    4    4    0    0  0.60553400200E+01  0.49572019830E+01 -0.16412383733E+02  0.18182610767E+02  0.51100000000E-03 0.  1.
         12    1    4    4    0    0  0.19654852803E+02  0.12248992965E+01  0.94428713313E+00  0.19715610444E+02  0.00000000000E+00 0. -1.
</event>
<event>
 8    1  0.2511738E-006  0.9118800E+02  0.7816164E-02  0.1184000E+00
        -11   -1    0    0    0    0  0.00000000000E+00  0.00000000000E+00  0.45593999997E+02  0.45594000000E+02  0.51100000000E-03 0.  1.
         11   -1    0    0    0    0 -0.00000000000E+00 -0.00000000000E+00 -0.45593999997E+02  0.45594000000E+02  0.51100000000E-03 0. -1.
         23    2    1    2    0    0  0.00000000000E+00  0.17763568394E-14  0.00000000000E+00  0.91188000000E+02  0.91188000000E+02 0.  0.
    9900012    2    3    3    0    0 -0.34299508590E+02  0.12533064372E+02  0.47167712992E+01  0.54367055912E+02  0.39999935562E+02 0.  0.
         12    1    3    3    0    0  0.34299508590E+02 -0.12533064372E+02 -0.47167712992E+01  0.36820944088E+02  0.00000000000E+00 0. -1.
         11    1    4    4    0    0 -0.74437711807E+01  0.12921352105E+01 -0.15817124211E+02  0.17528855107E+02  0.51100000000E-03 0. -1.
        -11    1    4    4    0    0 -0.15698455149E+02  0.10429599542E+02  0.16160386083E+02  0.24826923275E+02  0.51100000000E-03 0.  1.
         12    1    4    4    0    0 -0.11157282260E+02  0.81132962027E+00  0.43735094274E+01  0.12011277529E+02  0.00000000000E+00 0. -1.
</event>
<event>
 8    1  0.2511738E-006  0.9118800E+02  0.7816164E-02  0.1184000E+00
        -11   -1    0    0    0    0  0.00000000000E+00  0.00000000000E+00  0.45593999997E+02  0.45594000000E+02  0.51100000000E-03 0.  1.
         11   -1    0    0    0    0 -0.00000000000E+00 -0.00000000000E+00 -0.45593999997E+02  0.45594000000E+02  0.51100000000E-03 0. -1.
         23    2    1    2    0    0  0.88817841970E-15 -0.35527136788E-14  0.71054273576E-14  0.91188000000E+02  0.91188000000E+02 0.  0.
    9900012    2    3    3    0    0  0.73024535043E+01 -0.14317157445E+02  0.33128137369E+02  0.54367077822E+02  0.39999985511E+02 0.  0.
         12    1    3    3    0    0 -0.73024535043E+01  0.14317157445E+02 -0.33128137369E+02  0.36820922178E+02  0.00000000000E+00 0. -1.
         11    1    4    4    0    0 -0.13969800239E+01 -0.76128511431E+01  0.87950116234E+01  0.11715770800E+02  0.51100000000E-03 0.  1.
        -11    1    4    4    0    0 -0.77393477307E+01  0.30312171509E+01  0.21859629508E+02  0.23386517124E+02  0.51100000000E-03 0. -1.
        -12    1    4    4    0    0  0.16438781259E+02 -0.97355234532E+01  0.24734962378E+01  0.19264789898E+02  0.00000000000E+00 0.  1.
</event>
<event>
 8    1  0.2511738E-006  0.9118800E+02  0.7816164E-02  0.1184000E+00
        -11   -1    0    0    0    0  0.00000000000E+00  0.00000000000E+00  0.45593999997E+02  0.45594000000E+02  0.51100000000E-03 0.  1.
         11   -1    0    0    0    0 -0.00000000000E+00 -0.00000000000E+00 -0.45593999997E+02  0.45594000000E+02  0.51100000000E-03 0. -1.
         23    2    1    2    0    0 -0.35527136788E-14  0.00000000000E+00  0.00000000000E+00  0.91188000000E+02  0.91188000000E+02 0.  0.
    9900012    2    3    3    0    0  0.19695810505E+02  0.29713171552E+02 -0.92186175623E+01  0.54367076262E+02  0.39999981955E+02 0.  0.
        -12    1    3    3    0    0 -0.19695810505E+02 -0.29713171552E+02  0.92186175623E+01  0.36820923738E+02  0.00000000000E+00 0.  1.
         11    1    4    4    0    0 -0.70961476821E+01  0.12171160664E+02  0.17046696771E+01  0.14191489098E+02  0.51100000000E-03 0.  1.
        -11    1    4    4    0    0  0.55089712700E+01  0.16258230363E+02 -0.29833326893E+01  0.17423521262E+02  0.51100000000E-03 0. -1.
        -12    1    4    4    0    0  0.21282986917E+02  0.12837805252E+01 -0.79399545501E+01  0.22752065902E+02  0.00000000000E+00 0.  1.
</event>
<event>
 8    1  0.2511738E-006  0.9118800E+02  0.7816164E-02  0.1184000E+00
        -11   -1    0    0    0    0  0.00000000000E+00  0.00000000000E+00  0.45593999997E+02  0.45594000000E+02  0.51100000000E-03 0.  1.
         11   -1    0    0    0    0 -0.00000000000E+00 -0.00000000000E+00 -0.45593999997E+02  0.45594000000E+02  0.51100000000E-03 0. -1.
         23    2    1    2    0    0  0.35527136788E-14  0.17763568394E-14  0.35527136788E-14  0.91188000000E+02  0.91188000000E+02 0.  0.
    9900012    2    3    3    0    0 -0.28722110853E+02 -0.40605892157E+01  0.22678910753E+02  0.54367068051E+02  0.39999963237E+02 0.  0.
         12    1    3    3    0    0  0.28722110853E+02  0.40605892157E+01 -0.22678910753E+02  0.36820931949E+02  0.00000000000E+00 0. -1.
         11    1    4    4    0    0 -0.43215722612E+01  0.24216406898E+01  0.18131394323E+02  0.18795951447E+02  0.51100000000E-03 0. -1.
        -11    1    4    4    0    0 -0.49526115884E+01  0.36405937036E+01  0.11099925581E+02  0.12688208393E+02  0.51100000000E-03 0.  1.
        -12    1    4    4    0    0 -0.19447927003E+02 -0.10122823609E+02 -0.65524091508E+01  0.22882908211E+02  0.00000000000E+00 0.  1.
</event>
<event>
 8    1  0.2511738E-006  0.9118800E+02  0.7816164E-02  0.1184000E+00
        -11   -1    0    0    0    0  0.00000000000E+00  0.00000000000E+00  0.45593999997E+02  0.45594000000E+02  0.51100000000E-03 0.  1.
         11   -1    0    0    0    0 -0.00000000000E+00 -0.00000000000E+00 -0.45593999997E+02  0.45594000000E+02  0.51100000000E-03 0. -1.
         23    2    1    2    0    0  0.00000000000E+00 -0.35527136788E-14 -0.35527136788E-14  0.91188000000E+02  0.91188000000E+02 0.  0.
    9900012    2    3    3    0    0  0.13625152610E+02 -0.18852385127E+02  0.28543371825E+02  0.54367064600E+02  0.39999955368E+02 0.  0.
         12    1    3    3    0    0 -0.13625152610E+02  0.18852385127E+02 -0.28543371825E+02  0.36820935400E+02  0.00000000000E+00 0. -1.
         11    1    4    4    0    0 -0.37460311390E+01  0.20190653568E+01 -0.40698355176E+01  0.58883729171E+01  0.51100000000E-03 0. -1.
        -11    1    4    4    0    0  0.61771514676E+01  0.36240760477E+01  0.14046556474E+02  0.15766955207E+02  0.51100000000E-03 0.  1.
         12    1    4    4    0    0  0.11194032281E+02 -0.24495526532E+02  0.18566650868E+02  0.32711736476E+02  0.00000000000E+00 0. -1.
</event>
<event>
 8    1  0.2511738E-006  0.9118800E+02  0.7816164E-02  0.1184000E+00
        -11   -1    0    0    0    0  0.00000000000E+00  0.00000000000E+00  0.45593999997E+02  0.45594000000E+02  0.51100000000E-03 0. -1.
         11   -1    0    0    0    0 -0.00000000000E+00 -0.00000000000E+00 -0.45593999997E+02  0.45594000000E+02  0.51100000000E-03 0.  1.
         23    2    1    2    0    0  0.00000000000E+00  0.53290705182E-14  0.71054273576E-14  0.91188000000E+02  0.91188000000E+02 0.  0.
    9900012    2    3    3    0    0  0.44297472485E+01 -0.15213707812E+02 -0.33237009549E+02  0.54367104169E+02  0.40000045574E+02 0.  0.
         12    1    3    3    0    0 -0.44297472485E+01  0.15213707812E+02  0.33237009549E+02  0.36820895831E+02  0.00000000000E+00 0. -1.
         11    1    4    4    0    0  0.12551373534E+01  0.23172909873E+01 -0.11465041785E+02  0.11764029526E+02  0.51100000000E-03 0. -1.
        -11    1    4    4    0    0  0.13178233164E+01  0.18857264432E+01 -0.22947355905E+02  0.23062388554E+02  0.51100000000E-03 0.  1.
         12    1    4    4    0    0  0.18567865786E+01 -0.19416725242E+02  0.11753881416E+01  0.19540686089E+02  0.00000000000E+00 0. -1.
</event>
<event>
 8    1  0.2511738E-006  0.9118800E+02  0.7816164E-02  0.1184000E+00
        -11   -1    0    0    0    0  0.00000000000E+00  0.00000000000E+00  0.45593999997E+02  0.45594000000E+02  0.51100000000E-03 0.  1.
         11   -1    0    0    0    0 -0.00000000000E+00 -0.00000000000E+00 -0.45593999997E+02  0.45594000000E+02  0.51100000000E-03 0. -1.
         23    2    1    2    0    0  0.71054273576E-14  0.00000000000E+00 -0.17763568394E-14  0.91188000000E+02  0.91188000000E+02 0.  0.
    9900012    2    3    3    0    0 -0.35257208082E+02 -0.52317319326E+01  0.92376929608E+01  0.54367126681E+02  0.40000096894E+02 0.  0.
        -12    1    3    3    0    0  0.35257208082E+02  0.52317319326E+01 -0.92376929608E+01  0.36820873319E+02  0.00000000000E+00 0.  1.
         11    1    4    4    0    0 -0.17737468399E+02 -0.14428414494E+01 -0.14429889370E+02  0.22911160690E+02  0.51100000000E-03 0. -1.
        -11    1    4    4    0    0 -0.64342469670E+00  0.24858592925E+01  0.43284083033E+01  0.50327537654E+01  0.51100000000E-03 0.  1.
         12    1    4    4    0    0 -0.16876314986E+02 -0.62747497757E+01  0.19339174027E+02  0.26423212226E+02  0.00000000000E+00 0. -1.
</event>
<event>
 8    1  0.2511738E-006  0.9118800E+02  0.7816164E-02  0.1184000E+00
        -11   -1    0    0    0    0  0.00000000000E+00  0.00000000000E+00  0.45593999997E+02  0.45594000000E+02  0.51100000000E-03 0. -1.
         11   -1    0    0    0    0 -0.00000000000E+00 -0.00000000000E+00 -0.45593999997E+02  0.45594000000E+02  0.51100000000E-03 0.  1.
         23    2    1    2    0    0 -0.17763568394E-14  0.35527136788E-14  0.35527136788E-14  0.91188000000E+02  0.91188000000E+02 0.  0.
    9900012    2    3    3    0    0 -0.12518164331E+02 -0.20610969180E+02  0.27825580826E+02  0.54367089676E+02  0.40000012535E+02 0.  0.
        -12    1    3    3    0    0  0.12518164331E+02  0.20610969180E+02 -0.27825580826E+02  0.36820910324E+02  0.00000000000E+00 0.  1.
         11    1    4    4    0    0 -0.96889724449E+01 -0.71740294718E+01  0.29075897034E+02  0.31476192186E+02  0.51100000000E-03 0. -1.
        -11    1    4    4    0    0  0.14269613878E+01 -0.13121937668E+02  0.59833143201E+01  0.14492119151E+02  0.51100000000E-03 0.  1.
        -12    1    4    4    0    0 -0.42561532741E+01 -0.31500203952E+00 -0.72336305284E+01  0.83987783396E+01  0.00000000000E+00 0.  1.
</event>
<event>
 8    1  0.2511738E-006  0.9118800E+02  0.7816164E-02  0.1184000E+00
        -11   -1    0    0    0    0  0.00000000000E+00  0.00000000000E+00  0.45593999997E+02  0.45594000000E+02  0.51100000000E-03 0. -1.
         11   -1    0    0    0    0 -0.00000000000E+00 -0.00000000000E+00 -0.45593999997E+02  0.45594000000E+02  0.51100000000E-03 0.  1.
         23    2    1    2    0    0  0.44408920985E-15  0.00000000000E+00  0.13322676296E-14  0.91188000000E+02  0.91188000000E+02 0.  0.
    9900012    2    3    3    0    0 -0.21927793241E+01  0.36749812601E+02  0.64997600736E+00  0.54367089145E+02  0.40000011325E+02 0.  0.
         12    1    3    3    0    0  0.21927793241E+01 -0.36749812601E+02 -0.64997600736E+00  0.36820910855E+02  0.00000000000E+00 0. -1.
         11    1    4    4    0    0 -0.13005659461E+02  0.86893013891E+01  0.12830298709E+02  0.20230365836E+02  0.51100000000E-03 0. -1.
        -11    1    4    4    0    0  0.43656090213E+01  0.22365337978E+02 -0.60606815468E+01  0.23579625656E+02  0.51100000000E-03 0.  1.
        -12    1    4    4    0    0  0.64472711157E+01  0.56951732333E+01 -0.61196411546E+01  0.10557097653E+02  0.00000000000E+00 0.  1.
</event>
<event>
 8    1  0.2511738E-006  0.9118800E+02  0.7816164E-02  0.1184000E+00
        -11   -1    0    0    0    0  0.00000000000E+00  0.00000000000E+00  0.45593999997E+02  0.45594000000E+02  0.51100000000E-03 0.  1.
         11   -1    0    0    0    0 -0.00000000000E+00 -0.00000000000E+00 -0.45593999997E+02  0.45594000000E+02  0.51100000000E-03 0. -1.
         23    2    1    2    0    0 -0.22204460493E-14  0.35527136788E-14  0.00000000000E+00  0.91188000000E+02  0.91188000000E+02 0.  0.
    9900012    2    3    3    0    0 -0.36340845255E+01  0.23652858088E+02 -0.27984199839E+02  0.54367086015E+02  0.40000004188E+02 0.  0.
        -12    1    3    3    0    0  0.36340845255E+01 -0.23652858088E+02  0.27984199839E+02  0.36820913985E+02  0.00000000000E+00 0.  1.
         11    1    4    4    0    0 -0.22420386033E+01  0.12022264548E+02 -0.17231903552E+02  0.21130548556E+02  0.51100000000E-03 0. -1.
        -11    1    4    4    0    0 -0.14704445266E+02  0.86165256575E+01 -0.23395799852E+01  0.17202873590E+02  0.51100000000E-03 0.  1.
        -12    1    4    4    0    0  0.13312399344E+02  0.30140678816E+01 -0.84127163015E+01  0.16033663869E+02  0.00000000000E+00 0.  1.
</event>
<event>
 8    1  0.2511738E-006  0.9118800E+02  0.7816164E-02  0.1184000E+00
        -11   -1    0    0    0    0  0.00000000000E+00  0.00000000000E+00  0.45593999997E+02  0.45594000000E+02  0.51100000000E-03 0.  1.
         11   -1    0    0    0    0 -0.00000000000E+00 -0.00000000000E+00 -0.45593999997E+02  0.45594000000E+02  0.51100000000E-03 0. -1.
         23    2    1    2    0    0  0.00000000000E+00  0.17763568394E-14 -0.71054273576E-14  0.91188000000E+02  0.91188000000E+02 0.  0.
    9900012    2    3    3    0    0  0.97080102442E+01 -0.14719740975E+02 -0.32324341842E+02  0.54367091364E+02  0.40000016383E+02 0.  0.
        -12    1    3    3    0    0 -0.97080102442E+01  0.14719740975E+02  0.32324341842E+02  0.36820908636E+02  0.00000000000E+00 0.  1.
         11    1    4    4    0    0  0.94721978479E+01 -0.15537980480E+02  0.20266611092E+01  0.18310071681E+02  0.51100000000E-03 0.  1.
        -11    1    4    4    0    0 -0.49781025168E+01  0.96883065334E+00 -0.10746614509E+02  0.11883175551E+02  0.51100000000E-03 0. -1.
        -12    1    4    4    0    0  0.52139149130E+01 -0.15059114891E+00 -0.23604388441E+02  0.24173844132E+02  0.00000000000E+00 0.  1.
</event>
<event>
 8    1  0.2511738E-006  0.9118800E+02  0.7816164E-02  0.1184000E+00
        -11   -1    0    0    0    0  0.00000000000E+00  0.00000000000E+00  0.45593999997E+02  0.45594000000E+02  0.51100000000E-03 0. -1.
         11   -1    0    0    0    0 -0.00000000000E+00 -0.00000000000E+00 -0.45593999997E+02  0.45594000000E+02  0.51100000000E-03 0.  1.
         23    2    1    2    0    0  0.00000000000E+00  0.00000000000E+00  0.00000000000E+00  0.91188000000E+02  0.91188000000E+02 0.  0.
    9900012    2    3    3    0    0  0.29269699937E+02  0.15514759587E+02 -0.16073473404E+02  0.54367086829E+02  0.40000006045E+02 0.  0.
         12    1    3    3    0    0 -0.29269699937E+02 -0.15514759587E+02  0.16073473404E+02  0.36820913171E+02  0.00000000000E+00 0. -1.
         11    1    4    4    0    0  0.10068317554E+02 -0.56303370398E+01 -0.93700366568E+01  0.14861672206E+02  0.51100000000E-03 0. -1.
        -11    1    4    4    0    0  0.92923806944E+01 -0.33484967091E+01 -0.84877936310E+01  0.13023187404E+02  0.51100000000E-03 0.  1.
        -12    1    4    4    0    0  0.99090016889E+01  0.24493593336E+02  0.17843568841E+01  0.26482227219E+02  0.00000000000E+00 0.  1.
</event>
<event>
 8    1  0.2511738E-006  0.9118800E+02  0.7816164E-02  0.1184000E+00
        -11   -1    0    0    0    0  0.00000000000E+00  0.00000000000E+00  0.45593999997E+02  0.45594000000E+02  0.51100000000E-03 0. -1.
         11   -1    0    0    0    0 -0.00000000000E+00 -0.00000000000E+00 -0.45593999997E+02  0.45594000000E+02  0.51100000000E-03 0.  1.
         23    2    1    2    0    0  0.88817841970E-15  0.00000000000E+00  0.00000000000E+00  0.91188000000E+02  0.91188000000E+02 0.  0.
    9900012    2    3    3    0    0  0.57219800678E+01  0.10108862631E+02  0.34940764179E+02  0.54366984791E+02  0.39999773428E+02 0.  0.
        -12    1    3    3    0    0 -0.57219800678E+01 -0.10108862631E+02 -0.34940764179E+02  0.36821015209E+02  0.00000000000E+00 0.  1.
         11    1    4    4    0    0  0.50109125832E+01 -0.31091563853E+01  0.11041084776E+02  0.12517254157E+02  0.51100000000E-03 0. -1.
        -11    1    4    4    0    0 -0.59419694917E+01 -0.90724301655E+01  0.99965321913E+01  0.14749462589E+02  0.51100000000E-03 0.  1.
        -12    1    4    4    0    0  0.66530369763E+01  0.22290449182E+02  0.13903147212E+02  0.27100268045E+02  0.00000000000E+00 0.  1.
</event>
<event>
 8    1  0.2511738E-006  0.9118800E+02  0.7816164E-02  0.1184000E+00
        -11   -1    0    0    0    0  0.00000000000E+00  0.00000000000E+00  0.45593999997E+02  0.45594000000E+02  0.51100000000E-03 0. -1.
         11   -1    0    0    0    0 -0.00000000000E+00 -0.00000000000E+00 -0.45593999997E+02  0.45594000000E+02  0.51100000000E-03 0.  1.
         23    2    1    2    0    0 -0.17763568394E-14  0.00000000000E+00  0.17763568394E-14  0.91188000000E+02  0.91188000000E+02 0.  0.
    9900012    2    3    3    0    0  0.84021276815E+01  0.34730450818E+02 -0.88870299213E+01  0.54367092021E+02  0.40000017880E+02 0.  0.
         12    1    3    3    0    0 -0.84021276815E+01 -0.34730450818E+02  0.88870299213E+01  0.36820907979E+02  0.00000000000E+00 0. -1.
         11    1    4    4    0    0 -0.41538880734E+01 -0.12261328941E+01  0.19593186321E+01  0.47536425784E+01  0.51100000000E-03 0. -1.
        -11    1    4    4    0    0  0.10096455571E+02  0.11340587197E+02 -0.18297602823E+02  0.23777081452E+02  0.51100000000E-03 0.  1.
        -12    1    4    4    0    0  0.24595601836E+01  0.24615996515E+02  0.74512542694E+01  0.25836367990E+02  0.00000000000E+00 0.  1.
</event>
<event>
 8    1  0.2511738E-006  0.9118800E+02  0.7816164E-02  0.1184000E+00
        -11   -1    0    0    0    0  0.00000000000E+00  0.00000000000E+00  0.45593999997E+02  0.45594000000E+02  0.51100000000E-03 0.  1.
         11   -1    0    0    0    0 -0.00000000000E+00 -0.00000000000E+00 -0.45593999997E+02  0.45594000000E+02  0.51100000000E-03 0. -1.
         23    2    1    2    0    0  0.00000000000E+00  0.00000000000E+00  0.35527136788E-14  0.91188000000E+02  0.91188000000E+02 0.  0.
    9900012    2    3    3    0    0  0.16067514690E+02 -0.15946799982E+02 -0.29039862553E+02  0.54367094592E+02  0.40000023741E+02 0.  0.
        -12    1    3    3    0    0 -0.16067514690E+02  0.15946799982E+02  0.29039862553E+02  0.36820905408E+02  0.00000000000E+00 0.  1.
         11    1    4    4    0    0  0.28067786133E+01 -0.15878549922E+02 -0.41850205410E+01  0.16658954079E+02  0.51100000000E-03 0. -1.
        -11    1    4    4    0    0  0.14632307628E+02 -0.88587331142E+01 -0.85243817852E+01  0.19111427576E+02  0.51100000000E-03 0.  1.
         12    1    4    4    0    0 -0.13715715512E+01  0.87904830539E+01 -0.16330460227E+02  0.18596712937E+02  0.00000000000E+00 0. -1.
</event>
<event>
 8    1  0.2511738E-006  0.9118800E+02  0.7816164E-02  0.1184000E+00
        -11   -1    0    0    0    0  0.00000000000E+00  0.00000000000E+00  0.45593999997E+02  0.45594000000E+02  0.51100000000E-03 0.  1.
         11   -1    0    0    0    0 -0.00000000000E+00 -0.00000000000E+00 -0.45593999997E+02  0.45594000000E+02  0.51100000000E-03 0. -1.
         23    2    1    2    0    0  0.00000000000E+00  0.17763568394E-14  0.00000000000E+00  0.91188000000E+02  0.91188000000E+02 0.  0.
    9900012    2    3    3    0    0  0.70817216670E+01 -0.11193791466E+02  0.34355905024E+02  0.54367082587E+02  0.39999996373E+02 0.  0.
         12    1    3    3    0    0 -0.70817216670E+01  0.11193791466E+02 -0.34355905024E+02  0.36820917413E+02  0.00000000000E+00 0. -1.
         11    1    4    4    0    0  0.10798646067E+00  0.11596546588E+02  0.39885940209E+01  0.12263785564E+02  0.51100000000E-03 0. -1.
        -11    1    4    4    0    0  0.53449165594E+01 -0.21879992963E+02  0.16030575756E+02  0.27645643136E+02  0.51100000000E-03 0.  1.
        -12    1    4    4    0    0  0.16288186469E+01 -0.91034509119E+00  0.14336735247E+02  0.14457653887E+02  0.00000000000E+00 0.  1.
</event>
<event>
 8    1  0.2511738E-006  0.9118800E+02  0.7816164E-02  0.1184000E+00
        -11   -1    0    0    0    0  0.00000000000E+00  0.00000000000E+00  0.45593999997E+02  0.45594000000E+02  0.51100000000E-03 0.  1.
         11   -1    0    0    0    0 -0.00000000000E+00 -0.00000000000E+00 -0.45593999997E+02  0.45594000000E+02  0.51100000000E-03 0. -1.
         23    2    1    2    0    0 -0.17763568394E-14  0.17763568394E-14  0.71054273576E-14  0.91188000000E+02  0.91188000000E+02 0.  0.
    9900012    2    3    3    0    0  0.10444904325E+02 -0.97568914958E+01  0.33933574535E+02  0.54367076074E+02  0.39999981527E+02 0.  0.
         12    1    3    3    0    0 -0.10444904325E+02  0.97568914958E+01 -0.33933574535E+02  0.36820923926E+02  0.00000000000E+00 0. -1.
         11    1    4    4    0    0 -0.97519509524E+01  0.60650727049E+00  0.24038942060E+02  0.25948779048E+02  0.51100000000E-03 0. -1.
        -11    1    4    4    0    0  0.11934853689E+02  0.15721657785E+01  0.33526022870E+01  0.12496094596E+02  0.51100000000E-03 0.  1.
        -12    1    4    4    0    0  0.82620015885E+01 -0.11935564545E+02  0.65420301883E+01  0.15922202430E+02  0.00000000000E+00 0.  1.
</event>
<event>
 8    1  0.2511738E-006  0.9118800E+02  0.7816164E-02  0.1184000E+00
        -11   -1    0    0    0    0  0.00000000000E+00  0.00000000000E+00  0.45593999997E+02  0.45594000000E+02  0.51100000000E-03 0.  1.
         11   -1    0    0    0    0 -0.00000000000E+00 -0.00000000000E+00 -0.45593999997E+02  0.45594000000E+02  0.51100000000E-03 0. -1.
         23    2    1    2    0    0  0.10658141036E-13 -0.17763568394E-14  0.00000000000E+00  0.91188000000E+02  0.91188000000E+02 0.  0.
    9900012    2    3    3    0    0 -0.31354437971E+02 -0.13248087483E+02 -0.14041642114E+02  0.54367077745E+02  0.39999985335E+02 0.  0.
        -12    1    3    3    0    0  0.31354437971E+02  0.13248087483E+02  0.14041642114E+02  0.36820922255E+02  0.00000000000E+00 0.  1.
         11    1    4    4    0    0  0.15802307052E+01 -0.96523881988E+01 -0.17285644174E+01  0.99324549951E+01  0.51100000000E-03 0. -1.
        -11    1    4    4    0    0  0.10819648724E+01 -0.79279477856E+01 -0.47969355305E+01  0.93291797508E+01  0.51100000000E-03 0.  1.
        -12    1    4    4    0    0 -0.34016633549E+02  0.43322485011E+01 -0.75161421663E+01  0.35105442999E+02  0.00000000000E+00 0.  1.
</event>
<event>
 8    1  0.2511738E-006  0.9118800E+02  0.7816164E-02  0.1184000E+00
        -11   -1    0    0    0    0  0.00000000000E+00  0.00000000000E+00  0.45593999997E+02  0.45594000000E+02  0.51100000000E-03 0.  1.
         11   -1    0    0    0    0 -0.00000000000E+00 -0.00000000000E+00 -0.45593999997E+02  0.45594000000E+02  0.51100000000E-03 0. -1.
         23    2    1    2    0    0  0.00000000000E+00  0.00000000000E+00  0.00000000000E+00  0.91188000000E+02  0.91188000000E+02 0.  0.
    9900012    2    3    3    0    0  0.14996552817E+02 -0.60617028930E+01 -0.33077746458E+02  0.54367107166E+02  0.40000052406E+02 0.  0.
        -12    1    3    3    0    0 -0.14996552817E+02  0.60617028930E+01  0.33077746458E+02  0.36820892834E+02  0.00000000000E+00 0.  1.
         11    1    4    4    0    0 -0.57748959132E+00  0.40268186973E+01  0.53787028549E+01  0.67438273786E+01  0.51100000000E-03 0. -1.
        -11    1    4    4    0    0  0.17367971833E+01 -0.85656959106E+00  0.26480173410E+01  0.32805749526E+01  0.51100000000E-03 0.  1.
         12    1    4    4    0    0  0.13837245225E+02 -0.92319519992E+01 -0.41104466654E+02  0.44342704835E+02  0.00000000000E+00 0. -1.
</event>
<event>
 8    1  0.2511738E-006  0.9118800E+02  0.7816164E-02  0.1184000E+00
        -11   -1    0    0    0    0  0.00000000000E+00  0.00000000000E+00  0.45593999997E+02  0.45594000000E+02  0.51100000000E-03 0. -1.
         11   -1    0    0    0    0 -0.00000000000E+00 -0.00000000000E+00 -0.45593999997E+02  0.45594000000E+02  0.51100000000E-03 0.  1.
         23    2    1    2    0    0 -0.35527136788E-14  0.00000000000E+00  0.00000000000E+00  0.91188000000E+02  0.91188000000E+02 0.  0.
    9900012    2    3    3    0    0 -0.26578561873E+02  0.21636089957E+02  0.13462457554E+02  0.54367107789E+02  0.40000053826E+02 0.  0.
        -12    1    3    3    0    0  0.26578561873E+02 -0.21636089957E+02 -0.13462457554E+02  0.36820892211E+02  0.00000000000E+00 0.  1.
         11    1    4    4    0    0 -0.16899682512E+02  0.25769596383E+01 -0.22959245956E+01  0.17248514718E+02  0.51100000000E-03 0. -1.
        -11    1    4    4    0    0  0.67398854727E+01  0.63490016764E+01  0.13306144679E+02  0.16210779283E+02  0.51100000000E-03 0.  1.
        -12    1    4    4    0    0 -0.16418764834E+02  0.12710128642E+02  0.24522374702E+01  0.20907813788E+02  0.00000000000E+00 0.  1.
</event>
<event>
 8    1  0.2511738E-006  0.9118800E+02  0.7816164E-02  0.1184000E+00
        -11   -1    0    0    0    0  0.00000000000E+00  0.00000000000E+00  0.45593999997E+02  0.45594000000E+02  0.51100000000E-03 0. -1.
         11   -1    0    0    0    0 -0.00000000000E+00 -0.00000000000E+00 -0.45593999997E+02  0.45594000000E+02  0.51100000000E-03 0.  1.
         23    2    1    2    0    0 -0.22204460493E-15 -0.35527136788E-14  0.00000000000E+00  0.91188000000E+02  0.91188000000E+02 0.  0.
    9900012    2    3    3    0    0 -0.17955776662E+01 -0.17371913313E+02 -0.32415467051E+02  0.54367218158E+02  0.40000305434E+02 0.  0.
         12    1    3    3    0    0  0.17955776662E+01  0.17371913313E+02  0.32415467051E+02  0.36820781842E+02  0.00000000000E+00 0. -1.
         11    1    4    4    0    0 -0.58593993837E+01 -0.62106078735E+01 -0.19220849751E+02  0.21032006008E+02  0.51100000000E-03 0.  1.
        -11    1    4    4    0    0  0.10347533457E+01  0.73190112418E+01  0.35625841289E+01  0.82055253324E+01  0.51100000000E-03 0. -1.
        -12    1    4    4    0    0  0.30290683717E+01 -0.18480316681E+02 -0.16757201429E+02  0.25129686818E+02  0.00000000000E+00 0.  1.
</event>
<event>
 8    1  0.2511738E-006  0.9118800E+02  0.7816164E-02  0.1184000E+00
        -11   -1    0    0    0    0  0.00000000000E+00  0.00000000000E+00  0.45593999997E+02  0.45594000000E+02  0.51100000000E-03 0. -1.
         11   -1    0    0    0    0 -0.00000000000E+00 -0.00000000000E+00 -0.45593999997E+02  0.45594000000E+02  0.51100000000E-03 0.  1.
         23    2    1    2    0    0  0.35527136788E-14  0.17763568394E-14  0.00000000000E+00  0.91188000000E+02  0.91188000000E+02 0.  0.
    9900012    2    3    3    0    0  0.27362924646E+02 -0.74028009707E+00  0.24627322066E+02  0.54367046021E+02  0.39999913014E+02 0.  0.
        -12    1    3    3    0    0 -0.27362924646E+02  0.74028009707E+00 -0.24627322066E+02  0.36820953979E+02  0.00000000000E+00 0.  1.
         11    1    4    4    0    0  0.74486752168E+01 -0.16908413864E+02  0.11693216236E+02  0.21865692948E+02  0.51100000000E-03 0.  1.
        -11    1    4    4    0    0 -0.31730236315E+00  0.48326238292E+01  0.70889546426E+01  0.85853486854E+01  0.51100000000E-03 0. -1.
        -12    1    4    4    0    0  0.20231551792E+02  0.11335509938E+02  0.58451511871E+01  0.23916004388E+02  0.00000000000E+00 0.  1.
</event>
<event>
 8    1  0.2511738E-006  0.9118800E+02  0.7816164E-02  0.1184000E+00
        -11   -1    0    0    0    0  0.00000000000E+00  0.00000000000E+00  0.45593999997E+02  0.45594000000E+02  0.51100000000E-03 0. -1.
         11   -1    0    0    0    0 -0.00000000000E+00 -0.00000000000E+00 -0.45593999997E+02  0.45594000000E+02  0.51100000000E-03 0.  1.
         23    2    1    2    0    0  0.00000000000E+00 -0.35527136788E-14  0.00000000000E+00  0.91188000000E+02  0.91188000000E+02 0.  0.
    9900012    2    3    3    0    0 -0.21128824863E+02 -0.21925396771E+02 -0.20703374501E+02  0.54367082312E+02  0.39999995746E+02 0.  0.
         12    1    3    3    0    0  0.21128824863E+02  0.21925396771E+02  0.20703374501E+02  0.36820917688E+02  0.00000000000E+00 0. -1.
         11    1    4    4    0    0 -0.59613097141E+01 -0.23578202215E+02 -0.16644066142E+02  0.29470218377E+02  0.51100000000E-03 0. -1.
        -11    1    4    4    0    0 -0.54849941826E+00  0.68019226775E+01 -0.62375614479E+01  0.92452245402E+01  0.51100000000E-03 0.  1.
         12    1    4    4    0    0 -0.14619015730E+02 -0.51491172336E+01  0.21782530889E+01  0.15651639394E+02  0.00000000000E+00 0. -1.
</event>
<event>
 8    1  0.2511738E-006  0.9118800E+02  0.7816164E-02  0.1184000E+00
        -11   -1    0    0    0    0  0.00000000000E+00  0.00000000000E+00  0.45593999997E+02  0.45594000000E+02  0.51100000000E-03 0.  1.
         11   -1    0    0    0    0 -0.00000000000E+00 -0.00000000000E+00 -0.45593999997E+02  0.45594000000E+02  0.51100000000E-03 0. -1.
         23    2    1    2    0    0 -0.71054273576E-14 -0.88817841970E-15  0.35527136788E-14  0.91188000000E+02  0.91188000000E+02 0.  0.
    9900012    2    3    3    0    0  0.34336053464E+02 -0.29517483600E+01 -0.12965402599E+02  0.54367094927E+02  0.40000024504E+02 0.  0.
        -12    1    3    3    0    0 -0.34336053464E+02  0.29517483600E+01  0.12965402599E+02  0.36820905073E+02  0.00000000000E+00 0.  1.
         11    1    4    4    0    0  0.70231096670E+01  0.12037628766E+01  0.21266807960E+01  0.74361203545E+01  0.51100000000E-03 0. -1.
        -11    1    4    4    0    0  0.15331982813E+02  0.38979463165E+01  0.94722403438E+01  0.18438736938E+02  0.51100000000E-03 0.  1.
         12    1    4    4    0    0  0.11980960984E+02 -0.80534575531E+01 -0.24564323739E+02  0.28492237634E+02  0.00000000000E+00 0. -1.
</event>
<event>
 8    1  0.2511738E-006  0.9118800E+02  0.7816164E-02  0.1184000E+00
        -11   -1    0    0    0    0  0.00000000000E+00  0.00000000000E+00  0.45593999997E+02  0.45594000000E+02  0.51100000000E-03 0.  1.
         11   -1    0    0    0    0 -0.00000000000E+00 -0.00000000000E+00 -0.45593999997E+02  0.45594000000E+02  0.51100000000E-03 0. -1.
         23    2    1    2    0    0  0.00000000000E+00  0.00000000000E+00 -0.71054273576E-14  0.91188000000E+02  0.91188000000E+02 0.  0.
    9900012    2    3    3    0    0 -0.17674848803E+02 -0.20254492322E+02 -0.25162175287E+02  0.54367084685E+02  0.40000001157E+02 0.  0.
        -12    1    3    3    0    0  0.17674848803E+02  0.20254492322E+02  0.25162175287E+02  0.36820915315E+02  0.00000000000E+00 0.  1.
         11    1    4    4    0    0 -0.12751086715E+02 -0.20036114259E+02 -0.34534512045E+02  0.41912630667E+02  0.51100000000E-03 0. -1.
        -11    1    4    4    0    0 -0.56942258323E+01  0.18516045054E+01  0.66401965311E+01  0.89411888083E+01  0.51100000000E-03 0.  1.
         12    1    4    4    0    0  0.77046374462E+00 -0.20699825688E+01  0.27321402268E+01  0.35132652100E+01  0.00000000000E+00 0. -1.
</event>
<event>
 8    1  0.2511738E-006  0.9118800E+02  0.7816164E-02  0.1184000E+00
        -11   -1    0    0    0    0  0.00000000000E+00  0.00000000000E+00  0.45593999997E+02  0.45594000000E+02  0.51100000000E-03 0. -1.
         11   -1    0    0    0    0 -0.00000000000E+00 -0.00000000000E+00 -0.45593999997E+02  0.45594000000E+02  0.51100000000E-03 0.  1.
         23    2    1    2    0    0  0.00000000000E+00 -0.17763568394E-14  0.00000000000E+00  0.91188000000E+02  0.91188000000E+02 0.  0.
    9900012    2    3    3    0    0  0.20319345572E+02 -0.11776638555E+02 -0.28358704488E+02  0.54367066547E+02  0.39999959807E+02 0.  0.
         12    1    3    3    0    0 -0.20319345572E+02  0.11776638555E+02  0.28358704488E+02  0.36820933453E+02  0.00000000000E+00 0. -1.
         11    1    4    4    0    0  0.66918288705E+01  0.80072584164E+01  0.16650263215E+01  0.10567358889E+02  0.51100000000E-03 0. -1.
        -11    1    4    4    0    0  0.38924403477E+01  0.30714011215E+01 -0.12361172379E+02  0.13318527680E+02  0.51100000000E-03 0.  1.
        -12    1    4    4    0    0  0.97350763536E+01 -0.22855298093E+02 -0.17662558430E+02  0.30481179978E+02  0.00000000000E+00 0.  1.
</event>
<event>
 8    1  0.2511738E-006  0.9118800E+02  0.7816164E-02  0.1184000E+00
        -11   -1    0    0    0    0  0.00000000000E+00  0.00000000000E+00  0.45593999997E+02  0.45594000000E+02  0.51100000000E-03 0. -1.
         11   -1    0    0    0    0 -0.00000000000E+00 -0.00000000000E+00 -0.45593999997E+02  0.45594000000E+02  0.51100000000E-03 0.  1.
         23    2    1    2    0    0  0.00000000000E+00  0.17763568394E-14  0.44408920985E-15  0.91188000000E+02  0.91188000000E+02 0.  0.
    9900012    2    3    3    0    0 -0.35272012409E+02 -0.10296805253E+02  0.23747103011E+01  0.54367105024E+02  0.40000047524E+02 0.  0.
        -12    1    3    3    0    0  0.35272012409E+02  0.10296805253E+02 -0.23747103011E+01  0.36820894976E+02  0.00000000000E+00 0.  1.
         11    1    4    4    0    0  0.26661980171E+01  0.51953309656E+00  0.26392636364E+01  0.37873789497E+01  0.51100000000E-03 0. -1.
        -11    1    4    4    0    0 -0.12020346536E+02 -0.92535263332E+01 -0.14485971494E+02  0.20975219923E+02  0.51100000000E-03 0.  1.
         12    1    4    4    0    0 -0.25917863890E+02 -0.15628120164E+01  0.14221418158E+02  0.29604506152E+02  0.00000000000E+00 0. -1.
</event>
<event>
 8    1  0.2511738E-006  0.9118800E+02  0.7816164E-02  0.1184000E+00
        -11   -1    0    0    0    0  0.00000000000E+00  0.00000000000E+00  0.45593999997E+02  0.45594000000E+02  0.51100000000E-03 0. -1.
         11   -1    0    0    0    0 -0.00000000000E+00 -0.00000000000E+00 -0.45593999997E+02  0.45594000000E+02  0.51100000000E-03 0.  1.
         23    2    1    2    0    0 -0.17763568394E-14 -0.88817841970E-15  0.00000000000E+00  0.91188000000E+02  0.91188000000E+02 0.  0.
    9900012    2    3    3    0    0  0.15462923088E+02 -0.71608127118E+01 -0.32640457810E+02  0.54367099479E+02  0.40000034883E+02 0.  0.
         12    1    3    3    0    0 -0.15462923088E+02  0.71608127118E+01  0.32640457810E+02  0.36820900521E+02  0.00000000000E+00 0. -1.
         11    1    4    4    0    0 -0.35150891546E+01 -0.45665674394E+01  0.33381055061E+01  0.66597551437E+01  0.51100000000E-03 0. -1.
        -11    1    4    4    0    0 -0.18215769425E+01  0.55520702748E+01 -0.18329959471E+02  0.19238790018E+02  0.51100000000E-03 0.  1.
        -12    1    4    4    0    0  0.20799589185E+02 -0.81463155472E+01 -0.17648603845E+02  0.28468554318E+02  0.00000000000E+00 0.  1.
</event>
<event>
 8    1  0.2511738E-006  0.9118800E+02  0.7816164E-02  0.1184000E+00
        -11   -1    0    0    0    0  0.00000000000E+00  0.00000000000E+00  0.45593999997E+02  0.45594000000E+02  0.51100000000E-03 0.  1.
         11   -1    0    0    0    0 -0.00000000000E+00 -0.00000000000E+00 -0.45593999997E+02  0.45594000000E+02  0.51100000000E-03 0. -1.
         23    2    1    2    0    0  0.00000000000E+00 -0.35527136788E-14  0.00000000000E+00  0.91188000000E+02  0.91188000000E+02 0.  0.
    9900012    2    3    3    0    0  0.10296433406E+02  0.22577017250E+02 -0.27203660549E+02  0.54367117392E+02  0.40000075718E+02 0.  0.
        -12    1    3    3    0    0 -0.10296433406E+02 -0.22577017250E+02  0.27203660549E+02  0.36820882608E+02  0.00000000000E+00 0.  1.
         11    1    4    4    0    0 -0.95226271828E+01  0.34219854545E+01 -0.36490106484E+01  0.10756658026E+02  0.51100000000E-03 0. -1.
        -11    1    4    4    0    0  0.21443945976E+02  0.16504228246E+02 -0.86852366371E+01  0.28419459966E+02  0.51100000000E-03 0.  1.
         12    1    4    4    0    0 -0.16248853878E+01  0.26508035498E+01 -0.14869413263E+02  0.15190999400E+02  0.00000000000E+00 0. -1.
</event>
<event>
 8    1  0.2511738E-006  0.9118800E+02  0.7816164E-02  0.1184000E+00
        -11   -1    0    0    0    0  0.00000000000E+00  0.00000000000E+00  0.45593999997E+02  0.45594000000E+02  0.51100000000E-03 0. -1.
         11   -1    0    0    0    0 -0.00000000000E+00 -0.00000000000E+00 -0.45593999997E+02  0.45594000000E+02  0.51100000000E-03 0.  1.
         23    2    1    2    0    0 -0.35527136788E-14  0.00000000000E+00  0.00000000000E+00  0.91188000000E+02  0.91188000000E+02 0.  0.
    9900012    2    3    3    0    0 -0.25825772784E+02  0.16535705537E+02 -0.20380839617E+02  0.54367099400E+02  0.40000034703E+02 0.  0.
         12    1    3    3    0    0  0.25825772784E+02 -0.16535705537E+02  0.20380839617E+02  0.36820900600E+02  0.00000000000E+00 0. -1.
         11    1    4    4    0    0  0.21503174490E+01  0.10548229143E+02  0.80514965957E+01  0.13443050282E+02  0.51100000000E-03 0. -1.
        -11    1    4    4    0    0 -0.18640888240E+02  0.20646456439E+01 -0.14529340221E+02  0.23724401015E+02  0.51100000000E-03 0.  1.
         12    1    4    4    0    0 -0.93352019931E+01  0.39228307495E+01 -0.13902995992E+02  0.17199648103E+02  0.00000000000E+00 0. -1.
</event>
<event>
 8    1  0.2511738E-006  0.9118800E+02  0.7816164E-02  0.1184000E+00
        -11   -1    0    0    0    0  0.00000000000E+00  0.00000000000E+00  0.45593999997E+02  0.45594000000E+02  0.51100000000E-03 0.  1.
         11   -1    0    0    0    0 -0.00000000000E+00 -0.00000000000E+00 -0.45593999997E+02  0.45594000000E+02  0.51100000000E-03 0. -1.
         23    2    1    2    0    0  0.00000000000E+00  0.00000000000E+00  0.00000000000E+00  0.91188000000E+02  0.91188000000E+02 0.  0.
    9900012    2    3    3    0    0  0.76369062945E+01  0.65092128129E+01 -0.35427191450E+02  0.54367108061E+02  0.40000054446E+02 0.  0.
        -12    1    3    3    0    0 -0.76369062945E+01 -0.65092128129E+01  0.35427191450E+02  0.36820891939E+02  0.00000000000E+00 0.  1.
         11    1    4    4    0    0 -0.41541990616E+01 -0.62972510158E+01 -0.12543913246E+02  0.14637708154E+02  0.51100000000E-03 0. -1.
        -11    1    4    4    0    0  0.58911865616E+01  0.73213500562E+01 -0.28433884592E+02  0.29946519648E+02  0.51100000000E-03 0.  1.
        -12    1    4    4    0    0  0.58999187946E+01  0.54851137726E+01  0.55506063889E+01  0.97828802591E+01  0.00000000000E+00 0.  1.
</event>
<event>
 8    1  0.2511738E-006  0.9118800E+02  0.7816164E-02  0.1184000E+00
        -11   -1    0    0    0    0  0.00000000000E+00  0.00000000000E+00  0.45593999997E+02  0.45594000000E+02  0.51100000000E-03 0. -1.
         11   -1    0    0    0    0 -0.00000000000E+00 -0.00000000000E+00 -0.45593999997E+02  0.45594000000E+02  0.51100000000E-03 0.  1.
         23    2    1    2    0    0  0.00000000000E+00 -0.71054273576E-14  0.00000000000E+00  0.91188000000E+02  0.91188000000E+02 0.  0.
    9900012    2    3    3    0    0 -0.24655830039E+02 -0.19712351586E+02  0.18955023198E+02  0.54367086589E+02  0.40000005497E+02 0.  0.
        -12    1    3    3    0    0  0.24655830039E+02  0.19712351586E+02 -0.18955023198E+02  0.36820913411E+02  0.00000000000E+00 0.  1.
         11    1    4    4    0    0  0.58331354039E+01 -0.44893034320E+01  0.14788554086E+02  0.16519099436E+02  0.51100000000E-03 0. -1.
        -11    1    4    4    0    0 -0.12599083476E+02  0.12938009128E+01  0.46571714852E+01  0.13494445959E+02  0.51100000000E-03 0.  1.
        -12    1    4    4    0    0 -0.17889881967E+02 -0.16516849067E+02 -0.49070237353E+00  0.24353541195E+02  0.00000000000E+00 0.  1.
</event>
<event>
 8    1  0.2511738E-006  0.9118800E+02  0.7816164E-02  0.1184000E+00
        -11   -1    0    0    0    0  0.00000000000E+00  0.00000000000E+00  0.45593999997E+02  0.45594000000E+02  0.51100000000E-03 0. -1.
         11   -1    0    0    0    0 -0.00000000000E+00 -0.00000000000E+00 -0.45593999997E+02  0.45594000000E+02  0.51100000000E-03 0.  1.
         23    2    1    2    0    0  0.66613381478E-15  0.00000000000E+00  0.55511151231E-15  0.91188000000E+02  0.91188000000E+02 0.  0.
    9900012    2    3    3    0    0 -0.17622800722E+01 -0.36775400530E+02  0.49526653413E+00  0.54367068397E+02  0.39999964024E+02 0.  0.
         12    1    3    3    0    0  0.17622800722E+01  0.36775400530E+02 -0.49526653413E+00  0.36820931603E+02  0.00000000000E+00 0. -1.
         11    1    4    4    0    0  0.11439304538E+02 -0.90307782109E+01 -0.65818671531E+01  0.15991673424E+02  0.51100000000E-03 0. -1.
        -11    1    4    4    0    0  0.44387944190E-01 -0.22354113909E+02 -0.14448001168E+00  0.22354624884E+02  0.51100000000E-03 0.  1.
        -12    1    4    4    0    0 -0.13245972555E+02 -0.53905084100E+01  0.72216136989E+01  0.16020770089E+02  0.00000000000E+00 0.  1.
</event>
<event>
 8    1  0.2511738E-006  0.9118800E+02  0.7816164E-02  0.1184000E+00
        -11   -1    0    0    0    0  0.00000000000E+00  0.00000000000E+00  0.45593999997E+02  0.45594000000E+02  0.51100000000E-03 0. -1.
         11   -1    0    0    0    0 -0.00000000000E+00 -0.00000000000E+00 -0.45593999997E+02  0.45594000000E+02  0.51100000000E-03 0.  1.
         23    2    1    2    0    0 -0.35527136788E-14  0.00000000000E+00  0.00000000000E+00  0.91188000000E+02  0.91188000000E+02 0.  0.
    9900012    2    3    3    0    0  0.18970902134E+02 -0.17760730128E+02 -0.26085288489E+02  0.54367069295E+02  0.39999966072E+02 0.  0.
         12    1    3    3    0    0 -0.18970902134E+02  0.17760730128E+02  0.26085288489E+02  0.36820930705E+02  0.00000000000E+00 0. -1.
         11    1    4    4    0    0  0.61286796690E+01  0.30494901335E+01 -0.18273626984E+01  0.70851506161E+01  0.51100000000E-03 0. -1.
        -11    1    4    4    0    0  0.13437087916E+02  0.52023393731E+01 -0.10660057574E+02  0.17923629498E+02  0.51100000000E-03 0.  1.
         12    1    4    4    0    0 -0.59486545093E+00 -0.26012559634E+02 -0.13597868216E+02  0.29358289181E+02  0.00000000000E+00 0. -1.
</event>
<event>
 8    1  0.2511738E-006  0.9118800E+02  0.7816164E-02  0.1184000E+00
        -11   -1    0    0    0    0  0.00000000000E+00  0.00000000000E+00  0.45593999997E+02  0.45594000000E+02  0.51100000000E-03 0. -1.
         11   -1    0    0    0    0 -0.00000000000E+00 -0.00000000000E+00 -0.45593999997E+02  0.45594000000E+02  0.51100000000E-03 0.  1.
         23    2    1    2    0    0  0.00000000000E+00  0.00000000000E+00 -0.35527136788E-14  0.91188000000E+02  0.91188000000E+02 0.  0.
    9900012    2    3    3    0    0  0.17344303154E+02 -0.30666499543E+02 -0.10701399362E+02  0.54367095688E+02  0.40000026239E+02 0.  0.
        -12    1    3    3    0    0 -0.17344303154E+02  0.30666499543E+02  0.10701399362E+02  0.36820904312E+02  0.00000000000E+00 0.  1.
         11    1    4    4    0    0 -0.11605557298E+01 -0.85121614424E+01 -0.15242167071E+01  0.87250798767E+01  0.51100000000E-03 0. -1.
        -11    1    4    4    0    0  0.25417823422E+02 -0.10994191108E+02  0.28472541702E+01  0.27839627192E+02  0.51100000000E-03 0.  1.
        -12    1    4    4    0    0 -0.69129645382E+01 -0.11160146992E+02 -0.12024436825E+02  0.17802388619E+02  0.00000000000E+00 0.  1.
</event>
<event>
 8    1  0.2511738E-006  0.9118800E+02  0.7816164E-02  0.1184000E+00
        -11   -1    0    0    0    0  0.00000000000E+00  0.00000000000E+00  0.45593999997E+02  0.45594000000E+02  0.51100000000E-03 0.  1.
         11   -1    0    0    0    0 -0.00000000000E+00 -0.00000000000E+00 -0.45593999997E+02  0.45594000000E+02  0.51100000000E-03 0. -1.
         23    2    1    2    0    0  0.00000000000E+00 -0.35527136788E-14  0.00000000000E+00  0.91188000000E+02  0.91188000000E+02 0.  0.
    9900012    2    3    3    0    0 -0.78617708185E+01  0.20020255773E+02 -0.29885806493E+02  0.54367088667E+02  0.40000010234E+02 0.  0.
        -12    1    3    3    0    0  0.78617708185E+01 -0.20020255773E+02  0.29885806493E+02  0.36820911333E+02  0.00000000000E+00 0.  1.
         11    1    4    4    0    0 -0.22035083425E+01 -0.41828968388E+00  0.12652494038E+01  0.25751255484E+01  0.51100000000E-03 0. -1.
        -11    1    4    4    0    0 -0.40681060991E+01  0.10464623934E+01  0.74566801175E+01  0.85584256385E+01  0.51100000000E-03 0.  1.
         12    1    4    4    0    0 -0.15901563768E+01  0.19392083064E+02 -0.38607736015E+02  0.43233537480E+02  0.00000000000E+00 0. -1.
</event>
<event>
 8    1  0.2511738E-006  0.9118800E+02  0.7816164E-02  0.1184000E+00
        -11   -1    0    0    0    0  0.00000000000E+00  0.00000000000E+00  0.45593999997E+02  0.45594000000E+02  0.51100000000E-03 0.  1.
         11   -1    0    0    0    0 -0.00000000000E+00 -0.00000000000E+00 -0.45593999997E+02  0.45594000000E+02  0.51100000000E-03 0. -1.
         23    2    1    2    0    0  0.00000000000E+00  0.00000000000E+00  0.00000000000E+00  0.91188000000E+02  0.91188000000E+02 0.  0.
    9900012    2    3    3    0    0  0.26055282849E+02 -0.76328167576E+01 -0.24872520609E+02  0.54367082881E+02  0.39999997045E+02 0.  0.
        -12    1    3    3    0    0 -0.26055282849E+02  0.76328167576E+01  0.24872520609E+02  0.36820917119E+02  0.00000000000E+00 0.  1.
         11    1    4    4    0    0  0.14934280349E+02  0.13547954611E+02 -0.96834548800E+01  0.22368484579E+02  0.51100000000E-03 0. -1.
        -11    1    4    4    0    0  0.10585692671E+02 -0.96154271328E+01 -0.19856347690E+01  0.14438007964E+02  0.51100000000E-03 0.  1.
         12    1    4    4    0    0  0.53530982842E+00 -0.11565344236E+02 -0.13203430960E+02  0.17560590338E+02  0.00000000000E+00 0. -1.
</event>
<event>
 8    1  0.2511738E-006  0.9118800E+02  0.7816164E-02  0.1184000E+00
        -11   -1    0    0    0    0  0.00000000000E+00  0.00000000000E+00  0.45593999997E+02  0.45594000000E+02  0.51100000000E-03 0. -1.
         11   -1    0    0    0    0 -0.00000000000E+00 -0.00000000000E+00 -0.45593999997E+02  0.45594000000E+02  0.51100000000E-03 0.  1.
         23    2    1    2    0    0  0.00000000000E+00 -0.44408920985E-15  0.00000000000E+00  0.91188000000E+02  0.91188000000E+02 0.  0.
    9900012    2    3    3    0    0  0.31865378969E+02  0.37299551976E+01  0.18068338469E+02  0.54367084780E+02  0.40000001373E+02 0.  0.
        -12    1    3    3    0    0 -0.31865378969E+02 -0.37299551976E+01 -0.18068338469E+02  0.36820915220E+02  0.00000000000E+00 0.  1.
         11    1    4    4    0    0  0.12822849870E+02 -0.46835725310E+01  0.13983071395E+02  0.19541945050E+02  0.51100000000E-03 0. -1.
        -11    1    4    4    0    0  0.71413761278E+01  0.44593494355E+01 -0.11856564337E+02  0.14541773225E+02  0.51100000000E-03 0.  1.
        -12    1    4    4    0    0  0.11901152971E+02  0.39541782931E+01  0.15941831411E+02  0.20283366505E+02  0.00000000000E+00 0.  1.
</event>
<event>
 8    1  0.2511738E-006  0.9118800E+02  0.7816164E-02  0.1184000E+00
        -11   -1    0    0    0    0  0.00000000000E+00  0.00000000000E+00  0.45593999997E+02  0.45594000000E+02  0.51100000000E-03 0.  1.
         11   -1    0    0    0    0 -0.00000000000E+00 -0.00000000000E+00 -0.45593999997E+02  0.45594000000E+02  0.51100000000E-03 0. -1.
         23    2    1    2    0    0  0.00000000000E+00  0.00000000000E+00  0.00000000000E+00  0.91188000000E+02  0.91188000000E+02 0.  0.
    9900012    2    3    3    0    0 -0.51770195416E+01  0.16179995743E+02  0.32667815836E+02  0.54367082235E+02  0.39999995571E+02 0.  0.
         12    1    3    3    0    0  0.51770195416E+01 -0.16179995743E+02 -0.32667815836E+02  0.36820917765E+02  0.00000000000E+00 0. -1.
         11    1    4    4    0    0  0.30885603270E+01 -0.60633077543E+00 -0.62405328751E+01  0.69893556734E+01  0.51100000000E-03 0. -1.
        -11    1    4    4    0    0 -0.58335785684E+01  0.45326742163E+01  0.98893347061E+00  0.74534397519E+01  0.51100000000E-03 0.  1.
        -12    1    4    4    0    0 -0.24320013002E+01  0.12253652303E+02  0.37919415240E+02  0.39924286809E+02  0.00000000000E+00 0.  1.
</event>
<event>
 8    1  0.2511738E-006  0.9118800E+02  0.7816164E-02  0.1184000E+00
        -11   -1    0    0    0    0  0.00000000000E+00  0.00000000000E+00  0.45593999997E+02  0.45594000000E+02  0.51100000000E-03 0.  1.
         11   -1    0    0    0    0 -0.00000000000E+00 -0.00000000000E+00 -0.45593999997E+02  0.45594000000E+02  0.51100000000E-03 0. -1.
         23    2    1    2    0    0  0.00000000000E+00  0.00000000000E+00  0.00000000000E+00  0.91188000000E+02  0.91188000000E+02 0.  0.
    9900012    2    3    3    0    0  0.31586767845E+02  0.18648047003E+02 -0.32104441382E+01  0.54367075086E+02  0.39999979274E+02 0.  0.
        -12    1    3    3    0    0 -0.31586767845E+02 -0.18648047003E+02  0.32104441382E+01  0.36820924914E+02  0.00000000000E+00 0.  1.
         11    1    4    4    0    0  0.24758206277E+01  0.56618568153E-01 -0.77395212475E+01  0.81260742578E+01  0.51100000000E-03 0. -1.
        -11    1    4    4    0    0  0.25149437223E+02  0.92319614672E+01 -0.99264717697E+01  0.28570231837E+02  0.51100000000E-03 0.  1.
        -12    1    4    4    0    0  0.39615099944E+01  0.93594669680E+01  0.14455548879E+02  0.17670768991E+02  0.00000000000E+00 0.  1.
</event>
<event>
 8    1  0.2511738E-006  0.9118800E+02  0.7816164E-02  0.1184000E+00
        -11   -1    0    0    0    0  0.00000000000E+00  0.00000000000E+00  0.45593999997E+02  0.45594000000E+02  0.51100000000E-03 0.  1.
         11   -1    0    0    0    0 -0.00000000000E+00 -0.00000000000E+00 -0.45593999997E+02  0.45594000000E+02  0.51100000000E-03 0. -1.
         23    2    1    2    0    0  0.00000000000E+00  0.00000000000E+00  0.00000000000E+00  0.91188000000E+02  0.91188000000E+02 0.  0.
    9900012    2    3    3    0    0  0.12405859765E+02 -0.15431798942E+02  0.31044117086E+02  0.54367041556E+02  0.39999902835E+02 0.  0.
         12    1    3    3    0    0 -0.12405859765E+02  0.15431798942E+02 -0.31044117086E+02  0.36820958444E+02  0.00000000000E+00 0. -1.
         11    1    4    4    0    0  0.88517570396E+01  0.27465175085E+01  0.24172488400E+02  0.25888340171E+02  0.51100000000E-03 0.  1.
        -11    1    4    4    0    0 -0.58526831138E+01 -0.15468150772E+02  0.84350556581E+01  0.18565229655E+02  0.51100000000E-03 0. -1.
         12    1    4    4    0    0  0.94067858395E+01 -0.27101656787E+01 -0.15634269724E+01  0.99134717296E+01  0.00000000000E+00 0. -1.
</event>
<event>
 8    1  0.2511738E-006  0.9118800E+02  0.7816164E-02  0.1184000E+00
        -11   -1    0    0    0    0  0.00000000000E+00  0.00000000000E+00  0.45593999997E+02  0.45594000000E+02  0.51100000000E-03 0. -1.
         11   -1    0    0    0    0 -0.00000000000E+00 -0.00000000000E+00 -0.45593999997E+02  0.45594000000E+02  0.51100000000E-03 0.  1.
         23    2    1    2    0    0  0.00000000000E+00  0.00000000000E+00  0.00000000000E+00  0.91188000000E+02  0.91188000000E+02 0.  0.
    9900012    2    3    3    0    0 -0.83599948465E+01 -0.30822013100E+02  0.18327308446E+02  0.54367133087E+02  0.40000111498E+02 0.  0.
        -12    1    3    3    0    0  0.83599948465E+01  0.30822013100E+02 -0.18327308446E+02  0.36820866913E+02  0.00000000000E+00 0.  1.
         11    1    4    4    0    0 -0.94619589998E+01 -0.19392745630E+02  0.29399925775E+02  0.36468656227E+02  0.51100000000E-03 0. -1.
        -11    1    4    4    0    0  0.24655376922E+01 -0.95861263623E+01 -0.43797619323E+01  0.10823816776E+02  0.51100000000E-03 0.  1.
         12    1    4    4    0    0 -0.13635735388E+01 -0.18431411079E+01 -0.66928553971E+01  0.70746600841E+01  0.00000000000E+00 0. -1.
</event>
<event>
 8    1  0.2511738E-006  0.9118800E+02  0.7816164E-02  0.1184000E+00
        -11   -1    0    0    0    0  0.00000000000E+00  0.00000000000E+00  0.45593999997E+02  0.45594000000E+02  0.51100000000E-03 0. -1.
         11   -1    0    0    0    0 -0.00000000000E+00 -0.00000000000E+00 -0.45593999997E+02  0.45594000000E+02  0.51100000000E-03 0.  1.
         23    2    1    2    0    0  0.44408920985E-15  0.22204460493E-15 -0.71054273576E-14  0.91188000000E+02  0.91188000000E+02 0.  0.
    9900012    2    3    3    0    0  0.34720284011E+01 -0.10776207784E+01 -0.36641022812E+02  0.54367071162E+02  0.39999970328E+02 0.  0.
         12    1    3    3    0    0 -0.34720284011E+01  0.10776207784E+01  0.36641022812E+02  0.36820928838E+02  0.00000000000E+00 0. -1.
         11    1    4    4    0    0  0.13009592914E+02  0.78182873479E+01 -0.18367931119E+02  0.23827631411E+02  0.51100000000E-03 0. -1.
        -11    1    4    4    0    0 -0.58581482144E+01  0.41683358804E+01 -0.14915316012E+02  0.16557764841E+02  0.51100000000E-03 0.  1.
         12    1    4    4    0    0 -0.36794162980E+01 -0.13064244007E+02 -0.33577756811E+01  0.13981674910E+02  0.00000000000E+00 0. -1.
</event>
<event>
 8    1  0.2511738E-006  0.9118800E+02  0.7816164E-02  0.1184000E+00
        -11   -1    0    0    0    0  0.00000000000E+00  0.00000000000E+00  0.45593999997E+02  0.45594000000E+02  0.51100000000E-03 0.  1.
         11   -1    0    0    0    0 -0.00000000000E+00 -0.00000000000E+00 -0.45593999997E+02  0.45594000000E+02  0.51100000000E-03 0. -1.
         23    2    1    2    0    0  0.35527136788E-14  0.00000000000E+00 -0.44408920985E-15  0.91188000000E+02  0.91188000000E+02 0.  0.
    9900012    2    3    3    0    0 -0.26640786337E+02 -0.25105712359E+02  0.39687791779E+01  0.54367088851E+02  0.40000010653E+02 0.  0.
         12    1    3    3    0    0  0.26640786337E+02  0.25105712359E+02 -0.39687791779E+01  0.36820911149E+02  0.00000000000E+00 0. -1.
         11    1    4    4    0    0  0.11923540172E+01 -0.12441818287E+01 -0.52749806858E+01  0.55493349171E+01  0.51100000000E-03 0. -1.
        -11    1    4    4    0    0 -0.10250250015E+02  0.14519380405E+01  0.14228642090E+02  0.17596306584E+02  0.51100000000E-03 0.  1.
        -12    1    4    4    0    0 -0.17582890339E+02 -0.25313468571E+02 -0.49848822259E+01  0.31221447349E+02  0.00000000000E+00 0.  1.
</event>
<event>
 8    1  0.2511738E-006  0.9118800E+02  0.7816164E-02  0.1184000E+00
        -11   -1    0    0    0    0  0.00000000000E+00  0.00000000000E+00  0.45593999997E+02  0.45594000000E+02  0.51100000000E-03 0.  1.
         11   -1    0    0    0    0 -0.00000000000E+00 -0.00000000000E+00 -0.45593999997E+02  0.45594000000E+02  0.51100000000E-03 0. -1.
         23    2    1    2    0    0  0.00000000000E+00 -0.17763568394E-14 -0.22204460493E-15  0.91188000000E+02  0.91188000000E+02 0.  0.
    9900012    2    3    3    0    0 -0.35671783608E+02 -0.90506228607E+01 -0.11788584945E+01  0.54367087093E+02  0.40000006646E+02 0.  0.
         12    1    3    3    0    0  0.35671783608E+02  0.90506228607E+01  0.11788584945E+01  0.36820912907E+02  0.00000000000E+00 0. -1.
         11    1    4    4    0    0 -0.21237970630E+02  0.82027134189E+00 -0.13671169455E+01  0.21297728765E+02  0.51100000000E-03 0. -1.
        -11    1    4    4    0    0 -0.15657921779E+02 -0.18071771043E+02  0.34501094021E+01  0.24159111702E+02  0.51100000000E-03 0.  1.
         12    1    4    4    0    0  0.12241088009E+01  0.82008768405E+01 -0.32618509512E+01  0.89102466260E+01  0.00000000000E+00 0. -1.
</event>
<event>
 8    1  0.2511738E-006  0.9118800E+02  0.7816164E-02  0.1184000E+00
        -11   -1    0    0    0    0  0.00000000000E+00  0.00000000000E+00  0.45593999997E+02  0.45594000000E+02  0.51100000000E-03 0.  1.
         11   -1    0    0    0    0 -0.00000000000E+00 -0.00000000000E+00 -0.45593999997E+02  0.45594000000E+02  0.51100000000E-03 0. -1.
         23    2    1    2    0    0  0.00000000000E+00  0.17763568394E-14 -0.88817841970E-15  0.91188000000E+02  0.91188000000E+02 0.  0.
    9900012    2    3    3    0    0 -0.32504455084E+02  0.15858893515E+02 -0.69091263714E+01  0.54367080253E+02  0.39999991053E+02 0.  0.
        -12    1    3    3    0    0  0.32504455084E+02 -0.15858893515E+02  0.69091263714E+01  0.36820919747E+02  0.00000000000E+00 0.  1.
         11    1    4    4    0    0 -0.61444970640E+01  0.59922155783E+01 -0.56480149514E+01  0.10274315785E+02  0.51100000000E-03 0. -1.
        -11    1    4    4    0    0 -0.20948602880E+02  0.17950277953E+02 -0.11573221995E+02  0.29916482227E+02  0.51100000000E-03 0.  1.
        -12    1    4    4    0    0 -0.54113551396E+01 -0.80836000161E+01  0.10312110575E+02  0.14176282241E+02  0.00000000000E+00 0.  1.
</event>
<event>
 8    1  0.2511738E-006  0.9118800E+02  0.7816164E-02  0.1184000E+00
        -11   -1    0    0    0    0  0.00000000000E+00  0.00000000000E+00  0.45593999997E+02  0.45594000000E+02  0.51100000000E-03 0.  1.
         11   -1    0    0    0    0 -0.00000000000E+00 -0.00000000000E+00 -0.45593999997E+02  0.45594000000E+02  0.51100000000E-03 0. -1.
         23    2    1    2    0    0  0.00000000000E+00  0.00000000000E+00  0.00000000000E+00  0.91188000000E+02  0.91188000000E+02 0.  0.
    9900012    2    3    3    0    0  0.27800689909E+02  0.22631611337E+02 -0.84090263791E+01  0.54367083175E+02  0.39999997715E+02 0.  0.
         12    1    3    3    0    0 -0.27800689909E+02 -0.22631611337E+02  0.84090263791E+01  0.36820916825E+02  0.00000000000E+00 0. -1.
         11    1    4    4    0    0  0.64909276956E+00  0.56202201946E+01 -0.16201881132E+02  0.17161268862E+02  0.51100000000E-03 0. -1.
        -11    1    4    4    0    0  0.73332590231E+01  0.14541990467E+02  0.19851286025E+01  0.16406916544E+02  0.51100000000E-03 0.  1.
        -12    1    4    4    0    0  0.19818338117E+02  0.24694006753E+01  0.58077261505E+01  0.20798897770E+02  0.00000000000E+00 0.  1.
</event>
<event>
 8    1  0.2511738E-006  0.9118800E+02  0.7816164E-02  0.1184000E+00
        -11   -1    0    0    0    0  0.00000000000E+00  0.00000000000E+00  0.45593999997E+02  0.45594000000E+02  0.51100000000E-03 0.  1.
         11   -1    0    0    0    0 -0.00000000000E+00 -0.00000000000E+00 -0.45593999997E+02  0.45594000000E+02  0.51100000000E-03 0. -1.
         23    2    1    2    0    0  0.00000000000E+00  0.00000000000E+00  0.00000000000E+00  0.91188000000E+02  0.91188000000E+02 0.  0.
    9900012    2    3    3    0    0 -0.30979606182E+02  0.10572787986E+02  0.16860007377E+02  0.54367086191E+02  0.40000004591E+02 0.  0.
         12    1    3    3    0    0  0.30979606182E+02 -0.10572787986E+02 -0.16860007377E+02  0.36820913809E+02  0.00000000000E+00 0. -1.
         11    1    4    4    0    0  0.11412361077E+01  0.26014650062E+01 -0.10437026734E+02  0.10816726277E+02  0.51100000000E-03 0. -1.
        -11    1    4    4    0    0 -0.32216555469E+02  0.78650587172E+01  0.27644967957E+02  0.43174180346E+02  0.51100000000E-03 0.  1.
        -12    1    4    4    0    0  0.95713180146E-01  0.10626426238E+00 -0.34793384652E+00  0.37617956864E+00  0.00000000000E+00 0.  1.
</event>
<event>
 8    1  0.2511738E-006  0.9118800E+02  0.7816164E-02  0.1184000E+00
        -11   -1    0    0    0    0  0.00000000000E+00  0.00000000000E+00  0.45593999997E+02  0.45594000000E+02  0.51100000000E-03 0.  1.
         11   -1    0    0    0    0 -0.00000000000E+00 -0.00000000000E+00 -0.45593999997E+02  0.45594000000E+02  0.51100000000E-03 0. -1.
         23    2    1    2    0    0  0.35527136788E-14  0.00000000000E+00  0.33306690739E-15  0.91188000000E+02  0.91188000000E+02 0.  0.
    9900012    2    3    3    0    0  0.29945962899E+02 -0.21403478508E+02 -0.95454457579E+00  0.54367071963E+02  0.39999972153E+02 0.  0.
         12    1    3    3    0    0 -0.29945962899E+02  0.21403478508E+02  0.95454457579E+00  0.36820928037E+02  0.00000000000E+00 0. -1.
         11    1    4    4    0    0  0.68160806699E+01 -0.89476253637E+00  0.67121736586E+01  0.96079566600E+01  0.51100000000E-03 0. -1.
        -11    1    4    4    0    0 -0.12484042805E+01 -0.10455734930E+02 -0.14117263571E+02  0.17611872052E+02  0.51100000000E-03 0.  1.
        -12    1    4    4    0    0  0.24378286510E+02 -0.10052981042E+02  0.64505453368E+01  0.27147243251E+02  0.00000000000E+00 0.  1.
</event>
<event>
 8    1  0.2511738E-006  0.9118800E+02  0.7816164E-02  0.1184000E+00
        -11   -1    0    0    0    0  0.00000000000E+00  0.00000000000E+00  0.45593999997E+02  0.45594000000E+02  0.51100000000E-03 0.  1.
         11   -1    0    0    0    0 -0.00000000000E+00 -0.00000000000E+00 -0.45593999997E+02  0.45594000000E+02  0.51100000000E-03 0. -1.
         23    2    1    2    0    0  0.35527136788E-14 -0.17763568394E-14 -0.17763568394E-14  0.91188000000E+02  0.91188000000E+02 0.  0.
    9900012    2    3    3    0    0 -0.30883456486E+02 -0.15128796076E+02 -0.13157183443E+02  0.54367084322E+02  0.40000000329E+02 0.  0.
         12    1    3    3    0    0  0.30883456486E+02  0.15128796076E+02  0.13157183443E+02  0.36820915678E+02  0.00000000000E+00 0. -1.
         11    1    4    4    0    0  0.38813417640E+01  0.33403588622E+01 -0.10870121511E+02  0.12015920820E+02  0.51100000000E-03 0. -1.
        -11    1    4    4    0    0 -0.13009025091E+02 -0.85631214473E+01  0.65083192626E+01  0.16879573532E+02  0.51100000000E-03 0.  1.
        -12    1    4    4    0    0 -0.21755773158E+02 -0.99060334913E+01 -0.87953811944E+01  0.25471589970E+02  0.00000000000E+00 0.  1.
</event>
<event>
 8    1  0.2511738E-006  0.9118800E+02  0.7816164E-02  0.1184000E+00
        -11   -1    0    0    0    0  0.00000000000E+00  0.00000000000E+00  0.45593999997E+02  0.45594000000E+02  0.51100000000E-03 0.  1.
         11   -1    0    0    0    0 -0.00000000000E+00 -0.00000000000E+00 -0.45593999997E+02  0.45594000000E+02  0.51100000000E-03 0. -1.
         23    2    1    2    0    0  0.00000000000E+00  0.44408920985E-15  0.00000000000E+00  0.91188000000E+02  0.91188000000E+02 0.  0.
    9900012    2    3    3    0    0  0.32081133041E+02  0.33813538107E+01  0.17752354623E+02  0.54367099067E+02  0.40000033944E+02 0.  0.
         12    1    3    3    0    0 -0.32081133041E+02 -0.33813538107E+01 -0.17752354623E+02  0.36820900933E+02  0.00000000000E+00 0. -1.
         11    1    4    4    0    0  0.17550095652E+02 -0.74845125228E+01  0.78220999432E+01  0.20620597297E+02  0.51100000000E-03 0. -1.
        -11    1    4    4    0    0  0.10745146392E+02  0.66639036642E+01  0.19139715116E+02  0.22938929312E+02  0.51100000000E-03 0.  1.
        -12    1    4    4    0    0  0.37858909972E+01  0.42019626692E+01 -0.92094604357E+01  0.10807572458E+02  0.00000000000E+00 0.  1.
</event>
<event>
 8    1  0.2511738E-006  0.9118800E+02  0.7816164E-02  0.1184000E+00
        -11   -1    0    0    0    0  0.00000000000E+00  0.00000000000E+00  0.45593999997E+02  0.45594000000E+02  0.51100000000E-03 0.  1.
         11   -1    0    0    0    0 -0.00000000000E+00 -0.00000000000E+00 -0.45593999997E+02  0.45594000000E+02  0.51100000000E-03 0. -1.
         23    2    1    2    0    0 -0.35527136788E-14  0.44408920985E-15 -0.35527136788E-14  0.91188000000E+02  0.91188000000E+02 0.  0.
    9900012    2    3    3    0    0 -0.27049465953E+02  0.39753267295E+01 -0.24663792263E+02  0.54367089097E+02  0.40000011214E+02 0.  0.
        -12    1    3    3    0    0  0.27049465953E+02 -0.39753267295E+01  0.24663792263E+02  0.36820910903E+02  0.00000000000E+00 0.  1.
         11    1    4    4    0    0  0.11168033307E+01 -0.19765922329E+00  0.22582140087E+01  0.25270238658E+01  0.51100000000E-03 0. -1.
        -11    1    4    4    0    0 -0.58188058042E+01  0.16663747804E+02 -0.55851285991E+01  0.18513040095E+02  0.51100000000E-03 0.  1.
         12    1    4    4    0    0 -0.22347463480E+02 -0.12490761851E+02 -0.21336877672E+02  0.33327025136E+02  0.00000000000E+00 0. -1.
</event>
<event>
 8    1  0.2511738E-006  0.9118800E+02  0.7816164E-02  0.1184000E+00
        -11   -1    0    0    0    0  0.00000000000E+00  0.00000000000E+00  0.45593999997E+02  0.45594000000E+02  0.51100000000E-03 0.  1.
         11   -1    0    0    0    0 -0.00000000000E+00 -0.00000000000E+00 -0.45593999997E+02  0.45594000000E+02  0.51100000000E-03 0. -1.
         23    2    1    2    0    0 -0.35527136788E-14  0.17763568394E-14  0.35527136788E-14  0.91188000000E+02  0.91188000000E+02 0.  0.
    9900012    2    3    3    0    0  0.30880070039E+02 -0.79840754171E+01 -0.18397134745E+02  0.54367098969E+02  0.40000033721E+02 0.  0.
        -12    1    3    3    0    0 -0.30880070039E+02  0.79840754171E+01  0.18397134745E+02  0.36820901031E+02  0.00000000000E+00 0.  1.
         11    1    4    4    0    0  0.11325069710E+02  0.55486767079E+01 -0.47254395388E+01  0.13467546037E+02  0.51100000000E-03 0. -1.
        -11    1    4    4    0    0  0.85407563686E+01  0.24343161819E+01 -0.18837534007E+02  0.20826019839E+02  0.51100000000E-03 0.  1.
         12    1    4    4    0    0  0.11014243960E+02 -0.15967068307E+02  0.51658388013E+01  0.20073533093E+02  0.00000000000E+00 0. -1.
</event>
<event>
 8    1  0.2511738E-006  0.9118800E+02  0.7816164E-02  0.1184000E+00
        -11   -1    0    0    0    0  0.00000000000E+00  0.00000000000E+00  0.45593999997E+02  0.45594000000E+02  0.51100000000E-03 0.  1.
         11   -1    0    0    0    0 -0.00000000000E+00 -0.00000000000E+00 -0.45593999997E+02  0.45594000000E+02  0.51100000000E-03 0. -1.
         23    2    1    2    0    0 -0.44408920985E-15  0.00000000000E+00  0.00000000000E+00  0.91188000000E+02  0.91188000000E+02 0.  0.
    9900012    2    3    3    0    0  0.37768198105E+01 -0.32445716571E+02 -0.16994088980E+02  0.54366974050E+02  0.39999748942E+02 0.  0.
        -12    1    3    3    0    0 -0.37768198105E+01  0.32445716571E+02  0.16994088980E+02  0.36821025950E+02  0.00000000000E+00 0.  1.
         11    1    4    4    0    0  0.60201531302E+01 -0.18660417036E+02 -0.14413101601E+02  0.24334972892E+02  0.51100000000E-03 0. -1.
        -11    1    4    4    0    0  0.91045879799E+01 -0.12368254847E+02 -0.80674859312E+01  0.17347956068E+02  0.51100000000E-03 0.  1.
        -12    1    4    4    0    0 -0.11347921300E+02 -0.14170446886E+01  0.54864985518E+01  0.12684045090E+02  0.00000000000E+00 0.  1.
</event>
<event>
 8    1  0.2511738E-006  0.9118800E+02  0.7816164E-02  0.1184000E+00
        -11   -1    0    0    0    0  0.00000000000E+00  0.00000000000E+00  0.45593999997E+02  0.45594000000E+02  0.51100000000E-03 0.  1.
         11   -1    0    0    0    0 -0.00000000000E+00 -0.00000000000E+00 -0.45593999997E+02  0.45594000000E+02  0.51100000000E-03 0. -1.
         23    2    1    2    0    0 -0.17763568394E-14 -0.88817841970E-15  0.00000000000E+00  0.91188000000E+02  0.91188000000E+02 0.  0.
    9900012    2    3    3    0    0  0.92723860442E+01  0.74043309305E+01  0.34856539423E+02  0.54367087464E+02  0.40000007491E+02 0.  0.
         12    1    3    3    0    0 -0.92723860442E+01 -0.74043309305E+01 -0.34856539423E+02  0.36820912536E+02  0.00000000000E+00 0. -1.
         11    1    4    4    0    0 -0.24691479892E+01 -0.49167412618E+01 -0.10677546230E+00  0.55029480907E+01  0.51100000000E-03 0. -1.
        -11    1    4    4    0    0  0.20331720935E+02  0.14774182198E+02  0.24386825472E+02  0.35019602977E+02  0.51100000000E-03 0.  1.
        -12    1    4    4    0    0 -0.85901869020E+01 -0.24531100061E+01  0.10576489413E+02  0.13844536396E+02  0.00000000000E+00 0.  1.
</event>
<event>
 8    1  0.2511738E-006  0.9118800E+02  0.7816164E-02  0.1184000E+00
        -11   -1    0    0    0    0  0.00000000000E+00  0.00000000000E+00  0.45593999997E+02  0.45594000000E+02  0.51100000000E-03 0.  1.
         11   -1    0    0    0    0 -0.00000000000E+00 -0.00000000000E+00 -0.45593999997E+02  0.45594000000E+02  0.51100000000E-03 0. -1.
         23    2    1    2    0    0 -0.35527136788E-14 -0.22204460493E-14  0.00000000000E+00  0.91188000000E+02  0.91188000000E+02 0.  0.
    9900012    2    3    3    0    0  0.29531884968E+02  0.36623367958E+01 -0.21684899257E+02  0.54367084797E+02  0.40000001411E+02 0.  0.
        -12    1    3    3    0    0 -0.29531884968E+02 -0.36623367958E+01  0.21684899257E+02  0.36820915203E+02  0.00000000000E+00 0.  1.
         11    1    4    4    0    0 -0.14299048037E+01 -0.51153485030E+01 -0.13973159541E+02  0.14948598793E+02  0.51100000000E-03 0. -1.
        -11    1    4    4    0    0  0.11111168730E+02  0.14167405853E+02 -0.23153058496E+01  0.18153074136E+02  0.51100000000E-03 0.  1.
         12    1    4    4    0    0  0.19850621042E+02 -0.53897205546E+01 -0.53964338669E+01  0.21265411867E+02  0.00000000000E+00 0. -1.
</event>
<event>
 8    1  0.2511738E-006  0.9118800E+02  0.7816164E-02  0.1184000E+00
        -11   -1    0    0    0    0  0.00000000000E+00  0.00000000000E+00  0.45593999997E+02  0.45594000000E+02  0.51100000000E-03 0.  1.
         11   -1    0    0    0    0 -0.00000000000E+00 -0.00000000000E+00 -0.45593999997E+02  0.45594000000E+02  0.51100000000E-03 0. -1.
         23    2    1    2    0    0  0.00000000000E+00  0.00000000000E+00 -0.88817841970E-15  0.91188000000E+02  0.91188000000E+02 0.  0.
    9900012    2    3    3    0    0 -0.86134935159E+01 -0.35612574428E+02 -0.36512996912E+01  0.54367085870E+02  0.40000003858E+02 0.  0.
        -12    1    3    3    0    0  0.86134935159E+01  0.35612574428E+02  0.36512996912E+01  0.36820914130E+02  0.00000000000E+00 0.  1.
         11    1    4    4    0    0  0.43798681592E+01  0.15006547010E+01 -0.11685851199E+01  0.47750184363E+01  0.51100000000E-03 0. -1.
        -11    1    4    4    0    0 -0.20548821875E+01  0.13577793311E+01  0.78962677654E+01  0.82714660370E+01  0.51100000000E-03 0.  1.
         12    1    4    4    0    0 -0.10938479488E+02 -0.38471008460E+02 -0.10378982337E+02  0.41320601397E+02  0.00000000000E+00 0. -1.
</event>
<event>
 8    1  0.2511738E-006  0.9118800E+02  0.7816164E-02  0.1184000E+00
        -11   -1    0    0    0    0  0.00000000000E+00  0.00000000000E+00  0.45593999997E+02  0.45594000000E+02  0.51100000000E-03 0.  1.
         11   -1    0    0    0    0 -0.00000000000E+00 -0.00000000000E+00 -0.45593999997E+02  0.45594000000E+02  0.51100000000E-03 0. -1.
         23    2    1    2    0    0  0.35527136788E-14  0.00000000000E+00 -0.35527136788E-14  0.91188000000E+02  0.91188000000E+02 0.  0.
    9900012    2    3    3    0    0 -0.25611144157E+02 -0.20945161222E+02  0.16160104273E+02  0.54367089450E+02  0.40000012018E+02 0.  0.
         12    1    3    3    0    0  0.25611144157E+02  0.20945161222E+02 -0.16160104273E+02  0.36820910550E+02  0.00000000000E+00 0. -1.
         11    1    4    4    0    0 -0.16627363194E+01 -0.30514667034E+01  0.16798119476E+02  0.17153803056E+02  0.51100000000E-03 0. -1.
        -11    1    4    4    0    0 -0.10799172994E+02 -0.15112511810E+02  0.90338876698E+01  0.20654812448E+02  0.51100000000E-03 0.  1.
         12    1    4    4    0    0 -0.13149234843E+02 -0.27811827086E+01 -0.96719028727E+01  0.16558473945E+02  0.00000000000E+00 0. -1.
</event>
<event>
 8    1  0.2511738E-006  0.9118800E+02  0.7816164E-02  0.1184000E+00
        -11   -1    0    0    0    0  0.00000000000E+00  0.00000000000E+00  0.45593999997E+02  0.45594000000E+02  0.51100000000E-03 0.  1.
         11   -1    0    0    0    0 -0.00000000000E+00 -0.00000000000E+00 -0.45593999997E+02  0.45594000000E+02  0.51100000000E-03 0. -1.
         23    2    1    2    0    0  0.00000000000E+00 -0.35527136788E-14  0.00000000000E+00  0.91188000000E+02  0.91188000000E+02 0.  0.
    9900012    2    3    3    0    0 -0.22251631341E+02  0.28220666365E+02  0.80150581611E+01  0.54367051278E+02  0.39999925000E+02 0.  0.
         12    1    3    3    0    0  0.22251631341E+02 -0.28220666365E+02 -0.80150581611E+01  0.36820948722E+02  0.00000000000E+00 0. -1.
         11    1    4    4    0    0 -0.61977360902E+01  0.99180875006E+01  0.12046778197E+02  0.16790034470E+02  0.51100000000E-03 0.  1.
        -11    1    4    4    0    0 -0.18356546504E+02  0.22842646029E+02 -0.88049267946E+01  0.30598627638E+02  0.51100000000E-03 0. -1.
        -12    1    4    4    0    0  0.23026512540E+01 -0.45400671647E+01  0.47732067590E+01  0.69783891710E+01  0.00000000000E+00 0.  1.
</event>
<event>
 8    1  0.2511738E-006  0.9118800E+02  0.7816164E-02  0.1184000E+00
        -11   -1    0    0    0    0  0.00000000000E+00  0.00000000000E+00  0.45593999997E+02  0.45594000000E+02  0.51100000000E-03 0.  1.
         11   -1    0    0    0    0 -0.00000000000E+00 -0.00000000000E+00 -0.45593999997E+02  0.45594000000E+02  0.51100000000E-03 0. -1.
         23    2    1    2    0    0 -0.88817841970E-15  0.00000000000E+00  0.00000000000E+00  0.91188000000E+02  0.91188000000E+02 0.  0.
    9900012    2    3    3    0    0  0.46308991531E+01 -0.28927743395E+02  0.22305160960E+02  0.54367085150E+02  0.40000002217E+02 0.  0.
         12    1    3    3    0    0 -0.46308991531E+01  0.28927743395E+02 -0.22305160960E+02  0.36820914850E+02  0.00000000000E+00 0. -1.
         11    1    4    4    0    0 -0.84712943481E+01 -0.24163372086E+01 -0.22718949632E+01  0.90974183383E+01  0.51100000000E-03 0. -1.
        -11    1    4    4    0    0 -0.61248531943E+01 -0.67535041546E+01  0.11723634732E+02  0.14851506880E+02  0.51100000000E-03 0.  1.
         12    1    4    4    0    0  0.19227046696E+02 -0.19757902032E+02  0.12853421191E+02  0.30418159932E+02  0.00000000000E+00 0. -1.
</event>
<event>
 8    1  0.2511738E-006  0.9118800E+02  0.7816164E-02  0.1184000E+00
        -11   -1    0    0    0    0  0.00000000000E+00  0.00000000000E+00  0.45593999997E+02  0.45594000000E+02  0.51100000000E-03 0. -1.
         11   -1    0    0    0    0 -0.00000000000E+00 -0.00000000000E+00 -0.45593999997E+02  0.45594000000E+02  0.51100000000E-03 0.  1.
         23    2    1    2    0    0  0.00000000000E+00  0.00000000000E+00  0.00000000000E+00  0.91188000000E+02  0.91188000000E+02 0.  0.
    9900012    2    3    3    0    0  0.55103083818E+01 -0.15808820141E+02 -0.32794783733E+02  0.54367080228E+02  0.39999990997E+02 0.  0.
         12    1    3    3    0    0 -0.55103083818E+01  0.15808820141E+02  0.32794783733E+02  0.36820919772E+02  0.00000000000E+00 0. -1.
         11    1    4    4    0    0 -0.25158543405E+01 -0.10044528301E+02 -0.16368584034E+02  0.19368856843E+02  0.51100000000E-03 0. -1.
        -11    1    4    4    0    0 -0.45152071100E+00 -0.30910574923E+01 -0.23457356737E+02  0.23664447864E+02  0.51100000000E-03 0.  1.
         12    1    4    4    0    0  0.84776834334E+01 -0.26732343473E+01  0.70311570380E+01  0.11333775521E+02  0.00000000000E+00 0. -1.
</event>
<event>
 8    1  0.2511738E-006  0.9118800E+02  0.7816164E-02  0.1184000E+00
        -11   -1    0    0    0    0  0.00000000000E+00  0.00000000000E+00  0.45593999997E+02  0.45594000000E+02  0.51100000000E-03 0. -1.
         11   -1    0    0    0    0 -0.00000000000E+00 -0.00000000000E+00 -0.45593999997E+02  0.45594000000E+02  0.51100000000E-03 0.  1.
         23    2    1    2    0    0  0.00000000000E+00  0.00000000000E+00  0.00000000000E+00  0.91188000000E+02  0.91188000000E+02 0.  0.
    9900012    2    3    3    0    0  0.22326180624E+02 -0.18848743756E+02  0.22406396444E+02  0.54367080891E+02  0.39999992508E+02 0.  0.
        -12    1    3    3    0    0 -0.22326180624E+02  0.18848743756E+02 -0.22406396444E+02  0.36820919109E+02  0.00000000000E+00 0.  1.
         11    1    4    4    0    0  0.16448889166E+02 -0.18148839444E+02  0.22156128379E+02  0.33027872365E+02  0.51100000000E-03 0. -1.
        -11    1    4    4    0    0  0.11454203590E+02  0.28901431704E+01 -0.50516527946E+01  0.12847992202E+02  0.51100000000E-03 0.  1.
         12    1    4    4    0    0 -0.55769121322E+01 -0.35900474828E+01  0.53019208593E+01  0.84912163238E+01  0.00000000000E+00 0. -1.
</event>
<event>
 8    1  0.2511738E-006  0.9118800E+02  0.7816164E-02  0.1184000E+00
        -11   -1    0    0    0    0  0.00000000000E+00  0.00000000000E+00  0.45593999997E+02  0.45594000000E+02  0.51100000000E-03 0. -1.
         11   -1    0    0    0    0 -0.00000000000E+00 -0.00000000000E+00 -0.45593999997E+02  0.45594000000E+02  0.51100000000E-03 0.  1.
         23    2    1    2    0    0  0.71054273576E-14  0.88817841970E-15 -0.35527136788E-14  0.91188000000E+02  0.91188000000E+02 0.  0.
    9900012    2    3    3    0    0 -0.31932127820E+02  0.40082579417E+01  0.17890008856E+02  0.54367091053E+02  0.40000015673E+02 0.  0.
        -12    1    3    3    0    0  0.31932127820E+02 -0.40082579417E+01 -0.17890008856E+02  0.36820908947E+02  0.00000000000E+00 0.  1.
         11    1    4    4    0    0 -0.11166023986E+02  0.12009364415E+02 -0.13681111851E+01  0.16455292577E+02  0.51100000000E-03 0. -1.
        -11    1    4    4    0    0 -0.23444566069E+01 -0.36235529850E+01  0.18462745706E+02  0.18960474474E+02  0.51100000000E-03 0.  1.
         12    1    4    4    0    0 -0.18421647227E+02 -0.43775534884E+01  0.79537433480E+00  0.18951324002E+02  0.00000000000E+00 0. -1.
</event>
<event>
 8    1  0.2511738E-006  0.9118800E+02  0.7816164E-02  0.1184000E+00
        -11   -1    0    0    0    0  0.00000000000E+00  0.00000000000E+00  0.45593999997E+02  0.45594000000E+02  0.51100000000E-03 0.  1.
         11   -1    0    0    0    0 -0.00000000000E+00 -0.00000000000E+00 -0.45593999997E+02  0.45594000000E+02  0.51100000000E-03 0. -1.
         23    2    1    2    0    0  0.17763568394E-14  0.00000000000E+00  0.00000000000E+00  0.91188000000E+02  0.91188000000E+02 0.  0.
    9900012    2    3    3    0    0  0.82031998939E+01 -0.34486288648E+02  0.99590008847E+01  0.54367105227E+02  0.40000047987E+02 0.  0.
         12    1    3    3    0    0 -0.82031998939E+01  0.34486288648E+02 -0.99590008847E+01  0.36820894773E+02  0.00000000000E+00 0. -1.
         11    1    4    4    0    0  0.59946584404E+01 -0.26181577208E+02  0.12705166762E+02  0.29712491946E+02  0.51100000000E-03 0. -1.
        -11    1    4    4    0    0 -0.75815515573E+01 -0.10352839514E+02  0.29186728087E+01  0.13159781961E+02  0.51100000000E-03 0.  1.
         12    1    4    4    0    0  0.97900930108E+01  0.20481280741E+01 -0.56648386856E+01  0.11494831321E+02  0.00000000000E+00 0. -1.
</event>
<event>
 8    1  0.2511738E-006  0.9118800E+02  0.7816164E-02  0.1184000E+00
        -11   -1    0    0    0    0  0.00000000000E+00  0.00000000000E+00  0.45593999997E+02  0.45594000000E+02  0.51100000000E-03 0.  1.
         11   -1    0    0    0    0 -0.00000000000E+00 -0.00000000000E+00 -0.45593999997E+02  0.45594000000E+02  0.51100000000E-03 0. -1.
         23    2    1    2    0    0  0.17763568394E-14  0.17763568394E-14  0.00000000000E+00  0.91188000000E+02  0.91188000000E+02 0.  0.
    9900012    2    3    3    0    0  0.12956484494E+02  0.85079661147E+01 -0.33399448775E+02  0.54367093489E+02  0.40000021226E+02 0.  0.
        -12    1    3    3    0    0 -0.12956484494E+02 -0.85079661147E+01  0.33399448775E+02  0.36820906511E+02  0.00000000000E+00 0.  1.
         11    1    4    4    0    0  0.57989312240E+01  0.13564926132E+02 -0.79780032466E+01  0.16771504416E+02  0.51100000000E-03 0. -1.
        -11    1    4    4    0    0 -0.96035937720E+01 -0.40533614577E+01 -0.13240839414E+02  0.16851664045E+02  0.51100000000E-03 0.  1.
         12    1    4    4    0    0  0.16761147042E+02 -0.10035985598E+01 -0.12180606114E+02  0.20743925028E+02  0.00000000000E+00 0. -1.
</event>
<event>
 8    1  0.2511738E-006  0.9118800E+02  0.7816164E-02  0.1184000E+00
        -11   -1    0    0    0    0  0.00000000000E+00  0.00000000000E+00  0.45593999997E+02  0.45594000000E+02  0.51100000000E-03 0. -1.
         11   -1    0    0    0    0 -0.00000000000E+00 -0.00000000000E+00 -0.45593999997E+02  0.45594000000E+02  0.51100000000E-03 0.  1.
         23    2    1    2    0    0  0.17763568394E-14  0.00000000000E+00 -0.88817841970E-15  0.91188000000E+02  0.91188000000E+02 0.  0.
    9900012    2    3    3    0    0 -0.60084782593E+01 -0.36210526599E+02  0.29113716837E+01  0.54367080231E+02  0.39999991002E+02 0.  0.
        -12    1    3    3    0    0  0.60084782593E+01  0.36210526599E+02 -0.29113716837E+01  0.36820919769E+02  0.00000000000E+00 0.  1.
         11    1    4    4    0    0  0.99589149796E+01 -0.11150218940E+02 -0.24248676591E+01  0.15145539060E+02  0.51100000000E-03 0. -1.
        -11    1    4    4    0    0  0.51398829908E+01 -0.10189755389E+02 -0.34910650963E+01  0.11934699318E+02  0.51100000000E-03 0.  1.
        -12    1    4    4    0    0 -0.21107276230E+02 -0.14870552270E+02  0.88273044392E+01  0.27286841853E+02  0.00000000000E+00 0.  1.
</event>
<event>
 8    1  0.2511738E-006  0.9118800E+02  0.7816164E-02  0.1184000E+00
        -11   -1    0    0    0    0  0.00000000000E+00  0.00000000000E+00  0.45593999997E+02  0.45594000000E+02  0.51100000000E-03 0. -1.
         11   -1    0    0    0    0 -0.00000000000E+00 -0.00000000000E+00 -0.45593999997E+02  0.45594000000E+02  0.51100000000E-03 0.  1.
         23    2    1    2    0    0 -0.17763568394E-14 -0.17763568394E-14  0.00000000000E+00  0.91188000000E+02  0.91188000000E+02 0.  0.
    9900012    2    3    3    0    0 -0.11876267786E+02 -0.10258755592E+02  0.33308992243E+02  0.54367125933E+02  0.40000095190E+02 0.  0.
        -12    1    3    3    0    0  0.11876267786E+02  0.10258755592E+02 -0.33308992243E+02  0.36820874067E+02  0.00000000000E+00 0.  1.
         11    1    4    4    0    0  0.20003706475E+01 -0.99233047792E+01  0.59901111921E+00  0.10140624983E+02  0.51100000000E-03 0. -1.
        -11    1    4    4    0    0  0.45205842306E+01  0.79243431526E+01  0.14045997115E+02  0.16748759100E+02  0.51100000000E-03 0.  1.
         12    1    4    4    0    0 -0.18397222664E+02 -0.82597939650E+01  0.18663984009E+02  0.27477741850E+02  0.00000000000E+00 0. -1.
</event>
<event>
 8    1  0.2511738E-006  0.9118800E+02  0.7816164E-02  0.1184000E+00
        -11   -1    0    0    0    0  0.00000000000E+00  0.00000000000E+00  0.45593999997E+02  0.45594000000E+02  0.51100000000E-03 0.  1.
         11   -1    0    0    0    0 -0.00000000000E+00 -0.00000000000E+00 -0.45593999997E+02  0.45594000000E+02  0.51100000000E-03 0. -1.
         23    2    1    2    0    0  0.00000000000E+00  0.66613381478E-15  0.71054273576E-14  0.91188000000E+02  0.91188000000E+02 0.  0.
    9900012    2    3    3    0    0  0.80989264712E+01 -0.13910632735E+01 -0.35892222464E+02  0.54367091532E+02  0.40000016765E+02 0.  0.
        -12    1    3    3    0    0 -0.80989264712E+01  0.13910632735E+01  0.35892222464E+02  0.36820908468E+02  0.00000000000E+00 0.  1.
         11    1    4    4    0    0  0.52846159006E+01  0.11592079693E+02 -0.25704952480E+02  0.28688814181E+02  0.51100000000E-03 0. -1.
        -11    1    4    4    0    0  0.85081413630E+01 -0.25722760851E+01 -0.10564280422E+02  0.13806125264E+02  0.51100000000E-03 0.  1.
        -12    1    4    4    0    0 -0.56938307924E+01 -0.10410866882E+02  0.37701043751E+00  0.11872152087E+02  0.00000000000E+00 0.  1.
</event>
<event>
 8    1  0.2511738E-006  0.9118800E+02  0.7816164E-02  0.1184000E+00
        -11   -1    0    0    0    0  0.00000000000E+00  0.00000000000E+00  0.45593999997E+02  0.45594000000E+02  0.51100000000E-03 0. -1.
         11   -1    0    0    0    0 -0.00000000000E+00 -0.00000000000E+00 -0.45593999997E+02  0.45594000000E+02  0.51100000000E-03 0.  1.
         23    2    1    2    0    0  0.00000000000E+00  0.00000000000E+00  0.17763568394E-14  0.91188000000E+02  0.91188000000E+02 0.  0.
    9900012    2    3    3    0    0 -0.32813875857E+02  0.10782222368E+02 -0.12758252920E+02  0.54367084944E+02  0.40000001748E+02 0.  0.
         12    1    3    3    0    0  0.32813875857E+02 -0.10782222368E+02  0.12758252920E+02  0.36820915056E+02  0.00000000000E+00 0. -1.
         11    1    4    4    0    0 -0.15551554099E+02  0.15680476213E-01  0.85223539592E+01  0.17733629015E+02  0.51100000000E-03 0. -1.
        -11    1    4    4    0    0 -0.15876189215E+02 -0.23301971235E+01 -0.79999413743E+01  0.17929926516E+02  0.51100000000E-03 0.  1.
        -12    1    4    4    0    0 -0.13861325435E+01  0.13096739015E+02 -0.13280665505E+02  0.18703529413E+02  0.00000000000E+00 0.  1.
</event>
<event>
 8    1  0.2511738E-006  0.9118800E+02  0.7816164E-02  0.1184000E+00
        -11   -1    0    0    0    0  0.00000000000E+00  0.00000000000E+00  0.45593999997E+02  0.45594000000E+02  0.51100000000E-03 0. -1.
         11   -1    0    0    0    0 -0.00000000000E+00 -0.00000000000E+00 -0.45593999997E+02  0.45594000000E+02  0.51100000000E-03 0.  1.
         23    2    1    2    0    0  0.17763568394E-14  0.00000000000E+00  0.00000000000E+00  0.91188000000E+02  0.91188000000E+02 0.  0.
    9900012    2    3    3    0    0  0.82155580371E+01  0.14533831488E+02  0.32818468238E+02  0.54367088698E+02  0.40000010305E+02 0.  0.
        -12    1    3    3    0    0 -0.82155580371E+01 -0.14533831488E+02 -0.32818468238E+02  0.36820911302E+02  0.00000000000E+00 0.  1.
         11    1    4    4    0    0  0.11081590150E+02 -0.47833022311E+00  0.25873523534E+02  0.28150837650E+02  0.51100000000E-03 0. -1.
        -11    1    4    4    0    0 -0.16137373385E+01  0.15520932609E+02  0.12815191988E+02  0.20192390725E+02  0.51100000000E-03 0.  1.
        -12    1    4    4    0    0 -0.12522947740E+01 -0.50877089714E+00 -0.58702472838E+01  0.60238603237E+01  0.00000000000E+00 0.  1.
</event>
<event>
 8    1  0.2511738E-006  0.9118800E+02  0.7816164E-02  0.1184000E+00
        -11   -1    0    0    0    0  0.00000000000E+00  0.00000000000E+00  0.45593999997E+02  0.45594000000E+02  0.51100000000E-03 0. -1.
         11   -1    0    0    0    0 -0.00000000000E+00 -0.00000000000E+00 -0.45593999997E+02  0.45594000000E+02  0.51100000000E-03 0.  1.
         23    2    1    2    0    0  0.00000000000E+00  0.35527136788E-14  0.00000000000E+00  0.91188000000E+02  0.91188000000E+02 0.  0.
    9900012    2    3    3    0    0  0.21480665708E+02 -0.26879434462E+02  0.13109506222E+02  0.54367052842E+02  0.39999928563E+02 0.  0.
        -12    1    3    3    0    0 -0.21480665708E+02  0.26879434462E+02 -0.13109506222E+02  0.36820947158E+02  0.00000000000E+00 0.  1.
         11    1    4    4    0    0  0.28912215328E+01 -0.30879292016E+02  0.10742919594E+02  0.32822250974E+02  0.51100000000E-03 0. -1.
        -11    1    4    4    0    0  0.18486250471E+01  0.24901003801E+00 -0.30317662377E+01  0.35596386537E+01  0.51100000000E-03 0.  1.
         12    1    4    4    0    0  0.16740819128E+02  0.37508475159E+01  0.53983528654E+01  0.17985163214E+02  0.00000000000E+00 0. -1.
</event>
<event>
 8    1  0.2511738E-006  0.9118800E+02  0.7816164E-02  0.1184000E+00
        -11   -1    0    0    0    0  0.00000000000E+00  0.00000000000E+00  0.45593999997E+02  0.45594000000E+02  0.51100000000E-03 0.  1.
         11   -1    0    0    0    0 -0.00000000000E+00 -0.00000000000E+00 -0.45593999997E+02  0.45594000000E+02  0.51100000000E-03 0. -1.
         23    2    1    2    0    0  0.00000000000E+00  0.00000000000E+00 -0.22204460493E-14  0.91188000000E+02  0.91188000000E+02 0.  0.
    9900012    2    3    3    0    0 -0.29489350761E+02  0.21751988695E+02 -0.36068537663E+01  0.54367079118E+02  0.39999988466E+02 0.  0.
         12    1    3    3    0    0  0.29489350761E+02 -0.21751988695E+02  0.36068537663E+01  0.36820920882E+02  0.00000000000E+00 0. -1.
         11    1    4    4    0    0 -0.11842393891E+02  0.14831555398E+02 -0.89613680230E+01  0.20988650402E+02  0.51100000000E-03 0. -1.
        -11    1    4    4    0    0  0.10863956517E+01  0.27815061488E+01 -0.89580859017E+01  0.94426868661E+01  0.51100000000E-03 0.  1.
        -12    1    4    4    0    0 -0.18733352522E+02  0.41389271484E+01  0.14312600158E+02  0.23935741851E+02  0.00000000000E+00 0.  1.
</event>
<event>
 8    1  0.2511738E-006  0.9118800E+02  0.7816164E-02  0.1184000E+00
        -11   -1    0    0    0    0  0.00000000000E+00  0.00000000000E+00  0.45593999997E+02  0.45594000000E+02  0.51100000000E-03 0. -1.
         11   -1    0    0    0    0 -0.00000000000E+00 -0.00000000000E+00 -0.45593999997E+02  0.45594000000E+02  0.51100000000E-03 0.  1.
         23    2    1    2    0    0 -0.71054273576E-14  0.00000000000E+00  0.00000000000E+00  0.91188000000E+02  0.91188000000E+02 0.  0.
    9900012    2    3    3    0    0 -0.33870830898E+02 -0.13678684185E+02 -0.46304070133E+01  0.54367078558E+02  0.39999987189E+02 0.  0.
         12    1    3    3    0    0  0.33870830898E+02  0.13678684185E+02  0.46304070133E+01  0.36820921442E+02  0.00000000000E+00 0. -1.
         11    1    4    4    0    0  0.36547332933E+01  0.12834096810E+01  0.46462562410E+01  0.60491249923E+01  0.51100000000E-03 0. -1.
        -11    1    4    4    0    0 -0.18182716746E+02 -0.19799721611E+02 -0.15239517090E+01  0.26925129400E+02  0.51100000000E-03 0.  1.
         12    1    4    4    0    0 -0.19342847445E+02  0.48376277452E+01 -0.77527115453E+01  0.21392824166E+02  0.00000000000E+00 0. -1.
</event>
<event>
 8    1  0.2511738E-006  0.9118800E+02  0.7816164E-02  0.1184000E+00
        -11   -1    0    0    0    0  0.00000000000E+00  0.00000000000E+00  0.45593999997E+02  0.45594000000E+02  0.51100000000E-03 0. -1.
         11   -1    0    0    0    0 -0.00000000000E+00 -0.00000000000E+00 -0.45593999997E+02  0.45594000000E+02  0.51100000000E-03 0.  1.
         23    2    1    2    0    0  0.00000000000E+00  0.00000000000E+00  0.00000000000E+00  0.91188000000E+02  0.91188000000E+02 0.  0.
    9900012    2    3    3    0    0  0.22392732512E+01  0.41844178281E+01  0.36513683094E+02  0.54367180477E+02  0.40000219532E+02 0.  0.
        -12    1    3    3    0    0 -0.22392732512E+01 -0.41844178281E+01 -0.36513683094E+02  0.36820819523E+02  0.00000000000E+00 0.  1.
         11    1    4    4    0    0 -0.15172537817E+01 -0.68578377577E+01  0.28979202678E+02  0.29818219026E+02  0.51100000000E-03 0. -1.
        -11    1    4    4    0    0  0.73258245182E+00  0.36004609379E+01  0.13851101272E+02  0.14330143151E+02  0.51100000000E-03 0.  1.
        -12    1    4    4    0    0  0.30239445810E+01  0.74417946479E+01 -0.63166208561E+01  0.10218818300E+02  0.00000000000E+00 0.  1.
</event>
<event>
 8    1  0.2511738E-006  0.9118800E+02  0.7816164E-02  0.1184000E+00
        -11   -1    0    0    0    0  0.00000000000E+00  0.00000000000E+00  0.45593999997E+02  0.45594000000E+02  0.51100000000E-03 0. -1.
         11   -1    0    0    0    0 -0.00000000000E+00 -0.00000000000E+00 -0.45593999997E+02  0.45594000000E+02  0.51100000000E-03 0.  1.
         23    2    1    2    0    0 -0.17763568394E-14 -0.35527136788E-14 -0.35527136788E-14  0.91188000000E+02  0.91188000000E+02 0.  0.
    9900012    2    3    3    0    0  0.14268412310E+02  0.28267263408E+02  0.18792420906E+02  0.54367070437E+02  0.39999968674E+02 0.  0.
        -12    1    3    3    0    0 -0.14268412310E+02 -0.28267263408E+02 -0.18792420906E+02  0.36820929563E+02  0.00000000000E+00 0.  1.
         11    1    4    4    0    0  0.21258833117E+01  0.23202618696E+02  0.17840775448E+02  0.29345769083E+02  0.51100000000E-03 0. -1.
        -11    1    4    4    0    0 -0.31376664037E+01  0.87386559521E+01  0.52880608625E+00  0.92999298088E+01  0.51100000000E-03 0.  1.
        -12    1    4    4    0    0  0.15280195402E+02 -0.36740112411E+01  0.42283937228E+00  0.15721371545E+02  0.00000000000E+00 0.  1.
</event>
<event>
 8    1  0.2511738E-006  0.9118800E+02  0.7816164E-02  0.1184000E+00
        -11   -1    0    0    0    0  0.00000000000E+00  0.00000000000E+00  0.45593999997E+02  0.45594000000E+02  0.51100000000E-03 0.  1.
         11   -1    0    0    0    0 -0.00000000000E+00 -0.00000000000E+00 -0.45593999997E+02  0.45594000000E+02  0.51100000000E-03 0. -1.
         23    2    1    2    0    0  0.00000000000E+00 -0.35527136788E-14  0.00000000000E+00  0.91188000000E+02  0.91188000000E+02 0.  0.
    9900012    2    3    3    0    0 -0.26122174249E+02  0.25839477973E+02 -0.23941901190E+01  0.54367098928E+02  0.40000033626E+02 0.  0.
        -12    1    3    3    0    0  0.26122174249E+02 -0.25839477973E+02  0.23941901190E+01  0.36820901072E+02  0.00000000000E+00 0.  1.
         11    1    4    4    0    0 -0.13499715670E+02  0.14356879281E+02 -0.99267884752E+01  0.22065888506E+02  0.51100000000E-03 0. -1.
        -11    1    4    4    0    0 -0.20212873909E+02  0.44453924621E+01  0.26774810259E+01  0.20868413709E+02  0.51100000000E-03 0.  1.
         12    1    4    4    0    0  0.75904153299E+01  0.70372062294E+01  0.48551173304E+01  0.11432796713E+02  0.00000000000E+00 0. -1.
</event>
<event>
 8    1  0.2511738E-006  0.9118800E+02  0.7816164E-02  0.1184000E+00
        -11   -1    0    0    0    0  0.00000000000E+00  0.00000000000E+00  0.45593999997E+02  0.45594000000E+02  0.51100000000E-03 0.  1.
         11   -1    0    0    0    0 -0.00000000000E+00 -0.00000000000E+00 -0.45593999997E+02  0.45594000000E+02  0.51100000000E-03 0. -1.
         23    2    1    2    0    0  0.44408920985E-15  0.35527136788E-14  0.00000000000E+00  0.91188000000E+02  0.91188000000E+02 0.  0.
    9900012    2    3    3    0    0 -0.37105649963E+01  0.26541764460E+02  0.25249689794E+02  0.54367076765E+02  0.39999983100E+02 0.  0.
         12    1    3    3    0    0  0.37105649963E+01 -0.26541764460E+02 -0.25249689794E+02  0.36820923235E+02  0.00000000000E+00 0. -1.
         11    1    4    4    0    0 -0.37988614278E+01  0.22524491794E+02  0.49933433642E+01  0.23381992151E+02  0.51100000000E-03 0. -1.
        -11    1    4    4    0    0  0.56958042094E+01  0.10151068069E+02  0.19408428692E+02  0.22631249923E+02  0.51100000000E-03 0.  1.
         12    1    4    4    0    0 -0.56075077779E+01 -0.61337954039E+01  0.84791773735E+00  0.83538346899E+01  0.00000000000E+00 0. -1.
</event>
<event>
 8    1  0.2511738E-006  0.9118800E+02  0.7816164E-02  0.1184000E+00
        -11   -1    0    0    0    0  0.00000000000E+00  0.00000000000E+00  0.45593999997E+02  0.45594000000E+02  0.51100000000E-03 0. -1.
         11   -1    0    0    0    0 -0.00000000000E+00 -0.00000000000E+00 -0.45593999997E+02  0.45594000000E+02  0.51100000000E-03 0.  1.
         23    2    1    2    0    0  0.00000000000E+00  0.00000000000E+00 -0.35527136788E-14  0.91188000000E+02  0.91188000000E+02 0.  0.
    9900012    2    3    3    0    0  0.17134817130E+02  0.83060062149E+01 -0.31514886272E+02  0.54367085372E+02  0.40000002722E+02 0.  0.
         12    1    3    3    0    0 -0.17134817130E+02 -0.83060062149E+01  0.31514886272E+02  0.36820914628E+02  0.00000000000E+00 0. -1.
         11    1    4    4    0    0 -0.58455273578E+01  0.53946148171E+01 -0.22380757743E+02  0.23752270976E+02  0.51100000000E-03 0. -1.
        -11    1    4    4    0    0  0.58292435040E+01  0.10411824692E+01 -0.11756811410E+02  0.13163842735E+02  0.51100000000E-03 0.  1.
        -12    1    4    4    0    0  0.17151100984E+02  0.18702089285E+01  0.26226828812E+01  0.17450971661E+02  0.00000000000E+00 0.  1.
</event>
<event>
 8    1  0.2511738E-006  0.9118800E+02  0.7816164E-02  0.1184000E+00
        -11   -1    0    0    0    0  0.00000000000E+00  0.00000000000E+00  0.45593999997E+02  0.45594000000E+02  0.51100000000E-03 0. -1.
         11   -1    0    0    0    0 -0.00000000000E+00 -0.00000000000E+00 -0.45593999997E+02  0.45594000000E+02  0.51100000000E-03 0.  1.
         23    2    1    2    0    0  0.00000000000E+00  0.35527136788E-14  0.44408920985E-15  0.91188000000E+02  0.91188000000E+02 0.  0.
    9900012    2    3    3    0    0 -0.32629544454E+02 -0.16669045779E+02 -0.36379767623E+01  0.54367093800E+02  0.40000021936E+02 0.  0.
         12    1    3    3    0    0  0.32629544454E+02  0.16669045779E+02  0.36379767623E+01  0.36820906200E+02  0.00000000000E+00 0. -1.
         11    1    4    4    0    0 -0.28052588245E+01 -0.77707780881E+01 -0.53744692712E+01  0.98559316848E+01  0.51100000000E-03 0. -1.
        -11    1    4    4    0    0 -0.79404618872E+01  0.91765785290E+01 -0.79652832578E+01  0.14515724788E+02  0.51100000000E-03 0.  1.
        -12    1    4    4    0    0 -0.21883823742E+02 -0.18074846220E+02  0.97017757667E+01  0.29995437328E+02  0.00000000000E+00 0.  1.
</event>
<event>
 8    1  0.2511738E-006  0.9118800E+02  0.7816164E-02  0.1184000E+00
        -11   -1    0    0    0    0  0.00000000000E+00  0.00000000000E+00  0.45593999997E+02  0.45594000000E+02  0.51100000000E-03 0.  1.
         11   -1    0    0    0    0 -0.00000000000E+00 -0.00000000000E+00 -0.45593999997E+02  0.45594000000E+02  0.51100000000E-03 0. -1.
         23    2    1    2    0    0  0.00000000000E+00  0.00000000000E+00  0.00000000000E+00  0.91188000000E+02  0.91188000000E+02 0.  0.
    9900012    2    3    3    0    0 -0.17431446816E+02  0.20226774306E+02  0.25353541858E+02  0.54367084453E+02  0.40000000628E+02 0.  0.
         12    1    3    3    0    0  0.17431446816E+02 -0.20226774306E+02 -0.25353541858E+02  0.36820915547E+02  0.00000000000E+00 0. -1.
         11    1    4    4    0    0  0.13251642620E+01  0.97934241011E+01  0.36619438333E+01  0.10539309695E+02  0.51100000000E-03 0. -1.
        -11    1    4    4    0    0 -0.31586743369E+01  0.24597071935E+01 -0.82318676581E+01  0.91537439578E+01  0.51100000000E-03 0.  1.
        -12    1    4    4    0    0 -0.15597936741E+02  0.79736430117E+01  0.29923465683E+02  0.34674030800E+02  0.00000000000E+00 0.  1.
</event>
<event>
 8    1  0.2511738E-006  0.9118800E+02  0.7816164E-02  0.1184000E+00
        -11   -1    0    0    0    0  0.00000000000E+00  0.00000000000E+00  0.45593999997E+02  0.45594000000E+02  0.51100000000E-03 0.  1.
         11   -1    0    0    0    0 -0.00000000000E+00 -0.00000000000E+00 -0.45593999997E+02  0.45594000000E+02  0.51100000000E-03 0. -1.
         23    2    1    2    0    0  0.35527136788E-14  0.00000000000E+00  0.00000000000E+00  0.91188000000E+02  0.91188000000E+02 0.  0.
    9900012    2    3    3    0    0 -0.18430296152E+02  0.12759106915E+02  0.29211456223E+02  0.54367084746E+02  0.40000001294E+02 0.  0.
         12    1    3    3    0    0  0.18430296152E+02 -0.12759106915E+02 -0.29211456223E+02  0.36820915254E+02  0.00000000000E+00 0. -1.
         11    1    4    4    0    0 -0.57868856987E+01 -0.26840906984E+01 -0.56623571864E+01  0.85296352873E+01  0.51100000000E-03 0. -1.
        -11    1    4    4    0    0  0.47819350655E+01  0.40066108305E+01  0.17903801432E+02  0.18959587002E+02  0.51100000000E-03 0.  1.
        -12    1    4    4    0    0 -0.17425345519E+02  0.11436586783E+02  0.16970011977E+02  0.26877862456E+02  0.00000000000E+00 0.  1.
</event>
<event>
 8    1  0.2511738E-006  0.9118800E+02  0.7816164E-02  0.1184000E+00
        -11   -1    0    0    0    0  0.00000000000E+00  0.00000000000E+00  0.45593999997E+02  0.45594000000E+02  0.51100000000E-03 0.  1.
         11   -1    0    0    0    0 -0.00000000000E+00 -0.00000000000E+00 -0.45593999997E+02  0.45594000000E+02  0.51100000000E-03 0. -1.
         23    2    1    2    0    0 -0.17763568394E-14 -0.17763568394E-14  0.00000000000E+00  0.91188000000E+02  0.91188000000E+02 0.  0.
    9900012    2    3    3    0    0 -0.80279916362E+01  0.10826891737E+02 -0.34265284640E+02  0.54367082495E+02  0.39999996164E+02 0.  0.
        -12    1    3    3    0    0  0.80279916362E+01 -0.10826891737E+02  0.34265284640E+02  0.36820917505E+02  0.00000000000E+00 0.  1.
         11    1    4    4    0    0 -0.40434208955E+01 -0.25345529422E+01 -0.17616158513E+02  0.18251089068E+02  0.51100000000E-03 0. -1.
        -11    1    4    4    0    0  0.45171129839E+01  0.19107491608E+02 -0.16819279086E+02  0.25853214394E+02  0.51100000000E-03 0.  1.
        -12    1    4    4    0    0 -0.85016837245E+01 -0.57460469288E+01  0.17015295850E+00  0.10262779033E+02  0.00000000000E+00 0.  1.
</event>
<event>
 8    1  0.2511738E-006  0.9118800E+02  0.7816164E-02  0.1184000E+00
        -11   -1    0    0    0    0  0.00000000000E+00  0.00000000000E+00  0.45593999997E+02  0.45594000000E+02  0.51100000000E-03 0.  1.
         11   -1    0    0    0    0 -0.00000000000E+00 -0.00000000000E+00 -0.45593999997E+02  0.45594000000E+02  0.51100000000E-03 0. -1.
         23    2    1    2    0    0  0.35527136788E-14  0.00000000000E+00 -0.35527136788E-14  0.91188000000E+02  0.91188000000E+02 0.  0.
    9900012    2    3    3    0    0 -0.23055740764E+02 -0.36266909116E+01  0.28478972936E+02  0.54367191092E+02  0.40000243732E+02 0.  0.
         12    1    3    3    0    0  0.23055740764E+02  0.36266909116E+01 -0.28478972936E+02  0.36820808908E+02  0.00000000000E+00 0. -1.
         11    1    4    4    0    0 -0.10480195343E+02 -0.44416095666E+01  0.13135308527E+02  0.17380987323E+02  0.51100000000E-03 0. -1.
        -11    1    4    4    0    0 -0.11902547138E+02 -0.12925097513E+02  0.15193847622E+02  0.23228899671E+02  0.51100000000E-03 0.  1.
         12    1    4    4    0    0 -0.67299828314E+00  0.13740016168E+02  0.14981678656E+00  0.13757304098E+02  0.00000000000E+00 0. -1.
</event>
<event>
 8    1  0.2511738E-006  0.9118800E+02  0.7816164E-02  0.1184000E+00
        -11   -1    0    0    0    0  0.00000000000E+00  0.00000000000E+00  0.45593999997E+02  0.45594000000E+02  0.51100000000E-03 0. -1.
         11   -1    0    0    0    0 -0.00000000000E+00 -0.00000000000E+00 -0.45593999997E+02  0.45594000000E+02  0.51100000000E-03 0.  1.
         23    2    1    2    0    0  0.33306690739E-15  0.00000000000E+00  0.00000000000E+00  0.91188000000E+02  0.91188000000E+02 0.  0.
    9900012    2    3    3    0    0 -0.64679270317E+00 -0.20552863749E+02 -0.30544104330E+02  0.54367070376E+02  0.39999968535E+02 0.  0.
         12    1    3    3    0    0  0.64679270317E+00  0.20552863749E+02  0.30544104330E+02  0.36820929624E+02  0.00000000000E+00 0. -1.
         11    1    4    4    0    0  0.32031290046E+01  0.55833804537E+01 -0.22220041665E+01  0.68096604532E+01  0.51100000000E-03 0. -1.
        -11    1    4    4    0    0 -0.46122546980E+01  0.43249151356E+01 -0.57964352219E+00  0.63493126560E+01  0.51100000000E-03 0.  1.
        -12    1    4    4    0    0  0.76233299028E+00 -0.30461159338E+02 -0.27742456641E+02  0.41208097266E+02  0.00000000000E+00 0.  1.
</event>
<event>
 8    1  0.2511738E-006  0.9118800E+02  0.7816164E-02  0.1184000E+00
        -11   -1    0    0    0    0  0.00000000000E+00  0.00000000000E+00  0.45593999997E+02  0.45594000000E+02  0.51100000000E-03 0. -1.
         11   -1    0    0    0    0 -0.00000000000E+00 -0.00000000000E+00 -0.45593999997E+02  0.45594000000E+02  0.51100000000E-03 0.  1.
         23    2    1    2    0    0  0.00000000000E+00  0.00000000000E+00  0.00000000000E+00  0.91188000000E+02  0.91188000000E+02 0.  0.
    9900012    2    3    3    0    0 -0.10396397325E+02  0.22918867613E+02 -0.26877861916E+02  0.54367095188E+02  0.40000025100E+02 0.  0.
         12    1    3    3    0    0  0.10396397325E+02 -0.22918867613E+02  0.26877861916E+02  0.36820904812E+02  0.00000000000E+00 0. -1.
         11    1    4    4    0    0  0.73647469860E+01  0.31737961866E+01 -0.15157939853E+02  0.17148633218E+02  0.51100000000E-03 0. -1.
        -11    1    4    4    0    0 -0.10022959157E+02  0.11698691933E+02  0.57860527800E+01  0.16455926296E+02  0.51100000000E-03 0.  1.
         12    1    4    4    0    0 -0.77381851535E+01  0.80463794928E+01 -0.17505974843E+02  0.20762535674E+02  0.00000000000E+00 0. -1.
</event>
<event>
 8    1  0.2511738E-006  0.9118800E+02  0.7816164E-02  0.1184000E+00
        -11   -1    0    0    0    0  0.00000000000E+00  0.00000000000E+00  0.45593999997E+02  0.45594000000E+02  0.51100000000E-03 0. -1.
         11   -1    0    0    0    0 -0.00000000000E+00 -0.00000000000E+00 -0.45593999997E+02  0.45594000000E+02  0.51100000000E-03 0.  1.
         23    2    1    2    0    0 -0.35527136788E-14  0.00000000000E+00  0.00000000000E+00  0.91188000000E+02  0.91188000000E+02 0.  0.
    9900012    2    3    3    0    0  0.24058685428E+02 -0.19485819081E+02  0.19931443317E+02  0.54367083085E+02  0.39999997509E+02 0.  0.
        -12    1    3    3    0    0 -0.24058685428E+02  0.19485819081E+02 -0.19931443317E+02  0.36820916915E+02  0.00000000000E+00 0.  1.
         11    1    4    4    0    0  0.12474888761E+02 -0.42039137984E+01 -0.21041208432E+01  0.13331281469E+02  0.51100000000E-03 0. -1.
        -11    1    4    4    0    0 -0.68359317350E+01 -0.66496239532E+01 -0.17946166980E+01  0.97040254925E+01  0.51100000000E-03 0.  1.
         12    1    4    4    0    0  0.18419728402E+02 -0.86322813291E+01  0.23830180858E+02  0.31331776123E+02  0.00000000000E+00 0. -1.
</event>
<event>
 8    1  0.2511738E-006  0.9118800E+02  0.7816164E-02  0.1184000E+00
        -11   -1    0    0    0    0  0.00000000000E+00  0.00000000000E+00  0.45593999997E+02  0.45594000000E+02  0.51100000000E-03 0.  1.
         11   -1    0    0    0    0 -0.00000000000E+00 -0.00000000000E+00 -0.45593999997E+02  0.45594000000E+02  0.51100000000E-03 0. -1.
         23    2    1    2    0    0 -0.71054273576E-14  0.88817841970E-15  0.00000000000E+00  0.91188000000E+02  0.91188000000E+02 0.  0.
    9900012    2    3    3    0    0  0.34217477491E+02 -0.89771884249E+00  0.13569799118E+02  0.54367066917E+02  0.39999960651E+02 0.  0.
         12    1    3    3    0    0 -0.34217477491E+02  0.89771884249E+00 -0.13569799118E+02  0.36820933083E+02  0.00000000000E+00 0. -1.
         11    1    4    4    0    0 -0.17797833163E+01 -0.51804863356E+01  0.55234040607E+01  0.77790140767E+01  0.51100000000E-03 0. -1.
        -11    1    4    4    0    0  0.30394546221E+02 -0.56058218739E+01 -0.25982316880E+01  0.31016197172E+02  0.51100000000E-03 0.  1.
        -12    1    4    4    0    0  0.56027145867E+01  0.98885893670E+01  0.10644626745E+02  0.15571855668E+02  0.00000000000E+00 0.  1.
</event>
<event>
 8    1  0.2511738E-006  0.9118800E+02  0.7816164E-02  0.1184000E+00
        -11   -1    0    0    0    0  0.00000000000E+00  0.00000000000E+00  0.45593999997E+02  0.45594000000E+02  0.51100000000E-03 0.  1.
         11   -1    0    0    0    0 -0.00000000000E+00 -0.00000000000E+00 -0.45593999997E+02  0.45594000000E+02  0.51100000000E-03 0. -1.
         23    2    1    2    0    0  0.00000000000E+00  0.00000000000E+00 -0.35527136788E-14  0.91188000000E+02  0.91188000000E+02 0.  0.
    9900012    2    3    3    0    0 -0.19220264528E+02  0.18791564464E+02 -0.25164199828E+02  0.54367103535E+02  0.40000044128E+02 0.  0.
        -12    1    3    3    0    0  0.19220264528E+02 -0.18791564464E+02  0.25164199828E+02  0.36820896465E+02  0.00000000000E+00 0.  1.
         11    1    4    4    0    0  0.48750025238E+01 -0.53654445636E+01 -0.56250779406E+01  0.91757913594E+01  0.51100000000E-03 0.  1.
        -11    1    4    4    0    0  0.33322725497E+01  0.19697018114E+01 -0.65298146872E+01  0.75909318059E+01  0.51100000000E-03 0. -1.
         12    1    4    4    0    0 -0.27427539601E+02  0.22187307217E+02 -0.13009307200E+02  0.37600380369E+02  0.00000000000E+00 0. -1.
</event>
<event>
 8    1  0.2511738E-006  0.9118800E+02  0.7816164E-02  0.1184000E+00
        -11   -1    0    0    0    0  0.00000000000E+00  0.00000000000E+00  0.45593999997E+02  0.45594000000E+02  0.51100000000E-03 0.  1.
         11   -1    0    0    0    0 -0.00000000000E+00 -0.00000000000E+00 -0.45593999997E+02  0.45594000000E+02  0.51100000000E-03 0. -1.
         23    2    1    2    0    0  0.00000000000E+00 -0.35527136788E-14  0.00000000000E+00  0.91188000000E+02  0.91188000000E+02 0.  0.
    9900012    2    3    3    0    0  0.35846917652E+01  0.12345992913E+02  0.34503687209E+02  0.54367109366E+02  0.40000057422E+02 0.  0.
         12    1    3    3    0    0 -0.35846917652E+01 -0.12345992913E+02 -0.34503687209E+02  0.36820890634E+02  0.00000000000E+00 0. -1.
         11    1    4    4    0    0 -0.45764716741E+01 -0.38718572018E+01 -0.50368461686E+01  0.78297631357E+01  0.51100000000E-03 0. -1.
        -11    1    4    4    0    0 -0.34687782948E+01  0.10005013494E+02  0.23481905047E+02  0.25759126204E+02  0.51100000000E-03 0.  1.
         12    1    4    4    0    0  0.11629941734E+02  0.62128366212E+01  0.16058628330E+02  0.20778220027E+02  0.00000000000E+00 0. -1.
</event>
<event>
 8    1  0.2511738E-006  0.9118800E+02  0.7816164E-02  0.1184000E+00
        -11   -1    0    0    0    0  0.00000000000E+00  0.00000000000E+00  0.45593999997E+02  0.45594000000E+02  0.51100000000E-03 0. -1.
         11   -1    0    0    0    0 -0.00000000000E+00 -0.00000000000E+00 -0.45593999997E+02  0.45594000000E+02  0.51100000000E-03 0.  1.
         23    2    1    2    0    0  0.00000000000E+00  0.00000000000E+00  0.00000000000E+00  0.91188000000E+02  0.91188000000E+02 0.  0.
    9900012    2    3    3    0    0  0.13932529972E+02  0.21224433707E+02 -0.26668116511E+02  0.54367076385E+02  0.39999982235E+02 0.  0.
         12    1    3    3    0    0 -0.13932529972E+02 -0.21224433707E+02  0.26668116511E+02  0.36820923615E+02  0.00000000000E+00 0. -1.
         11    1    4    4    0    0  0.13073692266E+02  0.12608150018E+02  0.37385576588E+01  0.18543561955E+02  0.51100000000E-03 0. -1.
        -11    1    4    4    0    0  0.81455590936E+01  0.83259961197E+01 -0.18564042420E+02  0.21915656859E+02  0.51100000000E-03 0.  1.
        -12    1    4    4    0    0 -0.72867213872E+01  0.29028756902E+00 -0.11842631750E+02  0.13907857571E+02  0.00000000000E+00 0.  1.
</event>
<event>
 8    1  0.2511738E-006  0.9118800E+02  0.7816164E-02  0.1184000E+00
        -11   -1    0    0    0    0  0.00000000000E+00  0.00000000000E+00  0.45593999997E+02  0.45594000000E+02  0.51100000000E-03 0. -1.
         11   -1    0    0    0    0 -0.00000000000E+00 -0.00000000000E+00 -0.45593999997E+02  0.45594000000E+02  0.51100000000E-03 0.  1.
         23    2    1    2    0    0  0.22204460493E-15  0.88817841970E-15  0.71054273576E-14  0.91188000000E+02  0.91188000000E+02 0.  0.
    9900012    2    3    3    0    0 -0.85346546964E+00  0.66260601197E+01 -0.36209747436E+02  0.54367097167E+02  0.40000029612E+02 0.  0.
         12    1    3    3    0    0  0.85346546964E+00 -0.66260601197E+01  0.36209747436E+02  0.36820902833E+02  0.00000000000E+00 0. -1.
         11    1    4    4    0    0  0.57417767688E+01 -0.36858352189E+01 -0.11682150018E+02  0.13528710620E+02  0.51100000000E-03 0. -1.
        -11    1    4    4    0    0 -0.69076318046E+01 -0.62735146161E+01  0.20075956622E+01  0.95447788549E+01  0.51100000000E-03 0.  1.
        -12    1    4    4    0    0  0.31238956615E+00  0.16585409955E+02 -0.26535193081E+02  0.31293607693E+02  0.00000000000E+00 0.  1.
</event>
<event>
 8    1  0.2511738E-006  0.9118800E+02  0.7816164E-02  0.1184000E+00
        -11   -1    0    0    0    0  0.00000000000E+00  0.00000000000E+00  0.45593999997E+02  0.45594000000E+02  0.51100000000E-03 0.  1.
         11   -1    0    0    0    0 -0.00000000000E+00 -0.00000000000E+00 -0.45593999997E+02  0.45594000000E+02  0.51100000000E-03 0. -1.
         23    2    1    2    0    0 -0.11102230246E-14 -0.44408920985E-15  0.14210854715E-13  0.91188000000E+02  0.91188000000E+02 0.  0.
    9900012    2    3    3    0    0 -0.12634752904E+01 -0.17380007581E+01  0.36758178285E+02  0.54367072699E+02  0.39999973832E+02 0.  0.
         12    1    3    3    0    0  0.12634752904E+01  0.17380007581E+01 -0.36758178285E+02  0.36820927301E+02  0.00000000000E+00 0. -1.
         11    1    4    4    0    0  0.11208819082E+02  0.42704430782E+01  0.31350657402E+02  0.33566918672E+02  0.51100000000E-03 0. -1.
        -11    1    4    4    0    0 -0.13764772919E+01  0.30492020167E-01  0.78190198921E+01  0.79393130580E+01  0.51100000000E-03 0.  1.
        -12    1    4    4    0    0 -0.11095817080E+02 -0.60389358564E+01 -0.24114990091E+01  0.12860840969E+02  0.00000000000E+00 0.  1.
</event>
<event>
 8    1  0.2511738E-006  0.9118800E+02  0.7816164E-02  0.1184000E+00
        -11   -1    0    0    0    0  0.00000000000E+00  0.00000000000E+00  0.45593999997E+02  0.45594000000E+02  0.51100000000E-03 0. -1.
         11   -1    0    0    0    0 -0.00000000000E+00 -0.00000000000E+00 -0.45593999997E+02  0.45594000000E+02  0.51100000000E-03 0.  1.
         23    2    1    2    0    0  0.00000000000E+00 -0.17763568394E-14 -0.35527136788E-14  0.91188000000E+02  0.91188000000E+02 0.  0.
    9900012    2    3    3    0    0 -0.23264891558E+02 -0.14857890316E+02  0.24367335825E+02  0.54367093723E+02  0.40000021760E+02 0.  0.
        -12    1    3    3    0    0  0.23264891558E+02  0.14857890316E+02 -0.24367335825E+02  0.36820906277E+02  0.00000000000E+00 0.  1.
         11    1    4    4    0    0 -0.47780319053E+00  0.64364816903E+01 -0.42063596028E+01  0.77038986109E+01  0.51100000000E-03 0. -1.
        -11    1    4    4    0    0 -0.64340250991E+01  0.15708986029E+01  0.61426362609E-01  0.66233054328E+01  0.51100000000E-03 0.  1.
         12    1    4    4    0    0 -0.16353063268E+02 -0.22865270609E+02  0.28512269065E+02  0.40039889679E+02  0.00000000000E+00 0. -1.
</event>
<event>
 8    1  0.2511738E-006  0.9118800E+02  0.7816164E-02  0.1184000E+00
        -11   -1    0    0    0    0  0.00000000000E+00  0.00000000000E+00  0.45593999997E+02  0.45594000000E+02  0.51100000000E-03 0.  1.
         11   -1    0    0    0    0 -0.00000000000E+00 -0.00000000000E+00 -0.45593999997E+02  0.45594000000E+02  0.51100000000E-03 0. -1.
         23    2    1    2    0    0 -0.17763568394E-14  0.00000000000E+00 -0.88817841970E-15  0.91188000000E+02  0.91188000000E+02 0.  0.
    9900012    2    3    3    0    0 -0.10830065602E+02 -0.34672005751E+02  0.60284083050E+01  0.54367081890E+02  0.39999994785E+02 0.  0.
        -12    1    3    3    0    0  0.10830065602E+02  0.34672005751E+02 -0.60284083050E+01  0.36820918110E+02  0.00000000000E+00 0.  1.
         11    1    4    4    0    0 -0.76066483022E+01 -0.17719973179E+02 -0.16677985418E+02  0.25495367143E+02  0.51100000000E-03 0. -1.
        -11    1    4    4    0    0 -0.36004968263E+00 -0.21955661122E+01  0.59950485292E+01  0.63945878253E+01  0.51100000000E-03 0.  1.
         12    1    4    4    0    0 -0.28633676167E+01 -0.14756466460E+02  0.16711345194E+02  0.22477126922E+02  0.00000000000E+00 0. -1.
</event>
<event>
 8    1  0.2511738E-006  0.9118800E+02  0.7816164E-02  0.1184000E+00
        -11   -1    0    0    0    0  0.00000000000E+00  0.00000000000E+00  0.45593999997E+02  0.45594000000E+02  0.51100000000E-03 0.  1.
         11   -1    0    0    0    0 -0.00000000000E+00 -0.00000000000E+00 -0.45593999997E+02  0.45594000000E+02  0.51100000000E-03 0. -1.
         23    2    1    2    0    0  0.00000000000E+00 -0.11102230246E-14 -0.71054273576E-14  0.91188000000E+02  0.91188000000E+02 0.  0.
    9900012    2    3    3    0    0 -0.16736449567E+02 -0.15026753750E+01  0.32762986510E+02  0.54367081184E+02  0.39999993175E+02 0.  0.
         12    1    3    3    0    0  0.16736449567E+02  0.15026753750E+01 -0.32762986510E+02  0.36820918816E+02  0.00000000000E+00 0. -1.
         11    1    4    4    0    0 -0.62288577976E+01  0.48293356666E+01 -0.30481124021E+01  0.84505705086E+01  0.51100000000E-03 0. -1.
        -11    1    4    4    0    0 -0.61603640219E+01 -0.10675882231E+02  0.37556930041E+02  0.39527807182E+02  0.51100000000E-03 0.  1.
        -12    1    4    4    0    0 -0.43472277475E+01  0.43438711891E+01 -0.17458311283E+01  0.63887034932E+01  0.00000000000E+00 0.  1.
</event>
<event>
 8    1  0.2511738E-006  0.9118800E+02  0.7816164E-02  0.1184000E+00
        -11   -1    0    0    0    0  0.00000000000E+00  0.00000000000E+00  0.45593999997E+02  0.45594000000E+02  0.51100000000E-03 0.  1.
         11   -1    0    0    0    0 -0.00000000000E+00 -0.00000000000E+00 -0.45593999997E+02  0.45594000000E+02  0.51100000000E-03 0. -1.
         23    2    1    2    0    0 -0.22204460493E-14  0.71054273576E-14  0.17763568394E-14  0.91188000000E+02  0.91188000000E+02 0.  0.
    9900012    2    3    3    0    0 -0.21765636770E+01 -0.35035821212E+02 -0.11114519874E+02  0.54367099013E+02  0.40000033820E+02 0.  0.
        -12    1    3    3    0    0  0.21765636770E+01  0.35035821212E+02  0.11114519874E+02  0.36820900987E+02  0.00000000000E+00 0.  1.
         11    1    4    4    0    0 -0.16739620168E+02 -0.11716122138E+02 -0.88304735499E+01  0.22258923260E+02  0.51100000000E-03 0. -1.
        -11    1    4    4    0    0  0.38508745024E+01 -0.36531780703E+01  0.61986330910E+01  0.81607595789E+01  0.51100000000E-03 0.  1.
         12    1    4    4    0    0  0.10712181989E+02 -0.19666521004E+02 -0.84826794151E+01  0.23947416174E+02  0.00000000000E+00 0. -1.
</event>
<event>
 8    1  0.2511738E-006  0.9118800E+02  0.7816164E-02  0.1184000E+00
        -11   -1    0    0    0    0  0.00000000000E+00  0.00000000000E+00  0.45593999997E+02  0.45594000000E+02  0.51100000000E-03 0. -1.
         11   -1    0    0    0    0 -0.00000000000E+00 -0.00000000000E+00 -0.45593999997E+02  0.45594000000E+02  0.51100000000E-03 0.  1.
         23    2    1    2    0    0  0.00000000000E+00  0.35527136788E-14  0.88817841970E-15  0.91188000000E+02  0.91188000000E+02 0.  0.
    9900012    2    3    3    0    0 -0.24950153494E+02 -0.26921878747E+02 -0.29123709647E+01  0.54367087202E+02  0.40000006894E+02 0.  0.
        -12    1    3    3    0    0  0.24950153494E+02  0.26921878747E+02  0.29123709647E+01  0.36820912798E+02  0.00000000000E+00 0.  1.
         11    1    4    4    0    0  0.24347975360E+01  0.67015413821E+00  0.49303333790E+01  0.55394524187E+01  0.51100000000E-03 0. -1.
        -11    1    4    4    0    0  0.14839660844E+00 -0.65128264230E+01 -0.12248298794E+02  0.13872986455E+02  0.51100000000E-03 0.  1.
         12    1    4    4    0    0 -0.27533347639E+02 -0.21079206462E+02  0.44055944503E+01  0.34954648328E+02  0.00000000000E+00 0. -1.
</event>
<event>
 8    1  0.2511738E-006  0.9118800E+02  0.7816164E-02  0.1184000E+00
        -11   -1    0    0    0    0  0.00000000000E+00  0.00000000000E+00  0.45593999997E+02  0.45594000000E+02  0.51100000000E-03 0.  1.
         11   -1    0    0    0    0 -0.00000000000E+00 -0.00000000000E+00 -0.45593999997E+02  0.45594000000E+02  0.51100000000E-03 0. -1.
         23    2    1    2    0    0 -0.35527136788E-14  0.00000000000E+00  0.00000000000E+00  0.91188000000E+02  0.91188000000E+02 0.  0.
    9900012    2    3    3    0    0 -0.21936657940E+02  0.24195724750E+02  0.17003823894E+02  0.54367080881E+02  0.39999992484E+02 0.  0.
         12    1    3    3    0    0  0.21936657940E+02 -0.24195724750E+02 -0.17003823894E+02  0.36820919119E+02  0.00000000000E+00 0. -1.
         11    1    4    4    0    0 -0.14933896915E+02  0.99157991984E-02  0.23506383686E+01  0.15117766912E+02  0.51100000000E-03 0. -1.
        -11    1    4    4    0    0  0.13593475499E+01  0.17415839618E+02  0.20557046127E+02  0.26976868631E+02  0.51100000000E-03 0.  1.
        -12    1    4    4    0    0 -0.83621085751E+01  0.67699693325E+01 -0.59038606020E+01  0.12272445339E+02  0.00000000000E+00 0.  1.
</event>
<event>
 8    1  0.2511738E-006  0.9118800E+02  0.7816164E-02  0.1184000E+00
        -11   -1    0    0    0    0  0.00000000000E+00  0.00000000000E+00  0.45593999997E+02  0.45594000000E+02  0.51100000000E-03 0.  1.
         11   -1    0    0    0    0 -0.00000000000E+00 -0.00000000000E+00 -0.45593999997E+02  0.45594000000E+02  0.51100000000E-03 0. -1.
         23    2    1    2    0    0  0.00000000000E+00  0.00000000000E+00  0.00000000000E+00  0.91188000000E+02  0.91188000000E+02 0.  0.
    9900012    2    3    3    0    0 -0.26240658445E+02 -0.19800441759E+02 -0.16587524614E+02  0.54367141478E+02  0.40000130626E+02 0.  0.
        -12    1    3    3    0    0  0.26240658445E+02  0.19800441759E+02  0.16587524614E+02  0.36820858522E+02  0.00000000000E+00 0.  1.
         11    1    4    4    0    0 -0.11754262578E+02 -0.23159188423E+02 -0.85020253970E+01  0.27327552640E+02  0.51100000000E-03 0. -1.
        -11    1    4    4    0    0 -0.29446265077E+01  0.17641371795E+01  0.71076409932E+01  0.78931341055E+01  0.51100000000E-03 0.  1.
         12    1    4    4    0    0 -0.11541769359E+02  0.15946094847E+01 -0.15193140210E+02  0.19146454732E+02  0.00000000000E+00 0. -1.
</event>
<event>
 8    1  0.2511738E-006  0.9118800E+02  0.7816164E-02  0.1184000E+00
        -11   -1    0    0    0    0  0.00000000000E+00  0.00000000000E+00  0.45593999997E+02  0.45594000000E+02  0.51100000000E-03 0.  1.
         11   -1    0    0    0    0 -0.00000000000E+00 -0.00000000000E+00 -0.45593999997E+02  0.45594000000E+02  0.51100000000E-03 0. -1.
         23    2    1    2    0    0  0.00000000000E+00  0.66613381478E-15  0.00000000000E+00  0.91188000000E+02  0.91188000000E+02 0.  0.
    9900012    2    3    3    0    0 -0.16297494292E+02  0.11092481183E+01  0.32999119028E+02  0.54367073773E+02  0.39999976281E+02 0.  0.
         12    1    3    3    0    0  0.16297494292E+02 -0.11092481183E+01 -0.32999119028E+02  0.36820926227E+02  0.00000000000E+00 0. -1.
         11    1    4    4    0    0 -0.57741886356E+01 -0.62531827669E+01 -0.53203515601E+01  0.10037414513E+02  0.51100000000E-03 0. -1.
        -11    1    4    4    0    0  0.14228735568E+01 -0.14638174308E+01  0.22640495593E+02  0.22732341973E+02  0.51100000000E-03 0.  1.
        -12    1    4    4    0    0 -0.11946179213E+02  0.88262483160E+01  0.15678974995E+02  0.21597317288E+02  0.00000000000E+00 0.  1.
</event>
<event>
 8    1  0.2511738E-006  0.9118800E+02  0.7816164E-02  0.1184000E+00
        -11   -1    0    0    0    0  0.00000000000E+00  0.00000000000E+00  0.45593999997E+02  0.45594000000E+02  0.51100000000E-03 0. -1.
         11   -1    0    0    0    0 -0.00000000000E+00 -0.00000000000E+00 -0.45593999997E+02  0.45594000000E+02  0.51100000000E-03 0.  1.
         23    2    1    2    0    0  0.00000000000E+00  0.00000000000E+00  0.35527136788E-14  0.91188000000E+02  0.91188000000E+02 0.  0.
    9900012    2    3    3    0    0 -0.34162660455E+02  0.46970397539E+01 -0.12908589469E+02  0.54367065277E+02  0.39999956912E+02 0.  0.
        -12    1    3    3    0    0  0.34162660455E+02 -0.46970397539E+01  0.12908589469E+02  0.36820934723E+02  0.00000000000E+00 0.  1.
         11    1    4    4    0    0 -0.10633863430E+02  0.14327178742E+02  0.74264003631E+01  0.19326109923E+02  0.51100000000E-03 0. -1.
        -11    1    4    4    0    0 -0.33903718960E+01  0.11459395922E+01  0.10731013633E+01  0.37362208097E+01  0.51100000000E-03 0.  1.
        -12    1    4    4    0    0 -0.20138425130E+02 -0.10776078580E+02 -0.21408091195E+02  0.31304734544E+02  0.00000000000E+00 0.  1.
</event>
<event>
 8    1  0.2511738E-006  0.9118800E+02  0.7816164E-02  0.1184000E+00
        -11   -1    0    0    0    0  0.00000000000E+00  0.00000000000E+00  0.45593999997E+02  0.45594000000E+02  0.51100000000E-03 0. -1.
         11   -1    0    0    0    0 -0.00000000000E+00 -0.00000000000E+00 -0.45593999997E+02  0.45594000000E+02  0.51100000000E-03 0.  1.
         23    2    1    2    0    0  0.71054273576E-14 -0.88817841970E-15  0.00000000000E+00  0.91188000000E+02  0.91188000000E+02 0.  0.
    9900012    2    3    3    0    0 -0.32701512954E+02  0.50760791093E+01 -0.16144111304E+02  0.54366975321E+02  0.39999751839E+02 0.  0.
         12    1    3    3    0    0  0.32701512954E+02 -0.50760791093E+01  0.16144111304E+02  0.36821024679E+02  0.00000000000E+00 0. -1.
         11    1    4    4    0    0  0.75794464949E+01  0.29048763608E+00 -0.10841652651E+01  0.76621019843E+01  0.51100000000E-03 0. -1.
        -11    1    4    4    0    0 -0.25590907628E+02  0.76610854153E+01 -0.16920213609E+02  0.31620885690E+02  0.51100000000E-03 0.  1.
        -12    1    4    4    0    0 -0.14690051821E+02 -0.28754939421E+01  0.18602675701E+01  0.15083987647E+02  0.00000000000E+00 0.  1.
</event>
<event>
 8    1  0.2511738E-006  0.9118800E+02  0.7816164E-02  0.1184000E+00
        -11   -1    0    0    0    0  0.00000000000E+00  0.00000000000E+00  0.45593999997E+02  0.45594000000E+02  0.51100000000E-03 0.  1.
         11   -1    0    0    0    0 -0.00000000000E+00 -0.00000000000E+00 -0.45593999997E+02  0.45594000000E+02  0.51100000000E-03 0. -1.
         23    2    1    2    0    0  0.00000000000E+00 -0.44408920985E-15  0.17763568394E-14  0.91188000000E+02  0.91188000000E+02 0.  0.
    9900012    2    3    3    0    0  0.33202010313E+02 -0.35710907520E+01  0.15513023290E+02  0.54367081087E+02  0.39999992953E+02 0.  0.
         12    1    3    3    0    0 -0.33202010313E+02  0.35710907520E+01 -0.15513023290E+02  0.36820918913E+02  0.00000000000E+00 0. -1.
         11    1    4    4    0    0 -0.58319617440E+01  0.12448541134E+01  0.12383998627E+02  0.13744994063E+02  0.51100000000E-03 0. -1.
        -11    1    4    4    0    0  0.40952137901E+01 -0.31271562831E+01 -0.14281899427E+01  0.53469252079E+01  0.51100000000E-03 0.  1.
        -12    1    4    4    0    0  0.34938758267E+02 -0.16887885823E+01  0.45572146060E+01  0.35275161815E+02  0.00000000000E+00 0.  1.
</event>
<event>
 8    1  0.2511738E-006  0.9118800E+02  0.7816164E-02  0.1184000E+00
        -11   -1    0    0    0    0  0.00000000000E+00  0.00000000000E+00  0.45593999997E+02  0.45594000000E+02  0.51100000000E-03 0. -1.
         11   -1    0    0    0    0 -0.00000000000E+00 -0.00000000000E+00 -0.45593999997E+02  0.45594000000E+02  0.51100000000E-03 0.  1.
         23    2    1    2    0    0  0.00000000000E+00  0.00000000000E+00  0.17763568394E-14  0.91188000000E+02  0.91188000000E+02 0.  0.
    9900012    2    3    3    0    0 -0.31934875136E+02  0.92349128638E+01  0.15832268935E+02  0.54367073814E+02  0.39999976374E+02 0.  0.
        -12    1    3    3    0    0  0.31934875136E+02 -0.92349128638E+01 -0.15832268935E+02  0.36820926186E+02  0.00000000000E+00 0.  1.
         11    1    4    4    0    0 -0.25605134347E+02  0.17522907269E+02  0.18979390789E+02  0.36371588624E+02  0.51100000000E-03 0. -1.
        -11    1    4    4    0    0 -0.63614035323E+01 -0.46029096065E+01  0.48227556008E+01  0.92148360589E+01  0.51100000000E-03 0.  1.
         12    1    4    4    0    0  0.31662742821E-01 -0.36850847982E+01 -0.79698774557E+01  0.87806491308E+01  0.00000000000E+00 0. -1.
</event>
<event>
 8    1  0.2511738E-006  0.9118800E+02  0.7816164E-02  0.1184000E+00
        -11   -1    0    0    0    0  0.00000000000E+00  0.00000000000E+00  0.45593999997E+02  0.45594000000E+02  0.51100000000E-03 0.  1.
         11   -1    0    0    0    0 -0.00000000000E+00 -0.00000000000E+00 -0.45593999997E+02  0.45594000000E+02  0.51100000000E-03 0. -1.
         23    2    1    2    0    0 -0.88817841970E-15  0.00000000000E+00  0.00000000000E+00  0.91188000000E+02  0.91188000000E+02 0.  0.
    9900012    2    3    3    0    0  0.71755450845E+01 -0.27610068402E+02 -0.23280351393E+02  0.54367094452E+02  0.40000023421E+02 0.  0.
        -12    1    3    3    0    0 -0.71755450845E+01  0.27610068402E+02  0.23280351393E+02  0.36820905548E+02  0.00000000000E+00 0.  1.
         11    1    4    4    0    0 -0.68073894429E+01 -0.18063545715E+02 -0.12915870396E+02  0.23226104778E+02  0.51100000000E-03 0. -1.
        -11    1    4    4    0    0  0.28841995111E+01 -0.87233510878E+01  0.62725323094E+01  0.11124752710E+02  0.51100000000E-03 0.  1.
        -12    1    4    4    0    0  0.11098735016E+02 -0.82317159978E+00 -0.16637013306E+02  0.20016236964E+02  0.00000000000E+00 0.  1.
</event>
<event>
 8    1  0.2511738E-006  0.9118800E+02  0.7816164E-02  0.1184000E+00
        -11   -1    0    0    0    0  0.00000000000E+00  0.00000000000E+00  0.45593999997E+02  0.45594000000E+02  0.51100000000E-03 0. -1.
         11   -1    0    0    0    0 -0.00000000000E+00 -0.00000000000E+00 -0.45593999997E+02  0.45594000000E+02  0.51100000000E-03 0.  1.
         23    2    1    2    0    0 -0.44408920985E-15  0.00000000000E+00  0.00000000000E+00  0.91188000000E+02  0.91188000000E+02 0.  0.
    9900012    2    3    3    0    0  0.28009810759E+01 -0.19504077040E+02 -0.31105059548E+02  0.54367092275E+02  0.40000018459E+02 0.  0.
         12    1    3    3    0    0 -0.28009810759E+01  0.19504077040E+02  0.31105059548E+02  0.36820907725E+02  0.00000000000E+00 0. -1.
         11    1    4    4    0    0 -0.64283679297E+01 -0.81510968513E+01  0.32045200516E+01  0.10864310523E+02  0.51100000000E-03 0. -1.
        -11    1    4    4    0    0  0.11994124527E+02 -0.77582508604E+00 -0.28911228146E+02  0.31310062934E+02  0.51100000000E-03 0.  1.
        -12    1    4    4    0    0 -0.27647755212E+01 -0.10577155103E+02 -0.53983514536E+01  0.12192718818E+02  0.00000000000E+00 0.  1.
</event>
<event>
 8    1  0.2511738E-006  0.9118800E+02  0.7816164E-02  0.1184000E+00
        -11   -1    0    0    0    0  0.00000000000E+00  0.00000000000E+00  0.45593999997E+02  0.45594000000E+02  0.51100000000E-03 0.  1.
         11   -1    0    0    0    0 -0.00000000000E+00 -0.00000000000E+00 -0.45593999997E+02  0.45594000000E+02  0.51100000000E-03 0. -1.
         23    2    1    2    0    0  0.00000000000E+00  0.00000000000E+00  0.00000000000E+00  0.91188000000E+02  0.91188000000E+02 0.  0.
    9900012    2    3    3    0    0 -0.18215511396E+02 -0.31361681712E+02  0.63577401984E+01  0.54367071227E+02  0.39999970477E+02 0.  0.
         12    1    3    3    0    0  0.18215511396E+02  0.31361681712E+02 -0.63577401984E+01  0.36820928773E+02  0.00000000000E+00 0. -1.
         11    1    4    4    0    0 -0.34055893988E+01 -0.19752777847E+02  0.11950766834E+02  0.23336475740E+02  0.51100000000E-03 0. -1.
        -11    1    4    4    0    0 -0.10380459152E+02 -0.14409083514E+02  0.56420233019E+01  0.18633519450E+02  0.51100000000E-03 0.  1.
         12    1    4    4    0    0 -0.44294628456E+01  0.28001796476E+01 -0.11235049937E+02  0.12397076036E+02  0.00000000000E+00 0. -1.
</event>
<event>
 8    1  0.2511738E-006  0.9118800E+02  0.7816164E-02  0.1184000E+00
        -11   -1    0    0    0    0  0.00000000000E+00  0.00000000000E+00  0.45593999997E+02  0.45594000000E+02  0.51100000000E-03 0. -1.
         11   -1    0    0    0    0 -0.00000000000E+00 -0.00000000000E+00 -0.45593999997E+02  0.45594000000E+02  0.51100000000E-03 0.  1.
         23    2    1    2    0    0  0.35527136788E-14 -0.44408920985E-15 -0.35527136788E-14  0.91188000000E+02  0.91188000000E+02 0.  0.
    9900012    2    3    3    0    0 -0.25077866033E+02 -0.21828000322E+01  0.26872199657E+02  0.54367094319E+02  0.40000023119E+02 0.  0.
        -12    1    3    3    0    0  0.25077866033E+02  0.21828000322E+01 -0.26872199657E+02  0.36820905681E+02  0.00000000000E+00 0.  1.
         11    1    4    4    0    0  0.65579514615E+01 -0.60173503841E+01  0.38636086916E+01  0.97027163928E+01  0.51100000000E-03 0. -1.
        -11    1    4    4    0    0 -0.16894434072E+02 -0.26623643508E+01  0.66107434748E+00  0.17115697652E+02  0.51100000000E-03 0.  1.
         12    1    4    4    0    0 -0.14741383423E+02  0.64969147027E+01  0.22347516618E+02  0.27548680274E+02  0.00000000000E+00 0. -1.
</event>
<event>
 8    1  0.2511738E-006  0.9118800E+02  0.7816164E-02  0.1184000E+00
        -11   -1    0    0    0    0  0.00000000000E+00  0.00000000000E+00  0.45593999997E+02  0.45594000000E+02  0.51100000000E-03 0. -1.
         11   -1    0    0    0    0 -0.00000000000E+00 -0.00000000000E+00 -0.45593999997E+02  0.45594000000E+02  0.51100000000E-03 0.  1.
         23    2    1    2    0    0  0.00000000000E+00  0.35527136788E-14 -0.17763568394E-14  0.91188000000E+02  0.91188000000E+02 0.  0.
    9900012    2    3    3    0    0 -0.18928504773E+02 -0.28654116174E+02 -0.13282827320E+02  0.54367079747E+02  0.39999989900E+02 0.  0.
        -12    1    3    3    0    0  0.18928504773E+02  0.28654116174E+02  0.13282827320E+02  0.36820920253E+02  0.00000000000E+00 0.  1.
         11    1    4    4    0    0 -0.69361592314E+01  0.35116553939E+01 -0.12059935326E+02  0.14348660872E+02  0.51100000000E-03 0. -1.
        -11    1    4    4    0    0 -0.10064248952E+02 -0.33857846271E+02  0.25967317796E+01  0.35417310419E+02  0.51100000000E-03 0.  1.
        -12    1    4    4    0    0 -0.19280965889E+01  0.16920747035E+01 -0.38196237735E+01  0.46011084566E+01  0.00000000000E+00 0.  1.
</event>
<event>
 8    1  0.2511738E-006  0.9118800E+02  0.7816164E-02  0.1184000E+00
        -11   -1    0    0    0    0  0.00000000000E+00  0.00000000000E+00  0.45593999997E+02  0.45594000000E+02  0.51100000000E-03 0. -1.
         11   -1    0    0    0    0 -0.00000000000E+00 -0.00000000000E+00 -0.45593999997E+02  0.45594000000E+02  0.51100000000E-03 0.  1.
         23    2    1    2    0    0  0.00000000000E+00  0.00000000000E+00  0.00000000000E+00  0.91188000000E+02  0.91188000000E+02 0.  0.
    9900012    2    3    3    0    0 -0.54536077054E+01 -0.14166407346E+02 -0.33546260714E+02  0.54367074673E+02  0.39999978331E+02 0.  0.
         12    1    3    3    0    0  0.54536077054E+01  0.14166407346E+02  0.33546260714E+02  0.36820925327E+02  0.00000000000E+00 0. -1.
         11    1    4    4    0    0 -0.50368759018E+01 -0.32004669327E+01 -0.38629231886E+01  0.71088172898E+01  0.51100000000E-03 0. -1.
        -11    1    4    4    0    0  0.10167056609E+02  0.40778284821E+01  0.14976464007E+01  0.11056250279E+02  0.51100000000E-03 0.  1.
        -12    1    4    4    0    0 -0.10583788413E+02 -0.15043768895E+02 -0.31180983926E+02  0.36202007104E+02  0.00000000000E+00 0.  1.
</event>
<event>
 8    1  0.2511738E-006  0.9118800E+02  0.7816164E-02  0.1184000E+00
        -11   -1    0    0    0    0  0.00000000000E+00  0.00000000000E+00  0.45593999997E+02  0.45594000000E+02  0.51100000000E-03 0.  1.
         11   -1    0    0    0    0 -0.00000000000E+00 -0.00000000000E+00 -0.45593999997E+02  0.45594000000E+02  0.51100000000E-03 0. -1.
         23    2    1    2    0    0  0.35527136788E-14 -0.17763568394E-14  0.35527136788E-14  0.91188000000E+02  0.91188000000E+02 0.  0.
    9900012    2    3    3    0    0  0.25300069412E+02  0.12398389948E+02  0.23705829935E+02  0.54367082596E+02  0.39999996395E+02 0.  0.
         12    1    3    3    0    0 -0.25300069412E+02 -0.12398389948E+02 -0.23705829935E+02  0.36820917404E+02  0.00000000000E+00 0. -1.
         11    1    4    4    0    0 -0.32785037762E+01  0.11195258440E+01  0.77845945568E+01  0.85206712060E+01  0.51100000000E-03 0. -1.
        -11    1    4    4    0    0  0.13934449277E+02  0.11677009403E+02  0.23210950286E+02  0.29483379024E+02  0.51100000000E-03 0.  1.
         12    1    4    4    0    0  0.14644123910E+02 -0.39814529868E+00 -0.72897149074E+01  0.16363032366E+02  0.00000000000E+00 0. -1.
</event>
<event>
 8    1  0.2511738E-006  0.9118800E+02  0.7816164E-02  0.1184000E+00
        -11   -1    0    0    0    0  0.00000000000E+00  0.00000000000E+00  0.45593999997E+02  0.45594000000E+02  0.51100000000E-03 0. -1.
         11   -1    0    0    0    0 -0.00000000000E+00 -0.00000000000E+00 -0.45593999997E+02  0.45594000000E+02  0.51100000000E-03 0.  1.
         23    2    1    2    0    0 -0.26645352591E-14 -0.35527136788E-14 -0.35527136788E-14  0.91188000000E+02  0.91188000000E+02 0.  0.
    9900012    2    3    3    0    0  0.67594607470E+01  0.24946039346E+02  0.26225648582E+02  0.54367084311E+02  0.40000000304E+02 0.  0.
        -12    1    3    3    0    0 -0.67594607470E+01 -0.24946039346E+02 -0.26225648582E+02  0.36820915689E+02  0.00000000000E+00 0.  1.
         11    1    4    4    0    0 -0.18207336407E+01  0.15404547403E+01  0.12964878945E+01  0.27145815366E+01  0.51100000000E-03 0. -1.
        -11    1    4    4    0    0  0.38214015757E+01 -0.80902182318E+01 -0.28473217180E+01  0.93894612342E+01  0.51100000000E-03 0.  1.
         12    1    4    4    0    0  0.47587928120E+01  0.31495802837E+02  0.27776482406E+02  0.42263041540E+02  0.00000000000E+00 0. -1.
</event>
<event>
 8    1  0.2511738E-006  0.9118800E+02  0.7816164E-02  0.1184000E+00
        -11   -1    0    0    0    0  0.00000000000E+00  0.00000000000E+00  0.45593999997E+02  0.45594000000E+02  0.51100000000E-03 0.  1.
         11   -1    0    0    0    0 -0.00000000000E+00 -0.00000000000E+00 -0.45593999997E+02  0.45594000000E+02  0.51100000000E-03 0. -1.
         23    2    1    2    0    0 -0.17763568394E-14 -0.71054273576E-14  0.00000000000E+00  0.91188000000E+02  0.91188000000E+02 0.  0.
    9900012    2    3    3    0    0  0.14374548042E+02  0.32657362332E+02  0.90910736781E+01  0.54367101497E+02  0.40000039484E+02 0.  0.
        -12    1    3    3    0    0 -0.14374548042E+02 -0.32657362332E+02 -0.90910736781E+01  0.36820898503E+02  0.00000000000E+00 0.  1.
         11    1    4    4    0    0  0.17747393755E+02  0.16063138984E+02  0.68418071197E+01  0.24895878053E+02  0.51100000000E-03 0. -1.
        -11    1    4    4    0    0  0.67864409516E+01  0.17544819999E+02 -0.77883616903E+00  0.18827720936E+02  0.51100000000E-03 0.  1.
        -12    1    4    4    0    0 -0.10159286665E+02 -0.95059665092E+00  0.30281027274E+01  0.10643502509E+02  0.00000000000E+00 0.  1.
</event>
<event>
 8    1  0.2511738E-006  0.9118800E+02  0.7816164E-02  0.1184000E+00
        -11   -1    0    0    0    0  0.00000000000E+00  0.00000000000E+00  0.45593999997E+02  0.45594000000E+02  0.51100000000E-03 0. -1.
         11   -1    0    0    0    0 -0.00000000000E+00 -0.00000000000E+00 -0.45593999997E+02  0.45594000000E+02  0.51100000000E-03 0.  1.
         23    2    1    2    0    0 -0.35527136788E-14  0.00000000000E+00 -0.35527136788E-14  0.91188000000E+02  0.91188000000E+02 0.  0.
    9900012    2    3    3    0    0 -0.20961680120E+02 -0.26399962920E+02  0.14813266882E+02  0.54367041955E+02  0.39999903745E+02 0.  0.
        -12    1    3    3    0    0  0.20961680120E+02  0.26399962920E+02 -0.14813266882E+02  0.36820958045E+02  0.00000000000E+00 0.  1.
         11    1    4    4    0    0  0.34990916610E+01 -0.98014977734E+01 -0.38300200269E+01  0.11089727441E+02  0.51100000000E-03 0. -1.
        -11    1    4    4    0    0 -0.83375363135E+01  0.40334245790E+01 -0.25322612943E+01  0.96018421741E+01  0.51100000000E-03 0.  1.
        -12    1    4    4    0    0 -0.16123235468E+02 -0.20631889726E+02  0.21175548203E+02  0.33675472340E+02  0.00000000000E+00 0.  1.
</event>
<event>
 8    1  0.2511738E-006  0.9118800E+02  0.7816164E-02  0.1184000E+00
        -11   -1    0    0    0    0  0.00000000000E+00  0.00000000000E+00  0.45593999997E+02  0.45594000000E+02  0.51100000000E-03 0. -1.
         11   -1    0    0    0    0 -0.00000000000E+00 -0.00000000000E+00 -0.45593999997E+02  0.45594000000E+02  0.51100000000E-03 0.  1.
         23    2    1    2    0    0  0.00000000000E+00  0.00000000000E+00  0.00000000000E+00  0.91188000000E+02  0.91188000000E+02 0.  0.
    9900012    2    3    3    0    0 -0.33693496985E+02  0.12145796865E+02 -0.85443597992E+01  0.54367106408E+02  0.40000050678E+02 0.  0.
         12    1    3    3    0    0  0.33693496985E+02 -0.12145796865E+02  0.85443597992E+01  0.36820893592E+02  0.00000000000E+00 0. -1.
         11    1    4    4    0    0 -0.23960034664E+00  0.30786218323E+01  0.43312227429E+01  0.53192867400E+01  0.51100000000E-03 0. -1.
        -11    1    4    4    0    0 -0.16302317792E+02  0.54116681746E+01 -0.23070605253E+02  0.28762902232E+02  0.51100000000E-03 0.  1.
        -12    1    4    4    0    0 -0.17151578846E+02  0.36555068583E+01  0.10195022711E+02  0.20284917436E+02  0.00000000000E+00 0.  1.
</event>
<event>
 8    1  0.2511738E-006  0.9118800E+02  0.7816164E-02  0.1184000E+00
        -11   -1    0    0    0    0  0.00000000000E+00  0.00000000000E+00  0.45593999997E+02  0.45594000000E+02  0.51100000000E-03 0. -1.
         11   -1    0    0    0    0 -0.00000000000E+00 -0.00000000000E+00 -0.45593999997E+02  0.45594000000E+02  0.51100000000E-03 0.  1.
         23    2    1    2    0    0  0.00000000000E+00 -0.35527136788E-14 -0.71054273576E-14  0.91188000000E+02  0.91188000000E+02 0.  0.
    9900012    2    3    3    0    0 -0.13248201416E+01  0.17159111880E+02  0.32551329897E+02  0.54367090899E+02  0.40000015323E+02 0.  0.
        -12    1    3    3    0    0  0.13248201416E+01 -0.17159111880E+02 -0.32551329897E+02  0.36820909101E+02  0.00000000000E+00 0.  1.
         11    1    4    4    0    0 -0.42081738784E+01  0.10178251768E+00  0.21963813181E+02  0.22363545712E+02  0.51100000000E-03 0. -1.
        -11    1    4    4    0    0 -0.44779351240E+01  0.14149094382E+02 -0.40321924947E+01  0.15378795512E+02  0.51100000000E-03 0.  1.
         12    1    4    4    0    0  0.73612888608E+01  0.29082349800E+01  0.14619709211E+02  0.16624749676E+02  0.00000000000E+00 0. -1.
</event>
<event>
 8    1  0.2511738E-006  0.9118800E+02  0.7816164E-02  0.1184000E+00
        -11   -1    0    0    0    0  0.00000000000E+00  0.00000000000E+00  0.45593999997E+02  0.45594000000E+02  0.51100000000E-03 0. -1.
         11   -1    0    0    0    0 -0.00000000000E+00 -0.00000000000E+00 -0.45593999997E+02  0.45594000000E+02  0.51100000000E-03 0.  1.
         23    2    1    2    0    0 -0.35527136788E-14  0.00000000000E+00  0.00000000000E+00  0.91188000000E+02  0.91188000000E+02 0.  0.
    9900012    2    3    3    0    0  0.26014620733E+02 -0.18781926850E+02  0.18062568136E+02  0.54367114136E+02  0.40000068297E+02 0.  0.
         12    1    3    3    0    0 -0.26014620733E+02  0.18781926850E+02 -0.18062568136E+02  0.36820885864E+02  0.00000000000E+00 0. -1.
         11    1    4    4    0    0 -0.26547274736E+00 -0.51477088962E+01  0.11209735026E+02  0.12338052613E+02  0.51100000000E-03 0.  1.
        -11    1    4    4    0    0 -0.20942457776E+01  0.83303285236E+00  0.97882273891E+01  0.10044361841E+02  0.51100000000E-03 0. -1.
        -12    1    4    4    0    0  0.28374339258E+02 -0.14467250806E+02 -0.29353942786E+01  0.31984699683E+02  0.00000000000E+00 0.  1.
</event>
<event>
 8    1  0.2511738E-006  0.9118800E+02  0.7816164E-02  0.1184000E+00
        -11   -1    0    0    0    0  0.00000000000E+00  0.00000000000E+00  0.45593999997E+02  0.45594000000E+02  0.51100000000E-03 0.  1.
         11   -1    0    0    0    0 -0.00000000000E+00 -0.00000000000E+00 -0.45593999997E+02  0.45594000000E+02  0.51100000000E-03 0. -1.
         23    2    1    2    0    0 -0.35527136788E-14  0.35527136788E-14 -0.19984014443E-14  0.91188000000E+02  0.91188000000E+02 0.  0.
    9900012    2    3    3    0    0  0.30701558603E+02 -0.20233340461E+02  0.19502693755E+01  0.54367118458E+02  0.40000078149E+02 0.  0.
        -12    1    3    3    0    0 -0.30701558603E+02  0.20233340461E+02 -0.19502693755E+01  0.36820881542E+02  0.00000000000E+00 0.  1.
         11    1    4    4    0    0 -0.18549029680E+01 -0.67606772175E+01 -0.13707940785E+02  0.15396592555E+02  0.51100000000E-03 0. -1.
        -11    1    4    4    0    0  0.23288595445E+02 -0.12244659276E+02  0.12204083252E+02  0.29003965364E+02  0.51100000000E-03 0.  1.
         12    1    4    4    0    0  0.92678661265E+01 -0.12280039679E+01  0.34541269094E+01  0.99665605396E+01  0.00000000000E+00 0. -1.
</event>
<event>
 8    1  0.2511738E-006  0.9118800E+02  0.7816164E-02  0.1184000E+00
        -11   -1    0    0    0    0  0.00000000000E+00  0.00000000000E+00  0.45593999997E+02  0.45594000000E+02  0.51100000000E-03 0.  1.
         11   -1    0    0    0    0 -0.00000000000E+00 -0.00000000000E+00 -0.45593999997E+02  0.45594000000E+02  0.51100000000E-03 0. -1.
         23    2    1    2    0    0  0.88817841970E-15  0.00000000000E+00  0.00000000000E+00  0.91188000000E+02  0.91188000000E+02 0.  0.
    9900012    2    3    3    0    0 -0.37833405605E+01  0.35261282601E+02  0.99049966912E+01  0.54367072854E+02  0.39999974185E+02 0.  0.
         12    1    3    3    0    0  0.37833405605E+01 -0.35261282601E+02 -0.99049966912E+01  0.36820927146E+02  0.00000000000E+00 0. -1.
         11    1    4    4    0    0 -0.79603666840E+01  0.23597911755E+02  0.70354451254E+01  0.25879071956E+02  0.51100000000E-03 0.  1.
        -11    1    4    4    0    0  0.10191099586E+02  0.12467457451E+02  0.10131520333E+02  0.19024818280E+02  0.51100000000E-03 0. -1.
         12    1    4    4    0    0 -0.60140734625E+01 -0.80408660438E+00 -0.72619687676E+01  0.94631826180E+01  0.00000000000E+00 0. -1.
</event>
<event>
 8    1  0.2511738E-006  0.9118800E+02  0.7816164E-02  0.1184000E+00
        -11   -1    0    0    0    0  0.00000000000E+00  0.00000000000E+00  0.45593999997E+02  0.45594000000E+02  0.51100000000E-03 0.  1.
         11   -1    0    0    0    0 -0.00000000000E+00 -0.00000000000E+00 -0.45593999997E+02  0.45594000000E+02  0.51100000000E-03 0. -1.
         23    2    1    2    0    0  0.17763568394E-14 -0.35527136788E-14  0.00000000000E+00  0.91188000000E+02  0.91188000000E+02 0.  0.
    9900012    2    3    3    0    0  0.14087099835E+02 -0.30734387852E+02 -0.14585293025E+02  0.54367085413E+02  0.40000002816E+02 0.  0.
        -12    1    3    3    0    0 -0.14087099835E+02  0.30734387852E+02  0.14585293025E+02  0.36820914587E+02  0.00000000000E+00 0.  1.
         11    1    4    4    0    0  0.16204187162E+02 -0.48410130159E+01 -0.10627135270E+02  0.19973659978E+02  0.51100000000E-03 0. -1.
        -11    1    4    4    0    0 -0.65604485752E+01 -0.19592276639E+02 -0.11467622885E+02  0.23630555734E+02  0.51100000000E-03 0.  1.
        -12    1    4    4    0    0  0.44433612484E+01 -0.63010981967E+01  0.75094651299E+01  0.10762869701E+02  0.00000000000E+00 0.  1.
</event>
<event>
 8    1  0.2511738E-006  0.9118800E+02  0.7816164E-02  0.1184000E+00
        -11   -1    0    0    0    0  0.00000000000E+00  0.00000000000E+00  0.45593999997E+02  0.45594000000E+02  0.51100000000E-03 0.  1.
         11   -1    0    0    0    0 -0.00000000000E+00 -0.00000000000E+00 -0.45593999997E+02  0.45594000000E+02  0.51100000000E-03 0. -1.
         23    2    1    2    0    0  0.35527136788E-14  0.00000000000E+00 -0.35527136788E-14  0.91188000000E+02  0.91188000000E+02 0.  0.
    9900012    2    3    3    0    0  0.31653499012E+02  0.10199638784E+02 -0.15805072592E+02  0.54367123439E+02  0.40000089505E+02 0.  0.
        -12    1    3    3    0    0 -0.31653499012E+02 -0.10199638784E+02  0.15805072592E+02  0.36820876561E+02  0.00000000000E+00 0.  1.
         11    1    4    4    0    0  0.58640536872E+01  0.64072675524E+01  0.66111380523E+01  0.10915463790E+02  0.51100000000E-03 0. -1.
        -11    1    4    4    0    0 -0.13778149964E+01 -0.88086897474E+00  0.45829578776E+01  0.48659847394E+01  0.51100000000E-03 0.  1.
         12    1    4    4    0    0  0.27167260321E+02  0.46732402066E+01 -0.26999168522E+02  0.38585674910E+02  0.00000000000E+00 0. -1.
</event>
<event>
 8    1  0.2511738E-006  0.9118800E+02  0.7816164E-02  0.1184000E+00
        -11   -1    0    0    0    0  0.00000000000E+00  0.00000000000E+00  0.45593999997E+02  0.45594000000E+02  0.51100000000E-03 0.  1.
         11   -1    0    0    0    0 -0.00000000000E+00 -0.00000000000E+00 -0.45593999997E+02  0.45594000000E+02  0.51100000000E-03 0. -1.
         23    2    1    2    0    0  0.17763568394E-14 -0.88817841970E-15  0.00000000000E+00  0.91188000000E+02  0.91188000000E+02 0.  0.
    9900012    2    3    3    0    0  0.13254785181E+02  0.61848015992E+01 -0.33791103937E+02  0.54367084663E+02  0.40000001105E+02 0.  0.
        -12    1    3    3    0    0 -0.13254785181E+02 -0.61848015992E+01  0.33791103937E+02  0.36820915337E+02  0.00000000000E+00 0.  1.
         11    1    4    4    0    0 -0.27411450299E+01  0.47393835476E+01 -0.76102041140E+01  0.93750114349E+01  0.51100000000E-03 0. -1.
        -11    1    4    4    0    0  0.39270299365E+00 -0.12797176100E+02 -0.21281900082E+01  0.12978872245E+02  0.51100000000E-03 0.  1.
         12    1    4    4    0    0  0.15603227217E+02  0.14242594151E+02 -0.24052709815E+02  0.32013200983E+02  0.00000000000E+00 0. -1.
</event>
<event>
 8    1  0.2511738E-006  0.9118800E+02  0.7816164E-02  0.1184000E+00
        -11   -1    0    0    0    0  0.00000000000E+00  0.00000000000E+00  0.45593999997E+02  0.45594000000E+02  0.51100000000E-03 0. -1.
         11   -1    0    0    0    0 -0.00000000000E+00 -0.00000000000E+00 -0.45593999997E+02  0.45594000000E+02  0.51100000000E-03 0.  1.
         23    2    1    2    0    0 -0.28865798640E-14 -0.71054273576E-14 -0.17763568394E-14  0.91188000000E+02  0.91188000000E+02 0.  0.
    9900012    2    3    3    0    0 -0.19997167179E+01 -0.35308184699E+02  0.10252309572E+02  0.54367127859E+02  0.40000099580E+02 0.  0.
        -12    1    3    3    0    0  0.19997167179E+01  0.35308184699E+02 -0.10252309572E+02  0.36820872141E+02  0.00000000000E+00 0.  1.
         11    1    4    4    0    0  0.28324002614E+01 -0.46434568763E+01  0.36182972678E+01  0.65327068189E+01  0.51100000000E-03 0. -1.
        -11    1    4    4    0    0  0.10931882361E+02 -0.10736542439E+02 -0.92219958975E+01  0.17883640684E+02  0.51100000000E-03 0.  1.
        -12    1    4    4    0    0 -0.15763999340E+02 -0.19928185383E+02  0.15856008202E+02  0.29950780356E+02  0.00000000000E+00 0.  1.
</event>
<event>
 8    1  0.2511738E-006  0.9118800E+02  0.7816164E-02  0.1184000E+00
        -11   -1    0    0    0    0  0.00000000000E+00  0.00000000000E+00  0.45593999997E+02  0.45594000000E+02  0.51100000000E-03 0.  1.
         11   -1    0    0    0    0 -0.00000000000E+00 -0.00000000000E+00 -0.45593999997E+02  0.45594000000E+02  0.51100000000E-03 0. -1.
         23    2    1    2    0    0 -0.17763568394E-14  0.17763568394E-14  0.71054273576E-14  0.91188000000E+02  0.91188000000E+02 0.  0.
    9900012    2    3    3    0    0 -0.96086338309E+01  0.65605784570E+01  0.34934390470E+02  0.54367100075E+02  0.40000036240E+02 0.  0.
         12    1    3    3    0    0  0.96086338309E+01 -0.65605784570E+01 -0.34934390470E+02  0.36820899925E+02  0.00000000000E+00 0. -1.
         11    1    4    4    0    0 -0.41006116985E+01 -0.96939484770E+01 -0.31950545642E+01  0.10999819422E+02  0.51100000000E-03 0. -1.
        -11    1    4    4    0    0 -0.30372411052E+01  0.69737575918E+01  0.29469908683E+02  0.30435729768E+02  0.51100000000E-03 0.  1.
         12    1    4    4    0    0 -0.24707810272E+01  0.92807693422E+01  0.86595363513E+01  0.12931550885E+02  0.00000000000E+00 0. -1.
</event>
<event>
 8    1  0.2511738E-006  0.9118800E+02  0.7816164E-02  0.1184000E+00
        -11   -1    0    0    0    0  0.00000000000E+00  0.00000000000E+00  0.45593999997E+02  0.45594000000E+02  0.51100000000E-03 0. -1.
         11   -1    0    0    0    0 -0.00000000000E+00 -0.00000000000E+00 -0.45593999997E+02  0.45594000000E+02  0.51100000000E-03 0.  1.
         23    2    1    2    0    0  0.00000000000E+00 -0.17763568394E-14  0.17763568394E-14  0.91188000000E+02  0.91188000000E+02 0.  0.
    9900012    2    3    3    0    0 -0.33377619981E+02 -0.97206109447E+01 -0.12133585871E+02  0.54367086122E+02  0.40000004433E+02 0.  0.
        -12    1    3    3    0    0  0.33377619981E+02  0.97206109447E+01  0.12133585871E+02  0.36820913878E+02  0.00000000000E+00 0.  1.
         11    1    4    4    0    0 -0.19046453793E+02 -0.18582820527E+02 -0.47942281847E+01  0.27038366167E+02  0.51100000000E-03 0. -1.
        -11    1    4    4    0    0 -0.37616662552E+01  0.11001597615E+02 -0.10935036856E+02  0.15961212811E+02  0.51100000000E-03 0.  1.
         12    1    4    4    0    0 -0.10569499933E+02 -0.21393880330E+01  0.35956791695E+01  0.11367507144E+02  0.00000000000E+00 0. -1.
</event>
<event>
 8    1  0.2511738E-006  0.9118800E+02  0.7816164E-02  0.1184000E+00
        -11   -1    0    0    0    0  0.00000000000E+00  0.00000000000E+00  0.45593999997E+02  0.45594000000E+02  0.51100000000E-03 0. -1.
         11   -1    0    0    0    0 -0.00000000000E+00 -0.00000000000E+00 -0.45593999997E+02  0.45594000000E+02  0.51100000000E-03 0.  1.
         23    2    1    2    0    0  0.00000000000E+00 -0.88817841970E-15  0.17763568394E-14  0.91188000000E+02  0.91188000000E+02 0.  0.
    9900012    2    3    3    0    0  0.32376366700E+02 -0.73879830459E+01  0.15904973950E+02  0.54367087321E+02  0.40000007166E+02 0.  0.
        -12    1    3    3    0    0 -0.32376366700E+02  0.73879830459E+01 -0.15904973950E+02  0.36820912679E+02  0.00000000000E+00 0.  1.
         11    1    4    4    0    0  0.12299581116E+02  0.14551264876E+02  0.48942830416E+01  0.19671629619E+02  0.51100000000E-03 0.  1.
        -11    1    4    4    0    0  0.18358915433E+02 -0.15039948041E+02  0.13325736354E+02  0.27218101745E+02  0.51100000000E-03 0. -1.
        -12    1    4    4    0    0  0.17178701507E+01 -0.68992998801E+01 -0.23150454462E+01  0.74773559571E+01  0.00000000000E+00 0.  1.
</event>
<event>
 8    1  0.2511738E-006  0.9118800E+02  0.7816164E-02  0.1184000E+00
        -11   -1    0    0    0    0  0.00000000000E+00  0.00000000000E+00  0.45593999997E+02  0.45594000000E+02  0.51100000000E-03 0. -1.
         11   -1    0    0    0    0 -0.00000000000E+00 -0.00000000000E+00 -0.45593999997E+02  0.45594000000E+02  0.51100000000E-03 0.  1.
         23    2    1    2    0    0 -0.35527136788E-14  0.00000000000E+00  0.00000000000E+00  0.91188000000E+02  0.91188000000E+02 0.  0.
    9900012    2    3    3    0    0  0.19891451813E+02  0.64298555913E+01  0.30311158234E+02  0.54367092737E+02  0.40000019513E+02 0.  0.
        -12    1    3    3    0    0 -0.19891451813E+02 -0.64298555913E+01 -0.30311158234E+02  0.36820907263E+02  0.00000000000E+00 0.  1.
         11    1    4    4    0    0 -0.29583087067E+01  0.24258548582E+00  0.21737265017E+02  0.21938986504E+02  0.51100000000E-03 0. -1.
        -11    1    4    4    0    0  0.92958733262E+01  0.88548804569E+01  0.12651957281E+02  0.18024821555E+02  0.51100000000E-03 0.  1.
        -12    1    4    4    0    0  0.13553887193E+02 -0.26676103514E+01 -0.40780640632E+01  0.14403284679E+02  0.00000000000E+00 0.  1.
</event>
<event>
 8    1  0.2511738E-006  0.9118800E+02  0.7816164E-02  0.1184000E+00
        -11   -1    0    0    0    0  0.00000000000E+00  0.00000000000E+00  0.45593999997E+02  0.45594000000E+02  0.51100000000E-03 0. -1.
         11   -1    0    0    0    0 -0.00000000000E+00 -0.00000000000E+00 -0.45593999997E+02  0.45594000000E+02  0.51100000000E-03 0.  1.
         23    2    1    2    0    0  0.00000000000E+00 -0.17763568394E-14  0.00000000000E+00  0.91188000000E+02  0.91188000000E+02 0.  0.
    9900012    2    3    3    0    0 -0.68232652210E+01 -0.15594293544E+02 -0.32650231127E+02  0.54367129124E+02  0.40000102465E+02 0.  0.
         12    1    3    3    0    0  0.68232652210E+01  0.15594293544E+02  0.32650231127E+02  0.36820870876E+02  0.00000000000E+00 0. -1.
         11    1    4    4    0    0 -0.12558362066E+01  0.89087695839E+00  0.49444230147E+01  0.51786200423E+01  0.51100000000E-03 0. -1.
        -11    1    4    4    0    0 -0.13171953021E+02 -0.38847640093E+00 -0.10896852074E+02  0.17099492556E+02  0.51100000000E-03 0.  1.
        -12    1    4    4    0    0  0.76045240064E+01 -0.16096694101E+02 -0.26697802067E+02  0.32089016526E+02  0.00000000000E+00 0.  1.
</event>
<event>
 8    1  0.2511738E-006  0.9118800E+02  0.7816164E-02  0.1184000E+00
        -11   -1    0    0    0    0  0.00000000000E+00  0.00000000000E+00  0.45593999997E+02  0.45594000000E+02  0.51100000000E-03 0.  1.
         11   -1    0    0    0    0 -0.00000000000E+00 -0.00000000000E+00 -0.45593999997E+02  0.45594000000E+02  0.51100000000E-03 0. -1.
         23    2    1    2    0    0  0.00000000000E+00  0.00000000000E+00  0.35527136788E-14  0.91188000000E+02  0.91188000000E+02 0.  0.
    9900012    2    3    3    0    0 -0.27868379377E+02  0.87487419958E+01 -0.22418532393E+02  0.54367113940E+02  0.40000067848E+02 0.  0.
        -12    1    3    3    0    0  0.27868379377E+02 -0.87487419958E+01  0.22418532393E+02  0.36820886060E+02  0.00000000000E+00 0.  1.
         11    1    4    4    0    0 -0.20480425449E+02  0.15926505750E+02 -0.65543110544E+01  0.26759305029E+02  0.51100000000E-03 0. -1.
        -11    1    4    4    0    0 -0.13823488374E+01 -0.84357179960E+01 -0.18913804458E+02  0.20755823900E+02  0.51100000000E-03 0.  1.
        -12    1    4    4    0    0 -0.60056050907E+01  0.12579542419E+01  0.30495831199E+01  0.68519850106E+01  0.00000000000E+00 0.  1.
</event>
<event>
 8    1  0.2511738E-006  0.9118800E+02  0.7816164E-02  0.1184000E+00
        -11   -1    0    0    0    0  0.00000000000E+00  0.00000000000E+00  0.45593999997E+02  0.45594000000E+02  0.51100000000E-03 0.  1.
         11   -1    0    0    0    0 -0.00000000000E+00 -0.00000000000E+00 -0.45593999997E+02  0.45594000000E+02  0.51100000000E-03 0. -1.
         23    2    1    2    0    0  0.00000000000E+00 -0.44408920985E-15  0.71054273576E-14  0.91188000000E+02  0.91188000000E+02 0.  0.
    9900012    2    3    3    0    0  0.10086712576E+02  0.18978979839E+01 -0.35361687163E+02  0.54366909490E+02  0.39999601761E+02 0.  0.
        -12    1    3    3    0    0 -0.10086712576E+02 -0.18978979839E+01  0.35361687163E+02  0.36821090510E+02  0.00000000000E+00 0.  1.
         11    1    4    4    0    0 -0.27970642686E+01 -0.63533900309E+00 -0.64048138485E+01  0.70177535485E+01  0.51100000000E-03 0. -1.
        -11    1    4    4    0    0  0.23779104571E+02 -0.44899156077E+01 -0.21641146803E+02  0.32464509724E+02  0.51100000000E-03 0.  1.
        -12    1    4    4    0    0 -0.10895327726E+02  0.70231525947E+01 -0.73157265113E+01  0.14884646218E+02  0.00000000000E+00 0.  1.
</event>
<event>
 8    1  0.2511738E-006  0.9118800E+02  0.7816164E-02  0.1184000E+00
        -11   -1    0    0    0    0  0.00000000000E+00  0.00000000000E+00  0.45593999997E+02  0.45594000000E+02  0.51100000000E-03 0.  1.
         11   -1    0    0    0    0 -0.00000000000E+00 -0.00000000000E+00 -0.45593999997E+02  0.45594000000E+02  0.51100000000E-03 0. -1.
         23    2    1    2    0    0  0.00000000000E+00  0.00000000000E+00  0.35527136788E-14  0.91188000000E+02  0.91188000000E+02 0.  0.
    9900012    2    3    3    0    0 -0.29443334477E+02  0.59546623423E+01 -0.21293434368E+02  0.54367105172E+02  0.40000047861E+02 0.  0.
        -12    1    3    3    0    0  0.29443334477E+02 -0.59546623423E+01  0.21293434368E+02  0.36820894828E+02  0.00000000000E+00 0.  1.
         11    1    4    4    0    0 -0.85226869301E+01 -0.16707866043E+01 -0.15750851180E+02  0.17986579262E+02  0.51100000000E-03 0. -1.
        -11    1    4    4    0    0 -0.50830430071E+01 -0.16316053568E+01  0.10649111875E+02  0.11912306504E+02  0.51100000000E-03 0.  1.
        -12    1    4    4    0    0 -0.15837604540E+02  0.92570543034E+01 -0.16191695063E+02  0.24468219407E+02  0.00000000000E+00 0.  1.
</event>
<event>
 8    1  0.2511738E-006  0.9118800E+02  0.7816164E-02  0.1184000E+00
        -11   -1    0    0    0    0  0.00000000000E+00  0.00000000000E+00  0.45593999997E+02  0.45594000000E+02  0.51100000000E-03 0.  1.
         11   -1    0    0    0    0 -0.00000000000E+00 -0.00000000000E+00 -0.45593999997E+02  0.45594000000E+02  0.51100000000E-03 0. -1.
         23    2    1    2    0    0 -0.35527136788E-14  0.15543122345E-14  0.35527136788E-14  0.91188000000E+02  0.91188000000E+02 0.  0.
    9900012    2    3    3    0    0 -0.27845303107E+02 -0.16556332983E+01  0.24034925134E+02  0.54367086745E+02  0.40000005852E+02 0.  0.
         12    1    3    3    0    0  0.27845303107E+02  0.16556332983E+01 -0.24034925134E+02  0.36820913255E+02  0.00000000000E+00 0. -1.
         11    1    4    4    0    0  0.13219451029E+01 -0.29506641608E+01  0.26627838480E+00  0.32442044146E+01  0.51100000000E-03 0. -1.
        -11    1    4    4    0    0 -0.14845097482E+02  0.89558365126E+01 -0.50364530722E+01  0.18054079503E+02  0.51100000000E-03 0.  1.
         12    1    4    4    0    0 -0.14322150728E+02 -0.76608056502E+01  0.28805099822E+02  0.33068802827E+02  0.00000000000E+00 0. -1.
</event>
<event>
 8    1  0.2511738E-006  0.9118800E+02  0.7816164E-02  0.1184000E+00
        -11   -1    0    0    0    0  0.00000000000E+00  0.00000000000E+00  0.45593999997E+02  0.45594000000E+02  0.51100000000E-03 0. -1.
         11   -1    0    0    0    0 -0.00000000000E+00 -0.00000000000E+00 -0.45593999997E+02  0.45594000000E+02  0.51100000000E-03 0.  1.
         23    2    1    2    0    0 -0.17763568394E-14 -0.36082248300E-15  0.00000000000E+00  0.91188000000E+02  0.91188000000E+02 0.  0.
    9900012    2    3    3    0    0  0.92177574448E+01 -0.75033749714E-01  0.35648383505E+02  0.54367082998E+02  0.39999997310E+02 0.  0.
        -12    1    3    3    0    0 -0.92177574448E+01  0.75033749714E-01 -0.35648383505E+02  0.36820917002E+02  0.00000000000E+00 0.  1.
         11    1    4    4    0    0  0.12591926392E-01  0.11209513349E+01  0.15955637533E+02  0.15994969828E+02  0.51100000000E-03 0. -1.
        -11    1    4    4    0    0  0.18411092607E+02 -0.17129558161E+01  0.22299761505E+01  0.18624589727E+02  0.51100000000E-03 0.  1.
        -12    1    4    4    0    0 -0.92059270884E+01  0.51697073145E+00  0.17462769822E+02  0.19747523443E+02  0.00000000000E+00 0.  1.
</event>
<event>
 8    1  0.2511738E-006  0.9118800E+02  0.7816164E-02  0.1184000E+00
        -11   -1    0    0    0    0  0.00000000000E+00  0.00000000000E+00  0.45593999997E+02  0.45594000000E+02  0.51100000000E-03 0. -1.
         11   -1    0    0    0    0 -0.00000000000E+00 -0.00000000000E+00 -0.45593999997E+02  0.45594000000E+02  0.51100000000E-03 0.  1.
         23    2    1    2    0    0  0.00000000000E+00 -0.44408920985E-15 -0.22204460493E-15  0.91188000000E+02  0.91188000000E+02 0.  0.
    9900012    2    3    3    0    0  0.36666774473E+02 -0.27961283513E+01 -0.18733292511E+01  0.54367081400E+02  0.39999993668E+02 0.  0.
         12    1    3    3    0    0 -0.36666774473E+02  0.27961283513E+01  0.18733292511E+01  0.36820918600E+02  0.00000000000E+00 0. -1.
         11    1    4    4    0    0 -0.30836611675E+01 -0.39568077265E+01  0.19957457061E+00  0.50204704810E+01  0.51100000000E-03 0. -1.
        -11    1    4    4    0    0  0.13821768653E+02  0.13911365836E+02 -0.51877851844E+01  0.20284982216E+02  0.51100000000E-03 0.  1.
         12    1    4    4    0    0  0.25928666987E+02 -0.12750686461E+02  0.31148813627E+01  0.29061628703E+02  0.00000000000E+00 0. -1.
</event>
<event>
 8    1  0.2511738E-006  0.9118800E+02  0.7816164E-02  0.1184000E+00
        -11   -1    0    0    0    0  0.00000000000E+00  0.00000000000E+00  0.45593999997E+02  0.45594000000E+02  0.51100000000E-03 0.  1.
         11   -1    0    0    0    0 -0.00000000000E+00 -0.00000000000E+00 -0.45593999997E+02  0.45594000000E+02  0.51100000000E-03 0. -1.
         23    2    1    2    0    0  0.00000000000E+00 -0.35527136788E-14  0.00000000000E+00  0.91188000000E+02  0.91188000000E+02 0.  0.
    9900012    2    3    3    0    0  0.23548019390E+02  0.26480905385E+02 -0.10001721249E+02  0.54367054939E+02  0.39999933345E+02 0.  0.
        -12    1    3    3    0    0 -0.23548019390E+02 -0.26480905385E+02  0.10001721249E+02  0.36820945061E+02  0.00000000000E+00 0.  1.
         11    1    4    4    0    0  0.83326316995E+01 -0.48461656688E+01 -0.28197163793E+01  0.10043349713E+02  0.51100000000E-03 0. -1.
        -11    1    4    4    0    0  0.15437840086E+01  0.14934196656E+02  0.90294057789E+01  0.17519807870E+02  0.51100000000E-03 0.  1.
        -12    1    4    4    0    0  0.13671603682E+02  0.16392874398E+02 -0.16211410649E+02  0.26803897356E+02  0.00000000000E+00 0.  1.
</event>
<event>
 8    1  0.2511738E-006  0.9118800E+02  0.7816164E-02  0.1184000E+00
        -11   -1    0    0    0    0  0.00000000000E+00  0.00000000000E+00  0.45593999997E+02  0.45594000000E+02  0.51100000000E-03 0. -1.
         11   -1    0    0    0    0 -0.00000000000E+00 -0.00000000000E+00 -0.45593999997E+02  0.45594000000E+02  0.51100000000E-03 0.  1.
         23    2    1    2    0    0  0.17763568394E-14  0.17763568394E-14  0.35527136788E-14  0.91188000000E+02  0.91188000000E+02 0.  0.
    9900012    2    3    3    0    0  0.15617617384E+02  0.12484730077E+02 -0.30919257412E+02  0.54367096470E+02  0.40000028022E+02 0.  0.
         12    1    3    3    0    0 -0.15617617384E+02 -0.12484730077E+02  0.30919257412E+02  0.36820903530E+02  0.00000000000E+00 0. -1.
         11    1    4    4    0    0  0.35724239209E+01  0.78272588033E+01 -0.27130194595E+02  0.28461827982E+02  0.51100000000E-03 0. -1.
        -11    1    4    4    0    0 -0.10764101404E+00  0.11161557737E+02 -0.46559027923E+01  0.12094188223E+02  0.51100000000E-03 0.  1.
         12    1    4    4    0    0  0.12152834477E+02 -0.65040864634E+01  0.86683997476E+00  0.13811080265E+02  0.00000000000E+00 0. -1.
</event>
<event>
 8    1  0.2511738E-006  0.9118800E+02  0.7816164E-02  0.1184000E+00
        -11   -1    0    0    0    0  0.00000000000E+00  0.00000000000E+00  0.45593999997E+02  0.45594000000E+02  0.51100000000E-03 0.  1.
         11   -1    0    0    0    0 -0.00000000000E+00 -0.00000000000E+00 -0.45593999997E+02  0.45594000000E+02  0.51100000000E-03 0. -1.
         23    2    1    2    0    0  0.00000000000E+00  0.00000000000E+00  0.35527136788E-14  0.91188000000E+02  0.91188000000E+02 0.  0.
    9900012    2    3    3    0    0 -0.11727275934E+02 -0.29314038624E+02  0.18945617199E+02  0.54367105493E+02  0.40000048592E+02 0.  0.
         12    1    3    3    0    0  0.11727275934E+02  0.29314038624E+02 -0.18945617199E+02  0.36820894507E+02  0.00000000000E+00 0. -1.
         11    1    4    4    0    0 -0.46551199000E+01 -0.14581829621E+02  0.31543908594E-01  0.15306890333E+02  0.51100000000E-03 0. -1.
        -11    1    4    4    0    0 -0.12457259009E+02 -0.21418441975E+02  0.17559412333E+02  0.30368831397E+02  0.51100000000E-03 0.  1.
        -12    1    4    4    0    0  0.53851029747E+01  0.66862329728E+01  0.13546609574E+01  0.86913837635E+01  0.00000000000E+00 0.  1.
</event>
<event>
 8    1  0.2511738E-006  0.9118800E+02  0.7816164E-02  0.1184000E+00
        -11   -1    0    0    0    0  0.00000000000E+00  0.00000000000E+00  0.45593999997E+02  0.45594000000E+02  0.51100000000E-03 0. -1.
         11   -1    0    0    0    0 -0.00000000000E+00 -0.00000000000E+00 -0.45593999997E+02  0.45594000000E+02  0.51100000000E-03 0.  1.
         23    2    1    2    0    0  0.00000000000E+00 -0.35527136788E-14  0.00000000000E+00  0.91188000000E+02  0.91188000000E+02 0.  0.
    9900012    2    3    3    0    0  0.14263876309E+02 -0.20467157999E+02 -0.27081664879E+02  0.54367091584E+02  0.40000016884E+02 0.  0.
         12    1    3    3    0    0 -0.14263876309E+02  0.20467157999E+02  0.27081664879E+02  0.36820908416E+02  0.00000000000E+00 0. -1.
         11    1    4    4    0    0 -0.59606842983E+01  0.64323997921E+01  0.13255567159E+01  0.88691952994E+01  0.51100000000E-03 0. -1.
        -11    1    4    4    0    0  0.91081305173E+01 -0.11593748950E+02 -0.53742872161E+01  0.15692546625E+02  0.51100000000E-03 0.  1.
        -12    1    4    4    0    0  0.11116430090E+02 -0.15305808842E+02 -0.23032934379E+02  0.29805349660E+02  0.00000000000E+00 0.  1.
</event>
<event>
 8    1  0.2511738E-006  0.9118800E+02  0.7816164E-02  0.1184000E+00
        -11   -1    0    0    0    0  0.00000000000E+00  0.00000000000E+00  0.45593999997E+02  0.45594000000E+02  0.51100000000E-03 0. -1.
         11   -1    0    0    0    0 -0.00000000000E+00 -0.00000000000E+00 -0.45593999997E+02  0.45594000000E+02  0.51100000000E-03 0.  1.
         23    2    1    2    0    0  0.35527136788E-14  0.00000000000E+00  0.00000000000E+00  0.91188000000E+02  0.91188000000E+02 0.  0.
    9900012    2    3    3    0    0  0.10797523217E+02 -0.10171490625E+02 -0.33700652652E+02  0.54367085857E+02  0.40000003828E+02 0.  0.
         12    1    3    3    0    0 -0.10797523217E+02  0.10171490625E+02  0.33700652652E+02  0.36820914143E+02  0.00000000000E+00 0. -1.
         11    1    4    4    0    0 -0.64735822624E+00  0.10593241179E+01  0.16778474518E+01  0.20872020967E+01  0.51100000000E-03 0. -1.
        -11    1    4    4    0    0 -0.11635513095E+02 -0.10043183045E+02 -0.14701800125E+02  0.21269546724E+02  0.51100000000E-03 0.  1.
        -12    1    4    4    0    0  0.23080394538E+02 -0.11876316984E+01 -0.20676699979E+02  0.31010337037E+02  0.00000000000E+00 0.  1.
</event>
<event>
 8    1  0.2511738E-006  0.9118800E+02  0.7816164E-02  0.1184000E+00
        -11   -1    0    0    0    0  0.00000000000E+00  0.00000000000E+00  0.45593999997E+02  0.45594000000E+02  0.51100000000E-03 0.  1.
         11   -1    0    0    0    0 -0.00000000000E+00 -0.00000000000E+00 -0.45593999997E+02  0.45594000000E+02  0.51100000000E-03 0. -1.
         23    2    1    2    0    0  0.00000000000E+00  0.35527136788E-14  0.17763568394E-14  0.91188000000E+02  0.91188000000E+02 0.  0.
    9900012    2    3    3    0    0  0.21798751385E+02  0.27138626141E+02 -0.12003770013E+02  0.54367067295E+02  0.39999961512E+02 0.  0.
         12    1    3    3    0    0 -0.21798751385E+02 -0.27138626141E+02  0.12003770013E+02  0.36820932705E+02  0.00000000000E+00 0. -1.
         11    1    4    4    0    0  0.77338949245E+01  0.20057028658E+02 -0.11532659246E+01  0.21527367508E+02  0.51100000000E-03 0. -1.
        -11    1    4    4    0    0 -0.39702256516E+01  0.10444527090E+02  0.64072914507E+00  0.11192022693E+02  0.51100000000E-03 0.  1.
        -12    1    4    4    0    0  0.18035082112E+02 -0.33629296071E+01 -0.11491233234E+02  0.21647677094E+02  0.00000000000E+00 0.  1.
</event>
<event>
 8    1  0.2511738E-006  0.9118800E+02  0.7816164E-02  0.1184000E+00
        -11   -1    0    0    0    0  0.00000000000E+00  0.00000000000E+00  0.45593999997E+02  0.45594000000E+02  0.51100000000E-03 0.  1.
         11   -1    0    0    0    0 -0.00000000000E+00 -0.00000000000E+00 -0.45593999997E+02  0.45594000000E+02  0.51100000000E-03 0. -1.
         23    2    1    2    0    0 -0.13322676296E-14  0.00000000000E+00  0.35527136788E-14  0.91188000000E+02  0.91188000000E+02 0.  0.
    9900012    2    3    3    0    0  0.36608944113E+01  0.31040398150E+02  0.19464632723E+02  0.54367076706E+02  0.39999982967E+02 0.  0.
         12    1    3    3    0    0 -0.36608944113E+01 -0.31040398150E+02 -0.19464632723E+02  0.36820923294E+02  0.00000000000E+00 0. -1.
         11    1    4    4    0    0  0.10357827717E+02  0.22578289178E+02  0.12776536244E+02  0.27933915155E+02  0.51100000000E-03 0. -1.
        -11    1    4    4    0    0 -0.15069440874E+02  0.76519792556E+01  0.62179056649E+01  0.18008419861E+02  0.51100000000E-03 0.  1.
        -12    1    4    4    0    0  0.83725075681E+01  0.81012971617E+00  0.47019081347E+00  0.84247416896E+01  0.00000000000E+00 0.  1.
</event>
<event>
 8    1  0.2511738E-006  0.9118800E+02  0.7816164E-02  0.1184000E+00
        -11   -1    0    0    0    0  0.00000000000E+00  0.00000000000E+00  0.45593999997E+02  0.45594000000E+02  0.51100000000E-03 0.  1.
         11   -1    0    0    0    0 -0.00000000000E+00 -0.00000000000E+00 -0.45593999997E+02  0.45594000000E+02  0.51100000000E-03 0. -1.
         23    2    1    2    0    0  0.88817841970E-15  0.35527136788E-14  0.71054273576E-14  0.91188000000E+02  0.91188000000E+02 0.  0.
    9900012    2    3    3    0    0  0.37231804753E+01  0.28900700294E+02  0.22509281563E+02  0.54367077866E+02  0.39999985610E+02 0.  0.
         12    1    3    3    0    0 -0.37231804753E+01 -0.28900700294E+02 -0.22509281563E+02  0.36820922134E+02  0.00000000000E+00 0. -1.
         11    1    4    4    0    0 -0.89560762669E+01  0.20530558954E+02  0.62715065337E+01  0.23260415894E+02  0.51100000000E-03 0. -1.
        -11    1    4    4    0    0 -0.16892667620E+01  0.11628629124E+02  0.62769887542E+01  0.13322132921E+02  0.51100000000E-03 0.  1.
        -12    1    4    4    0    0  0.14368523504E+02 -0.32584877842E+01  0.99607862753E+01  0.17784529051E+02  0.00000000000E+00 0.  1.
</event>
<event>
 8    1  0.2511738E-006  0.9118800E+02  0.7816164E-02  0.1184000E+00
        -11   -1    0    0    0    0  0.00000000000E+00  0.00000000000E+00  0.45593999997E+02  0.45594000000E+02  0.51100000000E-03 0. -1.
         11   -1    0    0    0    0 -0.00000000000E+00 -0.00000000000E+00 -0.45593999997E+02  0.45594000000E+02  0.51100000000E-03 0.  1.
         23    2    1    2    0    0  0.00000000000E+00  0.35527136788E-14 -0.35527136788E-14  0.91188000000E+02  0.91188000000E+02 0.  0.
    9900012    2    3    3    0    0 -0.22471102752E+02  0.20599291932E+02 -0.20651839861E+02  0.54367085065E+02  0.40000002023E+02 0.  0.
         12    1    3    3    0    0  0.22471102752E+02 -0.20599291932E+02  0.20651839861E+02  0.36820914935E+02  0.00000000000E+00 0. -1.
         11    1    4    4    0    0  0.31649500477E+01  0.48839366132E+00 -0.62404463540E+01  0.70141719490E+01  0.51100000000E-03 0. -1.
        -11    1    4    4    0    0 -0.18326056889E+02  0.13506494350E+02 -0.24366953868E+02  0.33346936768E+02  0.51100000000E-03 0.  1.
         12    1    4    4    0    0 -0.73099959111E+01  0.66044039203E+01  0.99555603611E+01  0.14005976348E+02  0.00000000000E+00 0. -1.
</event>
<event>
 8    1  0.2511738E-006  0.9118800E+02  0.7816164E-02  0.1184000E+00
        -11   -1    0    0    0    0  0.00000000000E+00  0.00000000000E+00  0.45593999997E+02  0.45594000000E+02  0.51100000000E-03 0.  1.
         11   -1    0    0    0    0 -0.00000000000E+00 -0.00000000000E+00 -0.45593999997E+02  0.45594000000E+02  0.51100000000E-03 0. -1.
         23    2    1    2    0    0  0.00000000000E+00 -0.35527136788E-14  0.88817841970E-15  0.91188000000E+02  0.91188000000E+02 0.  0.
    9900012    2    3    3    0    0  0.25108196047E+02  0.26550534132E+02  0.45197216961E+01  0.54367078560E+02  0.39999987194E+02 0.  0.
         12    1    3    3    0    0 -0.25108196047E+02 -0.26550534132E+02 -0.45197216961E+01  0.36820921440E+02  0.00000000000E+00 0. -1.
         11    1    4    4    0    0 -0.15865091097E+01  0.99220753422E+01 -0.36145604415E+01  0.10678466074E+02  0.51100000000E-03 0. -1.
        -11    1    4    4    0    0  0.27855060527E+02  0.15902056660E+02  0.15902697625E+02  0.35800497133E+02  0.51100000000E-03 0.  1.
        -12    1    4    4    0    0 -0.11603553703E+01  0.72640213029E+00 -0.77684154870E+01  0.78881153528E+01  0.00000000000E+00 0.  1.
</event>
<event>
 8    1  0.2511738E-006  0.9118800E+02  0.7816164E-02  0.1184000E+00
        -11   -1    0    0    0    0  0.00000000000E+00  0.00000000000E+00  0.45593999997E+02  0.45594000000E+02  0.51100000000E-03 0.  1.
         11   -1    0    0    0    0 -0.00000000000E+00 -0.00000000000E+00 -0.45593999997E+02  0.45594000000E+02  0.51100000000E-03 0. -1.
         23    2    1    2    0    0  0.33306690739E-15  0.00000000000E+00  0.00000000000E+00  0.91188000000E+02  0.91188000000E+02 0.  0.
    9900012    2    3    3    0    0  0.65760665277E+00 -0.12547496050E+02 -0.34610806757E+02  0.54367081381E+02  0.39999993624E+02 0.  0.
        -12    1    3    3    0    0 -0.65760665277E+00  0.12547496050E+02  0.34610806757E+02  0.36820918619E+02  0.00000000000E+00 0.  1.
         11    1    4    4    0    0  0.17060892773E+02 -0.88595657714E+01 -0.11707773133E+02  0.22508618791E+02  0.51100000000E-03 0. -1.
        -11    1    4    4    0    0 -0.88150367771E+01 -0.74409766033E+01 -0.19656886089E+02  0.22791800656E+02  0.51100000000E-03 0.  1.
        -12    1    4    4    0    0 -0.75882493428E+01  0.37530463252E+01 -0.32461475342E+01  0.90666619338E+01  0.00000000000E+00 0.  1.
</event>
<event>
 8    1  0.2511738E-006  0.9118800E+02  0.7816164E-02  0.1184000E+00
        -11   -1    0    0    0    0  0.00000000000E+00  0.00000000000E+00  0.45593999997E+02  0.45594000000E+02  0.51100000000E-03 0.  1.
         11   -1    0    0    0    0 -0.00000000000E+00 -0.00000000000E+00 -0.45593999997E+02  0.45594000000E+02  0.51100000000E-03 0. -1.
         23    2    1    2    0    0  0.44408920985E-15  0.00000000000E+00  0.00000000000E+00  0.91188000000E+02  0.91188000000E+02 0.  0.
    9900012    2    3    3    0    0  0.20739107141E+01 -0.34105652705E+02  0.13721633426E+02  0.54367083716E+02  0.39999998948E+02 0.  0.
         12    1    3    3    0    0 -0.20739107141E+01  0.34105652705E+02 -0.13721633426E+02  0.36820916284E+02  0.00000000000E+00 0. -1.
         11    1    4    4    0    0  0.12555000266E+02 -0.66272637750E+01  0.95886858400E+00  0.14229128084E+02  0.51100000000E-03 0.  1.
        -11    1    4    4    0    0 -0.65118379314E+01 -0.16196146743E+02 -0.55046170198E+01  0.18303551878E+02  0.51100000000E-03 0. -1.
        -12    1    4    4    0    0 -0.39692516201E+01 -0.11282242187E+02  0.18267381862E+02  0.21834403754E+02  0.00000000000E+00 0.  1.
</event>
<event>
 8    1  0.2511738E-006  0.9118800E+02  0.7816164E-02  0.1184000E+00
        -11   -1    0    0    0    0  0.00000000000E+00  0.00000000000E+00  0.45593999997E+02  0.45594000000E+02  0.51100000000E-03 0.  1.
         11   -1    0    0    0    0 -0.00000000000E+00 -0.00000000000E+00 -0.45593999997E+02  0.45594000000E+02  0.51100000000E-03 0. -1.
         23    2    1    2    0    0  0.00000000000E+00  0.35527136788E-14  0.00000000000E+00  0.91188000000E+02  0.91188000000E+02 0.  0.
    9900012    2    3    3    0    0 -0.22353670391E+02  0.21583446661E+02  0.19754677680E+02  0.54367095069E+02  0.40000024828E+02 0.  0.
         12    1    3    3    0    0  0.22353670391E+02 -0.21583446661E+02 -0.19754677680E+02  0.36820904931E+02  0.00000000000E+00 0. -1.
         11    1    4    4    0    0  0.46112269423E+01  0.53585407246E+01 -0.30930986523E+01  0.77165168401E+01  0.51100000000E-03 0. -1.
        -11    1    4    4    0    0 -0.29283176788E+02  0.20190363089E+02  0.17628423087E+02  0.39697814867E+02  0.51100000000E-03 0.  1.
        -12    1    4    4    0    0  0.23182794546E+01 -0.39654571524E+01  0.52193532452E+01  0.69527633611E+01  0.00000000000E+00 0.  1.
</event>
<event>
 8    1  0.2511738E-006  0.9118800E+02  0.7816164E-02  0.1184000E+00
        -11   -1    0    0    0    0  0.00000000000E+00  0.00000000000E+00  0.45593999997E+02  0.45594000000E+02  0.51100000000E-03 0. -1.
         11   -1    0    0    0    0 -0.00000000000E+00 -0.00000000000E+00 -0.45593999997E+02  0.45594000000E+02  0.51100000000E-03 0.  1.
         23    2    1    2    0    0  0.00000000000E+00  0.11657341759E-14  0.00000000000E+00  0.91188000000E+02  0.91188000000E+02 0.  0.
    9900012    2    3    3    0    0  0.32145010598E+02  0.57495116872E-01  0.17957572901E+02  0.54367089684E+02  0.40000012552E+02 0.  0.
        -12    1    3    3    0    0 -0.32145010598E+02 -0.57495116872E-01 -0.17957572901E+02  0.36820910316E+02  0.00000000000E+00 0.  1.
         11    1    4    4    0    0  0.16622424083E+02  0.97174270769E+01  0.24667404134E+01  0.19411805169E+02  0.51100000000E-03 0. -1.
        -11    1    4    4    0    0  0.13085430086E+01  0.75515059370E+01  0.87625303150E+01  0.11641282769E+02  0.51100000000E-03 0.  1.
         12    1    4    4    0    0  0.14214043506E+02 -0.17211437897E+02  0.67283021728E+01  0.23314001746E+02  0.00000000000E+00 0. -1.
</event>
<event>
 8    1  0.2511738E-006  0.9118800E+02  0.7816164E-02  0.1184000E+00
        -11   -1    0    0    0    0  0.00000000000E+00  0.00000000000E+00  0.45593999997E+02  0.45594000000E+02  0.51100000000E-03 0.  1.
         11   -1    0    0    0    0 -0.00000000000E+00 -0.00000000000E+00 -0.45593999997E+02  0.45594000000E+02  0.51100000000E-03 0. -1.
         23    2    1    2    0    0  0.00000000000E+00  0.17763568394E-14  0.00000000000E+00  0.91188000000E+02  0.91188000000E+02 0.  0.
    9900012    2    3    3    0    0 -0.32811303715E+02 -0.14020684632E+02  0.90894580320E+01  0.54367088871E+02  0.40000010699E+02 0.  0.
         12    1    3    3    0    0  0.32811303715E+02  0.14020684632E+02 -0.90894580320E+01  0.36820911129E+02  0.00000000000E+00 0. -1.
         11    1    4    4    0    0 -0.12111223468E+02 -0.15335302872E+01  0.11304286435E+02  0.16637918773E+02  0.51100000000E-03 0. -1.
        -11    1    4    4    0    0 -0.23008582140E+01 -0.12530987256E+02  0.95216336662E+01  0.15905379532E+02  0.51100000000E-03 0.  1.
         12    1    4    4    0    0 -0.18399222033E+02  0.43832910900E-01 -0.11736462069E+02  0.21823790566E+02  0.00000000000E+00 0. -1.
</event>
<event>
 8    1  0.2511738E-006  0.9118800E+02  0.7816164E-02  0.1184000E+00
        -11   -1    0    0    0    0  0.00000000000E+00  0.00000000000E+00  0.45593999997E+02  0.45594000000E+02  0.51100000000E-03 0. -1.
         11   -1    0    0    0    0 -0.00000000000E+00 -0.00000000000E+00 -0.45593999997E+02  0.45594000000E+02  0.51100000000E-03 0.  1.
         23    2    1    2    0    0 -0.22204460493E-15  0.35527136788E-14 -0.35527136788E-14  0.91188000000E+02  0.91188000000E+02 0.  0.
    9900012    2    3    3    0    0 -0.15905619903E+01 -0.30942040219E+02  0.19895705988E+02  0.54367097552E+02  0.40000030488E+02 0.  0.
        -12    1    3    3    0    0  0.15905619903E+01  0.30942040219E+02 -0.19895705988E+02  0.36820902448E+02  0.00000000000E+00 0.  1.
         11    1    4    4    0    0  0.60953604060E+01 -0.54222320071E+00 -0.70466787013E+01  0.93329044493E+01  0.51100000000E-03 0. -1.
        -11    1    4    4    0    0 -0.26138698564E+01 -0.15505990918E+02  0.24367883153E+01  0.15912448194E+02  0.51100000000E-03 0.  1.
         12    1    4    4    0    0 -0.50720525399E+01 -0.14893826101E+02  0.24505596374E+02  0.29121744909E+02  0.00000000000E+00 0. -1.
</event>
<event>
 8    1  0.2511738E-006  0.9118800E+02  0.7816164E-02  0.1184000E+00
        -11   -1    0    0    0    0  0.00000000000E+00  0.00000000000E+00  0.45593999997E+02  0.45594000000E+02  0.51100000000E-03 0. -1.
         11   -1    0    0    0    0 -0.00000000000E+00 -0.00000000000E+00 -0.45593999997E+02  0.45594000000E+02  0.51100000000E-03 0.  1.
         23    2    1    2    0    0  0.22204460493E-15  0.00000000000E+00  0.35527136788E-14  0.91188000000E+02  0.91188000000E+02 0.  0.
    9900012    2    3    3    0    0  0.11676696919E+01 -0.34713322774E+02 -0.12222882163E+02  0.54367121698E+02  0.40000085535E+02 0.  0.
         12    1    3    3    0    0 -0.11676696919E+01  0.34713322774E+02  0.12222882163E+02  0.36820878302E+02  0.00000000000E+00 0. -1.
         11    1    4    4    0    0 -0.88340797736E+00  0.64787844161E+01 -0.72064111710E+01  0.97307460861E+01  0.51100000000E-03 0. -1.
        -11    1    4    4    0    0 -0.50553640410E+01 -0.13386847396E+02  0.34402294141E+01  0.14717322021E+02  0.51100000000E-03 0.  1.
         12    1    4    4    0    0  0.71064417103E+01 -0.27805259795E+02 -0.84567004058E+01  0.29919053591E+02  0.00000000000E+00 0. -1.
</event>
<event>
 8    1  0.2511738E-006  0.9118800E+02  0.7816164E-02  0.1184000E+00
        -11   -1    0    0    0    0  0.00000000000E+00  0.00000000000E+00  0.45593999997E+02  0.45594000000E+02  0.51100000000E-03 0.  1.
         11   -1    0    0    0    0 -0.00000000000E+00 -0.00000000000E+00 -0.45593999997E+02  0.45594000000E+02  0.51100000000E-03 0. -1.
         23    2    1    2    0    0  0.00000000000E+00  0.00000000000E+00  0.00000000000E+00  0.91188000000E+02  0.91188000000E+02 0.  0.
    9900012    2    3    3    0    0 -0.44980282871E+01  0.15356980652E+02 -0.33161897081E+02  0.54367074818E+02  0.39999978664E+02 0.  0.
        -12    1    3    3    0    0  0.44980282871E+01 -0.15356980652E+02  0.33161897081E+02  0.36820925182E+02  0.00000000000E+00 0.  1.
         11    1    4    4    0    0 -0.30452565778E+01  0.19359861955E+02 -0.28552150697E+02  0.34630956560E+02  0.51100000000E-03 0. -1.
        -11    1    4    4    0    0 -0.31665744533E+01 -0.89365670416E+01 -0.88797036906E+01  0.12989940806E+02  0.51100000000E-03 0.  1.
         12    1    4    4    0    0  0.17138027440E+01  0.49336857387E+01  0.42699573071E+01  0.67461774523E+01  0.00000000000E+00 0. -1.
</event>
<event>
 8    1  0.2511738E-006  0.9118800E+02  0.7816164E-02  0.1184000E+00
        -11   -1    0    0    0    0  0.00000000000E+00  0.00000000000E+00  0.45593999997E+02  0.45594000000E+02  0.51100000000E-03 0. -1.
         11   -1    0    0    0    0 -0.00000000000E+00 -0.00000000000E+00 -0.45593999997E+02  0.45594000000E+02  0.51100000000E-03 0.  1.
         23    2    1    2    0    0  0.00000000000E+00  0.00000000000E+00  0.00000000000E+00  0.91188000000E+02  0.91188000000E+02 0.  0.
    9900012    2    3    3    0    0  0.14430495972E+02 -0.16335723833E+02  0.29676358734E+02  0.54367063634E+02  0.39999953166E+02 0.  0.
        -12    1    3    3    0    0 -0.14430495972E+02  0.16335723833E+02 -0.29676358734E+02  0.36820936366E+02  0.00000000000E+00 0.  1.
         11    1    4    4    0    0  0.90432869606E+01 -0.71254483069E+01  0.15528655897E+02  0.19331120165E+02  0.51100000000E-03 0. -1.
        -11    1    4    4    0    0  0.42167155221E+01 -0.14182677289E+02  0.21490163826E+02  0.26091304422E+02  0.51100000000E-03 0.  1.
        -12    1    4    4    0    0  0.11704934897E+01  0.49724017627E+01 -0.73424609888E+01  0.89446390465E+01  0.00000000000E+00 0.  1.
</event>
<event>
 8    1  0.2511738E-006  0.9118800E+02  0.7816164E-02  0.1184000E+00
        -11   -1    0    0    0    0  0.00000000000E+00  0.00000000000E+00  0.45593999997E+02  0.45594000000E+02  0.51100000000E-03 0.  1.
         11   -1    0    0    0    0 -0.00000000000E+00 -0.00000000000E+00 -0.45593999997E+02  0.45594000000E+02  0.51100000000E-03 0. -1.
         23    2    1    2    0    0  0.00000000000E+00  0.00000000000E+00  0.88817841970E-15  0.91188000000E+02  0.91188000000E+02 0.  0.
    9900012    2    3    3    0    0 -0.13637229643E+02  0.34061841443E+02  0.30979791238E+01  0.54367074570E+02  0.39999978098E+02 0.  0.
        -12    1    3    3    0    0  0.13637229643E+02 -0.34061841443E+02 -0.30979791238E+01  0.36820925430E+02  0.00000000000E+00 0.  1.
         11    1    4    4    0    0 -0.11912352554E+02  0.25013699513E+02 -0.31631221215E+01  0.27885384138E+02  0.51100000000E-03 0. -1.
        -11    1    4    4    0    0 -0.53176937907E+01  0.89586376133E+00  0.13796744818E+02  0.14813190303E+02  0.51100000000E-03 0.  1.
        -12    1    4    4    0    0  0.35928167024E+01  0.81522781694E+01 -0.75356435728E+01  0.11668500129E+02  0.00000000000E+00 0.  1.
</event>
<event>
 8    1  0.2511738E-006  0.9118800E+02  0.7816164E-02  0.1184000E+00
        -11   -1    0    0    0    0  0.00000000000E+00  0.00000000000E+00  0.45593999997E+02  0.45594000000E+02  0.51100000000E-03 0.  1.
         11   -1    0    0    0    0 -0.00000000000E+00 -0.00000000000E+00 -0.45593999997E+02  0.45594000000E+02  0.51100000000E-03 0. -1.
         23    2    1    2    0    0  0.00000000000E+00 -0.71054273576E-14  0.11102230246E-15  0.91188000000E+02  0.91188000000E+02 0.  0.
    9900012    2    3    3    0    0  0.24976951304E+02 -0.27036014429E+02  0.99266102937E+00  0.54367088162E+02  0.40000009084E+02 0.  0.
        -12    1    3    3    0    0 -0.24976951304E+02  0.27036014429E+02 -0.99266102937E+00  0.36820911838E+02  0.00000000000E+00 0.  1.
         11    1    4    4    0    0  0.11299076883E+02 -0.20359249957E+02 -0.33767593107E+01  0.23528083239E+02  0.51100000000E-03 0. -1.
        -11    1    4    4    0    0  0.13842389560E+02 -0.49188443022E+01  0.14449360831E+02  0.20605601342E+02  0.51100000000E-03 0.  1.
        -12    1    4    4    0    0 -0.16451513920E+00 -0.17579201698E+01 -0.10079940490E+02  0.10233403581E+02  0.00000000000E+00 0.  1.
</event>
<event>
 8    1  0.2511738E-006  0.9118800E+02  0.7816164E-02  0.1184000E+00
        -11   -1    0    0    0    0  0.00000000000E+00  0.00000000000E+00  0.45593999997E+02  0.45594000000E+02  0.51100000000E-03 0.  1.
         11   -1    0    0    0    0 -0.00000000000E+00 -0.00000000000E+00 -0.45593999997E+02  0.45594000000E+02  0.51100000000E-03 0. -1.
         23    2    1    2    0    0 -0.88817841970E-15 -0.35527136788E-14  0.00000000000E+00  0.91188000000E+02  0.91188000000E+02 0.  0.
    9900012    2    3    3    0    0  0.66358092685E+01  0.30777366237E+02  0.19091830633E+02  0.54367106012E+02  0.40000049775E+02 0.  0.
         12    1    3    3    0    0 -0.66358092685E+01 -0.30777366237E+02 -0.19091830633E+02  0.36820893988E+02  0.00000000000E+00 0. -1.
         11    1    4    4    0    0 -0.16907951819E+00  0.14116904155E+02  0.18998868980E+02  0.23670078022E+02  0.51100000000E-03 0. -1.
        -11    1    4    4    0    0 -0.69792862902E+01  0.14504316840E+02 -0.30819908814E+01  0.16388542100E+02  0.51100000000E-03 0.  1.
         12    1    4    4    0    0  0.13784175077E+02  0.21561452426E+01  0.31749525351E+01  0.14308485890E+02  0.00000000000E+00 0. -1.
</event>
<event>
 8    1  0.2511738E-006  0.9118800E+02  0.7816164E-02  0.1184000E+00
        -11   -1    0    0    0    0  0.00000000000E+00  0.00000000000E+00  0.45593999997E+02  0.45594000000E+02  0.51100000000E-03 0.  1.
         11   -1    0    0    0    0 -0.00000000000E+00 -0.00000000000E+00 -0.45593999997E+02  0.45594000000E+02  0.51100000000E-03 0. -1.
         23    2    1    2    0    0  0.00000000000E+00  0.00000000000E+00  0.00000000000E+00  0.91188000000E+02  0.91188000000E+02 0.  0.
    9900012    2    3    3    0    0 -0.31745930044E+02 -0.11455619858E+02 -0.14722263990E+02  0.54367077175E+02  0.39999984036E+02 0.  0.
        -12    1    3    3    0    0  0.31745930044E+02  0.11455619858E+02  0.14722263990E+02  0.36820922825E+02  0.00000000000E+00 0.  1.
         11    1    4    4    0    0  0.20813500197E+01 -0.84583135016E+01 -0.10066832784E+02  0.13312257801E+02  0.51100000000E-03 0. -1.
        -11    1    4    4    0    0 -0.34784765660E+02 -0.75215998338E+01 -0.63090082271E+01  0.36143574410E+02  0.51100000000E-03 0.  1.
        -12    1    4    4    0    0  0.95748559606E+00  0.45242934775E+01  0.16535770205E+01  0.49112449644E+01  0.00000000000E+00 0.  1.
</event>
<event>
 8    1  0.2511738E-006  0.9118800E+02  0.7816164E-02  0.1184000E+00
        -11   -1    0    0    0    0  0.00000000000E+00  0.00000000000E+00  0.45593999997E+02  0.45594000000E+02  0.51100000000E-03 0. -1.
         11   -1    0    0    0    0 -0.00000000000E+00 -0.00000000000E+00 -0.45593999997E+02  0.45594000000E+02  0.51100000000E-03 0.  1.
         23    2    1    2    0    0  0.88817841970E-15  0.71054273576E-14 -0.13322676296E-14  0.91188000000E+02  0.91188000000E+02 0.  0.
    9900012    2    3    3    0    0 -0.37758992673E+01  0.36413119150E+02 -0.39505487036E+01  0.54367088868E+02  0.40000010693E+02 0.  0.
        -12    1    3    3    0    0  0.37758992673E+01 -0.36413119150E+02  0.39505487036E+01  0.36820911132E+02  0.00000000000E+00 0.  1.
         11    1    4    4    0    0  0.53931938651E+01  0.10967683438E+02  0.75396185100E+01  0.14360448029E+02  0.51100000000E-03 0. -1.
        -11    1    4    4    0    0 -0.36294062287E+00 -0.57454927503E+01 -0.30522670091E+01  0.65160376761E+01  0.51100000000E-03 0.  1.
         12    1    4    4    0    0 -0.88061525095E+01  0.31190928462E+02 -0.84379002045E+01  0.33490603163E+02  0.00000000000E+00 0. -1.
</event>
<event>
 8    1  0.2511738E-006  0.9118800E+02  0.7816164E-02  0.1184000E+00
        -11   -1    0    0    0    0  0.00000000000E+00  0.00000000000E+00  0.45593999997E+02  0.45594000000E+02  0.51100000000E-03 0.  1.
         11   -1    0    0    0    0 -0.00000000000E+00 -0.00000000000E+00 -0.45593999997E+02  0.45594000000E+02  0.51100000000E-03 0. -1.
         23    2    1    2    0    0  0.00000000000E+00  0.00000000000E+00  0.53290705182E-14  0.91188000000E+02  0.91188000000E+02 0.  0.
    9900012    2    3    3    0    0  0.34285773521E+02 -0.12885186263E+02 -0.37732045448E+01  0.54367090675E+02  0.40000014812E+02 0.  0.
         12    1    3    3    0    0 -0.34285773521E+02  0.12885186263E+02  0.37732045448E+01  0.36820909325E+02  0.00000000000E+00 0. -1.
         11    1    4    4    0    0  0.15808761460E+02  0.40702066515E+01  0.12041861314E+02  0.20285214942E+02  0.51100000000E-03 0. -1.
        -11    1    4    4    0    0  0.55960883014E+01 -0.38815243987E+01  0.33124317810E+01  0.75732846573E+01  0.51100000000E-03 0.  1.
         12    1    4    4    0    0  0.12880923759E+02 -0.13073868516E+02 -0.19127497639E+02  0.26508591075E+02  0.00000000000E+00 0. -1.
</event>
<event>
 8    1  0.2511738E-006  0.9118800E+02  0.7816164E-02  0.1184000E+00
        -11   -1    0    0    0    0  0.00000000000E+00  0.00000000000E+00  0.45593999997E+02  0.45594000000E+02  0.51100000000E-03 0.  1.
         11   -1    0    0    0    0 -0.00000000000E+00 -0.00000000000E+00 -0.45593999997E+02  0.45594000000E+02  0.51100000000E-03 0. -1.
         23    2    1    2    0    0  0.00000000000E+00  0.88817841970E-15  0.35527136788E-14  0.91188000000E+02  0.91188000000E+02 0.  0.
    9900012    2    3    3    0    0  0.29557903255E+02  0.50087925544E+01  0.21378064009E+02  0.54367091966E+02  0.40000017755E+02 0.  0.
         12    1    3    3    0    0 -0.29557903255E+02 -0.50087925544E+01 -0.21378064009E+02  0.36820908034E+02  0.00000000000E+00 0. -1.
         11    1    4    4    0    0 -0.41747876348E+01  0.64406368557E+01  0.60285346715E+01  0.97598097035E+01  0.51100000000E-03 0. -1.
        -11    1    4    4    0    0  0.19374977954E+02  0.13773439574E+01  0.21288191744E+02  0.28817945018E+02  0.51100000000E-03 0.  1.
         12    1    4    4    0    0  0.14357712936E+02 -0.28091882587E+01 -0.59386624066E+01  0.15789337244E+02  0.00000000000E+00 0. -1.
</event>
<event>
 8    1  0.2511738E-006  0.9118800E+02  0.7816164E-02  0.1184000E+00
        -11   -1    0    0    0    0  0.00000000000E+00  0.00000000000E+00  0.45593999997E+02  0.45594000000E+02  0.51100000000E-03 0.  1.
         11   -1    0    0    0    0 -0.00000000000E+00 -0.00000000000E+00 -0.45593999997E+02  0.45594000000E+02  0.51100000000E-03 0. -1.
         23    2    1    2    0    0  0.00000000000E+00  0.35527136788E-14  0.00000000000E+00  0.91188000000E+02  0.91188000000E+02 0.  0.
    9900012    2    3    3    0    0  0.22183589837E+01 -0.30706388851E+02 -0.20198385726E+02  0.54367106220E+02  0.40000050249E+02 0.  0.
         12    1    3    3    0    0 -0.22183589837E+01  0.30706388851E+02  0.20198385726E+02  0.36820893780E+02  0.00000000000E+00 0. -1.
         11    1    4    4    0    0 -0.44905414154E+01 -0.67480086125E+01 -0.59891841550E+00  0.81276863847E+01  0.51100000000E-03 0. -1.
        -11    1    4    4    0    0 -0.13700480126E+02 -0.73021870419E+01 -0.67388178065E+01  0.16924442590E+02  0.51100000000E-03 0.  1.
        -12    1    4    4    0    0  0.20409380525E+02 -0.16656193196E+02 -0.12860649504E+02  0.29314977245E+02  0.00000000000E+00 0.  1.
</event>
<event>
 8    1  0.2511738E-006  0.9118800E+02  0.7816164E-02  0.1184000E+00
        -11   -1    0    0    0    0  0.00000000000E+00  0.00000000000E+00  0.45593999997E+02  0.45594000000E+02  0.51100000000E-03 0. -1.
         11   -1    0    0    0    0 -0.00000000000E+00 -0.00000000000E+00 -0.45593999997E+02  0.45594000000E+02  0.51100000000E-03 0.  1.
         23    2    1    2    0    0 -0.17763568394E-14  0.35527136788E-14  0.00000000000E+00  0.91188000000E+02  0.91188000000E+02 0.  0.
    9900012    2    3    3    0    0  0.14066547500E+02 -0.28728842916E+02 -0.18236384363E+02  0.54367083546E+02  0.39999998559E+02 0.  0.
         12    1    3    3    0    0 -0.14066547500E+02  0.28728842916E+02  0.18236384363E+02  0.36820916454E+02  0.00000000000E+00 0. -1.
         11    1    4    4    0    0  0.23314133797E+01 -0.17445844918E+02  0.33175983018E+01  0.17910875244E+02  0.51100000000E-03 0. -1.
        -11    1    4    4    0    0 -0.18631229311E+01 -0.13373829605E+02 -0.17518524817E+02  0.22118527469E+02  0.51100000000E-03 0.  1.
         12    1    4    4    0    0  0.13598257051E+02  0.20908316066E+01 -0.40354578483E+01  0.14337680833E+02  0.00000000000E+00 0. -1.
</event>
<event>
 8    1  0.2511738E-006  0.9118800E+02  0.7816164E-02  0.1184000E+00
        -11   -1    0    0    0    0  0.00000000000E+00  0.00000000000E+00  0.45593999997E+02  0.45594000000E+02  0.51100000000E-03 0.  1.
         11   -1    0    0    0    0 -0.00000000000E+00 -0.00000000000E+00 -0.45593999997E+02  0.45594000000E+02  0.51100000000E-03 0. -1.
         23    2    1    2    0    0  0.00000000000E+00  0.13322676296E-14  0.17763568394E-14  0.91188000000E+02  0.91188000000E+02 0.  0.
    9900012    2    3    3    0    0 -0.33404895979E+02  0.20313899444E+01 -0.15354702461E+02  0.54367075132E+02  0.39999979379E+02 0.  0.
        -12    1    3    3    0    0  0.33404895979E+02 -0.20313899444E+01  0.15354702461E+02  0.36820924868E+02  0.00000000000E+00 0.  1.
         11    1    4    4    0    0 -0.24119408986E+02  0.67993072215E+01 -0.10431509379E+02  0.27143928542E+02  0.51100000000E-03 0. -1.
        -11    1    4    4    0    0  0.71196506925E+01 -0.39298584180E+01 -0.69170064184E+01  0.10676056914E+02  0.51100000000E-03 0.  1.
         12    1    4    4    0    0 -0.16405137686E+02 -0.83805885910E+00  0.19938133370E+01  0.16547089677E+02  0.00000000000E+00 0. -1.
</event>
<event>
 8    1  0.2511738E-006  0.9118800E+02  0.7816164E-02  0.1184000E+00
        -11   -1    0    0    0    0  0.00000000000E+00  0.00000000000E+00  0.45593999997E+02  0.45594000000E+02  0.51100000000E-03 0. -1.
         11   -1    0    0    0    0 -0.00000000000E+00 -0.00000000000E+00 -0.45593999997E+02  0.45594000000E+02  0.51100000000E-03 0.  1.
         23    2    1    2    0    0  0.00000000000E+00  0.00000000000E+00  0.17763568394E-14  0.91188000000E+02  0.91188000000E+02 0.  0.
    9900012    2    3    3    0    0 -0.34798291923E+02 -0.11311891621E+02 -0.41108666872E+01  0.54367092383E+02  0.40000018706E+02 0.  0.
         12    1    3    3    0    0  0.34798291923E+02  0.11311891621E+02  0.41108666872E+01  0.36820907617E+02  0.00000000000E+00 0. -1.
         11    1    4    4    0    0  0.75239583682E+01 -0.16844533500E+01  0.25538812525E+01  0.81221698042E+01  0.51100000000E-03 0. -1.
        -11    1    4    4    0    0 -0.20651028285E+02 -0.39645631683E+01  0.40509382129E+01  0.21414780667E+02  0.51100000000E-03 0.  1.
        -12    1    4    4    0    0 -0.21671222006E+02 -0.56628751030E+01 -0.10715686153E+02  0.24830141912E+02  0.00000000000E+00 0.  1.
</event>
<event>
 8    1  0.2511738E-006  0.9118800E+02  0.7816164E-02  0.1184000E+00
        -11   -1    0    0    0    0  0.00000000000E+00  0.00000000000E+00  0.45593999997E+02  0.45594000000E+02  0.51100000000E-03 0.  1.
         11   -1    0    0    0    0 -0.00000000000E+00 -0.00000000000E+00 -0.45593999997E+02  0.45594000000E+02  0.51100000000E-03 0. -1.
         23    2    1    2    0    0  0.00000000000E+00  0.88817841970E-15  0.00000000000E+00  0.91188000000E+02  0.91188000000E+02 0.  0.
    9900012    2    3    3    0    0  0.19303241950E+02 -0.90461494616E+00 -0.31342412654E+02  0.54367077837E+02  0.39999985544E+02 0.  0.
        -12    1    3    3    0    0 -0.19303241950E+02  0.90461494616E+00  0.31342412654E+02  0.36820922163E+02  0.00000000000E+00 0.  1.
         11    1    4    4    0    0 -0.40039155774E+01 -0.90493189373E-01 -0.65099794886E+01  0.76432559928E+01  0.51100000000E-03 0. -1.
        -11    1    4    4    0    0  0.51940216190E+01 -0.67598882334E+01  0.60342914338E+01  0.10444454168E+02  0.51100000000E-03 0.  1.
         12    1    4    4    0    0  0.18113135909E+02  0.59457664766E+01 -0.30866724599E+02  0.36279367675E+02  0.00000000000E+00 0. -1.
</event>
<event>
 8    1  0.2511738E-006  0.9118800E+02  0.7816164E-02  0.1184000E+00
        -11   -1    0    0    0    0  0.00000000000E+00  0.00000000000E+00  0.45593999997E+02  0.45594000000E+02  0.51100000000E-03 0. -1.
         11   -1    0    0    0    0 -0.00000000000E+00 -0.00000000000E+00 -0.45593999997E+02  0.45594000000E+02  0.51100000000E-03 0.  1.
         23    2    1    2    0    0  0.00000000000E+00  0.00000000000E+00 -0.35527136788E-14  0.91188000000E+02  0.91188000000E+02 0.  0.
    9900012    2    3    3    0    0  0.24570540153E+02 -0.20636177320E+02  0.18061434969E+02  0.54367099808E+02  0.40000035632E+02 0.  0.
        -12    1    3    3    0    0 -0.24570540153E+02  0.20636177320E+02 -0.18061434969E+02  0.36820900192E+02  0.00000000000E+00 0.  1.
         11    1    4    4    0    0 -0.51932735408E+00  0.22884857880E+01 -0.10861557681E+01  0.25858466150E+01  0.51100000000E-03 0. -1.
        -11    1    4    4    0    0  0.69065447294E+00 -0.12194881109E+02 -0.73021892749E+01  0.14230744792E+02  0.51100000000E-03 0.  1.
         12    1    4    4    0    0  0.24399213034E+02 -0.10729781999E+02  0.26449780012E+02  0.37550508401E+02  0.00000000000E+00 0. -1.
</event>
<event>
 8    1  0.2511738E-006  0.9118800E+02  0.7816164E-02  0.1184000E+00
        -11   -1    0    0    0    0  0.00000000000E+00  0.00000000000E+00  0.45593999997E+02  0.45594000000E+02  0.51100000000E-03 0.  1.
         11   -1    0    0    0    0 -0.00000000000E+00 -0.00000000000E+00 -0.45593999997E+02  0.45594000000E+02  0.51100000000E-03 0. -1.
         23    2    1    2    0    0  0.35527136788E-14 -0.66613381478E-15  0.35527136788E-14  0.91188000000E+02  0.91188000000E+02 0.  0.
    9900012    2    3    3    0    0  0.21402788793E+02  0.10082142727E+01 -0.29944695926E+02  0.54367072823E+02  0.39999974113E+02 0.  0.
        -12    1    3    3    0    0 -0.21402788793E+02 -0.10082142727E+01  0.29944695926E+02  0.36820927177E+02  0.00000000000E+00 0.  1.
         11    1    4    4    0    0  0.30515181593E+01 -0.61314998282E+01 -0.51638995610E+00  0.68683121702E+01  0.51100000000E-03 0. -1.
        -11    1    4    4    0    0 -0.57686771499E+01 -0.18659815567E+01 -0.18608512861E+02  0.19571312536E+02  0.51100000000E-03 0.  1.
         12    1    4    4    0    0  0.24119947784E+02  0.90056956575E+01 -0.10819793108E+02  0.27927448116E+02  0.00000000000E+00 0. -1.
</event>
<event>
 8    1  0.2511738E-006  0.9118800E+02  0.7816164E-02  0.1184000E+00
        -11   -1    0    0    0    0  0.00000000000E+00  0.00000000000E+00  0.45593999997E+02  0.45594000000E+02  0.51100000000E-03 0. -1.
         11   -1    0    0    0    0 -0.00000000000E+00 -0.00000000000E+00 -0.45593999997E+02  0.45594000000E+02  0.51100000000E-03 0.  1.
         23    2    1    2    0    0 -0.22204460493E-14 -0.88817841970E-15  0.71054273576E-14  0.91188000000E+02  0.91188000000E+02 0.  0.
    9900012    2    3    3    0    0  0.18140563102E+01 -0.61711658063E+01 -0.36254731314E+02  0.54367087052E+02  0.40000006552E+02 0.  0.
         12    1    3    3    0    0 -0.18140563102E+01  0.61711658063E+01  0.36254731314E+02  0.36820912948E+02  0.00000000000E+00 0. -1.
         11    1    4    4    0    0 -0.85094500364E+01  0.67705974478E+01 -0.12368216639E+02  0.16468895312E+02  0.51100000000E-03 0. -1.
        -11    1    4    4    0    0  0.12674350381E+02  0.32302364166E+01 -0.10433795603E+02  0.16731338137E+02  0.51100000000E-03 0.  1.
         12    1    4    4    0    0 -0.23508440347E+01 -0.16171999671E+02 -0.13452719071E+02  0.21166853603E+02  0.00000000000E+00 0. -1.
</event>
<event>
 8    1  0.2511738E-006  0.9118800E+02  0.7816164E-02  0.1184000E+00
        -11   -1    0    0    0    0  0.00000000000E+00  0.00000000000E+00  0.45593999997E+02  0.45594000000E+02  0.51100000000E-03 0. -1.
         11   -1    0    0    0    0 -0.00000000000E+00 -0.00000000000E+00 -0.45593999997E+02  0.45594000000E+02  0.51100000000E-03 0.  1.
         23    2    1    2    0    0  0.35527136788E-14 -0.71054273576E-14  0.00000000000E+00  0.91188000000E+02  0.91188000000E+02 0.  0.
    9900012    2    3    3    0    0  0.22639993812E+02 -0.27973330580E+02 -0.77911797189E+01  0.54367095272E+02  0.40000025292E+02 0.  0.
         12    1    3    3    0    0 -0.22639993812E+02  0.27973330580E+02  0.77911797189E+01  0.36820904728E+02  0.00000000000E+00 0. -1.
         11    1    4    4    0    0 -0.18650637296E+01 -0.17199465657E+02  0.21560793896E+01  0.17434126310E+02  0.51100000000E-03 0. -1.
        -11    1    4    4    0    0 -0.12519953832E+01  0.50189945223E+01 -0.28156310406E+01  0.58894462280E+01  0.51100000000E-03 0.  1.
        -12    1    4    4    0    0  0.25757052925E+02 -0.15792859446E+02 -0.71316280679E+01  0.31043522734E+02  0.00000000000E+00 0.  1.
</event>
<event>
 8    1  0.2511738E-006  0.9118800E+02  0.7816164E-02  0.1184000E+00
        -11   -1    0    0    0    0  0.00000000000E+00  0.00000000000E+00  0.45593999997E+02  0.45594000000E+02  0.51100000000E-03 0.  1.
         11   -1    0    0    0    0 -0.00000000000E+00 -0.00000000000E+00 -0.45593999997E+02  0.45594000000E+02  0.51100000000E-03 0. -1.
         23    2    1    2    0    0  0.00000000000E+00 -0.26645352591E-14 -0.17763568394E-14  0.91188000000E+02  0.91188000000E+02 0.  0.
    9900012    2    3    3    0    0  0.36218957214E+02  0.12932312673E+01 -0.65037030822E+01  0.54367035013E+02  0.39999887919E+02 0.  0.
        -12    1    3    3    0    0 -0.36218957214E+02 -0.12932312673E+01  0.65037030822E+01  0.36820964987E+02  0.00000000000E+00 0.  1.
         11    1    4    4    0    0  0.17978635703E+02  0.11085807063E+02 -0.64657145585E+01  0.22089181176E+02  0.51100000000E-03 0. -1.
        -11    1    4    4    0    0  0.87592738880E+01 -0.13201193325E+02 -0.94860862655E+01  0.18465703808E+02  0.51100000000E-03 0.  1.
        -12    1    4    4    0    0  0.94810476230E+01  0.34086175286E+01  0.94480977418E+01  0.13812150029E+02  0.00000000000E+00 0.  1.
</event>
<event>
 8    1  0.2511738E-006  0.9118800E+02  0.7816164E-02  0.1184000E+00
        -11   -1    0    0    0    0  0.00000000000E+00  0.00000000000E+00  0.45593999997E+02  0.45594000000E+02  0.51100000000E-03 0. -1.
         11   -1    0    0    0    0 -0.00000000000E+00 -0.00000000000E+00 -0.45593999997E+02  0.45594000000E+02  0.51100000000E-03 0.  1.
         23    2    1    2    0    0 -0.35527136788E-14  0.17763568394E-14 -0.35527136788E-14  0.91188000000E+02  0.91188000000E+02 0.  0.
    9900012    2    3    3    0    0 -0.18249779704E+02  0.13486323193E+02  0.28997351761E+02  0.54367057839E+02  0.39999939955E+02 0.  0.
         12    1    3    3    0    0  0.18249779704E+02 -0.13486323193E+02 -0.28997351761E+02  0.36820942161E+02  0.00000000000E+00 0. -1.
         11    1    4    4    0    0 -0.37021190111E+01  0.68323905345E+01  0.54355949723E+01  0.94832978732E+01  0.51100000000E-03 0. -1.
        -11    1    4    4    0    0 -0.23069462194E+02  0.52261791108E+00  0.50792680375E+01  0.23627784058E+02  0.51100000000E-03 0.  1.
         12    1    4    4    0    0  0.85218015012E+01  0.61313147471E+01  0.18482488751E+02  0.21255975908E+02  0.00000000000E+00 0. -1.
</event>
<event>
 8    1  0.2511738E-006  0.9118800E+02  0.7816164E-02  0.1184000E+00
        -11   -1    0    0    0    0  0.00000000000E+00  0.00000000000E+00  0.45593999997E+02  0.45594000000E+02  0.51100000000E-03 0.  1.
         11   -1    0    0    0    0 -0.00000000000E+00 -0.00000000000E+00 -0.45593999997E+02  0.45594000000E+02  0.51100000000E-03 0. -1.
         23    2    1    2    0    0  0.88817841970E-15 -0.35527136788E-14  0.00000000000E+00  0.91188000000E+02  0.91188000000E+02 0.  0.
    9900012    2    3    3    0    0 -0.30252723686E+01  0.22696193639E+02 -0.28836033986E+02  0.54366996013E+02  0.39999799010E+02 0.  0.
        -12    1    3    3    0    0  0.30252723686E+01 -0.22696193639E+02  0.28836033986E+02  0.36821003987E+02  0.00000000000E+00 0.  1.
         11    1    4    4    0    0  0.11809625127E+02  0.13907377713E+02 -0.21737675336E+02  0.28379727443E+02  0.51100000000E-03 0. -1.
        -11    1    4    4    0    0 -0.15606722710E+01  0.45383663523E+01  0.54294498274E+01  0.72464745066E+01  0.51100000000E-03 0.  1.
        -12    1    4    4    0    0 -0.13274225224E+02  0.42504495733E+01 -0.12527808477E+02  0.18740794063E+02  0.00000000000E+00 0.  1.
</event>
<event>
 8    1  0.2511738E-006  0.9118800E+02  0.7816164E-02  0.1184000E+00
        -11   -1    0    0    0    0  0.00000000000E+00  0.00000000000E+00  0.45593999997E+02  0.45594000000E+02  0.51100000000E-03 0.  1.
         11   -1    0    0    0    0 -0.00000000000E+00 -0.00000000000E+00 -0.45593999997E+02  0.45594000000E+02  0.51100000000E-03 0. -1.
         23    2    1    2    0    0  0.00000000000E+00 -0.88817841970E-15 -0.71054273576E-14  0.91188000000E+02  0.91188000000E+02 0.  0.
    9900012    2    3    3    0    0  0.88211568550E+01  0.71576436009E+01  0.35024829205E+02  0.54367036799E+02  0.39999891991E+02 0.  0.
         12    1    3    3    0    0 -0.88211568550E+01 -0.71576436009E+01 -0.35024829205E+02  0.36820963201E+02  0.00000000000E+00 0. -1.
         11    1    4    4    0    0 -0.90173947915E+01  0.37368830772E+01  0.32240061569E+01  0.10279684816E+02  0.51100000000E-03 0. -1.
        -11    1    4    4    0    0  0.70743865179E+01 -0.10670339903E+02  0.13183456570E+02  0.18376795848E+02  0.51100000000E-03 0.  1.
        -12    1    4    4    0    0  0.10764165129E+02  0.14091100427E+02  0.18617366479E+02  0.25710556135E+02  0.00000000000E+00 0.  1.
</event>
<event>
 8    1  0.2511738E-006  0.9118800E+02  0.7816164E-02  0.1184000E+00
        -11   -1    0    0    0    0  0.00000000000E+00  0.00000000000E+00  0.45593999997E+02  0.45594000000E+02  0.51100000000E-03 0.  1.
         11   -1    0    0    0    0 -0.00000000000E+00 -0.00000000000E+00 -0.45593999997E+02  0.45594000000E+02  0.51100000000E-03 0. -1.
         23    2    1    2    0    0  0.00000000000E+00  0.00000000000E+00  0.00000000000E+00  0.91188000000E+02  0.91188000000E+02 0.  0.
    9900012    2    3    3    0    0  0.61911630537E+01 -0.79763542204E+01  0.35409447275E+02  0.54367059179E+02  0.39999943011E+02 0.  0.
         12    1    3    3    0    0 -0.61911630537E+01  0.79763542204E+01 -0.35409447275E+02  0.36820940821E+02  0.00000000000E+00 0. -1.
         11    1    4    4    0    0 -0.51227299069E+01 -0.83349819417E+01  0.26597970643E+01  0.10138481462E+02  0.51100000000E-03 0. -1.
        -11    1    4    4    0    0  0.17018077290E+02 -0.34204489323E+00  0.34286842364E+02  0.38279492015E+02  0.51100000000E-03 0.  1.
        -12    1    4    4    0    0 -0.57041843294E+01  0.70067261452E+00 -0.15371921537E+01  0.59490857024E+01  0.00000000000E+00 0.  1.
</event>
<event>
 8    1  0.2511738E-006  0.9118800E+02  0.7816164E-02  0.1184000E+00
        -11   -1    0    0    0    0  0.00000000000E+00  0.00000000000E+00  0.45593999997E+02  0.45594000000E+02  0.51100000000E-03 0. -1.
         11   -1    0    0    0    0 -0.00000000000E+00 -0.00000000000E+00 -0.45593999997E+02  0.45594000000E+02  0.51100000000E-03 0.  1.
         23    2    1    2    0    0  0.35527136788E-14 -0.35527136788E-14  0.17763568394E-14  0.91188000000E+02  0.91188000000E+02 0.  0.
    9900012    2    3    3    0    0  0.21711164106E+02 -0.28151733510E+02  0.95856805423E+01  0.54367081789E+02  0.39999994554E+02 0.  0.
        -12    1    3    3    0    0 -0.21711164106E+02  0.28151733510E+02 -0.95856805423E+01  0.36820918211E+02  0.00000000000E+00 0.  1.
         11    1    4    4    0    0  0.53570016750E+01  0.14825981350E+01  0.16283763964E+02  0.17206293420E+02  0.51100000000E-03 0.  1.
        -11    1    4    4    0    0  0.54809102486E+01 -0.19903470154E+02  0.98918994912E+00  0.20668018732E+02  0.51100000000E-03 0. -1.
        -12    1    4    4    0    0  0.10873252182E+02 -0.97308614918E+01 -0.76872733706E+01  0.16492769636E+02  0.00000000000E+00 0.  1.
</event>
<event>
 8    1  0.2511738E-006  0.9118800E+02  0.7816164E-02  0.1184000E+00
        -11   -1    0    0    0    0  0.00000000000E+00  0.00000000000E+00  0.45593999997E+02  0.45594000000E+02  0.51100000000E-03 0.  1.
         11   -1    0    0    0    0 -0.00000000000E+00 -0.00000000000E+00 -0.45593999997E+02  0.45594000000E+02  0.51100000000E-03 0. -1.
         23    2    1    2    0    0  0.00000000000E+00 -0.35527136788E-14 -0.10658141036E-13  0.91188000000E+02  0.91188000000E+02 0.  0.
    9900012    2    3    3    0    0  0.29599533119E+01 -0.28406736545E+02 -0.23239517917E+02  0.54367092926E+02  0.40000019944E+02 0.  0.
        -12    1    3    3    0    0 -0.29599533119E+01  0.28406736545E+02  0.23239517917E+02  0.36820907074E+02  0.00000000000E+00 0.  1.
         11    1    4    4    0    0 -0.45511266173E+01  0.49188168860E+01 -0.64478375309E+01  0.92995764490E+01  0.51100000000E-03 0. -1.
        -11    1    4    4    0    0  0.62751826336E+01  0.96716084984E-01  0.21463911497E+01  0.66328173739E+01  0.51100000000E-03 0.  1.
        -12    1    4    4    0    0  0.12358972956E+01 -0.33422269516E+02 -0.18938071535E+02  0.38434699104E+02  0.00000000000E+00 0.  1.
</event>
<event>
 8    1  0.2511738E-006  0.9118800E+02  0.7816164E-02  0.1184000E+00
        -11   -1    0    0    0    0  0.00000000000E+00  0.00000000000E+00  0.45593999997E+02  0.45594000000E+02  0.51100000000E-03 0.  1.
         11   -1    0    0    0    0 -0.00000000000E+00 -0.00000000000E+00 -0.45593999997E+02  0.45594000000E+02  0.51100000000E-03 0. -1.
         23    2    1    2    0    0  0.00000000000E+00  0.71054273576E-14  0.00000000000E+00  0.91188000000E+02  0.91188000000E+02 0.  0.
    9900012    2    3    3    0    0 -0.11965237750E+01  0.36238149472E+02 -0.64143071626E+01  0.54367102636E+02  0.40000042080E+02 0.  0.
         12    1    3    3    0    0  0.11965237750E+01 -0.36238149472E+02  0.64143071626E+01  0.36820897364E+02  0.00000000000E+00 0. -1.
         11    1    4    4    0    0  0.89080439747E+01  0.27366113330E+01 -0.11393220347E+02  0.14718959174E+02  0.51100000000E-03 0. -1.
        -11    1    4    4    0    0  0.39157846837E+00  0.25371448365E+02 -0.25870683938E+00  0.25375788763E+02  0.51100000000E-03 0.  1.
        -12    1    4    4    0    0 -0.10496146218E+02  0.81300897738E+01  0.52376200234E+01  0.14272354700E+02  0.00000000000E+00 0.  1.
</event>
<event>
 8    1  0.2511738E-006  0.9118800E+02  0.7816164E-02  0.1184000E+00
        -11   -1    0    0    0    0  0.00000000000E+00  0.00000000000E+00  0.45593999997E+02  0.45594000000E+02  0.51100000000E-03 0.  1.
         11   -1    0    0    0    0 -0.00000000000E+00 -0.00000000000E+00 -0.45593999997E+02  0.45594000000E+02  0.51100000000E-03 0. -1.
         23    2    1    2    0    0  0.00000000000E+00  0.35527136788E-14 -0.35527136788E-14  0.91188000000E+02  0.91188000000E+02 0.  0.
    9900012    2    3    3    0    0 -0.11338534301E+02 -0.27648788008E+02  0.21511916809E+02  0.54367076557E+02  0.39999982627E+02 0.  0.
         12    1    3    3    0    0  0.11338534301E+02  0.27648788008E+02 -0.21511916809E+02  0.36820923443E+02  0.00000000000E+00 0. -1.
         11    1    4    4    0    0 -0.53507674415E+01 -0.20407872326E+01 -0.10800440393E+01  0.58276942379E+01  0.51100000000E-03 0. -1.
        -11    1    4    4    0    0 -0.18146522220E+02 -0.17930977537E+02  0.22716508126E+02  0.34159273497E+02  0.51100000000E-03 0.  1.
        -12    1    4    4    0    0  0.12158755361E+02 -0.76770232380E+01 -0.12454727730E+00  0.14380108823E+02  0.00000000000E+00 0.  1.
</event>
<event>
 8    1  0.2511738E-006  0.9118800E+02  0.7816164E-02  0.1184000E+00
        -11   -1    0    0    0    0  0.00000000000E+00  0.00000000000E+00  0.45593999997E+02  0.45594000000E+02  0.51100000000E-03 0.  1.
         11   -1    0    0    0    0 -0.00000000000E+00 -0.00000000000E+00 -0.45593999997E+02  0.45594000000E+02  0.51100000000E-03 0. -1.
         23    2    1    2    0    0  0.13322676296E-14  0.71054273576E-14 -0.22204460493E-15  0.91188000000E+02  0.91188000000E+02 0.  0.
    9900012    2    3    3    0    0  0.23455324837E+01 -0.36737811984E+02  0.78166377465E+00  0.54367090855E+02  0.40000015223E+02 0.  0.
        -12    1    3    3    0    0 -0.23455324837E+01  0.36737811984E+02 -0.78166377465E+00  0.36820909145E+02  0.00000000000E+00 0.  1.
         11    1    4    4    0    0 -0.49300363017E+01  0.28850750166E+01 -0.21761336044E+01  0.61126486496E+01  0.51100000000E-03 0. -1.
        -11    1    4    4    0    0  0.16308965766E+02 -0.16047515313E+02  0.23466235518E+01  0.23000255530E+02  0.51100000000E-03 0.  1.
         12    1    4    4    0    0 -0.90333969806E+01 -0.23575371688E+02  0.61117382727E+00  0.25254186676E+02  0.00000000000E+00 0. -1.
</event>
<event>
 8    1  0.2511738E-006  0.9118800E+02  0.7816164E-02  0.1184000E+00
        -11   -1    0    0    0    0  0.00000000000E+00  0.00000000000E+00  0.45593999997E+02  0.45594000000E+02  0.51100000000E-03 0.  1.
         11   -1    0    0    0    0 -0.00000000000E+00 -0.00000000000E+00 -0.45593999997E+02  0.45594000000E+02  0.51100000000E-03 0. -1.
         23    2    1    2    0    0  0.35527136788E-14 -0.35527136788E-14 -0.88817841970E-15  0.91188000000E+02  0.91188000000E+02 0.  0.
    9900012    2    3    3    0    0 -0.16585212904E+02 -0.31981164698E+02  0.76102327229E+01  0.54367084414E+02  0.40000000538E+02 0.  0.
         12    1    3    3    0    0  0.16585212904E+02  0.31981164698E+02 -0.76102327229E+01  0.36820915586E+02  0.00000000000E+00 0. -1.
         11    1    4    4    0    0  0.53675217391E+01 -0.12104455527E+01 -0.32257609646E+01  0.63781660465E+01  0.51100000000E-03 0. -1.
        -11    1    4    4    0    0  0.48956705814E+01 -0.11302723946E+02 -0.19010379810E+01  0.12463270225E+02  0.51100000000E-03 0.  1.
        -12    1    4    4    0    0 -0.26848405224E+02 -0.19467995200E+02  0.12737031668E+02  0.35525648142E+02  0.00000000000E+00 0.  1.
</event>
<event>
 8    1  0.2511738E-006  0.9118800E+02  0.7816164E-02  0.1184000E+00
        -11   -1    0    0    0    0  0.00000000000E+00  0.00000000000E+00  0.45593999997E+02  0.45594000000E+02  0.51100000000E-03 0.  1.
         11   -1    0    0    0    0 -0.00000000000E+00 -0.00000000000E+00 -0.45593999997E+02  0.45594000000E+02  0.51100000000E-03 0. -1.
         23    2    1    2    0    0  0.00000000000E+00 -0.22204460493E-15 -0.35527136788E-14  0.91188000000E+02  0.91188000000E+02 0.  0.
    9900012    2    3    3    0    0 -0.26326232266E+02  0.26762493157E+00 -0.25741830025E+02  0.54367028510E+02  0.39999873093E+02 0.  0.
        -12    1    3    3    0    0  0.26326232266E+02 -0.26762493157E+00  0.25741830025E+02  0.36820971490E+02  0.00000000000E+00 0.  1.
         11    1    4    4    0    0 -0.19878624495E+02  0.22897554053E+01 -0.31206884888E+02  0.37071179591E+02  0.51100000000E-03 0. -1.
        -11    1    4    4    0    0  0.47949407203E+01  0.68663046883E+00  0.15027487739E+01  0.50716044848E+01  0.51100000000E-03 0.  1.
         12    1    4    4    0    0 -0.11242548492E+02 -0.27087609425E+01  0.39623060884E+01  0.12224244434E+02  0.00000000000E+00 0. -1.
</event>
<event>
 8    1  0.2511738E-006  0.9118800E+02  0.7816164E-02  0.1184000E+00
        -11   -1    0    0    0    0  0.00000000000E+00  0.00000000000E+00  0.45593999997E+02  0.45594000000E+02  0.51100000000E-03 0. -1.
         11   -1    0    0    0    0 -0.00000000000E+00 -0.00000000000E+00 -0.45593999997E+02  0.45594000000E+02  0.51100000000E-03 0.  1.
         23    2    1    2    0    0  0.00000000000E+00  0.00000000000E+00 -0.17763568394E-14  0.91188000000E+02  0.91188000000E+02 0.  0.
    9900012    2    3    3    0    0  0.31382342676E+02  0.18714222387E+02 -0.45503308279E+01  0.54367094769E+02  0.40000024146E+02 0.  0.
         12    1    3    3    0    0 -0.31382342676E+02 -0.18714222387E+02  0.45503308279E+01  0.36820905231E+02  0.00000000000E+00 0. -1.
         11    1    4    4    0    0 -0.19105012760E+01  0.19105560336E+01  0.14146237105E+00  0.27055963015E+01  0.51100000000E-03 0. -1.
        -11    1    4    4    0    0  0.28110028443E+02  0.18198010129E+02 -0.17493331493E+02  0.37780390664E+02  0.51100000000E-03 0.  1.
        -12    1    4    4    0    0  0.51828155089E+01 -0.13943437757E+01  0.12801538294E+02  0.13881107804E+02  0.00000000000E+00 0.  1.
</event>
<event>
 8    1  0.2511738E-006  0.9118800E+02  0.7816164E-02  0.1184000E+00
        -11   -1    0    0    0    0  0.00000000000E+00  0.00000000000E+00  0.45593999997E+02  0.45594000000E+02  0.51100000000E-03 0.  1.
         11   -1    0    0    0    0 -0.00000000000E+00 -0.00000000000E+00 -0.45593999997E+02  0.45594000000E+02  0.51100000000E-03 0. -1.
         23    2    1    2    0    0  0.00000000000E+00  0.00000000000E+00  0.35527136788E-14  0.91188000000E+02  0.91188000000E+02 0.  0.
    9900012    2    3    3    0    0 -0.13980798901E+02 -0.26428288642E+02  0.21490978091E+02  0.54367091297E+02  0.40000016229E+02 0.  0.
         12    1    3    3    0    0  0.13980798901E+02  0.26428288642E+02 -0.21490978091E+02  0.36820908703E+02  0.00000000000E+00 0. -1.
         11    1    4    4    0    0 -0.12460444571E+02 -0.16400656106E+02 -0.72242839450E+01  0.21827379100E+02  0.51100000000E-03 0. -1.
        -11    1    4    4    0    0 -0.53846677842E+00  0.97090428997E+00  0.14486078957E+02  0.14528561024E+02  0.51100000000E-03 0.  1.
         12    1    4    4    0    0 -0.98188755141E+00 -0.10998536826E+02  0.14229183079E+02  0.18011151173E+02  0.00000000000E+00 0. -1.
</event>
<event>
 8    1  0.2511738E-006  0.9118800E+02  0.7816164E-02  0.1184000E+00
        -11   -1    0    0    0    0  0.00000000000E+00  0.00000000000E+00  0.45593999997E+02  0.45594000000E+02  0.51100000000E-03 0. -1.
         11   -1    0    0    0    0 -0.00000000000E+00 -0.00000000000E+00 -0.45593999997E+02  0.45594000000E+02  0.51100000000E-03 0.  1.
         23    2    1    2    0    0  0.00000000000E+00  0.00000000000E+00  0.35527136788E-14  0.91188000000E+02  0.91188000000E+02 0.  0.
    9900012    2    3    3    0    0  0.24963611812E+02  0.81730660936E+01 -0.25803073424E+02  0.54367088520E+02  0.40000009900E+02 0.  0.
         12    1    3    3    0    0 -0.24963611812E+02 -0.81730660936E+01  0.25803073424E+02  0.36820911480E+02  0.00000000000E+00 0. -1.
         11    1    4    4    0    0 -0.28537120603E+01 -0.46611466130E+01  0.15711347360E+01  0.56866883940E+01  0.51100000000E-03 0. -1.
        -11    1    4    4    0    0  0.10278946501E+02  0.17024008316E+02 -0.22443755074E+02  0.29986592711E+02  0.51100000000E-03 0.  1.
         12    1    4    4    0    0  0.17538377371E+02 -0.41897956093E+01 -0.49304530855E+01  0.18693807416E+02  0.00000000000E+00 0. -1.
</event>
<event>
 8    1  0.2511738E-006  0.9118800E+02  0.7816164E-02  0.1184000E+00
        -11   -1    0    0    0    0  0.00000000000E+00  0.00000000000E+00  0.45593999997E+02  0.45594000000E+02  0.51100000000E-03 0. -1.
         11   -1    0    0    0    0 -0.00000000000E+00 -0.00000000000E+00 -0.45593999997E+02  0.45594000000E+02  0.51100000000E-03 0.  1.
         23    2    1    2    0    0  0.35527136788E-14 -0.15820678101E-14 -0.35527136788E-14  0.91188000000E+02  0.91188000000E+02 0.  0.
    9900012    2    3    3    0    0 -0.31901977314E+02  0.14171926715E+00  0.18385424981E+02  0.54367080774E+02  0.39999992241E+02 0.  0.
        -12    1    3    3    0    0  0.31901977314E+02 -0.14171926715E+00 -0.18385424981E+02  0.36820919226E+02  0.00000000000E+00 0.  1.
         11    1    4    4    0    0 -0.83337478894E+01  0.16767638655E+02  0.72255252495E+01  0.20070208652E+02  0.51100000000E-03 0. -1.
        -11    1    4    4    0    0 -0.38892068958E+01 -0.84909848660E+01  0.88695563745E+01  0.12879898478E+02  0.51100000000E-03 0.  1.
         12    1    4    4    0    0 -0.19679022529E+02 -0.81349345215E+01  0.22903433571E+01  0.21416973644E+02  0.00000000000E+00 0. -1.
</event>
<event>
 8    1  0.2511738E-006  0.9118800E+02  0.7816164E-02  0.1184000E+00
        -11   -1    0    0    0    0  0.00000000000E+00  0.00000000000E+00  0.45593999997E+02  0.45594000000E+02  0.51100000000E-03 0. -1.
         11   -1    0    0    0    0 -0.00000000000E+00 -0.00000000000E+00 -0.45593999997E+02  0.45594000000E+02  0.51100000000E-03 0.  1.
         23    2    1    2    0    0  0.00000000000E+00  0.35527136788E-14  0.88817841970E-15  0.91188000000E+02  0.91188000000E+02 0.  0.
    9900012    2    3    3    0    0 -0.26530650269E+02 -0.24695853779E+02 -0.64821115097E+01  0.54367104204E+02  0.40000045654E+02 0.  0.
        -12    1    3    3    0    0  0.26530650269E+02  0.24695853779E+02  0.64821115097E+01  0.36820895796E+02  0.00000000000E+00 0.  1.
         11    1    4    4    0    0 -0.25978953212E+02 -0.19007729352E+01  0.46751020087E+01  0.26464608949E+02  0.51100000000E-03 0. -1.
        -11    1    4    4    0    0  0.13813312459E+01 -0.38710762101E+00 -0.40788307573E+01  0.43237470936E+01  0.51100000000E-03 0.  1.
        -12    1    4    4    0    0 -0.19330283029E+01 -0.22407973223E+02 -0.70783827610E+01  0.23578748162E+02  0.00000000000E+00 0.  1.
</event>
<event>
 8    1  0.2511738E-006  0.9118800E+02  0.7816164E-02  0.1184000E+00
        -11   -1    0    0    0    0  0.00000000000E+00  0.00000000000E+00  0.45593999997E+02  0.45594000000E+02  0.51100000000E-03 0.  1.
         11   -1    0    0    0    0 -0.00000000000E+00 -0.00000000000E+00 -0.45593999997E+02  0.45594000000E+02  0.51100000000E-03 0. -1.
         23    2    1    2    0    0  0.35527136788E-14 -0.35527136788E-14 -0.53290705182E-14  0.91188000000E+02  0.91188000000E+02 0.  0.
    9900012    2    3    3    0    0 -0.27908089718E+02  0.21494931086E+02 -0.10718417224E+02  0.54367109165E+02  0.40000056963E+02 0.  0.
        -12    1    3    3    0    0  0.27908089718E+02 -0.21494931086E+02  0.10718417224E+02  0.36820890835E+02  0.00000000000E+00 0.  1.
         11    1    4    4    0    0 -0.69058889034E+01 -0.14336693095E+01  0.59116762874E+01  0.92029683267E+01  0.51100000000E-03 0. -1.
        -11    1    4    4    0    0 -0.17994058462E+02  0.13341019765E+02  0.34937647421E+01  0.22671024252E+02  0.51100000000E-03 0.  1.
         12    1    4    4    0    0 -0.30081423526E+01  0.95875806305E+01 -0.20123858253E+02  0.22493116586E+02  0.00000000000E+00 0. -1.
</event>
<event>
 8    1  0.2511738E-006  0.9118800E+02  0.7816164E-02  0.1184000E+00
        -11   -1    0    0    0    0  0.00000000000E+00  0.00000000000E+00  0.45593999997E+02  0.45594000000E+02  0.51100000000E-03 0. -1.
         11   -1    0    0    0    0 -0.00000000000E+00 -0.00000000000E+00 -0.45593999997E+02  0.45594000000E+02  0.51100000000E-03 0.  1.
         23    2    1    2    0    0  0.00000000000E+00  0.26645352591E-14 -0.88817841970E-15  0.91188000000E+02  0.91188000000E+02 0.  0.
    9900012    2    3    3    0    0 -0.36512468449E+02  0.19249962305E+01 -0.43487551324E+01  0.54367114161E+02  0.40000068353E+02 0.  0.
         12    1    3    3    0    0  0.36512468449E+02 -0.19249962305E+01  0.43487551324E+01  0.36820885839E+02  0.00000000000E+00 0. -1.
         11    1    4    4    0    0 -0.22941106732E+02  0.14906412925E+02  0.40312919287E+01  0.27654056471E+02  0.51100000000E-03 0. -1.
        -11    1    4    4    0    0 -0.14915265053E+02 -0.10627261058E+02 -0.43597004182E+00  0.18319221581E+02  0.51100000000E-03 0.  1.
         12    1    4    4    0    0  0.13439033365E+01 -0.23541556367E+01 -0.79440770193E+01  0.83938361091E+01  0.00000000000E+00 0. -1.
</event>
<event>
 8    1  0.2511738E-006  0.9118800E+02  0.7816164E-02  0.1184000E+00
        -11   -1    0    0    0    0  0.00000000000E+00  0.00000000000E+00  0.45593999997E+02  0.45594000000E+02  0.51100000000E-03 0.  1.
         11   -1    0    0    0    0 -0.00000000000E+00 -0.00000000000E+00 -0.45593999997E+02  0.45594000000E+02  0.51100000000E-03 0. -1.
         23    2    1    2    0    0  0.00000000000E+00  0.00000000000E+00 -0.35527136788E-14  0.91188000000E+02  0.91188000000E+02 0.  0.
    9900012    2    3    3    0    0 -0.32983051569E+02  0.21460982166E+01 -0.16226266831E+02  0.54367093389E+02  0.40000020999E+02 0.  0.
        -12    1    3    3    0    0  0.32983051569E+02 -0.21460982166E+01  0.16226266831E+02  0.36820906611E+02  0.00000000000E+00 0.  1.
         11    1    4    4    0    0 -0.76569451777E+01 -0.90523393222E+01 -0.27489119365E+01  0.12170873993E+02  0.51100000000E-03 0. -1.
        -11    1    4    4    0    0 -0.22018567967E+02  0.13176747909E+00  0.28433746177E+01  0.22201789961E+02  0.51100000000E-03 0.  1.
        -12    1    4    4    0    0 -0.33075384245E+01  0.11066670060E+02 -0.16320729512E+02  0.19994429435E+02  0.00000000000E+00 0.  1.
</event>
<event>
 8    1  0.2511738E-006  0.9118800E+02  0.7816164E-02  0.1184000E+00
        -11   -1    0    0    0    0  0.00000000000E+00  0.00000000000E+00  0.45593999997E+02  0.45594000000E+02  0.51100000000E-03 0.  1.
         11   -1    0    0    0    0 -0.00000000000E+00 -0.00000000000E+00 -0.45593999997E+02  0.45594000000E+02  0.51100000000E-03 0. -1.
         23    2    1    2    0    0 -0.17763568394E-14 -0.35527136788E-14  0.71054273576E-14  0.91188000000E+02  0.91188000000E+02 0.  0.
    9900012    2    3    3    0    0 -0.11711166331E+02 -0.18373587710E+02  0.29682237056E+02  0.54367145328E+02  0.40000139403E+02 0.  0.
         12    1    3    3    0    0  0.11711166331E+02  0.18373587710E+02 -0.29682237056E+02  0.36820854672E+02  0.00000000000E+00 0. -1.
         11    1    4    4    0    0  0.82530502414E+01 -0.18273369012E+02  0.19207455587E+02  0.27766080093E+02  0.51100000000E-03 0. -1.
        -11    1    4    4    0    0 -0.83492735293E+00  0.33773700791E+01  0.55399234814E+01  0.65417493667E+01  0.51100000000E-03 0.  1.
        -12    1    4    4    0    0 -0.19129289220E+02 -0.34775887772E+01  0.49348579876E+01  0.20059315868E+02  0.00000000000E+00 0.  1.
</event>
<event>
 8    1  0.2511738E-006  0.9118800E+02  0.7816164E-02  0.1184000E+00
        -11   -1    0    0    0    0  0.00000000000E+00  0.00000000000E+00  0.45593999997E+02  0.45594000000E+02  0.51100000000E-03 0. -1.
         11   -1    0    0    0    0 -0.00000000000E+00 -0.00000000000E+00 -0.45593999997E+02  0.45594000000E+02  0.51100000000E-03 0.  1.
         23    2    1    2    0    0  0.00000000000E+00 -0.88817841970E-15  0.00000000000E+00  0.91188000000E+02  0.91188000000E+02 0.  0.
    9900012    2    3    3    0    0  0.34864158907E+02  0.79201629516E+01  0.88056944517E+01  0.54367098161E+02  0.40000031877E+02 0.  0.
        -12    1    3    3    0    0 -0.34864158907E+02 -0.79201629516E+01 -0.88056944517E+01  0.36820901839E+02  0.00000000000E+00 0.  1.
         11    1    4    4    0    0  0.22498381007E+02  0.66359632279E+01  0.40120015737E+01  0.23797254312E+02  0.51100000000E-03 0. -1.
        -11    1    4    4    0    0  0.11399657821E+02 -0.77095813583E+01  0.12572017471E+02  0.18639889128E+02  0.51100000000E-03 0.  1.
        -12    1    4    4    0    0  0.96612007885E+00  0.89937810820E+01 -0.77783245928E+01  0.11929954720E+02  0.00000000000E+00 0.  1.
</event>
<event>
 8    1  0.2511738E-006  0.9118800E+02  0.7816164E-02  0.1184000E+00
        -11   -1    0    0    0    0  0.00000000000E+00  0.00000000000E+00  0.45593999997E+02  0.45594000000E+02  0.51100000000E-03 0.  1.
         11   -1    0    0    0    0 -0.00000000000E+00 -0.00000000000E+00 -0.45593999997E+02  0.45594000000E+02  0.51100000000E-03 0. -1.
         23    2    1    2    0    0  0.00000000000E+00  0.17763568394E-14 -0.35527136788E-14  0.91188000000E+02  0.91188000000E+02 0.  0.
    9900012    2    3    3    0    0 -0.23196972004E+02 -0.75154351841E+01  0.27589852851E+02  0.54367064969E+02  0.39999956211E+02 0.  0.
         12    1    3    3    0    0  0.23196972004E+02  0.75154351841E+01 -0.27589852851E+02  0.36820935031E+02  0.00000000000E+00 0. -1.
         11    1    4    4    0    0 -0.50877595268E+01  0.10729677431E+02  0.51194874798E+00  0.11885847322E+02  0.51100000000E-03 0. -1.
        -11    1    4    4    0    0 -0.19199353214E+02 -0.20406137977E+02  0.28253396770E+02  0.39790451874E+02  0.51100000000E-03 0.  1.
        -12    1    4    4    0    0  0.10901407366E+01  0.21610253614E+01 -0.11754926670E+01  0.26907657736E+01  0.00000000000E+00 0.  1.
</event>
<event>
 8    1  0.2511738E-006  0.9118800E+02  0.7816164E-02  0.1184000E+00
        -11   -1    0    0    0    0  0.00000000000E+00  0.00000000000E+00  0.45593999997E+02  0.45594000000E+02  0.51100000000E-03 0.  1.
         11   -1    0    0    0    0 -0.00000000000E+00 -0.00000000000E+00 -0.45593999997E+02  0.45594000000E+02  0.51100000000E-03 0. -1.
         23    2    1    2    0    0  0.00000000000E+00 -0.17763568394E-14  0.00000000000E+00  0.91188000000E+02  0.91188000000E+02 0.  0.
    9900012    2    3    3    0    0 -0.34848521524E+02  0.91737550576E+01 -0.75632824636E+01  0.54367075569E+02  0.39999980376E+02 0.  0.
         12    1    3    3    0    0  0.34848521524E+02 -0.91737550576E+01  0.75632824636E+01  0.36820924431E+02  0.00000000000E+00 0. -1.
         11    1    4    4    0    0  0.65624280458E+00 -0.62654101300E+01  0.74037709585E+00  0.63430416380E+01  0.51100000000E-03 0. -1.
        -11    1    4    4    0    0 -0.28330811835E+02  0.19763087980E+02  0.21721742652E+01  0.34611167086E+02  0.51100000000E-03 0.  1.
        -12    1    4    4    0    0 -0.71739524941E+01 -0.43239227924E+01 -0.10475833825E+02  0.13412866846E+02  0.00000000000E+00 0.  1.
</event>
<event>
 8    1  0.2511738E-006  0.9118800E+02  0.7816164E-02  0.1184000E+00
        -11   -1    0    0    0    0  0.00000000000E+00  0.00000000000E+00  0.45593999997E+02  0.45594000000E+02  0.51100000000E-03 0. -1.
         11   -1    0    0    0    0 -0.00000000000E+00 -0.00000000000E+00 -0.45593999997E+02  0.45594000000E+02  0.51100000000E-03 0.  1.
         23    2    1    2    0    0  0.71054273576E-14  0.00000000000E+00 -0.13322676296E-14  0.91188000000E+02  0.91188000000E+02 0.  0.
    9900012    2    3    3    0    0  0.35436469270E+02  0.93958250412E+01 -0.34286459618E+01  0.54367075302E+02  0.39999979765E+02 0.  0.
         12    1    3    3    0    0 -0.35436469270E+02 -0.93958250412E+01  0.34286459618E+01  0.36820924698E+02  0.00000000000E+00 0. -1.
         11    1    4    4    0    0  0.91820586942E+01 -0.46351015806E+00  0.69890718258E+01  0.11548686885E+02  0.51100000000E-03 0. -1.
        -11    1    4    4    0    0  0.31836720799E+02  0.11683096096E+02 -0.13109296199E+02  0.36358288914E+02  0.51100000000E-03 0.  1.
        -12    1    4    4    0    0 -0.55823102236E+01 -0.18237608969E+01  0.26915784112E+01  0.64600995027E+01  0.00000000000E+00 0.  1.
</event>
<event>
 8    1  0.2511738E-006  0.9118800E+02  0.7816164E-02  0.1184000E+00
        -11   -1    0    0    0    0  0.00000000000E+00  0.00000000000E+00  0.45593999997E+02  0.45594000000E+02  0.51100000000E-03 0.  1.
         11   -1    0    0    0    0 -0.00000000000E+00 -0.00000000000E+00 -0.45593999997E+02  0.45594000000E+02  0.51100000000E-03 0. -1.
         23    2    1    2    0    0  0.00000000000E+00  0.00000000000E+00  0.71054273576E-14  0.91188000000E+02  0.91188000000E+02 0.  0.
    9900012    2    3    3    0    0 -0.78998333868E+01  0.12264466680E+02  0.33807635437E+02  0.54367072196E+02  0.39999972686E+02 0.  0.
         12    1    3    3    0    0  0.78998333868E+01 -0.12264466680E+02 -0.33807635437E+02  0.36820927804E+02  0.00000000000E+00 0. -1.
         11    1    4    4    0    0 -0.47147209390E+01 -0.79227653206E+01  0.25595085044E+01  0.95681705619E+01  0.51100000000E-03 0. -1.
        -11    1    4    4    0    0 -0.77709441756E+01  0.15905642263E+02  0.33697037676E+02  0.38063990563E+02  0.51100000000E-03 0.  1.
         12    1    4    4    0    0  0.45858317277E+01  0.42815897374E+01 -0.24489107429E+01  0.67349110715E+01  0.00000000000E+00 0. -1.
</event>
<event>
 8    1  0.2511738E-006  0.9118800E+02  0.7816164E-02  0.1184000E+00
        -11   -1    0    0    0    0  0.00000000000E+00  0.00000000000E+00  0.45593999997E+02  0.45594000000E+02  0.51100000000E-03 0.  1.
         11   -1    0    0    0    0 -0.00000000000E+00 -0.00000000000E+00 -0.45593999997E+02  0.45594000000E+02  0.51100000000E-03 0. -1.
         23    2    1    2    0    0  0.00000000000E+00  0.00000000000E+00  0.35527136788E-14  0.91188000000E+02  0.91188000000E+02 0.  0.
    9900012    2    3    3    0    0  0.29593228033E+02 -0.99536042159E+01  0.19517912500E+02  0.54367050926E+02  0.39999924197E+02 0.  0.
         12    1    3    3    0    0 -0.29593228033E+02  0.99536042159E+01 -0.19517912500E+02  0.36820949074E+02  0.00000000000E+00 0. -1.
         11    1    4    4    0    0  0.66252780627E+01  0.13562111476E+01 -0.93341159221E+00  0.68267763657E+01  0.51100000000E-03 0. -1.
        -11    1    4    4    0    0  0.31143009015E+02 -0.36182943442E+01  0.17618529983E+02  0.35963754858E+02  0.51100000000E-03 0.  1.
         12    1    4    4    0    0 -0.81750590441E+01 -0.76915210193E+01  0.28327941094E+01  0.11576519703E+02  0.00000000000E+00 0. -1.
</event>
<event>
 8    1  0.2511738E-006  0.9118800E+02  0.7816164E-02  0.1184000E+00
        -11   -1    0    0    0    0  0.00000000000E+00  0.00000000000E+00  0.45593999997E+02  0.45594000000E+02  0.51100000000E-03 0.  1.
         11   -1    0    0    0    0 -0.00000000000E+00 -0.00000000000E+00 -0.45593999997E+02  0.45594000000E+02  0.51100000000E-03 0. -1.
         23    2    1    2    0    0 -0.22204460493E-14 -0.17763568394E-14  0.00000000000E+00  0.91188000000E+02  0.91188000000E+02 0.  0.
    9900012    2    3    3    0    0  0.26966258038E+01  0.73148108149E+01 -0.35986122670E+02  0.54367091907E+02  0.40000017620E+02 0.  0.
        -12    1    3    3    0    0 -0.26966258038E+01 -0.73148108149E+01  0.35986122670E+02  0.36820908093E+02  0.00000000000E+00 0.  1.
         11    1    4    4    0    0 -0.12617772292E+02 -0.78548418294E+01 -0.20692860735E+02  0.25477464619E+02  0.51100000000E-03 0. -1.
        -11    1    4    4    0    0  0.65353028124E+01  0.43296221072E+00 -0.77607277201E+01  0.10155123541E+02  0.51100000000E-03 0.  1.
         12    1    4    4    0    0  0.87790952832E+01  0.14736690434E+02 -0.75325342153E+01  0.18734503747E+02  0.00000000000E+00 0. -1.
</event>
<event>
 8    1  0.2511738E-006  0.9118800E+02  0.7816164E-02  0.1184000E+00
        -11   -1    0    0    0    0  0.00000000000E+00  0.00000000000E+00  0.45593999997E+02  0.45594000000E+02  0.51100000000E-03 0.  1.
         11   -1    0    0    0    0 -0.00000000000E+00 -0.00000000000E+00 -0.45593999997E+02  0.45594000000E+02  0.51100000000E-03 0. -1.
         23    2    1    2    0    0  0.17763568394E-14 -0.88817841970E-15 -0.71054273576E-14  0.91188000000E+02  0.91188000000E+02 0.  0.
    9900012    2    3    3    0    0  0.81338968950E+01  0.62676008371E+01 -0.35360087496E+02  0.54367097150E+02  0.40000029574E+02 0.  0.
        -12    1    3    3    0    0 -0.81338968950E+01 -0.62676008371E+01  0.35360087496E+02  0.36820902850E+02  0.00000000000E+00 0.  1.
         11    1    4    4    0    0 -0.33177969615E+01  0.11658693074E+02 -0.15296235648E+02  0.19516857486E+02  0.51100000000E-03 0. -1.
        -11    1    4    4    0    0  0.48161592283E+01  0.82526569193E+01 -0.16806302376E+02  0.19332706374E+02  0.51100000000E-03 0.  1.
        -12    1    4    4    0    0  0.66355346282E+01 -0.13643749156E+02 -0.32575494713E+01  0.15517533290E+02  0.00000000000E+00 0.  1.
</event>
<event>
 8    1  0.2511738E-006  0.9118800E+02  0.7816164E-02  0.1184000E+00
        -11   -1    0    0    0    0  0.00000000000E+00  0.00000000000E+00  0.45593999997E+02  0.45594000000E+02  0.51100000000E-03 0.  1.
         11   -1    0    0    0    0 -0.00000000000E+00 -0.00000000000E+00 -0.45593999997E+02  0.45594000000E+02  0.51100000000E-03 0. -1.
         23    2    1    2    0    0  0.00000000000E+00  0.35527136788E-14  0.00000000000E+00  0.91188000000E+02  0.91188000000E+02 0.  0.
    9900012    2    3    3    0    0 -0.18836134665E+02  0.16787700269E+02  0.26817036593E+02  0.54367077944E+02  0.39999985788E+02 0.  0.
         12    1    3    3    0    0  0.18836134665E+02 -0.16787700269E+02 -0.26817036593E+02  0.36820922056E+02  0.00000000000E+00 0. -1.
         11    1    4    4    0    0  0.14472101971E+01  0.15005323473E+02 -0.16350030388E+01  0.15163356656E+02  0.51100000000E-03 0. -1.
        -11    1    4    4    0    0 -0.36270927909E+01  0.71642180851E+01  0.15404363824E+02  0.17371708262E+02  0.51100000000E-03 0.  1.
         12    1    4    4    0    0 -0.16656252071E+02 -0.53818412889E+01  0.13047675808E+02  0.21832013025E+02  0.00000000000E+00 0. -1.
</event>
<event>
 8    1  0.2511738E-006  0.9118800E+02  0.7816164E-02  0.1184000E+00
        -11   -1    0    0    0    0  0.00000000000E+00  0.00000000000E+00  0.45593999997E+02  0.45594000000E+02  0.51100000000E-03 0. -1.
         11   -1    0    0    0    0 -0.00000000000E+00 -0.00000000000E+00 -0.45593999997E+02  0.45594000000E+02  0.51100000000E-03 0.  1.
         23    2    1    2    0    0  0.17763568394E-14  0.00000000000E+00  0.00000000000E+00  0.91188000000E+02  0.91188000000E+02 0.  0.
    9900012    2    3    3    0    0 -0.96491982678E+01  0.33193118637E+02 -0.12684219148E+02  0.54367087906E+02  0.40000008499E+02 0.  0.
        -12    1    3    3    0    0  0.96491982678E+01 -0.33193118637E+02  0.12684219148E+02  0.36820912094E+02  0.00000000000E+00 0.  1.
         11    1    4    4    0    0  0.72360043505E+01  0.23446500394E+02 -0.86847625717E+01  0.26029276611E+02  0.51100000000E-03 0. -1.
        -11    1    4    4    0    0 -0.19882503963E+02  0.24148436945E+01 -0.17559990361E+01  0.20105446197E+02  0.51100000000E-03 0.  1.
        -12    1    4    4    0    0  0.29973013443E+01  0.73317745481E+01 -0.22434575398E+01  0.82323650980E+01  0.00000000000E+00 0.  1.
</event>
<event>
 8    1  0.2511738E-006  0.9118800E+02  0.7816164E-02  0.1184000E+00
        -11   -1    0    0    0    0  0.00000000000E+00  0.00000000000E+00  0.45593999997E+02  0.45594000000E+02  0.51100000000E-03 0.  1.
         11   -1    0    0    0    0 -0.00000000000E+00 -0.00000000000E+00 -0.45593999997E+02  0.45594000000E+02  0.51100000000E-03 0. -1.
         23    2    1    2    0    0  0.00000000000E+00  0.00000000000E+00 -0.17763568394E-14  0.91188000000E+02  0.91188000000E+02 0.  0.
    9900012    2    3    3    0    0  0.46528360938E+01  0.34841221301E+02  0.10964562036E+02  0.54367065654E+02  0.39999957772E+02 0.  0.
        -12    1    3    3    0    0 -0.46528360938E+01 -0.34841221301E+02 -0.10964562036E+02  0.36820934346E+02  0.00000000000E+00 0.  1.
         11    1    4    4    0    0  0.14382891031E+02  0.41794598412E+01 -0.16201746803E+01  0.15065205118E+02  0.51100000000E-03 0. -1.
        -11    1    4    4    0    0 -0.61833892918E+01  0.11382705789E+02 -0.40714369330E+01  0.13578545326E+02  0.51100000000E-03 0.  1.
         12    1    4    4    0    0 -0.35466656459E+01  0.19279055671E+02  0.16656173650E+02  0.25723315210E+02  0.00000000000E+00 0. -1.
</event>
<event>
 8    1  0.2511738E-006  0.9118800E+02  0.7816164E-02  0.1184000E+00
        -11   -1    0    0    0    0  0.00000000000E+00  0.00000000000E+00  0.45593999997E+02  0.45594000000E+02  0.51100000000E-03 0.  1.
         11   -1    0    0    0    0 -0.00000000000E+00 -0.00000000000E+00 -0.45593999997E+02  0.45594000000E+02  0.51100000000E-03 0. -1.
         23    2    1    2    0    0  0.00000000000E+00  0.33306690739E-15 -0.35527136788E-14  0.91188000000E+02  0.91188000000E+02 0.  0.
    9900012    2    3    3    0    0  0.24700884952E+02  0.95156060749E+00 -0.27289944090E+02  0.54367078862E+02  0.39999987881E+02 0.  0.
        -12    1    3    3    0    0 -0.24700884952E+02 -0.95156060749E+00  0.27289944090E+02  0.36820921138E+02  0.00000000000E+00 0.  1.
         11    1    4    4    0    0  0.13376104435E+02 -0.11305477243E+02 -0.23846459001E+02  0.29586949702E+02  0.51100000000E-03 0. -1.
        -11    1    4    4    0    0  0.10893011820E+02  0.61761033557E+01  0.57259411424E+01  0.13769108954E+02  0.51100000000E-03 0.  1.
         12    1    4    4    0    0  0.43176869761E+00  0.60809344945E+01 -0.91694262320E+01  0.11011020205E+02  0.00000000000E+00 0. -1.
</event>
<event>
 8    1  0.2511738E-006  0.9118800E+02  0.7816164E-02  0.1184000E+00
        -11   -1    0    0    0    0  0.00000000000E+00  0.00000000000E+00  0.45593999997E+02  0.45594000000E+02  0.51100000000E-03 0. -1.
         11   -1    0    0    0    0 -0.00000000000E+00 -0.00000000000E+00 -0.45593999997E+02  0.45594000000E+02  0.51100000000E-03 0.  1.
         23    2    1    2    0    0  0.26645352591E-14  0.00000000000E+00  0.00000000000E+00  0.91188000000E+02  0.91188000000E+02 0.  0.
    9900012    2    3    3    0    0 -0.66604337196E+01  0.10146497937E+02  0.34763039012E+02  0.54367059231E+02  0.39999943130E+02 0.  0.
        -12    1    3    3    0    0  0.66604337196E+01 -0.10146497937E+02 -0.34763039012E+02  0.36820940769E+02  0.00000000000E+00 0.  1.
         11    1    4    4    0    0 -0.17763740681E+02  0.75589002607E+01  0.22103732983E+02  0.29347273607E+02  0.51100000000E-03 0.  1.
        -11    1    4    4    0    0 -0.25374916117E+00 -0.33183543792E+01 -0.32149346256E+01  0.46272745035E+01  0.51100000000E-03 0. -1.
         12    1    4    4    0    0  0.11357056122E+02  0.59059520550E+01  0.15874240655E+02  0.20392511120E+02  0.00000000000E+00 0. -1.
</event>
<event>
 8    1  0.2511738E-006  0.9118800E+02  0.7816164E-02  0.1184000E+00
        -11   -1    0    0    0    0  0.00000000000E+00  0.00000000000E+00  0.45593999997E+02  0.45594000000E+02  0.51100000000E-03 0.  1.
         11   -1    0    0    0    0 -0.00000000000E+00 -0.00000000000E+00 -0.45593999997E+02  0.45594000000E+02  0.51100000000E-03 0. -1.
         23    2    1    2    0    0 -0.35527136788E-14 -0.35527136788E-14  0.00000000000E+00  0.91188000000E+02  0.91188000000E+02 0.  0.
    9900012    2    3    3    0    0 -0.29789878029E+02  0.21595568481E+02  0.14053879764E+01  0.54367074884E+02  0.39999978814E+02 0.  0.
        -12    1    3    3    0    0  0.29789878029E+02 -0.21595568481E+02 -0.14053879764E+01  0.36820925116E+02  0.00000000000E+00 0.  1.
         11    1    4    4    0    0  0.27602112475E+01  0.37671073576E+01 -0.24378974402E+01  0.52681313731E+01  0.51100000000E-03 0. -1.
        -11    1    4    4    0    0 -0.31038128892E+02  0.25609143421E+02 -0.11487176207E+00  0.40239369623E+02  0.51100000000E-03 0.  1.
        -12    1    4    4    0    0 -0.15119603846E+01 -0.77806822977E+01  0.39581571786E+01  0.88595738878E+01  0.00000000000E+00 0.  1.
</event>
<event>
 8    1  0.2511738E-006  0.9118800E+02  0.7816164E-02  0.1184000E+00
        -11   -1    0    0    0    0  0.00000000000E+00  0.00000000000E+00  0.45593999997E+02  0.45594000000E+02  0.51100000000E-03 0.  1.
         11   -1    0    0    0    0 -0.00000000000E+00 -0.00000000000E+00 -0.45593999997E+02  0.45594000000E+02  0.51100000000E-03 0. -1.
         23    2    1    2    0    0  0.35527136788E-14 -0.35527136788E-14 -0.35527136788E-14  0.91188000000E+02  0.91188000000E+02 0.  0.
    9900012    2    3    3    0    0 -0.19345392521E+02  0.20762516552E+02  0.23461738349E+02  0.54367089206E+02  0.40000011463E+02 0.  0.
         12    1    3    3    0    0  0.19345392521E+02 -0.20762516552E+02 -0.23461738349E+02  0.36820910794E+02  0.00000000000E+00 0. -1.
         11    1    4    4    0    0 -0.23472006407E+00  0.26919730656E+01 -0.42370307597E+01  0.50253599288E+01  0.51100000000E-03 0. -1.
        -11    1    4    4    0    0 -0.29374564517E+01  0.80303400437E+01 -0.61325071504E+01  0.10522483349E+02  0.51100000000E-03 0.  1.
        -12    1    4    4    0    0 -0.16173216005E+02  0.10040203443E+02  0.33831276259E+02  0.38819245928E+02  0.00000000000E+00 0.  1.
</event>
<event>
 8    1  0.2511738E-006  0.9118800E+02  0.7816164E-02  0.1184000E+00
        -11   -1    0    0    0    0  0.00000000000E+00  0.00000000000E+00  0.45593999997E+02  0.45594000000E+02  0.51100000000E-03 0. -1.
         11   -1    0    0    0    0 -0.00000000000E+00 -0.00000000000E+00 -0.45593999997E+02  0.45594000000E+02  0.51100000000E-03 0.  1.
         23    2    1    2    0    0  0.00000000000E+00  0.35527136788E-14  0.17763568394E-14  0.91188000000E+02  0.91188000000E+02 0.  0.
    9900012    2    3    3    0    0  0.27493780126E+02 -0.23838918591E+02  0.56193908055E+01  0.54367088303E+02  0.40000009404E+02 0.  0.
         12    1    3    3    0    0 -0.27493780126E+02  0.23838918591E+02 -0.56193908055E+01  0.36820911697E+02  0.00000000000E+00 0. -1.
         11    1    4    4    0    0 -0.19495665400E+01 -0.22218553235E+01 -0.32763117134E+01  0.44126714671E+01  0.51100000000E-03 0. -1.
        -11    1    4    4    0    0  0.57427001279E+01  0.11826723898E+01  0.15357517861E+02  0.16438694408E+02  0.51100000000E-03 0.  1.
        -12    1    4    4    0    0  0.23700646538E+02 -0.22799735657E+02 -0.64618153418E+01  0.33515722428E+02  0.00000000000E+00 0.  1.
</event>
<event>
 8    1  0.2511738E-006  0.9118800E+02  0.7816164E-02  0.1184000E+00
        -11   -1    0    0    0    0  0.00000000000E+00  0.00000000000E+00  0.45593999997E+02  0.45594000000E+02  0.51100000000E-03 0.  1.
         11   -1    0    0    0    0 -0.00000000000E+00 -0.00000000000E+00 -0.45593999997E+02  0.45594000000E+02  0.51100000000E-03 0. -1.
         23    2    1    2    0    0 -0.35527136788E-14 -0.35527136788E-14  0.17763568394E-14  0.91188000000E+02  0.91188000000E+02 0.  0.
    9900012    2    3    3    0    0 -0.24562822675E+02 -0.25479277221E+02  0.10161484475E+02  0.54367060411E+02  0.39999945819E+02 0.  0.
         12    1    3    3    0    0  0.24562822675E+02  0.25479277221E+02 -0.10161484475E+02  0.36820939589E+02  0.00000000000E+00 0. -1.
         11    1    4    4    0    0 -0.52974822738E+01 -0.62335948677E+01 -0.61031964227E+01  0.10206372042E+02  0.51100000000E-03 0. -1.
        -11    1    4    4    0    0 -0.39449906104E+01 -0.22286889784E+02  0.17328554478E+02  0.28505213693E+02  0.51100000000E-03 0.  1.
        -12    1    4    4    0    0 -0.15320349791E+02  0.30412074300E+01 -0.10638735806E+01  0.15655474676E+02  0.00000000000E+00 0.  1.
</event>
<event>
 8    1  0.2511738E-006  0.9118800E+02  0.7816164E-02  0.1184000E+00
        -11   -1    0    0    0    0  0.00000000000E+00  0.00000000000E+00  0.45593999997E+02  0.45594000000E+02  0.51100000000E-03 0. -1.
         11   -1    0    0    0    0 -0.00000000000E+00 -0.00000000000E+00 -0.45593999997E+02  0.45594000000E+02  0.51100000000E-03 0.  1.
         23    2    1    2    0    0  0.00000000000E+00 -0.17763568394E-14 -0.71054273576E-14  0.91188000000E+02  0.91188000000E+02 0.  0.
    9900012    2    3    3    0    0  0.15162850670E+02  0.45307969934E+01  0.33246629976E+02  0.54367101496E+02  0.40000039481E+02 0.  0.
        -12    1    3    3    0    0 -0.15162850670E+02 -0.45307969934E+01 -0.33246629976E+02  0.36820898504E+02  0.00000000000E+00 0.  1.
         11    1    4    4    0    0  0.10913286252E+02  0.99987231428E+01  0.30244578433E+02  0.33672077544E+02  0.51100000000E-03 0. -1.
        -11    1    4    4    0    0  0.56824821538E+01 -0.35642255975E+01 -0.74208943722E+01  0.10003198543E+02  0.51100000000E-03 0.  1.
        -12    1    4    4    0    0 -0.14329177357E+01 -0.19037005518E+01  0.10422945915E+02  0.10691825409E+02  0.00000000000E+00 0.  1.
</event>
<event>
 8    1  0.2511738E-006  0.9118800E+02  0.7816164E-02  0.1184000E+00
        -11   -1    0    0    0    0  0.00000000000E+00  0.00000000000E+00  0.45593999997E+02  0.45594000000E+02  0.51100000000E-03 0.  1.
         11   -1    0    0    0    0 -0.00000000000E+00 -0.00000000000E+00 -0.45593999997E+02  0.45594000000E+02  0.51100000000E-03 0. -1.
         23    2    1    2    0    0  0.17763568394E-14 -0.88817841970E-15  0.71054273576E-14  0.91188000000E+02  0.91188000000E+02 0.  0.
    9900012    2    3    3    0    0 -0.91083527996E+01  0.42306075550E+01 -0.35424847818E+02  0.54367082386E+02  0.39999995915E+02 0.  0.
        -12    1    3    3    0    0  0.91083527996E+01 -0.42306075550E+01  0.35424847818E+02  0.36820917614E+02  0.00000000000E+00 0.  1.
         11    1    4    4    0    0  0.35640895307E+01  0.18772003041E+02 -0.24526867965E+02  0.31091125499E+02  0.51100000000E-03 0. -1.
        -11    1    4    4    0    0 -0.55267703571E+01 -0.76841141436E+01 -0.92528938545E+01  0.13236572279E+02  0.51100000000E-03 0.  1.
         12    1    4    4    0    0 -0.71456719732E+01 -0.68572813428E+01 -0.16450859992E+01  0.10039384608E+02  0.00000000000E+00 0. -1.
</event>
<event>
 8    1  0.2511738E-006  0.9118800E+02  0.7816164E-02  0.1184000E+00
        -11   -1    0    0    0    0  0.00000000000E+00  0.00000000000E+00  0.45593999997E+02  0.45594000000E+02  0.51100000000E-03 0.  1.
         11   -1    0    0    0    0 -0.00000000000E+00 -0.00000000000E+00 -0.45593999997E+02  0.45594000000E+02  0.51100000000E-03 0. -1.
         23    2    1    2    0    0 -0.44408920985E-15  0.00000000000E+00  0.35527136788E-14  0.91188000000E+02  0.91188000000E+02 0.  0.
    9900012    2    3    3    0    0 -0.26522367526E+01  0.30120749992E+02 -0.21011570735E+02  0.54367081426E+02  0.39999993728E+02 0.  0.
        -12    1    3    3    0    0  0.26522367526E+01 -0.30120749992E+02  0.21011570735E+02  0.36820918574E+02  0.00000000000E+00 0.  1.
         11    1    4    4    0    0  0.87636926837E+01 -0.33557937491E+00 -0.12898601931E+02  0.15597719545E+02  0.51100000000E-03 0. -1.
        -11    1    4    4    0    0 -0.55303348143E+01  0.22745715223E+02  0.34666576391E+01  0.23663682715E+02  0.51100000000E-03 0.  1.
        -12    1    4    4    0    0 -0.58855946219E+01  0.77106141435E+01 -0.11579626443E+02  0.15105679167E+02  0.00000000000E+00 0.  1.
</event>
<event>
 8    1  0.2511738E-006  0.9118800E+02  0.7816164E-02  0.1184000E+00
        -11   -1    0    0    0    0  0.00000000000E+00  0.00000000000E+00  0.45593999997E+02  0.45594000000E+02  0.51100000000E-03 0. -1.
         11   -1    0    0    0    0 -0.00000000000E+00 -0.00000000000E+00 -0.45593999997E+02  0.45594000000E+02  0.51100000000E-03 0.  1.
         23    2    1    2    0    0 -0.44408920985E-15  0.17763568394E-14  0.00000000000E+00  0.91188000000E+02  0.91188000000E+02 0.  0.
    9900012    2    3    3    0    0  0.32876590625E+01  0.12717849652E+02 -0.34398075157E+02  0.54367082353E+02  0.39999995840E+02 0.  0.
         12    1    3    3    0    0 -0.32876590625E+01 -0.12717849652E+02  0.34398075157E+02  0.36820917647E+02  0.00000000000E+00 0. -1.
         11    1    4    4    0    0  0.14736050038E+02  0.18497059821E+02 -0.18325953701E+02  0.29918772903E+02  0.51100000000E-03 0. -1.
        -11    1    4    4    0    0 -0.13234988008E+02 -0.27429204815E+01 -0.15972617041E+02  0.20923981833E+02  0.51100000000E-03 0.  1.
         12    1    4    4    0    0  0.17865970322E+01 -0.30362896877E+01 -0.99504414993E-01  0.35243276170E+01  0.00000000000E+00 0. -1.
</event>
<event>
 8    1  0.2511738E-006  0.9118800E+02  0.7816164E-02  0.1184000E+00
        -11   -1    0    0    0    0  0.00000000000E+00  0.00000000000E+00  0.45593999997E+02  0.45594000000E+02  0.51100000000E-03 0.  1.
         11   -1    0    0    0    0 -0.00000000000E+00 -0.00000000000E+00 -0.45593999997E+02  0.45594000000E+02  0.51100000000E-03 0. -1.
         23    2    1    2    0    0  0.00000000000E+00  0.00000000000E+00  0.00000000000E+00  0.91188000000E+02  0.91188000000E+02 0.  0.
    9900012    2    3    3    0    0 -0.26640903649E+02 -0.11427029404E+02  0.22703995302E+02  0.54366998507E+02  0.39999804697E+02 0.  0.
         12    1    3    3    0    0  0.26640903649E+02  0.11427029404E+02 -0.22703995302E+02  0.36821001493E+02  0.00000000000E+00 0. -1.
         11    1    4    4    0    0 -0.13370664103E+00 -0.93047003978E+01  0.65292777439E+01  0.11367796404E+02  0.51100000000E-03 0. -1.
        -11    1    4    4    0    0 -0.19694126344E+01  0.10491445641E+02  0.10210847475E+02  0.14771947203E+02  0.51100000000E-03 0.  1.
        -12    1    4    4    0    0 -0.24537784374E+02 -0.12613774648E+02  0.59638700831E+01  0.28227254900E+02  0.00000000000E+00 0.  1.
</event>
<event>
 8    1  0.2511738E-006  0.9118800E+02  0.7816164E-02  0.1184000E+00
        -11   -1    0    0    0    0  0.00000000000E+00  0.00000000000E+00  0.45593999997E+02  0.45594000000E+02  0.51100000000E-03 0.  1.
         11   -1    0    0    0    0 -0.00000000000E+00 -0.00000000000E+00 -0.45593999997E+02  0.45594000000E+02  0.51100000000E-03 0. -1.
         23    2    1    2    0    0  0.00000000000E+00  0.00000000000E+00  0.00000000000E+00  0.91188000000E+02  0.91188000000E+02 0.  0.
    9900012    2    3    3    0    0  0.26930398953E+02 -0.10864065164E+02 -0.22638567828E+02  0.54367094893E+02  0.40000024427E+02 0.  0.
        -12    1    3    3    0    0 -0.26930398953E+02  0.10864065164E+02  0.22638567828E+02  0.36820905107E+02  0.00000000000E+00 0.  1.
         11    1    4    4    0    0 -0.26744541854E+01  0.30892268658E+01 -0.14679008404E+02  0.15237103262E+02  0.51100000000E-03 0. -1.
        -11    1    4    4    0    0  0.29696727346E+02 -0.16438015841E+02 -0.10545013785E+02  0.35542950016E+02  0.51100000000E-03 0.  1.
        -12    1    4    4    0    0 -0.91874208132E-01  0.24847238118E+01  0.25854543613E+01  0.35870416147E+01  0.00000000000E+00 0.  1.
</event>
<event>
 8    1  0.2511738E-006  0.9118800E+02  0.7816164E-02  0.1184000E+00
        -11   -1    0    0    0    0  0.00000000000E+00  0.00000000000E+00  0.45593999997E+02  0.45594000000E+02  0.51100000000E-03 0.  1.
         11   -1    0    0    0    0 -0.00000000000E+00 -0.00000000000E+00 -0.45593999997E+02  0.45594000000E+02  0.51100000000E-03 0. -1.
         23    2    1    2    0    0 -0.35527136788E-14 -0.15543122345E-14  0.00000000000E+00  0.91188000000E+02  0.91188000000E+02 0.  0.
    9900012    2    3    3    0    0  0.19504261285E+02 -0.19946659908E+01  0.31167084305E+02  0.54367054266E+02  0.39999931809E+02 0.  0.
         12    1    3    3    0    0 -0.19504261285E+02  0.19946659908E+01 -0.31167084305E+02  0.36820945734E+02  0.00000000000E+00 0. -1.
         11    1    4    4    0    0  0.20271775244E+01  0.95242968921E+01  0.29636340773E+01  0.10178644665E+02  0.51100000000E-03 0. -1.
        -11    1    4    4    0    0  0.17643986817E+02  0.43151779460E+01  0.14343000894E+02  0.23144172192E+02  0.51100000000E-03 0.  1.
         12    1    4    4    0    0 -0.16690305678E+00 -0.15834140829E+02  0.13860449333E+02  0.21044237409E+02  0.00000000000E+00 0. -1.
</event>
<event>
 8    1  0.2511738E-006  0.9118800E+02  0.7816164E-02  0.1184000E+00
        -11   -1    0    0    0    0  0.00000000000E+00  0.00000000000E+00  0.45593999997E+02  0.45594000000E+02  0.51100000000E-03 0.  1.
         11   -1    0    0    0    0 -0.00000000000E+00 -0.00000000000E+00 -0.45593999997E+02  0.45594000000E+02  0.51100000000E-03 0. -1.
         23    2    1    2    0    0  0.00000000000E+00  0.17763568394E-14  0.00000000000E+00  0.91188000000E+02  0.91188000000E+02 0.  0.
    9900012    2    3    3    0    0  0.24687342706E+02  0.13802143367E+02 -0.23575765525E+02  0.54367071556E+02  0.39999971225E+02 0.  0.
        -12    1    3    3    0    0 -0.24687342706E+02 -0.13802143367E+02  0.23575765525E+02  0.36820928444E+02  0.00000000000E+00 0.  1.
         11    1    4    4    0    0  0.16871988812E+01  0.18116915703E+02 -0.12233908583E+02  0.21925733606E+02  0.51100000000E-03 0. -1.
        -11    1    4    4    0    0  0.72059894483E+01 -0.11073183959E+02 -0.51680005598E+01  0.14186258033E+02  0.51100000000E-03 0.  1.
         12    1    4    4    0    0  0.15794154377E+02  0.67584116235E+01 -0.61738563817E+01  0.18255079917E+02  0.00000000000E+00 0. -1.
</event>
<event>
 8    1  0.2511738E-006  0.9118800E+02  0.7816164E-02  0.1184000E+00
        -11   -1    0    0    0    0  0.00000000000E+00  0.00000000000E+00  0.45593999997E+02  0.45594000000E+02  0.51100000000E-03 0. -1.
         11   -1    0    0    0    0 -0.00000000000E+00 -0.00000000000E+00 -0.45593999997E+02  0.45594000000E+02  0.51100000000E-03 0.  1.
         23    2    1    2    0    0  0.00000000000E+00 -0.71054273576E-14  0.35527136788E-14  0.91188000000E+02  0.91188000000E+02 0.  0.
    9900012    2    3    3    0    0  0.34347827031E+01 -0.32692487071E+02  0.16588726034E+02  0.54367051145E+02  0.39999924696E+02 0.  0.
        -12    1    3    3    0    0 -0.34347827031E+01  0.32692487071E+02 -0.16588726034E+02  0.36820948855E+02  0.00000000000E+00 0.  1.
         11    1    4    4    0    0 -0.71527105654E+01 -0.32385451740E+01 -0.35867329314E+01  0.86321548097E+01  0.51100000000E-03 0. -1.
        -11    1    4    4    0    0  0.43994865340E+01 -0.21333371268E+01 -0.57628914765E+01  0.75576138755E+01  0.51100000000E-03 0.  1.
         12    1    4    4    0    0  0.61880067345E+01 -0.27320604770E+02  0.25938350442E+02  0.38177282460E+02  0.00000000000E+00 0. -1.
</event>
<event>
 8    1  0.2511738E-006  0.9118800E+02  0.7816164E-02  0.1184000E+00
        -11   -1    0    0    0    0  0.00000000000E+00  0.00000000000E+00  0.45593999997E+02  0.45594000000E+02  0.51100000000E-03 0.  1.
         11   -1    0    0    0    0 -0.00000000000E+00 -0.00000000000E+00 -0.45593999997E+02  0.45594000000E+02  0.51100000000E-03 0. -1.
         23    2    1    2    0    0  0.71054273576E-14  0.00000000000E+00  0.00000000000E+00  0.91188000000E+02  0.91188000000E+02 0.  0.
    9900012    2    3    3    0    0  0.27974076955E+02  0.12519615675E+02  0.20408085433E+02  0.54367085981E+02  0.40000004112E+02 0.  0.
         12    1    3    3    0    0 -0.27974076955E+02 -0.12519615675E+02 -0.20408085433E+02  0.36820914019E+02  0.00000000000E+00 0. -1.
         11    1    4    4    0    0 -0.47522470465E+01 -0.13710451669E+00  0.10110651438E+01  0.48605455070E+01  0.51100000000E-03 0. -1.
        -11    1    4    4    0    0 -0.46832521979E+01 -0.23364867272E+01  0.26013773177E+01  0.58445860064E+01  0.51100000000E-03 0.  1.
         12    1    4    4    0    0  0.37409576199E+02  0.14993206919E+02  0.16795642971E+02  0.43661954468E+02  0.00000000000E+00 0. -1.
</event>
<event>
 8    1  0.2511738E-006  0.9118800E+02  0.7816164E-02  0.1184000E+00
        -11   -1    0    0    0    0  0.00000000000E+00  0.00000000000E+00  0.45593999997E+02  0.45594000000E+02  0.51100000000E-03 0.  1.
         11   -1    0    0    0    0 -0.00000000000E+00 -0.00000000000E+00 -0.45593999997E+02  0.45594000000E+02  0.51100000000E-03 0. -1.
         23    2    1    2    0    0  0.00000000000E+00 -0.17763568394E-14  0.35527136788E-14  0.91188000000E+02  0.91188000000E+02 0.  0.
    9900012    2    3    3    0    0 -0.18155458718E+02 -0.13053830650E+02  0.29253314387E+02  0.54367087755E+02  0.40000008155E+02 0.  0.
         12    1    3    3    0    0  0.18155458718E+02  0.13053830650E+02 -0.29253314387E+02  0.36820912245E+02  0.00000000000E+00 0. -1.
         11    1    4    4    0    0 -0.10467545370E+02 -0.19807705732E+01 -0.64904747970E+01  0.12474743344E+02  0.51100000000E-03 0. -1.
        -11    1    4    4    0    0 -0.12367560127E+02 -0.33437952915E+01  0.21177289311E+02  0.24751062468E+02  0.51100000000E-03 0.  1.
         12    1    4    4    0    0  0.46796467797E+01 -0.77292647854E+01  0.14566499873E+02  0.17141281943E+02  0.00000000000E+00 0. -1.
</event>
<event>
 8    1  0.2511738E-006  0.9118800E+02  0.7816164E-02  0.1184000E+00
        -11   -1    0    0    0    0  0.00000000000E+00  0.00000000000E+00  0.45593999997E+02  0.45594000000E+02  0.51100000000E-03 0. -1.
         11   -1    0    0    0    0 -0.00000000000E+00 -0.00000000000E+00 -0.45593999997E+02  0.45594000000E+02  0.51100000000E-03 0.  1.
         23    2    1    2    0    0  0.00000000000E+00  0.00000000000E+00  0.00000000000E+00  0.91188000000E+02  0.91188000000E+02 0.  0.
    9900012    2    3    3    0    0 -0.47271070402E+01  0.34496327700E+02  0.11976564392E+02  0.54367078496E+02  0.39999987047E+02 0.  0.
         12    1    3    3    0    0  0.47271070402E+01 -0.34496327700E+02 -0.11976564392E+02  0.36820921504E+02  0.00000000000E+00 0. -1.
         11    1    4    4    0    0 -0.40749147864E+01 -0.30080843671E+01  0.42897242527E+01  0.66374118827E+01  0.51100000000E-03 0. -1.
        -11    1    4    4    0    0 -0.60828939366E+00  0.72326625602E+01  0.14932308051E+02  0.16602868658E+02  0.51100000000E-03 0.  1.
        -12    1    4    4    0    0 -0.43902860168E-01  0.30271749507E+02 -0.72454679112E+01  0.31126797955E+02  0.00000000000E+00 0.  1.
</event>
<event>
 8    1  0.2511738E-006  0.9118800E+02  0.7816164E-02  0.1184000E+00
        -11   -1    0    0    0    0  0.00000000000E+00  0.00000000000E+00  0.45593999997E+02  0.45594000000E+02  0.51100000000E-03 0.  1.
         11   -1    0    0    0    0 -0.00000000000E+00 -0.00000000000E+00 -0.45593999997E+02  0.45594000000E+02  0.51100000000E-03 0. -1.
         23    2    1    2    0    0  0.00000000000E+00  0.17763568394E-14  0.35527136788E-14  0.91188000000E+02  0.91188000000E+02 0.  0.
    9900012    2    3    3    0    0  0.21506245800E+02  0.12543333393E+02 -0.27127951819E+02  0.54367087587E+02  0.40000007772E+02 0.  0.
        -12    1    3    3    0    0 -0.21506245800E+02 -0.12543333393E+02  0.27127951819E+02  0.36820912413E+02  0.00000000000E+00 0.  1.
         11    1    4    4    0    0  0.16857088890E+02  0.21982849690E+01 -0.21324564240E+02  0.27271430893E+02  0.51100000000E-03 0. -1.
        -11    1    4    4    0    0  0.23355041212E+01  0.46569007047E+01 -0.15089104474E+02  0.15963156886E+02  0.51100000000E-03 0.  1.
        -12    1    4    4    0    0  0.23136527895E+01  0.56881477197E+01  0.92857168958E+01  0.11132499808E+02  0.00000000000E+00 0.  1.
</event>
<event>
 8    1  0.2511738E-006  0.9118800E+02  0.7816164E-02  0.1184000E+00
        -11   -1    0    0    0    0  0.00000000000E+00  0.00000000000E+00  0.45593999997E+02  0.45594000000E+02  0.51100000000E-03 0.  1.
         11   -1    0    0    0    0 -0.00000000000E+00 -0.00000000000E+00 -0.45593999997E+02  0.45594000000E+02  0.51100000000E-03 0. -1.
         23    2    1    2    0    0 -0.88817841970E-15  0.00000000000E+00  0.35527136788E-14  0.91188000000E+02  0.91188000000E+02 0.  0.
    9900012    2    3    3    0    0  0.43407405758E+01 -0.26316084097E+02  0.25385058745E+02  0.54367088571E+02  0.40000010016E+02 0.  0.
         12    1    3    3    0    0 -0.43407405758E+01  0.26316084097E+02 -0.25385058745E+02  0.36820911429E+02  0.00000000000E+00 0. -1.
         11    1    4    4    0    0 -0.25507586264E+01 -0.26817459217E+02  0.13974521206E+01  0.26974717072E+02  0.51100000000E-03 0. -1.
        -11    1    4    4    0    0  0.48146616124E+01 -0.47223770981E+01  0.81025210926E+01  0.10541947648E+02  0.51100000000E-03 0.  1.
         12    1    4    4    0    0  0.20768375898E+01  0.52237522178E+01  0.15885085532E+02  0.16850423851E+02  0.00000000000E+00 0. -1.
</event>
<event>
 8    1  0.2511738E-006  0.9118800E+02  0.7816164E-02  0.1184000E+00
        -11   -1    0    0    0    0  0.00000000000E+00  0.00000000000E+00  0.45593999997E+02  0.45594000000E+02  0.51100000000E-03 0.  1.
         11   -1    0    0    0    0 -0.00000000000E+00 -0.00000000000E+00 -0.45593999997E+02  0.45594000000E+02  0.51100000000E-03 0. -1.
         23    2    1    2    0    0  0.35527136788E-14  0.00000000000E+00  0.00000000000E+00  0.91188000000E+02  0.91188000000E+02 0.  0.
    9900012    2    3    3    0    0 -0.31205386745E+02 -0.19208767550E+02 -0.36086422548E+01  0.54367147055E+02  0.40000143341E+02 0.  0.
         12    1    3    3    0    0  0.31205386745E+02  0.19208767550E+02  0.36086422548E+01  0.36820852945E+02  0.00000000000E+00 0. -1.
         11    1    4    4    0    0 -0.55246094026E+01 -0.10102482419E+02  0.14870118158E+02  0.18806963455E+02  0.51100000000E-03 0. -1.
        -11    1    4    4    0    0 -0.21404914333E+02 -0.91854222300E+01 -0.86596668640E+01  0.24850194558E+02  0.51100000000E-03 0.  1.
         12    1    4    4    0    0 -0.42758630098E+01  0.79137099399E-01 -0.98190935488E+01  0.10709989042E+02  0.00000000000E+00 0. -1.
</event>
<event>
 8    1  0.2511738E-006  0.9118800E+02  0.7816164E-02  0.1184000E+00
        -11   -1    0    0    0    0  0.00000000000E+00  0.00000000000E+00  0.45593999997E+02  0.45594000000E+02  0.51100000000E-03 0. -1.
         11   -1    0    0    0    0 -0.00000000000E+00 -0.00000000000E+00 -0.45593999997E+02  0.45594000000E+02  0.51100000000E-03 0.  1.
         23    2    1    2    0    0  0.88817841970E-15 -0.17763568394E-14  0.00000000000E+00  0.91188000000E+02  0.91188000000E+02 0.  0.
    9900012    2    3    3    0    0 -0.60623329283E+01 -0.12008866942E+02  0.34275571470E+02  0.54367087934E+02  0.40000008563E+02 0.  0.
        -12    1    3    3    0    0  0.60623329283E+01  0.12008866942E+02 -0.34275571470E+02  0.36820912066E+02  0.00000000000E+00 0.  1.
         11    1    4    4    0    0 -0.96292599062E+01 -0.65614669645E+01  0.18224895750E+02  0.21631512208E+02  0.51100000000E-03 0. -1.
        -11    1    4    4    0    0 -0.48450905079E+01  0.95589641389E+01  0.29599958660E+01  0.11118015705E+02  0.51100000000E-03 0.  1.
         12    1    4    4    0    0  0.84120174858E+01 -0.15006364117E+02  0.13090679854E+02  0.21617560020E+02  0.00000000000E+00 0. -1.
</event>
<event>
 8    1  0.2511738E-006  0.9118800E+02  0.7816164E-02  0.1184000E+00
        -11   -1    0    0    0    0  0.00000000000E+00  0.00000000000E+00  0.45593999997E+02  0.45594000000E+02  0.51100000000E-03 0.  1.
         11   -1    0    0    0    0 -0.00000000000E+00 -0.00000000000E+00 -0.45593999997E+02  0.45594000000E+02  0.51100000000E-03 0. -1.
         23    2    1    2    0    0  0.00000000000E+00  0.00000000000E+00 -0.17763568394E-14  0.91188000000E+02  0.91188000000E+02 0.  0.
    9900012    2    3    3    0    0 -0.14600812784E+02 -0.30899323623E+02  0.13705052438E+02  0.54367076646E+02  0.39999982829E+02 0.  0.
         12    1    3    3    0    0  0.14600812784E+02  0.30899323623E+02 -0.13705052438E+02  0.36820923354E+02  0.00000000000E+00 0. -1.
         11    1    4    4    0    0 -0.89936684968E+01 -0.36040077850E+02  0.14760654923E+02  0.39970616939E+02  0.51100000000E-03 0. -1.
        -11    1    4    4    0    0 -0.77887350578E+01  0.19095470706E+01 -0.44986695945E+01  0.91950417181E+01  0.51100000000E-03 0.  1.
         12    1    4    4    0    0  0.21815907705E+01  0.32312071559E+01  0.34430671099E+01  0.52014179891E+01  0.00000000000E+00 0. -1.
</event>
<event>
 8    1  0.2511738E-006  0.9118800E+02  0.7816164E-02  0.1184000E+00
        -11   -1    0    0    0    0  0.00000000000E+00  0.00000000000E+00  0.45593999997E+02  0.45594000000E+02  0.51100000000E-03 0.  1.
         11   -1    0    0    0    0 -0.00000000000E+00 -0.00000000000E+00 -0.45593999997E+02  0.45594000000E+02  0.51100000000E-03 0. -1.
         23    2    1    2    0    0  0.26645352591E-14  0.35527136788E-14  0.00000000000E+00  0.91188000000E+02  0.91188000000E+02 0.  0.
    9900012    2    3    3    0    0 -0.27596151795E+01  0.28691244895E+02  0.22912376283E+02  0.54367082080E+02  0.39999995217E+02 0.  0.
         12    1    3    3    0    0  0.27596151795E+01 -0.28691244895E+02 -0.22912376283E+02  0.36820917920E+02  0.00000000000E+00 0. -1.
         11    1    4    4    0    0  0.13012441396E+02  0.23312144825E+02  0.10929419132E+02  0.28848430291E+02  0.51100000000E-03 0. -1.
        -11    1    4    4    0    0 -0.18965564723E+01 -0.35079236418E+01  0.74156084887E+01  0.84198399182E+01  0.51100000000E-03 0.  1.
         12    1    4    4    0    0 -0.13875500104E+02  0.88870237119E+01  0.45673486622E+01  0.17098811871E+02  0.00000000000E+00 0. -1.
</event>
<event>
 8    1  0.2511738E-006  0.9118800E+02  0.7816164E-02  0.1184000E+00
        -11   -1    0    0    0    0  0.00000000000E+00  0.00000000000E+00  0.45593999997E+02  0.45594000000E+02  0.51100000000E-03 0.  1.
         11   -1    0    0    0    0 -0.00000000000E+00 -0.00000000000E+00 -0.45593999997E+02  0.45594000000E+02  0.51100000000E-03 0. -1.
         23    2    1    2    0    0  0.00000000000E+00  0.00000000000E+00 -0.35527136788E-14  0.91188000000E+02  0.91188000000E+02 0.  0.
    9900012    2    3    3    0    0  0.76138817180E+01  0.16856510601E+02  0.31838159693E+02  0.54367060888E+02  0.39999946907E+02 0.  0.
         12    1    3    3    0    0 -0.76138817180E+01 -0.16856510601E+02 -0.31838159693E+02  0.36820939112E+02  0.00000000000E+00 0. -1.
         11    1    4    4    0    0 -0.64587049212E-01  0.10845767233E+02 -0.27681985130E+01  0.11193648272E+02  0.51100000000E-03 0. -1.
        -11    1    4    4    0    0  0.92883520223E+01  0.52200217639E+01  0.37929262710E+02  0.39397348648E+02  0.51100000000E-03 0.  1.
        -12    1    4    4    0    0 -0.16098832551E+01  0.79072160415E+00 -0.33229045042E+01  0.37760639685E+01  0.00000000000E+00 0.  1.
</event>
<event>
 8    1  0.2511738E-006  0.9118800E+02  0.7816164E-02  0.1184000E+00
        -11   -1    0    0    0    0  0.00000000000E+00  0.00000000000E+00  0.45593999997E+02  0.45594000000E+02  0.51100000000E-03 0.  1.
         11   -1    0    0    0    0 -0.00000000000E+00 -0.00000000000E+00 -0.45593999997E+02  0.45594000000E+02  0.51100000000E-03 0. -1.
         23    2    1    2    0    0  0.71054273576E-14 -0.77715611724E-15 -0.27755575616E-15  0.91188000000E+02  0.91188000000E+02 0.  0.
    9900012    2    3    3    0    0  0.36816654824E+02  0.50033890346E+00  0.25017138892E+00  0.54367095650E+02  0.40000026154E+02 0.  0.
        -12    1    3    3    0    0 -0.36816654824E+02 -0.50033890346E+00 -0.25017138892E+00  0.36820904350E+02  0.00000000000E+00 0.  1.
         11    1    4    4    0    0 -0.18021844559E+01 -0.13387037278E+01 -0.60332315772E+00  0.23246495602E+01  0.51100000000E-03 0.  1.
        -11    1    4    4    0    0  0.25119338741E+02  0.17521359343E+02 -0.37176155151E+01  0.30851254065E+02  0.51100000000E-03 0. -1.
         12    1    4    4    0    0  0.13499500538E+02 -0.15682316712E+02  0.45711100617E+01  0.21191192025E+02  0.00000000000E+00 0. -1.
</event>
<event>
 8    1  0.2511738E-006  0.9118800E+02  0.7816164E-02  0.1184000E+00
        -11   -1    0    0    0    0  0.00000000000E+00  0.00000000000E+00  0.45593999997E+02  0.45594000000E+02  0.51100000000E-03 0.  1.
         11   -1    0    0    0    0 -0.00000000000E+00 -0.00000000000E+00 -0.45593999997E+02  0.45594000000E+02  0.51100000000E-03 0. -1.
         23    2    1    2    0    0  0.00000000000E+00  0.17763568394E-14  0.00000000000E+00  0.91188000000E+02  0.91188000000E+02 0.  0.
    9900012    2    3    3    0    0 -0.25670907214E+02  0.94533638350E+01  0.24645865749E+02  0.54367078454E+02  0.39999986952E+02 0.  0.
         12    1    3    3    0    0  0.25670907214E+02 -0.94533638350E+01 -0.24645865749E+02  0.36820921546E+02  0.00000000000E+00 0. -1.
         11    1    4    4    0    0 -0.57199469651E+01  0.11763818745E+01 -0.83539535959E+01  0.10192654637E+02  0.51100000000E-03 0. -1.
        -11    1    4    4    0    0 -0.30585662426E+01  0.87412883679E+01  0.22368015562E+02  0.24209359146E+02  0.51100000000E-03 0.  1.
         12    1    4    4    0    0 -0.16892394006E+02 -0.46430640736E+00  0.10631803782E+02  0.19965064672E+02  0.00000000000E+00 0. -1.
</event>
<event>
 8    1  0.2511738E-006  0.9118800E+02  0.7816164E-02  0.1184000E+00
        -11   -1    0    0    0    0  0.00000000000E+00  0.00000000000E+00  0.45593999997E+02  0.45594000000E+02  0.51100000000E-03 0. -1.
         11   -1    0    0    0    0 -0.00000000000E+00 -0.00000000000E+00 -0.45593999997E+02  0.45594000000E+02  0.51100000000E-03 0.  1.
         23    2    1    2    0    0  0.00000000000E+00  0.88817841970E-15  0.00000000000E+00  0.91188000000E+02  0.91188000000E+02 0.  0.
    9900012    2    3    3    0    0  0.35642873872E+02  0.39299692099E+01  0.83618789760E+01  0.54367080188E+02  0.39999990904E+02 0.  0.
        -12    1    3    3    0    0 -0.35642873872E+02 -0.39299692099E+01 -0.83618789760E+01  0.36820919812E+02  0.00000000000E+00 0.  1.
         11    1    4    4    0    0  0.16219933403E+02 -0.37915288412E+01  0.95854853523E+01  0.19218310546E+02  0.51100000000E-03 0. -1.
        -11    1    4    4    0    0  0.73454457595E+01 -0.92721478913E+01  0.57665753402E+01  0.13159851494E+02  0.51100000000E-03 0.  1.
        -12    1    4    4    0    0  0.12077494709E+02  0.16993645942E+02 -0.69901817166E+01  0.21988918147E+02  0.00000000000E+00 0.  1.
</event>
<event>
 8    1  0.2511738E-006  0.9118800E+02  0.7816164E-02  0.1184000E+00
        -11   -1    0    0    0    0  0.00000000000E+00  0.00000000000E+00  0.45593999997E+02  0.45594000000E+02  0.51100000000E-03 0.  1.
         11   -1    0    0    0    0 -0.00000000000E+00 -0.00000000000E+00 -0.45593999997E+02  0.45594000000E+02  0.51100000000E-03 0. -1.
         23    2    1    2    0    0  0.00000000000E+00  0.00000000000E+00  0.00000000000E+00  0.91188000000E+02  0.91188000000E+02 0.  0.
    9900012    2    3    3    0    0  0.21638007965E+02 -0.28800632374E+02 -0.76224951289E+01  0.54367051535E+02  0.39999925585E+02 0.  0.
         12    1    3    3    0    0 -0.21638007965E+02  0.28800632374E+02  0.76224951289E+01  0.36820948465E+02  0.00000000000E+00 0. -1.
         11    1    4    4    0    0 -0.68250396929E+01 -0.13976383927E+02  0.40180942578E+00  0.15558982150E+02  0.51100000000E-03 0. -1.
        -11    1    4    4    0    0  0.10161655038E+02 -0.16403176522E+02 -0.16580337218E+01  0.19366788820E+02  0.51100000000E-03 0.  1.
         12    1    4    4    0    0  0.18301392620E+02  0.15789280746E+01 -0.63662708328E+01  0.19441280565E+02  0.00000000000E+00 0. -1.
</event>
<event>
 8    1  0.2511738E-006  0.9118800E+02  0.7816164E-02  0.1184000E+00
        -11   -1    0    0    0    0  0.00000000000E+00  0.00000000000E+00  0.45593999997E+02  0.45594000000E+02  0.51100000000E-03 0.  1.
         11   -1    0    0    0    0 -0.00000000000E+00 -0.00000000000E+00 -0.45593999997E+02  0.45594000000E+02  0.51100000000E-03 0. -1.
         23    2    1    2    0    0  0.00000000000E+00  0.35527136788E-14 -0.35527136788E-14  0.91188000000E+02  0.91188000000E+02 0.  0.
    9900012    2    3    3    0    0 -0.17850355543E+02  0.19644779956E+02  0.25519089771E+02  0.54367129352E+02  0.40000102984E+02 0.  0.
         12    1    3    3    0    0  0.17850355543E+02 -0.19644779956E+02 -0.25519089771E+02  0.36820870648E+02  0.00000000000E+00 0. -1.
         11    1    4    4    0    0 -0.23324175385E+01  0.10904694965E+02  0.48182588876E+01  0.12147763696E+02  0.51100000000E-03 0. -1.
        -11    1    4    4    0    0 -0.10759023591E+02 -0.68815609882E+01  0.22416087513E+02  0.25799097851E+02  0.51100000000E-03 0.  1.
        -12    1    4    4    0    0 -0.47589144137E+01  0.15621645979E+02 -0.17152566294E+01  0.16420267805E+02  0.00000000000E+00 0.  1.
</event>
<event>
 8    1  0.2511738E-006  0.9118800E+02  0.7816164E-02  0.1184000E+00
        -11   -1    0    0    0    0  0.00000000000E+00  0.00000000000E+00  0.45593999997E+02  0.45594000000E+02  0.51100000000E-03 0.  1.
         11   -1    0    0    0    0 -0.00000000000E+00 -0.00000000000E+00 -0.45593999997E+02  0.45594000000E+02  0.51100000000E-03 0. -1.
         23    2    1    2    0    0  0.26645352591E-14  0.00000000000E+00  0.35527136788E-14  0.91188000000E+02  0.91188000000E+02 0.  0.
    9900012    2    3    3    0    0  0.75044753738E+01 -0.25734509679E+02 -0.25242774060E+02  0.54367085001E+02  0.40000001878E+02 0.  0.
        -12    1    3    3    0    0 -0.75044753738E+01  0.25734509679E+02  0.25242774060E+02  0.36820914999E+02  0.00000000000E+00 0.  1.
         11    1    4    4    0    0  0.20337267758E+02 -0.13898653400E+02 -0.25456483775E+02  0.35423291668E+02  0.51100000000E-03 0. -1.
        -11    1    4    4    0    0 -0.66493844706E+01 -0.68817682984E+01  0.37361348832E+01  0.10272864882E+02  0.51100000000E-03 0.  1.
         12    1    4    4    0    0 -0.61834079131E+01 -0.49540879811E+01 -0.35224251688E+01  0.86709284517E+01  0.00000000000E+00 0. -1.
</event>
<event>
 8    1  0.2511738E-006  0.9118800E+02  0.7816164E-02  0.1184000E+00
        -11   -1    0    0    0    0  0.00000000000E+00  0.00000000000E+00  0.45593999997E+02  0.45594000000E+02  0.51100000000E-03 0.  1.
         11   -1    0    0    0    0 -0.00000000000E+00 -0.00000000000E+00 -0.45593999997E+02  0.45594000000E+02  0.51100000000E-03 0. -1.
         23    2    1    2    0    0  0.00000000000E+00 -0.17763568394E-14  0.35527136788E-14  0.91188000000E+02  0.91188000000E+02 0.  0.
    9900012    2    3    3    0    0 -0.28625420071E+02 -0.13225196609E+02  0.19012072521E+02  0.54367090164E+02  0.40000013647E+02 0.  0.
        -12    1    3    3    0    0  0.28625420071E+02  0.13225196609E+02 -0.19012072521E+02  0.36820909836E+02  0.00000000000E+00 0.  1.
         11    1    4    4    0    0 -0.27102916081E+02 -0.40993310566E+01  0.14046655988E+02  0.30800667524E+02  0.51100000000E-03 0. -1.
        -11    1    4    4    0    0 -0.31547851602E+01 -0.15819370075E+02  0.38906500186E+01  0.16593441379E+02  0.51100000000E-03 0.  1.
        -12    1    4    4    0    0  0.16322811701E+01  0.66935045223E+01  0.10747665140E+01  0.69729812611E+01  0.00000000000E+00 0.  1.
</event>
<event>
 8    1  0.2511738E-006  0.9118800E+02  0.7816164E-02  0.1184000E+00
        -11   -1    0    0    0    0  0.00000000000E+00  0.00000000000E+00  0.45593999997E+02  0.45594000000E+02  0.51100000000E-03 0. -1.
         11   -1    0    0    0    0 -0.00000000000E+00 -0.00000000000E+00 -0.45593999997E+02  0.45594000000E+02  0.51100000000E-03 0.  1.
         23    2    1    2    0    0  0.00000000000E+00  0.35527136788E-14 -0.35527136788E-14  0.91188000000E+02  0.91188000000E+02 0.  0.
    9900012    2    3    3    0    0 -0.21857288482E+02 -0.23937497906E+02  0.17465242229E+02  0.54367088116E+02  0.40000008979E+02 0.  0.
        -12    1    3    3    0    0  0.21857288482E+02  0.23937497906E+02 -0.17465242229E+02  0.36820911884E+02  0.00000000000E+00 0.  1.
         11    1    4    4    0    0  0.64508917225E+01  0.13223272387E+01  0.66106691562E+01  0.93307824053E+01  0.51100000000E-03 0. -1.
        -11    1    4    4    0    0 -0.65323296013E+01 -0.19895049306E+02  0.24355917075E+01  0.21081186497E+02  0.51100000000E-03 0.  1.
         12    1    4    4    0    0 -0.21775850604E+02 -0.53647758393E+01  0.84189813655E+01  0.23955119214E+02  0.00000000000E+00 0. -1.
</event>
<event>
 8    1  0.2511738E-006  0.9118800E+02  0.7816164E-02  0.1184000E+00
        -11   -1    0    0    0    0  0.00000000000E+00  0.00000000000E+00  0.45593999997E+02  0.45594000000E+02  0.51100000000E-03 0.  1.
         11   -1    0    0    0    0 -0.00000000000E+00 -0.00000000000E+00 -0.45593999997E+02  0.45594000000E+02  0.51100000000E-03 0. -1.
         23    2    1    2    0    0  0.00000000000E+00  0.00000000000E+00  0.00000000000E+00  0.91188000000E+02  0.91188000000E+02 0.  0.
    9900012    2    3    3    0    0  0.10684733133E+02  0.24910004967E+02  0.24922053012E+02  0.54367073939E+02  0.39999976660E+02 0.  0.
         12    1    3    3    0    0 -0.10684733133E+02 -0.24910004967E+02 -0.24922053012E+02  0.36820926061E+02  0.00000000000E+00 0. -1.
         11    1    4    4    0    0  0.22551803738E+01  0.18540267381E+02  0.10362252415E+02  0.21358923859E+02  0.51100000000E-03 0. -1.
        -11    1    4    4    0    0 -0.93206850975E+01  0.67766236816E+01  0.82209546164E+01  0.14155631186E+02  0.51100000000E-03 0.  1.
        -12    1    4    4    0    0  0.17750237857E+02 -0.40688609491E+00  0.63388459812E+01  0.18852518894E+02  0.00000000000E+00 0.  1.
</event>
<event>
 8    1  0.2511738E-006  0.9118800E+02  0.7816164E-02  0.1184000E+00
        -11   -1    0    0    0    0  0.00000000000E+00  0.00000000000E+00  0.45593999997E+02  0.45594000000E+02  0.51100000000E-03 0.  1.
         11   -1    0    0    0    0 -0.00000000000E+00 -0.00000000000E+00 -0.45593999997E+02  0.45594000000E+02  0.51100000000E-03 0. -1.
         23    2    1    2    0    0 -0.17763568394E-14  0.35527136788E-14  0.35527136788E-14  0.91188000000E+02  0.91188000000E+02 0.  0.
    9900012    2    3    3    0    0 -0.10980307567E+02  0.26495954702E+02 -0.23090637083E+02  0.54367078084E+02  0.39999986108E+02 0.  0.
        -12    1    3    3    0    0  0.10980307567E+02 -0.26495954702E+02  0.23090637083E+02  0.36820921916E+02  0.00000000000E+00 0.  1.
         11    1    4    4    0    0 -0.11475963933E+02  0.16462772883E+02 -0.22732300407E+00  0.20069188205E+02  0.51100000000E-03 0. -1.
        -11    1    4    4    0    0 -0.77428835095E+01  0.53316319846E+01  0.15438727290E+00  0.94022540038E+01  0.51100000000E-03 0.  1.
        -12    1    4    4    0    0  0.82385398753E+01  0.47015498342E+01 -0.23017701352E+02  0.24895635875E+02  0.00000000000E+00 0.  1.
</event>
<event>
 8    1  0.2511738E-006  0.9118800E+02  0.7816164E-02  0.1184000E+00
        -11   -1    0    0    0    0  0.00000000000E+00  0.00000000000E+00  0.45593999997E+02  0.45594000000E+02  0.51100000000E-03 0.  1.
         11   -1    0    0    0    0 -0.00000000000E+00 -0.00000000000E+00 -0.45593999997E+02  0.45594000000E+02  0.51100000000E-03 0. -1.
         23    2    1    2    0    0 -0.35527136788E-14  0.35527136788E-14  0.00000000000E+00  0.91188000000E+02  0.91188000000E+02 0.  0.
    9900012    2    3    3    0    0  0.23090100697E+02 -0.26891709411E+02  0.99732932594E+01  0.54367036356E+02  0.39999890980E+02 0.  0.
        -12    1    3    3    0    0 -0.23090100697E+02  0.26891709411E+02 -0.99732932594E+01  0.36820963644E+02  0.00000000000E+00 0.  1.
         11    1    4    4    0    0  0.26815496898E+02 -0.12796134292E+02  0.61732391862E+01  0.30346677067E+02  0.51100000000E-03 0. -1.
        -11    1    4    4    0    0  0.58174327639E+01  0.81426981325E+00  0.20935375576E+01  0.62360611814E+01  0.51100000000E-03 0.  1.
         12    1    4    4    0    0 -0.95428289648E+01 -0.14909844932E+02  0.17065165156E+01  0.17784298107E+02  0.00000000000E+00 0. -1.
</event>
<event>
 8    1  0.2511738E-006  0.9118800E+02  0.7816164E-02  0.1184000E+00
        -11   -1    0    0    0    0  0.00000000000E+00  0.00000000000E+00  0.45593999997E+02  0.45594000000E+02  0.51100000000E-03 0.  1.
         11   -1    0    0    0    0 -0.00000000000E+00 -0.00000000000E+00 -0.45593999997E+02  0.45594000000E+02  0.51100000000E-03 0. -1.
         23    2    1    2    0    0  0.00000000000E+00  0.00000000000E+00  0.17763568394E-14  0.91188000000E+02  0.91188000000E+02 0.  0.
    9900012    2    3    3    0    0 -0.90953698604E+01  0.32149945663E+02  0.15473716241E+02  0.54367073161E+02  0.39999974884E+02 0.  0.
         12    1    3    3    0    0  0.90953698604E+01 -0.32149945663E+02 -0.15473716241E+02  0.36820926839E+02  0.00000000000E+00 0. -1.
         11    1    4    4    0    0 -0.14929743977E+01  0.93095848723E+01  0.15214451255E+01  0.95505046242E+01  0.51100000000E-03 0. -1.
        -11    1    4    4    0    0 -0.88290918053E+01  0.25845874580E+02  0.22682128940E+02  0.35502691003E+02  0.51100000000E-03 0.  1.
        -12    1    4    4    0    0  0.12266963426E+01 -0.30055137897E+01 -0.87298578254E+01  0.93138775335E+01  0.00000000000E+00 0.  1.
</event>
<event>
 8    1  0.2511738E-006  0.9118800E+02  0.7816164E-02  0.1184000E+00
        -11   -1    0    0    0    0  0.00000000000E+00  0.00000000000E+00  0.45593999997E+02  0.45594000000E+02  0.51100000000E-03 0.  1.
         11   -1    0    0    0    0 -0.00000000000E+00 -0.00000000000E+00 -0.45593999997E+02  0.45594000000E+02  0.51100000000E-03 0. -1.
         23    2    1    2    0    0 -0.35527136788E-14  0.35527136788E-14  0.88817841970E-15  0.91188000000E+02  0.91188000000E+02 0.  0.
    9900012    2    3    3    0    0  0.27001009691E+02 -0.24242070048E+02  0.62488223964E+01  0.54367078422E+02  0.39999986878E+02 0.  0.
         12    1    3    3    0    0 -0.27001009691E+02  0.24242070048E+02 -0.62488223964E+01  0.36820921578E+02  0.00000000000E+00 0. -1.
         11    1    4    4    0    0  0.12791839413E+02 -0.28039308175E+02 -0.53450647818E+01  0.31279444949E+02  0.51100000000E-03 0.  1.
        -11    1    4    4    0    0 -0.16458398880E+01  0.32132085401E+01  0.32018252790E+00  0.36243641058E+01  0.51100000000E-03 0. -1.
        -12    1    4    4    0    0  0.15855010166E+02  0.58402958736E+00  0.11273704650E+02  0.19463269367E+02  0.00000000000E+00 0.  1.
</event>
<event>
 8    1  0.2511738E-006  0.9118800E+02  0.7816164E-02  0.1184000E+00
        -11   -1    0    0    0    0  0.00000000000E+00  0.00000000000E+00  0.45593999997E+02  0.45594000000E+02  0.51100000000E-03 0. -1.
         11   -1    0    0    0    0 -0.00000000000E+00 -0.00000000000E+00 -0.45593999997E+02  0.45594000000E+02  0.51100000000E-03 0.  1.
         23    2    1    2    0    0  0.00000000000E+00  0.15543122345E-14  0.00000000000E+00  0.91188000000E+02  0.91188000000E+02 0.  0.
    9900012    2    3    3    0    0 -0.25209943665E+02 -0.17587910610E+01  0.26779565349E+02  0.54367085755E+02  0.40000003595E+02 0.  0.
        -12    1    3    3    0    0  0.25209943665E+02  0.17587910610E+01 -0.26779565349E+02  0.36820914245E+02  0.00000000000E+00 0.  1.
         11    1    4    4    0    0 -0.66856687445E+01 -0.75387381273E+01  0.16406720686E+02  0.19253862549E+02  0.51100000000E-03 0. -1.
        -11    1    4    4    0    0 -0.20498183992E+01 -0.10296853186E+02  0.25835798023E+01  0.10812114773E+02  0.51100000000E-03 0.  1.
         12    1    4    4    0    0 -0.16474456521E+02  0.16076800252E+02  0.77892648608E+01  0.24301108433E+02  0.00000000000E+00 0. -1.
</event>
<event>
 8    1  0.2511738E-006  0.9118800E+02  0.7816164E-02  0.1184000E+00
        -11   -1    0    0    0    0  0.00000000000E+00  0.00000000000E+00  0.45593999997E+02  0.45594000000E+02  0.51100000000E-03 0.  1.
         11   -1    0    0    0    0 -0.00000000000E+00 -0.00000000000E+00 -0.45593999997E+02  0.45594000000E+02  0.51100000000E-03 0. -1.
         23    2    1    2    0    0  0.35527136788E-14  0.00000000000E+00  0.00000000000E+00  0.91188000000E+02  0.91188000000E+02 0.  0.
    9900012    2    3    3    0    0 -0.31789327360E+02  0.62258003106E+01 -0.17505962454E+02  0.54367073274E+02  0.39999975143E+02 0.  0.
        -12    1    3    3    0    0  0.31789327360E+02 -0.62258003106E+01  0.17505962454E+02  0.36820926726E+02  0.00000000000E+00 0.  1.
         11    1    4    4    0    0 -0.39793233907E+02  0.42455756182E+01 -0.18032556771E+02  0.43894185049E+02  0.51100000000E-03 0. -1.
        -11    1    4    4    0    0  0.57954924170E+01  0.42573776786E+01 -0.29103621923E+00  0.71970618586E+01  0.51100000000E-03 0.  1.
         12    1    4    4    0    0  0.22084141297E+01 -0.22771529863E+01  0.81763053656E+00  0.32758263668E+01  0.00000000000E+00 0. -1.
</event>
<event>
 8    1  0.2511738E-006  0.9118800E+02  0.7816164E-02  0.1184000E+00
        -11   -1    0    0    0    0  0.00000000000E+00  0.00000000000E+00  0.45593999997E+02  0.45594000000E+02  0.51100000000E-03 0.  1.
         11   -1    0    0    0    0 -0.00000000000E+00 -0.00000000000E+00 -0.45593999997E+02  0.45594000000E+02  0.51100000000E-03 0. -1.
         23    2    1    2    0    0  0.71054273576E-14 -0.88817841970E-15  0.88817841970E-15  0.91188000000E+02  0.91188000000E+02 0.  0.
    9900012    2    3    3    0    0 -0.35741548477E+02 -0.62914629545E+01 -0.62239336320E+01  0.54367107242E+02  0.40000052580E+02 0.  0.
        -12    1    3    3    0    0  0.35741548477E+02  0.62914629545E+01  0.62239336320E+01  0.36820892758E+02  0.00000000000E+00 0.  1.
         11    1    4    4    0    0 -0.39952169621E+01  0.28946113141E+01 -0.11277897740E+02  0.12309813603E+02  0.51100000000E-03 0. -1.
        -11    1    4    4    0    0 -0.67671308878E+01 -0.14682629892E+02  0.23751487842E+01  0.16340594022E+02  0.51100000000E-03 0.  1.
        -12    1    4    4    0    0 -0.24979200627E+02  0.54965556231E+01  0.26788153240E+01  0.25716699617E+02  0.00000000000E+00 0.  1.
</event>
<event>
 8    1  0.2511738E-006  0.9118800E+02  0.7816164E-02  0.1184000E+00
        -11   -1    0    0    0    0  0.00000000000E+00  0.00000000000E+00  0.45593999997E+02  0.45594000000E+02  0.51100000000E-03 0. -1.
         11   -1    0    0    0    0 -0.00000000000E+00 -0.00000000000E+00 -0.45593999997E+02  0.45594000000E+02  0.51100000000E-03 0.  1.
         23    2    1    2    0    0  0.00000000000E+00 -0.26645352591E-14 -0.71054273576E-14  0.91188000000E+02  0.91188000000E+02 0.  0.
    9900012    2    3    3    0    0 -0.11448337007E+02  0.34974702441E+01 -0.34820873821E+02  0.54366946620E+02  0.39999686408E+02 0.  0.
         12    1    3    3    0    0  0.11448337007E+02 -0.34974702441E+01  0.34820873821E+02  0.36821053380E+02  0.00000000000E+00 0. -1.
         11    1    4    4    0    0 -0.33005498035E+01  0.12060672965E+02 -0.14893183775E+02  0.19446346304E+02  0.51100000000E-03 0. -1.
        -11    1    4    4    0    0 -0.11067663916E+02 -0.16295732473E+02 -0.10291553548E+02  0.22225214422E+02  0.51100000000E-03 0.  1.
        -12    1    4    4    0    0  0.29198767124E+01  0.77325297523E+01 -0.96361364981E+01  0.12695385894E+02  0.00000000000E+00 0.  1.
</event>
<event>
 8    1  0.2511738E-006  0.9118800E+02  0.7816164E-02  0.1184000E+00
        -11   -1    0    0    0    0  0.00000000000E+00  0.00000000000E+00  0.45593999997E+02  0.45594000000E+02  0.51100000000E-03 0. -1.
         11   -1    0    0    0    0 -0.00000000000E+00 -0.00000000000E+00 -0.45593999997E+02  0.45594000000E+02  0.51100000000E-03 0.  1.
         23    2    1    2    0    0  0.00000000000E+00  0.00000000000E+00  0.00000000000E+00  0.91188000000E+02  0.91188000000E+02 0.  0.
    9900012    2    3    3    0    0 -0.22159657519E+02 -0.22212400946E+02 -0.19270165668E+02  0.54367075759E+02  0.39999980807E+02 0.  0.
         12    1    3    3    0    0  0.22159657519E+02  0.22212400946E+02  0.19270165668E+02  0.36820924241E+02  0.00000000000E+00 0. -1.
         11    1    4    4    0    0  0.15717135818E+01 -0.92717947815E+01  0.60122867993E+01  0.11161722755E+02  0.51100000000E-03 0. -1.
        -11    1    4    4    0    0 -0.12568468398E+02 -0.69926489482E+01 -0.26850348454E+02  0.30459887550E+02  0.51100000000E-03 0.  1.
        -12    1    4    4    0    0 -0.11162902703E+02 -0.59479572160E+01  0.15678959869E+01  0.12745465453E+02  0.00000000000E+00 0.  1.
</event>
<event>
 8    1  0.2511738E-006  0.9118800E+02  0.7816164E-02  0.1184000E+00
        -11   -1    0    0    0    0  0.00000000000E+00  0.00000000000E+00  0.45593999997E+02  0.45594000000E+02  0.51100000000E-03 0.  1.
         11   -1    0    0    0    0 -0.00000000000E+00 -0.00000000000E+00 -0.45593999997E+02  0.45594000000E+02  0.51100000000E-03 0. -1.
         23    2    1    2    0    0  0.00000000000E+00 -0.88817841970E-15 -0.15543122345E-14  0.91188000000E+02  0.91188000000E+02 0.  0.
    9900012    2    3    3    0    0  0.36413498472E+02  0.53861150507E+01 -0.90872622509E+00  0.54367097109E+02  0.40000029480E+02 0.  0.
         12    1    3    3    0    0 -0.36413498472E+02 -0.53861150507E+01  0.90872622509E+00  0.36820902891E+02  0.00000000000E+00 0. -1.
         11    1    4    4    0    0  0.66608252240E+00 -0.33271811050E+01 -0.91599123415E+01  0.97682032328E+01  0.51100000000E-03 0. -1.
        -11    1    4    4    0    0  0.11712394732E+02 -0.69472786175E+01 -0.27179336837E+01  0.13886397457E+02  0.51100000000E-03 0.  1.
        -12    1    4    4    0    0  0.24035021217E+02  0.15660574773E+02  0.10969119800E+02  0.30712496420E+02  0.00000000000E+00 0.  1.
</event>
<event>
 8    1  0.2511738E-006  0.9118800E+02  0.7816164E-02  0.1184000E+00
        -11   -1    0    0    0    0  0.00000000000E+00  0.00000000000E+00  0.45593999997E+02  0.45594000000E+02  0.51100000000E-03 0. -1.
         11   -1    0    0    0    0 -0.00000000000E+00 -0.00000000000E+00 -0.45593999997E+02  0.45594000000E+02  0.51100000000E-03 0.  1.
         23    2    1    2    0    0 -0.17763568394E-14  0.00000000000E+00  0.17763568394E-14  0.91188000000E+02  0.91188000000E+02 0.  0.
    9900012    2    3    3    0    0 -0.80484324566E+01 -0.33401524466E+02  0.13241589999E+02  0.54367098227E+02  0.40000032028E+02 0.  0.
        -12    1    3    3    0    0  0.80484324566E+01  0.33401524466E+02 -0.13241589999E+02  0.36820901773E+02  0.00000000000E+00 0.  1.
         11    1    4    4    0    0  0.39388130639E+01 -0.80237234662E+00  0.84594467342E+01  0.93659110099E+01  0.51100000000E-03 0. -1.
        -11    1    4    4    0    0  0.57248628243E+01 -0.12755089367E+02  0.10875984178E+02  0.17713085310E+02  0.51100000000E-03 0.  1.
        -12    1    4    4    0    0 -0.17712108345E+02 -0.19844062753E+02 -0.60938409140E+01  0.27288101907E+02  0.00000000000E+00 0.  1.
</event>
<event>
 8    1  0.2511738E-006  0.9118800E+02  0.7816164E-02  0.1184000E+00
        -11   -1    0    0    0    0  0.00000000000E+00  0.00000000000E+00  0.45593999997E+02  0.45594000000E+02  0.51100000000E-03 0.  1.
         11   -1    0    0    0    0 -0.00000000000E+00 -0.00000000000E+00 -0.45593999997E+02  0.45594000000E+02  0.51100000000E-03 0. -1.
         23    2    1    2    0    0 -0.35527136788E-14 -0.17763568394E-14 -0.35527136788E-14  0.91188000000E+02  0.91188000000E+02 0.  0.
    9900012    2    3    3    0    0 -0.26028813136E+02 -0.63135643430E+01 -0.25266960908E+02  0.54367088530E+02  0.40000009921E+02 0.  0.
        -12    1    3    3    0    0  0.26028813136E+02  0.63135643430E+01  0.25266960908E+02  0.36820911470E+02  0.00000000000E+00 0.  1.
         11    1    4    4    0    0 -0.24830908147E+02  0.17642916358E+01 -0.17625345205E+02  0.30501467476E+02  0.51100000000E-03 0. -1.
        -11    1    4    4    0    0 -0.55137983714E+01  0.15367222003E+01  0.48640262764E+01  0.75114738554E+01  0.51100000000E-03 0.  1.
         12    1    4    4    0    0  0.43158933818E+01 -0.96145781792E+01 -0.12505641979E+02  0.16354147198E+02  0.00000000000E+00 0. -1.
</event>
<event>
 8    1  0.2511738E-006  0.9118800E+02  0.7816164E-02  0.1184000E+00
        -11   -1    0    0    0    0  0.00000000000E+00  0.00000000000E+00  0.45593999997E+02  0.45594000000E+02  0.51100000000E-03 0. -1.
         11   -1    0    0    0    0 -0.00000000000E+00 -0.00000000000E+00 -0.45593999997E+02  0.45594000000E+02  0.51100000000E-03 0.  1.
         23    2    1    2    0    0 -0.35527136788E-14  0.71054273576E-14 -0.17763568394E-14  0.91188000000E+02  0.91188000000E+02 0.  0.
    9900012    2    3    3    0    0  0.11383623332E+02  0.33342273148E+02 -0.10699761645E+02  0.54367096180E+02  0.40000027362E+02 0.  0.
         12    1    3    3    0    0 -0.11383623332E+02 -0.33342273148E+02  0.10699761645E+02  0.36820903820E+02  0.00000000000E+00 0. -1.
         11    1    4    4    0    0 -0.68857949907E+01  0.99103497913E+01 -0.13541483092E+02  0.18138383893E+02  0.51100000000E-03 0. -1.
        -11    1    4    4    0    0 -0.37555126690E+01  0.11791567065E+01 -0.22101090840E+01  0.45142959993E+01  0.51100000000E-03 0.  1.
        -12    1    4    4    0    0  0.22024930992E+02  0.22252766650E+02  0.50518305309E+01  0.31714416288E+02  0.00000000000E+00 0.  1.
</event>
<event>
 8    1  0.2511738E-006  0.9118800E+02  0.7816164E-02  0.1184000E+00
        -11   -1    0    0    0    0  0.00000000000E+00  0.00000000000E+00  0.45593999997E+02  0.45594000000E+02  0.51100000000E-03 0. -1.
         11   -1    0    0    0    0 -0.00000000000E+00 -0.00000000000E+00 -0.45593999997E+02  0.45594000000E+02  0.51100000000E-03 0.  1.
         23    2    1    2    0    0  0.17763568394E-14 -0.17763568394E-14  0.00000000000E+00  0.91188000000E+02  0.91188000000E+02 0.  0.
    9900012    2    3    3    0    0  0.14394941674E+02  0.44613679044E+01  0.33595629145E+02  0.54367021645E+02  0.39999857443E+02 0.  0.
        -12    1    3    3    0    0 -0.14394941674E+02 -0.44613679044E+01 -0.33595629145E+02  0.36820978355E+02  0.00000000000E+00 0.  1.
         11    1    4    4    0    0  0.47467862038E+01  0.50978519726E+01  0.22262116553E+02  0.23326420808E+02  0.51100000000E-03 0. -1.
        -11    1    4    4    0    0  0.80426161545E+01 -0.12815317036E+02  0.13112979551E+01  0.15186689169E+02  0.51100000000E-03 0.  1.
        -12    1    4    4    0    0  0.16055393154E+01  0.12178832968E+02  0.10022214637E+02  0.15853911668E+02  0.00000000000E+00 0.  1.
</event>
<event>
 8    1  0.2511738E-006  0.9118800E+02  0.7816164E-02  0.1184000E+00
        -11   -1    0    0    0    0  0.00000000000E+00  0.00000000000E+00  0.45593999997E+02  0.45594000000E+02  0.51100000000E-03 0.  1.
         11   -1    0    0    0    0 -0.00000000000E+00 -0.00000000000E+00 -0.45593999997E+02  0.45594000000E+02  0.51100000000E-03 0. -1.
         23    2    1    2    0    0 -0.71054273576E-14  0.00000000000E+00 -0.35527136788E-14  0.91188000000E+02  0.91188000000E+02 0.  0.
    9900012    2    3    3    0    0 -0.27123887969E+02 -0.26734309734E+00  0.24899845272E+02  0.54367094722E+02  0.40000024038E+02 0.  0.
         12    1    3    3    0    0  0.27123887969E+02  0.26734309734E+00 -0.24899845272E+02  0.36820905278E+02  0.00000000000E+00 0. -1.
         11    1    4    4    0    0  0.34412057868E+01 -0.14980205922E+01 -0.30668687205E+01  0.48468182317E+01  0.51100000000E-03 0. -1.
        -11    1    4    4    0    0 -0.14008231853E+02  0.36927251177E+01 -0.25545028368E+01  0.14710277477E+02  0.51100000000E-03 0.  1.
        -12    1    4    4    0    0 -0.16556861903E+02 -0.24620476229E+01  0.30521216830E+02  0.34809999014E+02  0.00000000000E+00 0.  1.
</event>
<event>
 8    1  0.2511738E-006  0.9118800E+02  0.7816164E-02  0.1184000E+00
        -11   -1    0    0    0    0  0.00000000000E+00  0.00000000000E+00  0.45593999997E+02  0.45594000000E+02  0.51100000000E-03 0.  1.
         11   -1    0    0    0    0 -0.00000000000E+00 -0.00000000000E+00 -0.45593999997E+02  0.45594000000E+02  0.51100000000E-03 0. -1.
         23    2    1    2    0    0  0.17763568394E-14  0.00000000000E+00 -0.66613381478E-15  0.91188000000E+02  0.91188000000E+02 0.  0.
    9900012    2    3    3    0    0  0.11074246586E+02  0.35069959851E+02  0.17996836882E+01  0.54367083624E+02  0.39999998737E+02 0.  0.
         12    1    3    3    0    0 -0.11074246586E+02 -0.35069959851E+02 -0.17996836882E+01  0.36820916376E+02  0.00000000000E+00 0. -1.
         11    1    4    4    0    0  0.73748211478E+01  0.15672086343E+02  0.15809671983E+02  0.23450970252E+02  0.51100000000E-03 0.  1.
        -11    1    4    4    0    0  0.82356360852E+01  0.78726169328E+01 -0.14596360416E+02  0.18516412632E+02  0.51100000000E-03 0. -1.
         12    1    4    4    0    0 -0.45362106470E+01  0.11525256576E+02  0.58637212127E+00  0.12399700740E+02  0.00000000000E+00 0. -1.
</event>
<event>
 8    1  0.2511738E-006  0.9118800E+02  0.7816164E-02  0.1184000E+00
        -11   -1    0    0    0    0  0.00000000000E+00  0.00000000000E+00  0.45593999997E+02  0.45594000000E+02  0.51100000000E-03 0.  1.
         11   -1    0    0    0    0 -0.00000000000E+00 -0.00000000000E+00 -0.45593999997E+02  0.45594000000E+02  0.51100000000E-03 0. -1.
         23    2    1    2    0    0 -0.88817841970E-15 -0.35527136788E-14  0.00000000000E+00  0.91188000000E+02  0.91188000000E+02 0.  0.
    9900012    2    3    3    0    0 -0.20558305743E+01 -0.16461448877E+02  0.32872080739E+02  0.54367089764E+02  0.40000012735E+02 0.  0.
         12    1    3    3    0    0  0.20558305743E+01  0.16461448877E+02 -0.32872080739E+02  0.36820910236E+02  0.00000000000E+00 0. -1.
         11    1    4    4    0    0  0.40856520334E+01  0.17134915860E+01 -0.66150988392E+01  0.79616668397E+01  0.51100000000E-03 0. -1.
        -11    1    4    4    0    0 -0.78874418093E+01 -0.54271405197E+01  0.26266823118E+02  0.27957317280E+02  0.51100000000E-03 0.  1.
        -12    1    4    4    0    0  0.17459592016E+01 -0.12747799943E+02  0.13220356460E+02  0.18448105644E+02  0.00000000000E+00 0.  1.
</event>
<event>
 8    1  0.2511738E-006  0.9118800E+02  0.7816164E-02  0.1184000E+00
        -11   -1    0    0    0    0  0.00000000000E+00  0.00000000000E+00  0.45593999997E+02  0.45594000000E+02  0.51100000000E-03 0. -1.
         11   -1    0    0    0    0 -0.00000000000E+00 -0.00000000000E+00 -0.45593999997E+02  0.45594000000E+02  0.51100000000E-03 0.  1.
         23    2    1    2    0    0  0.00000000000E+00  0.00000000000E+00  0.53290705182E-14  0.91188000000E+02  0.91188000000E+02 0.  0.
    9900012    2    3    3    0    0 -0.25917196167E+02 -0.23806164410E+02 -0.10832493160E+02  0.54367116943E+02  0.40000074694E+02 0.  0.
         12    1    3    3    0    0  0.25917196167E+02  0.23806164410E+02  0.10832493160E+02  0.36820883057E+02  0.00000000000E+00 0. -1.
         11    1    4    4    0    0 -0.12173618096E+02 -0.64683158610E+01  0.79936995829E+01  0.15935348157E+02  0.51100000000E-03 0. -1.
        -11    1    4    4    0    0 -0.18038578660E+02 -0.87756897563E+01 -0.20528904393E+02  0.28702595120E+02  0.51100000000E-03 0.  1.
         12    1    4    4    0    0  0.42950005890E+01 -0.85621587927E+01  0.17027116501E+01  0.97291736656E+01  0.00000000000E+00 0. -1.
</event>
<event>
 8    1  0.2511738E-006  0.9118800E+02  0.7816164E-02  0.1184000E+00
        -11   -1    0    0    0    0  0.00000000000E+00  0.00000000000E+00  0.45593999997E+02  0.45594000000E+02  0.51100000000E-03 0.  1.
         11   -1    0    0    0    0 -0.00000000000E+00 -0.00000000000E+00 -0.45593999997E+02  0.45594000000E+02  0.51100000000E-03 0. -1.
         23    2    1    2    0    0  0.00000000000E+00  0.00000000000E+00 -0.35527136788E-14  0.91188000000E+02  0.91188000000E+02 0.  0.
    9900012    2    3    3    0    0 -0.17496859411E+02 -0.10846866982E+02 -0.30528424254E+02  0.54367091538E+02  0.40000016778E+02 0.  0.
        -12    1    3    3    0    0  0.17496859411E+02  0.10846866982E+02  0.30528424254E+02  0.36820908462E+02  0.00000000000E+00 0.  1.
         11    1    4    4    0    0 -0.69490662322E+01 -0.12774631779E+02 -0.26948517919E+01  0.14789961631E+02  0.51100000000E-03 0. -1.
        -11    1    4    4    0    0  0.53530274660E+01  0.40835918193E+01  0.77341403721E+00  0.67770786282E+01  0.51100000000E-03 0.  1.
         12    1    4    4    0    0 -0.15900820645E+02 -0.21558270225E+01 -0.28606986499E+02  0.32800051279E+02  0.00000000000E+00 0. -1.
</event>
<event>
 8    1  0.2511738E-006  0.9118800E+02  0.7816164E-02  0.1184000E+00
        -11   -1    0    0    0    0  0.00000000000E+00  0.00000000000E+00  0.45593999997E+02  0.45594000000E+02  0.51100000000E-03 0.  1.
         11   -1    0    0    0    0 -0.00000000000E+00 -0.00000000000E+00 -0.45593999997E+02  0.45594000000E+02  0.51100000000E-03 0. -1.
         23    2    1    2    0    0  0.00000000000E+00 -0.35527136788E-14  0.00000000000E+00  0.91188000000E+02  0.91188000000E+02 0.  0.
    9900012    2    3    3    0    0  0.27845963500E+02 -0.23141758740E+02  0.66963365585E+01  0.54367087408E+02  0.40000007364E+02 0.  0.
        -12    1    3    3    0    0 -0.27845963500E+02  0.23141758740E+02 -0.66963365585E+01  0.36820912592E+02  0.00000000000E+00 0.  1.
         11    1    4    4    0    0  0.26257238499E+02 -0.13740916039E+02  0.50089872973E+01  0.30055703306E+02  0.51100000000E-03 0. -1.
        -11    1    4    4    0    0  0.11406485293E+02 -0.81193366310E+01 -0.10454990359E+01  0.14040106928E+02  0.51100000000E-03 0.  1.
        -12    1    4    4    0    0 -0.98177602926E+01 -0.12815060695E+01  0.27328482971E+01  0.10271277174E+02  0.00000000000E+00 0.  1.
</event>
<event>
 8    1  0.2511738E-006  0.9118800E+02  0.7816164E-02  0.1184000E+00
        -11   -1    0    0    0    0  0.00000000000E+00  0.00000000000E+00  0.45593999997E+02  0.45594000000E+02  0.51100000000E-03 0.  1.
         11   -1    0    0    0    0 -0.00000000000E+00 -0.00000000000E+00 -0.45593999997E+02  0.45594000000E+02  0.51100000000E-03 0. -1.
         23    2    1    2    0    0 -0.35527136788E-14  0.00000000000E+00  0.00000000000E+00  0.91188000000E+02  0.91188000000E+02 0.  0.
    9900012    2    3    3    0    0 -0.19495256366E+02  0.29983324026E+02 -0.87587074771E+01  0.54367086145E+02  0.40000004485E+02 0.  0.
        -12    1    3    3    0    0  0.19495256366E+02 -0.29983324026E+02  0.87587074771E+01  0.36820913855E+02  0.00000000000E+00 0.  1.
         11    1    4    4    0    0 -0.23293771386E+02  0.19032434723E+02 -0.15581380978E+02  0.33876434144E+02  0.51100000000E-03 0. -1.
        -11    1    4    4    0    0  0.10482782226E+01  0.30846099201E+01 -0.50353568127E+01  0.59973764333E+01  0.51100000000E-03 0.  1.
        -12    1    4    4    0    0  0.27502367973E+01  0.78662793832E+01  0.11858030314E+02  0.14493275568E+02  0.00000000000E+00 0.  1.
</event>
<event>
 8    1  0.2511738E-006  0.9118800E+02  0.7816164E-02  0.1184000E+00
        -11   -1    0    0    0    0  0.00000000000E+00  0.00000000000E+00  0.45593999997E+02  0.45594000000E+02  0.51100000000E-03 0. -1.
         11   -1    0    0    0    0 -0.00000000000E+00 -0.00000000000E+00 -0.45593999997E+02  0.45594000000E+02  0.51100000000E-03 0.  1.
         23    2    1    2    0    0  0.00000000000E+00 -0.71054273576E-14  0.00000000000E+00  0.91188000000E+02  0.91188000000E+02 0.  0.
    9900012    2    3    3    0    0 -0.70839151712E+01 -0.33726568910E+02  0.12966018153E+02  0.54367069385E+02  0.39999966277E+02 0.  0.
         12    1    3    3    0    0  0.70839151712E+01  0.33726568910E+02 -0.12966018153E+02  0.36820930615E+02  0.00000000000E+00 0. -1.
         11    1    4    4    0    0 -0.24326944749E+01 -0.97446582894E+01  0.64939263970E+01  0.11960244475E+02  0.51100000000E-03 0.  1.
        -11    1    4    4    0    0 -0.50195324969E+01  0.74739936952E+01  0.62288491975E+01  0.10947824023E+02  0.51100000000E-03 0. -1.
         12    1    4    4    0    0  0.36831180058E+00 -0.31455904316E+02  0.24324255898E+00  0.31459000888E+02  0.00000000000E+00 0. -1.
</event>
<event>
 8    1  0.2511738E-006  0.9118800E+02  0.7816164E-02  0.1184000E+00
        -11   -1    0    0    0    0  0.00000000000E+00  0.00000000000E+00  0.45593999997E+02  0.45594000000E+02  0.51100000000E-03 0. -1.
         11   -1    0    0    0    0 -0.00000000000E+00 -0.00000000000E+00 -0.45593999997E+02  0.45594000000E+02  0.51100000000E-03 0.  1.
         23    2    1    2    0    0  0.00000000000E+00  0.00000000000E+00 -0.88817841970E-15  0.91188000000E+02  0.91188000000E+02 0.  0.
    9900012    2    3    3    0    0  0.31843766815E+02 -0.16825912469E+02  0.76578776103E+01  0.54367083324E+02  0.39999998054E+02 0.  0.
        -12    1    3    3    0    0 -0.31843766815E+02  0.16825912469E+02 -0.76578776103E+01  0.36820916676E+02  0.00000000000E+00 0.  1.
         11    1    4    4    0    0  0.17133871244E+02 -0.23482046491E+02  0.66353189875E+01  0.29816161885E+02  0.51100000000E-03 0.  1.
        -11    1    4    4    0    0  0.15761374994E+02  0.16684526769E+01 -0.50388353606E+01  0.16631131594E+02  0.51100000000E-03 0. -1.
         12    1    4    4    0    0 -0.10514794236E+01  0.49876813449E+01  0.60613939834E+01  0.79197898456E+01  0.00000000000E+00 0. -1.
</event>
<event>
 8    1  0.2511738E-006  0.9118800E+02  0.7816164E-02  0.1184000E+00
        -11   -1    0    0    0    0  0.00000000000E+00  0.00000000000E+00  0.45593999997E+02  0.45594000000E+02  0.51100000000E-03 0.  1.
         11   -1    0    0    0    0 -0.00000000000E+00 -0.00000000000E+00 -0.45593999997E+02  0.45594000000E+02  0.51100000000E-03 0. -1.
         23    2    1    2    0    0  0.00000000000E+00  0.35527136788E-14  0.00000000000E+00  0.91188000000E+02  0.91188000000E+02 0.  0.
    9900012    2    3    3    0    0 -0.19276383842E+02 -0.31346250234E+02 -0.12681464652E+01  0.54367155724E+02  0.40000163103E+02 0.  0.
        -12    1    3    3    0    0  0.19276383842E+02  0.31346250234E+02  0.12681464652E+01  0.36820844276E+02  0.00000000000E+00 0.  1.
         11    1    4    4    0    0 -0.79623370754E+01 -0.60628016360E+01  0.16083479042E+01  0.10136230000E+02  0.51100000000E-03 0. -1.
        -11    1    4    4    0    0  0.47797473582E+01 -0.17595452167E+02  0.11297069510E+02  0.21449235454E+02  0.51100000000E-03 0.  1.
         12    1    4    4    0    0 -0.16093794125E+02 -0.76879964306E+01 -0.14173563880E+02  0.22781690269E+02  0.00000000000E+00 0. -1.
</event>
<event>
 8    1  0.2511738E-006  0.9118800E+02  0.7816164E-02  0.1184000E+00
        -11   -1    0    0    0    0  0.00000000000E+00  0.00000000000E+00  0.45593999997E+02  0.45594000000E+02  0.51100000000E-03 0.  1.
         11   -1    0    0    0    0 -0.00000000000E+00 -0.00000000000E+00 -0.45593999997E+02  0.45594000000E+02  0.51100000000E-03 0. -1.
         23    2    1    2    0    0  0.00000000000E+00  0.00000000000E+00  0.00000000000E+00  0.91188000000E+02  0.91188000000E+02 0.  0.
    9900012    2    3    3    0    0 -0.73697656245E+01 -0.14097695544E+02 -0.33207232103E+02  0.54367099292E+02  0.40000034456E+02 0.  0.
        -12    1    3    3    0    0  0.73697656245E+01  0.14097695544E+02  0.33207232103E+02  0.36820900708E+02  0.00000000000E+00 0.  1.
         11    1    4    4    0    0 -0.12638694307E+02  0.37361842141E+01 -0.69237470976E+01  0.14887375202E+02  0.51100000000E-03 0. -1.
        -11    1    4    4    0    0  0.68161592702E+00 -0.22685081780E+02 -0.21538460870E+02  0.31288701356E+02  0.51100000000E-03 0.  1.
        -12    1    4    4    0    0  0.45873127555E+01  0.48512020226E+01 -0.47450241354E+01  0.81910227338E+01  0.00000000000E+00 0.  1.
</event>
<event>
 8    1  0.2511738E-006  0.9118800E+02  0.7816164E-02  0.1184000E+00
        -11   -1    0    0    0    0  0.00000000000E+00  0.00000000000E+00  0.45593999997E+02  0.45594000000E+02  0.51100000000E-03 0.  1.
         11   -1    0    0    0    0 -0.00000000000E+00 -0.00000000000E+00 -0.45593999997E+02  0.45594000000E+02  0.51100000000E-03 0. -1.
         23    2    1    2    0    0  0.35527136788E-14  0.71054273576E-14 -0.88817841970E-15  0.91188000000E+02  0.91188000000E+02 0.  0.
    9900012    2    3    3    0    0  0.18371516047E+02  0.31815557533E+02  0.24571050737E+01  0.54367086535E+02  0.40000005375E+02 0.  0.
        -12    1    3    3    0    0 -0.18371516047E+02 -0.31815557533E+02 -0.24571050737E+01  0.36820913465E+02  0.00000000000E+00 0.  1.
         11    1    4    4    0    0  0.18284507673E+02  0.10075448206E+02 -0.80782036762E+01  0.22385156964E+02  0.51100000000E-03 0. -1.
        -11    1    4    4    0    0  0.86341594486E+01  0.12946459186E+02  0.11973604027E+02  0.19634834058E+02  0.51100000000E-03 0.  1.
         12    1    4    4    0    0 -0.85471510751E+01  0.87936501415E+01 -0.14382952768E+01  0.12347095513E+02  0.00000000000E+00 0. -1.
</event>
<event>
 8    1  0.2511738E-006  0.9118800E+02  0.7816164E-02  0.1184000E+00
        -11   -1    0    0    0    0  0.00000000000E+00  0.00000000000E+00  0.45593999997E+02  0.45594000000E+02  0.51100000000E-03 0. -1.
         11   -1    0    0    0    0 -0.00000000000E+00 -0.00000000000E+00 -0.45593999997E+02  0.45594000000E+02  0.51100000000E-03 0.  1.
         23    2    1    2    0    0  0.00000000000E+00  0.00000000000E+00  0.00000000000E+00  0.91188000000E+02  0.91188000000E+02 0.  0.
    9900012    2    3    3    0    0 -0.14398210627E+02  0.32168510412E+02 -0.10661054712E+02  0.54367087206E+02  0.40000006904E+02 0.  0.
        -12    1    3    3    0    0  0.14398210627E+02 -0.32168510412E+02  0.10661054712E+02  0.36820912794E+02  0.00000000000E+00 0.  1.
         11    1    4    4    0    0 -0.18938429136E+02  0.11341626112E+02 -0.17213769443E+02  0.27993042702E+02  0.51100000000E-03 0.  1.
        -11    1    4    4    0    0  0.56905615876E+01  0.10305920618E+02 -0.29649996976E+01  0.12140251828E+02  0.51100000000E-03 0. -1.
         12    1    4    4    0    0 -0.11503430784E+01  0.10520963682E+02  0.95177144289E+01  0.14233792676E+02  0.00000000000E+00 0. -1.
</event>
<event>
 8    1  0.2511738E-006  0.9118800E+02  0.7816164E-02  0.1184000E+00
        -11   -1    0    0    0    0  0.00000000000E+00  0.00000000000E+00  0.45593999997E+02  0.45594000000E+02  0.51100000000E-03 0. -1.
         11   -1    0    0    0    0 -0.00000000000E+00 -0.00000000000E+00 -0.45593999997E+02  0.45594000000E+02  0.51100000000E-03 0.  1.
         23    2    1    2    0    0 -0.35527136788E-14  0.35527136788E-14 -0.35527136788E-14  0.91188000000E+02  0.91188000000E+02 0.  0.
    9900012    2    3    3    0    0  0.13449926781E+02 -0.20675005159E+02  0.27339040050E+02  0.54367089099E+02  0.40000011219E+02 0.  0.
        -12    1    3    3    0    0 -0.13449926781E+02  0.20675005159E+02 -0.27339040050E+02  0.36820910901E+02  0.00000000000E+00 0.  1.
         11    1    4    4    0    0  0.19878422008E+02 -0.61616385183E+01  0.23409076701E+02  0.31322552946E+02  0.51100000000E-03 0. -1.
        -11    1    4    4    0    0 -0.94989142188E+01 -0.60642271451E+01  0.73184290737E+01  0.13437396570E+02  0.51100000000E-03 0.  1.
        -12    1    4    4    0    0  0.30704189918E+01 -0.84491394957E+01 -0.33884657254E+01  0.96071395835E+01  0.00000000000E+00 0.  1.
</event>
<event>
 8    1  0.2511738E-006  0.9118800E+02  0.7816164E-02  0.1184000E+00
        -11   -1    0    0    0    0  0.00000000000E+00  0.00000000000E+00  0.45593999997E+02  0.45594000000E+02  0.51100000000E-03 0.  1.
         11   -1    0    0    0    0 -0.00000000000E+00 -0.00000000000E+00 -0.45593999997E+02  0.45594000000E+02  0.51100000000E-03 0. -1.
         23    2    1    2    0    0  0.00000000000E+00  0.00000000000E+00  0.00000000000E+00  0.91188000000E+02  0.91188000000E+02 0.  0.
    9900012    2    3    3    0    0  0.26208405352E+02 -0.45033203644E+01  0.25467993038E+02  0.54367094596E+02  0.40000023751E+02 0.  0.
         12    1    3    3    0    0 -0.26208405352E+02  0.45033203644E+01 -0.25467993038E+02  0.36820905404E+02  0.00000000000E+00 0. -1.
         11    1    4    4    0    0  0.12466060452E+02 -0.12376253197E+01  0.15074407664E+02  0.19600309852E+02  0.51100000000E-03 0. -1.
        -11    1    4    4    0    0  0.22059526649E+02 -0.59444356278E+01  0.24847145895E+01  0.22981140915E+02  0.51100000000E-03 0.  1.
         12    1    4    4    0    0 -0.83171817497E+01  0.26787405832E+01  0.79088707849E+01  0.11785643829E+02  0.00000000000E+00 0. -1.
</event>
<event>
 8    1  0.2511738E-006  0.9118800E+02  0.7816164E-02  0.1184000E+00
        -11   -1    0    0    0    0  0.00000000000E+00  0.00000000000E+00  0.45593999997E+02  0.45594000000E+02  0.51100000000E-03 0. -1.
         11   -1    0    0    0    0 -0.00000000000E+00 -0.00000000000E+00 -0.45593999997E+02  0.45594000000E+02  0.51100000000E-03 0.  1.
         23    2    1    2    0    0  0.00000000000E+00  0.00000000000E+00  0.00000000000E+00  0.91188000000E+02  0.91188000000E+02 0.  0.
    9900012    2    3    3    0    0  0.20137305632E+02 -0.22322048640E+02  0.21260263371E+02  0.54367031352E+02  0.39999879572E+02 0.  0.
        -12    1    3    3    0    0 -0.20137305632E+02  0.22322048640E+02 -0.21260263371E+02  0.36820968648E+02  0.00000000000E+00 0.  1.
         11    1    4    4    0    0  0.43761171909E+00  0.96981195773E+00  0.24041110385E+01  0.26290282229E+01  0.51100000000E-03 0. -1.
        -11    1    4    4    0    0 -0.80162946474E+01 -0.50641447784E+01 -0.51499909087E+01  0.10790224689E+02  0.51100000000E-03 0.  1.
         12    1    4    4    0    0  0.27715988560E+02 -0.18227715819E+02  0.24006143242E+02  0.40947778440E+02  0.00000000000E+00 0. -1.
</event>
<event>
 8    1  0.2511738E-006  0.9118800E+02  0.7816164E-02  0.1184000E+00
        -11   -1    0    0    0    0  0.00000000000E+00  0.00000000000E+00  0.45593999997E+02  0.45594000000E+02  0.51100000000E-03 0.  1.
         11   -1    0    0    0    0 -0.00000000000E+00 -0.00000000000E+00 -0.45593999997E+02  0.45594000000E+02  0.51100000000E-03 0. -1.
         23    2    1    2    0    0 -0.17763568394E-14  0.00000000000E+00  0.00000000000E+00  0.91188000000E+02  0.91188000000E+02 0.  0.
    9900012    2    3    3    0    0 -0.10659488687E+02 -0.23937703193E+01 -0.35162839988E+02  0.54367079975E+02  0.39999990420E+02 0.  0.
        -12    1    3    3    0    0  0.10659488687E+02  0.23937703193E+01  0.35162839988E+02  0.36820920025E+02  0.00000000000E+00 0.  1.
         11    1    4    4    0    0 -0.52052079505E+01 -0.65282564055E+01 -0.32616759530E+02  0.33668461860E+02  0.51100000000E-03 0. -1.
        -11    1    4    4    0    0  0.65697486505E+01 -0.98304046301E+00  0.18763702149E+01  0.69028060473E+01  0.51100000000E-03 0.  1.
        -12    1    4    4    0    0 -0.12024029387E+02  0.51175265491E+01 -0.44224506736E+01  0.13795812069E+02  0.00000000000E+00 0.  1.
</event>
<event>
 8    1  0.2511738E-006  0.9118800E+02  0.7816164E-02  0.1184000E+00
        -11   -1    0    0    0    0  0.00000000000E+00  0.00000000000E+00  0.45593999997E+02  0.45594000000E+02  0.51100000000E-03 0. -1.
         11   -1    0    0    0    0 -0.00000000000E+00 -0.00000000000E+00 -0.45593999997E+02  0.45594000000E+02  0.51100000000E-03 0.  1.
         23    2    1    2    0    0  0.35527136788E-14  0.00000000000E+00 -0.35527136788E-14  0.91188000000E+02  0.91188000000E+02 0.  0.
    9900012    2    3    3    0    0  0.19731879682E+02  0.16344620617E+02 -0.26443994622E+02  0.54367101715E+02  0.40000039980E+02 0.  0.
         12    1    3    3    0    0 -0.19731879682E+02 -0.16344620617E+02  0.26443994622E+02  0.36820898285E+02  0.00000000000E+00 0. -1.
         11    1    4    4    0    0 -0.41778930139E+01  0.38795362403E+01 -0.59110683002E+01  0.82125708634E+01  0.51100000000E-03 0. -1.
        -11    1    4    4    0    0 -0.15366595433E+01 -0.44608735701E+01  0.45973789057E+01  0.65876102362E+01  0.51100000000E-03 0.  1.
        -12    1    4    4    0    0  0.25446432239E+02  0.16925957947E+02 -0.25130305228E+02  0.39566920615E+02  0.00000000000E+00 0.  1.
</event>
<event>
 8    1  0.2511738E-006  0.9118800E+02  0.7816164E-02  0.1184000E+00
        -11   -1    0    0    0    0  0.00000000000E+00  0.00000000000E+00  0.45593999997E+02  0.45594000000E+02  0.51100000000E-03 0.  1.
         11   -1    0    0    0    0 -0.00000000000E+00 -0.00000000000E+00 -0.45593999997E+02  0.45594000000E+02  0.51100000000E-03 0. -1.
         23    2    1    2    0    0  0.00000000000E+00 -0.26645352591E-14  0.00000000000E+00  0.91188000000E+02  0.91188000000E+02 0.  0.
    9900012    2    3    3    0    0  0.58766728773E+01  0.58816153146E+01 -0.35869935858E+02  0.54367068707E+02  0.39999964732E+02 0.  0.
        -12    1    3    3    0    0 -0.58766728773E+01 -0.58816153146E+01  0.35869935858E+02  0.36820931293E+02  0.00000000000E+00 0.  1.
         11    1    4    4    0    0 -0.31236421261E+01  0.50817919328E+01 -0.84491384103E+00  0.60245853833E+01  0.51100000000E-03 0. -1.
        -11    1    4    4    0    0  0.98687555602E+01  0.14741737623E+02 -0.12020850903E+02  0.21429232864E+02  0.51100000000E-03 0.  1.
        -12    1    4    4    0    0 -0.86844055685E+00 -0.13941914241E+02 -0.23004171113E+02  0.26913250460E+02  0.00000000000E+00 0.  1.
</event>
<event>
 8    1  0.2511738E-006  0.9118800E+02  0.7816164E-02  0.1184000E+00
        -11   -1    0    0    0    0  0.00000000000E+00  0.00000000000E+00  0.45593999997E+02  0.45594000000E+02  0.51100000000E-03 0.  1.
         11   -1    0    0    0    0 -0.00000000000E+00 -0.00000000000E+00 -0.45593999997E+02  0.45594000000E+02  0.51100000000E-03 0. -1.
         23    2    1    2    0    0  0.00000000000E+00  0.00000000000E+00  0.88817841970E-15  0.91188000000E+02  0.91188000000E+02 0.  0.
    9900012    2    3    3    0    0 -0.35034430625E+02  0.85947611005E+01 -0.73822659836E+01  0.54367094271E+02  0.40000023011E+02 0.  0.
         12    1    3    3    0    0  0.35034430625E+02 -0.85947611005E+01  0.73822659836E+01  0.36820905729E+02  0.00000000000E+00 0. -1.
         11    1    4    4    0    0  0.43731558338E+01  0.49661716311E+01 -0.32042952901E+01  0.73522011115E+01  0.51100000000E-03 0. -1.
        -11    1    4    4    0    0 -0.21267387017E+02  0.11821400789E+02  0.54027745882E+01  0.24924631204E+02  0.51100000000E-03 0.  1.
        -12    1    4    4    0    0 -0.18140199442E+02 -0.81928113199E+01 -0.95807452816E+01  0.22090261956E+02  0.00000000000E+00 0.  1.
</event>
<event>
 8    1  0.2511738E-006  0.9118800E+02  0.7816164E-02  0.1184000E+00
        -11   -1    0    0    0    0  0.00000000000E+00  0.00000000000E+00  0.45593999997E+02  0.45594000000E+02  0.51100000000E-03 0.  1.
         11   -1    0    0    0    0 -0.00000000000E+00 -0.00000000000E+00 -0.45593999997E+02  0.45594000000E+02  0.51100000000E-03 0. -1.
         23    2    1    2    0    0  0.35527136788E-14  0.35527136788E-14  0.35527136788E-14  0.91188000000E+02  0.91188000000E+02 0.  0.
    9900012    2    3    3    0    0  0.20961668149E+02 -0.17239856434E+02  0.24883290879E+02  0.54367050170E+02  0.39999922472E+02 0.  0.
         12    1    3    3    0    0 -0.20961668149E+02  0.17239856434E+02 -0.24883290879E+02  0.36820949830E+02  0.00000000000E+00 0. -1.
         11    1    4    4    0    0  0.27371300039E+01  0.49487566299E+01 -0.12703909478E+01  0.57962027451E+01  0.51100000000E-03 0.  1.
        -11    1    4    4    0    0  0.47997840752E+01 -0.25641082324E+02  0.11847556571E+02  0.28650787543E+02  0.51100000000E-03 0. -1.
         12    1    4    4    0    0  0.13424754070E+02  0.34524692599E+01  0.14306125256E+02  0.19920059881E+02  0.00000000000E+00 0. -1.
</event>
<event>
 8    1  0.2511738E-006  0.9118800E+02  0.7816164E-02  0.1184000E+00
        -11   -1    0    0    0    0  0.00000000000E+00  0.00000000000E+00  0.45593999997E+02  0.45594000000E+02  0.51100000000E-03 0.  1.
         11   -1    0    0    0    0 -0.00000000000E+00 -0.00000000000E+00 -0.45593999997E+02  0.45594000000E+02  0.51100000000E-03 0. -1.
         23    2    1    2    0    0  0.88817841970E-15  0.17763568394E-14  0.00000000000E+00  0.91188000000E+02  0.91188000000E+02 0.  0.
    9900012    2    3    3    0    0  0.14782763702E+01 -0.11597078501E+02  0.34915674252E+02  0.54367057056E+02  0.39999938171E+02 0.  0.
         12    1    3    3    0    0 -0.14782763702E+01  0.11597078501E+02 -0.34915674252E+02  0.36820942944E+02  0.00000000000E+00 0. -1.
         11    1    4    4    0    0  0.11054528290E+02  0.14176838567E+01 -0.23697993643E+01  0.11394225402E+02  0.51100000000E-03 0. -1.
        -11    1    4    4    0    0 -0.24854565735E+01 -0.43537315977E+01  0.11500433844E+01  0.51434495478E+01  0.51100000000E-03 0.  1.
         12    1    4    4    0    0 -0.70907953461E+01 -0.86610307595E+01  0.36135430232E+02  0.37829382106E+02  0.00000000000E+00 0. -1.
</event>
<event>
 8    1  0.2511738E-006  0.9118800E+02  0.7816164E-02  0.1184000E+00
        -11   -1    0    0    0    0  0.00000000000E+00  0.00000000000E+00  0.45593999997E+02  0.45594000000E+02  0.51100000000E-03 0.  1.
         11   -1    0    0    0    0 -0.00000000000E+00 -0.00000000000E+00 -0.45593999997E+02  0.45594000000E+02  0.51100000000E-03 0. -1.
         23    2    1    2    0    0  0.00000000000E+00  0.00000000000E+00  0.00000000000E+00  0.91188000000E+02  0.91188000000E+02 0.  0.
    9900012    2    3    3    0    0  0.29049907580E+02  0.15611345561E+02  0.16375873202E+02  0.54367075735E+02  0.39999980752E+02 0.  0.
         12    1    3    3    0    0 -0.29049907580E+02 -0.15611345561E+02 -0.16375873202E+02  0.36820924265E+02  0.00000000000E+00 0. -1.
         11    1    4    4    0    0  0.25946587245E+01 -0.56444659055E+01  0.11427799437E+00  0.62133170671E+01  0.51100000000E-03 0. -1.
        -11    1    4    4    0    0 -0.51384451589E+01  0.77003060259E+01 -0.16269733202E+01  0.93992219885E+01  0.51100000000E-03 0.  1.
        -12    1    4    4    0    0  0.31593694014E+02  0.13555505441E+02  0.17888568528E+02  0.38754536679E+02  0.00000000000E+00 0.  1.
</event>
<event>
 8    1  0.2511738E-006  0.9118800E+02  0.7816164E-02  0.1184000E+00
        -11   -1    0    0    0    0  0.00000000000E+00  0.00000000000E+00  0.45593999997E+02  0.45594000000E+02  0.51100000000E-03 0. -1.
         11   -1    0    0    0    0 -0.00000000000E+00 -0.00000000000E+00 -0.45593999997E+02  0.45594000000E+02  0.51100000000E-03 0.  1.
         23    2    1    2    0    0  0.00000000000E+00 -0.35527136788E-14  0.00000000000E+00  0.91188000000E+02  0.91188000000E+02 0.  0.
    9900012    2    3    3    0    0 -0.25958166131E+02  0.17969612031E+02 -0.18948552608E+02  0.54367068570E+02  0.39999964419E+02 0.  0.
         12    1    3    3    0    0  0.25958166131E+02 -0.17969612031E+02  0.18948552608E+02  0.36820931430E+02  0.00000000000E+00 0. -1.
         11    1    4    4    0    0  0.55049867366E+00 -0.47942120596E+00 -0.11885060495E+02  0.11907458029E+02  0.51100000000E-03 0. -1.
        -11    1    4    4    0    0 -0.51461446382E+00 -0.59925013522E+01 -0.24007622304E+01  0.64759987685E+01  0.51100000000E-03 0.  1.
        -12    1    4    4    0    0 -0.25994050341E+02  0.24441534589E+02 -0.46627298822E+01  0.35983611772E+02  0.00000000000E+00 0.  1.
</event>
<event>
 8    1  0.2511738E-006  0.9118800E+02  0.7816164E-02  0.1184000E+00
        -11   -1    0    0    0    0  0.00000000000E+00  0.00000000000E+00  0.45593999997E+02  0.45594000000E+02  0.51100000000E-03 0.  1.
         11   -1    0    0    0    0 -0.00000000000E+00 -0.00000000000E+00 -0.45593999997E+02  0.45594000000E+02  0.51100000000E-03 0. -1.
         23    2    1    2    0    0 -0.17763568394E-14  0.00000000000E+00  0.00000000000E+00  0.91188000000E+02  0.91188000000E+02 0.  0.
    9900012    2    3    3    0    0 -0.65924983688E+01 -0.18485284514E+02 -0.31154677865E+02  0.54367072103E+02  0.39999972474E+02 0.  0.
        -12    1    3    3    0    0  0.65924983688E+01  0.18485284514E+02  0.31154677865E+02  0.36820927897E+02  0.00000000000E+00 0.  1.
         11    1    4    4    0    0 -0.67395335299E+01  0.24584551805E+01 -0.19758723913E+02  0.21020763188E+02  0.51100000000E-03 0. -1.
        -11    1    4    4    0    0  0.11700859654E+02 -0.10234002430E+02 -0.64984695550E+01  0.16848591312E+02  0.51100000000E-03 0.  1.
         12    1    4    4    0    0 -0.11553824493E+02 -0.10709737264E+02 -0.48974843964E+01  0.16497717603E+02  0.00000000000E+00 0. -1.
</event>
<event>
 8    1  0.2511738E-006  0.9118800E+02  0.7816164E-02  0.1184000E+00
        -11   -1    0    0    0    0  0.00000000000E+00  0.00000000000E+00  0.45593999997E+02  0.45594000000E+02  0.51100000000E-03 0.  1.
         11   -1    0    0    0    0 -0.00000000000E+00 -0.00000000000E+00 -0.45593999997E+02  0.45594000000E+02  0.51100000000E-03 0. -1.
         23    2    1    2    0    0  0.00000000000E+00  0.00000000000E+00  0.22204460493E-15  0.91188000000E+02  0.91188000000E+02 0.  0.
    9900012    2    3    3    0    0  0.35273132837E+02  0.10552987074E+02 -0.46920071522E+00  0.54367087659E+02  0.40000007936E+02 0.  0.
        -12    1    3    3    0    0 -0.35273132837E+02 -0.10552987074E+02  0.46920071522E+00  0.36820912341E+02  0.00000000000E+00 0.  1.
         11    1    4    4    0    0  0.20192961865E+02  0.78710996263E+01  0.87121962857E+00  0.21690296035E+02  0.51100000000E-03 0. -1.
        -11    1    4    4    0    0  0.65771840876E+00 -0.11431197059E+02 -0.44017472110E+01  0.12267038700E+02  0.51100000000E-03 0.  1.
        -12    1    4    4    0    0  0.14422452563E+02  0.14113084506E+02  0.30613268673E+01  0.20409752924E+02  0.00000000000E+00 0.  1.
</event>
<event>
 8    1  0.2511738E-006  0.9118800E+02  0.7816164E-02  0.1184000E+00
        -11   -1    0    0    0    0  0.00000000000E+00  0.00000000000E+00  0.45593999997E+02  0.45594000000E+02  0.51100000000E-03 0.  1.
         11   -1    0    0    0    0 -0.00000000000E+00 -0.00000000000E+00 -0.45593999997E+02  0.45594000000E+02  0.51100000000E-03 0. -1.
         23    2    1    2    0    0 -0.44408920985E-15  0.00000000000E+00  0.00000000000E+00  0.91188000000E+02  0.91188000000E+02 0.  0.
    9900012    2    3    3    0    0 -0.28020223220E+01  0.26215922661E+02  0.25703128804E+02  0.54367126023E+02  0.40000095395E+02 0.  0.
        -12    1    3    3    0    0  0.28020223220E+01 -0.26215922661E+02 -0.25703128804E+02  0.36820873977E+02  0.00000000000E+00 0.  1.
         11    1    4    4    0    0  0.74564699070E+01  0.94905205599E+00  0.62964470222E+00  0.75429500854E+01  0.51100000000E-03 0. -1.
        -11    1    4    4    0    0 -0.59282795042E+01  0.19547874194E+02  0.31266169359E+02  0.37347519730E+02  0.51100000000E-03 0.  1.
        -12    1    4    4    0    0 -0.43302127248E+01  0.57189964109E+01 -0.61926852565E+01  0.94766562075E+01  0.00000000000E+00 0.  1.
</event>
<event>
 8    1  0.2511738E-006  0.9118800E+02  0.7816164E-02  0.1184000E+00
        -11   -1    0    0    0    0  0.00000000000E+00  0.00000000000E+00  0.45593999997E+02  0.45594000000E+02  0.51100000000E-03 0.  1.
         11   -1    0    0    0    0 -0.00000000000E+00 -0.00000000000E+00 -0.45593999997E+02  0.45594000000E+02  0.51100000000E-03 0. -1.
         23    2    1    2    0    0 -0.17763568394E-14  0.17763568394E-14  0.00000000000E+00  0.91188000000E+02  0.91188000000E+02 0.  0.
    9900012    2    3    3    0    0  0.39355070228E+01 -0.11678290388E+02  0.34697389833E+02  0.54367088236E+02  0.40000009252E+02 0.  0.
         12    1    3    3    0    0 -0.39355070228E+01  0.11678290388E+02 -0.34697389833E+02  0.36820911764E+02  0.00000000000E+00 0. -1.
         11    1    4    4    0    0 -0.10784744862E+02  0.35210254160E+01  0.14466281230E+02  0.18384276831E+02  0.51100000000E-03 0. -1.
        -11    1    4    4    0    0  0.79246858911E+01 -0.75079259668E+01 -0.23608300456E+01  0.11168845847E+02  0.51100000000E-03 0.  1.
        -12    1    4    4    0    0  0.67955659934E+01 -0.76913898370E+01  0.22591938649E+02  0.24813965558E+02  0.00000000000E+00 0.  1.
</event>
<event>
 8    1  0.2511738E-006  0.9118800E+02  0.7816164E-02  0.1184000E+00
        -11   -1    0    0    0    0  0.00000000000E+00  0.00000000000E+00  0.45593999997E+02  0.45594000000E+02  0.51100000000E-03 0.  1.
         11   -1    0    0    0    0 -0.00000000000E+00 -0.00000000000E+00 -0.45593999997E+02  0.45594000000E+02  0.51100000000E-03 0. -1.
         23    2    1    2    0    0  0.35527136788E-14  0.00000000000E+00  0.17763568394E-14  0.91188000000E+02  0.91188000000E+02 0.  0.
    9900012    2    3    3    0    0  0.17992051723E+02  0.30881989542E+02  0.88525949003E+01  0.54367086924E+02  0.40000006262E+02 0.  0.
         12    1    3    3    0    0 -0.17992051723E+02 -0.30881989542E+02 -0.88525949003E+01  0.36820913076E+02  0.00000000000E+00 0. -1.
         11    1    4    4    0    0  0.26725881154E+01  0.90362220944E+01  0.16026631719E+02  0.18591636869E+02  0.51100000000E-03 0. -1.
        -11    1    4    4    0    0  0.19932407527E+02  0.13562646150E+02 -0.38100108778E+00  0.24112059276E+02  0.51100000000E-03 0.  1.
         12    1    4    4    0    0 -0.46129439202E+01  0.82831212972E+01 -0.67930357305E+01  0.11663390779E+02  0.00000000000E+00 0. -1.
</event>
<event>
 8    1  0.2511738E-006  0.9118800E+02  0.7816164E-02  0.1184000E+00
        -11   -1    0    0    0    0  0.00000000000E+00  0.00000000000E+00  0.45593999997E+02  0.45594000000E+02  0.51100000000E-03 0. -1.
         11   -1    0    0    0    0 -0.00000000000E+00 -0.00000000000E+00 -0.45593999997E+02  0.45594000000E+02  0.51100000000E-03 0.  1.
         23    2    1    2    0    0  0.00000000000E+00  0.00000000000E+00  0.17763568394E-14  0.91188000000E+02  0.91188000000E+02 0.  0.
    9900012    2    3    3    0    0  0.31155582277E+01 -0.35547011634E+02 -0.90820200175E+01  0.54367084384E+02  0.40000000471E+02 0.  0.
         12    1    3    3    0    0 -0.31155582277E+01  0.35547011634E+02  0.90820200175E+01  0.36820915616E+02  0.00000000000E+00 0. -1.
         11    1    4    4    0    0  0.58261613608E+01 -0.13871711899E+02  0.12110128800E+02  0.19313823211E+02  0.51100000000E-03 0. -1.
        -11    1    4    4    0    0 -0.58393103417E+01 -0.93360854199E+01 -0.83463191385E+00  0.11043398341E+02  0.51100000000E-03 0.  1.
         12    1    4    4    0    0  0.31287072086E+01 -0.12339214315E+02 -0.20357516904E+02  0.24009862832E+02  0.00000000000E+00 0. -1.
</event>
<event>
 8    1  0.2511738E-006  0.9118800E+02  0.7816164E-02  0.1184000E+00
        -11   -1    0    0    0    0  0.00000000000E+00  0.00000000000E+00  0.45593999997E+02  0.45594000000E+02  0.51100000000E-03 0. -1.
         11   -1    0    0    0    0 -0.00000000000E+00 -0.00000000000E+00 -0.45593999997E+02  0.45594000000E+02  0.51100000000E-03 0.  1.
         23    2    1    2    0    0  0.00000000000E+00  0.35527136788E-14  0.00000000000E+00  0.91188000000E+02  0.91188000000E+02 0.  0.
    9900012    2    3    3    0    0 -0.52751043832E+01  0.30185176892E+02  0.20415896183E+02  0.54367075959E+02  0.39999981264E+02 0.  0.
        -12    1    3    3    0    0  0.52751043832E+01 -0.30185176892E+02 -0.20415896183E+02  0.36820924041E+02  0.00000000000E+00 0.  1.
         11    1    4    4    0    0 -0.15340654997E+02  0.28018427698E+02  0.13305144866E+02  0.34603393859E+02  0.51100000000E-03 0.  1.
        -11    1    4    4    0    0  0.10444477493E+02  0.62855816583E+01  0.90629652307E+01  0.15189897495E+02  0.51100000000E-03 0. -1.
        -12    1    4    4    0    0 -0.37892687880E+00 -0.41188324645E+01 -0.19522139135E+01  0.45737846051E+01  0.00000000000E+00 0.  1.
</event>
<event>
 8    1  0.2511738E-006  0.9118800E+02  0.7816164E-02  0.1184000E+00
        -11   -1    0    0    0    0  0.00000000000E+00  0.00000000000E+00  0.45593999997E+02  0.45594000000E+02  0.51100000000E-03 0.  1.
         11   -1    0    0    0    0 -0.00000000000E+00 -0.00000000000E+00 -0.45593999997E+02  0.45594000000E+02  0.51100000000E-03 0. -1.
         23    2    1    2    0    0 -0.35527136788E-14  0.00000000000E+00  0.00000000000E+00  0.91188000000E+02  0.91188000000E+02 0.  0.
    9900012    2    3    3    0    0 -0.26569115206E+02 -0.10276635732E+02 -0.23329223120E+02  0.54367085071E+02  0.40000002037E+02 0.  0.
        -12    1    3    3    0    0  0.26569115206E+02  0.10276635732E+02  0.23329223120E+02  0.36820914929E+02  0.00000000000E+00 0.  1.
         11    1    4    4    0    0 -0.24334135182E+02 -0.12055465816E+02 -0.21530245877E+01  0.27241877803E+02  0.51100000000E-03 0. -1.
        -11    1    4    4    0    0 -0.34348940987E+01  0.25329502273E+01 -0.23780410395E+02  0.24160344640E+02  0.51100000000E-03 0.  1.
        -12    1    4    4    0    0  0.11999140742E+01 -0.75412014354E+00  0.26042118631E+01  0.29648626283E+01  0.00000000000E+00 0.  1.
</event>
<event>
 8    1  0.2511738E-006  0.9118800E+02  0.7816164E-02  0.1184000E+00
        -11   -1    0    0    0    0  0.00000000000E+00  0.00000000000E+00  0.45593999997E+02  0.45594000000E+02  0.51100000000E-03 0.  1.
         11   -1    0    0    0    0 -0.00000000000E+00 -0.00000000000E+00 -0.45593999997E+02  0.45594000000E+02  0.51100000000E-03 0. -1.
         23    2    1    2    0    0 -0.17763568394E-14 -0.35527136788E-14  0.00000000000E+00  0.91188000000E+02  0.91188000000E+02 0.  0.
    9900012    2    3    3    0    0 -0.14436499171E+02 -0.29968053308E+02 -0.15788649992E+02  0.54367106530E+02  0.40000050956E+02 0.  0.
        -12    1    3    3    0    0  0.14436499171E+02  0.29968053308E+02  0.15788649992E+02  0.36820893470E+02  0.00000000000E+00 0.  1.
         11    1    4    4    0    0 -0.73849333172E+01 -0.31124970990E+01 -0.53105251265E+01  0.96138730837E+01  0.51100000000E-03 0. -1.
        -11    1    4    4    0    0 -0.17561523935E-01 -0.21842154285E+02 -0.21568060899E+02  0.30696274423E+02  0.51100000000E-03 0.  1.
        -12    1    4    4    0    0 -0.70340043294E+01 -0.50134019241E+01  0.11089936034E+02  0.14056959024E+02  0.00000000000E+00 0.  1.
</event>
<event>
 8    1  0.2511738E-006  0.9118800E+02  0.7816164E-02  0.1184000E+00
        -11   -1    0    0    0    0  0.00000000000E+00  0.00000000000E+00  0.45593999997E+02  0.45594000000E+02  0.51100000000E-03 0.  1.
         11   -1    0    0    0    0 -0.00000000000E+00 -0.00000000000E+00 -0.45593999997E+02  0.45594000000E+02  0.51100000000E-03 0. -1.
         23    2    1    2    0    0  0.00000000000E+00  0.00000000000E+00 -0.66613381478E-15  0.91188000000E+02  0.91188000000E+02 0.  0.
    9900012    2    3    3    0    0 -0.19022919989E+02 -0.31522054415E+02  0.51887520346E+00  0.54367073465E+02  0.39999975577E+02 0.  0.
        -12    1    3    3    0    0  0.19022919989E+02  0.31522054415E+02 -0.51887520346E+00  0.36820926535E+02  0.00000000000E+00 0.  1.
         11    1    4    4    0    0  0.68981059985E+01 -0.18133212678E+02  0.60793272619E+01  0.20331145777E+02  0.51100000000E-03 0. -1.
        -11    1    4    4    0    0 -0.95194816433E+01 -0.10159703085E+02  0.43700132190E+01  0.14592364899E+02  0.51100000000E-03 0.  1.
         12    1    4    4    0    0 -0.16401544344E+02 -0.32291386521E+01 -0.99304652775E+01  0.19443562789E+02  0.00000000000E+00 0. -1.
</event>
<event>
 8    1  0.2511738E-006  0.9118800E+02  0.7816164E-02  0.1184000E+00
        -11   -1    0    0    0    0  0.00000000000E+00  0.00000000000E+00  0.45593999997E+02  0.45594000000E+02  0.51100000000E-03 0. -1.
         11   -1    0    0    0    0 -0.00000000000E+00 -0.00000000000E+00 -0.45593999997E+02  0.45594000000E+02  0.51100000000E-03 0.  1.
         23    2    1    2    0    0  0.00000000000E+00  0.35527136788E-14  0.00000000000E+00  0.91188000000E+02  0.91188000000E+02 0.  0.
    9900012    2    3    3    0    0 -0.26935711804E+02  0.24425748169E+02  0.57989209595E+01  0.54367119670E+02  0.40000080912E+02 0.  0.
        -12    1    3    3    0    0  0.26935711804E+02 -0.24425748169E+02 -0.57989209595E+01  0.36820880330E+02  0.00000000000E+00 0.  1.
         11    1    4    4    0    0 -0.30378791547E+02  0.16470282660E+02  0.19914730791E+01  0.34613684462E+02  0.51100000000E-03 0.  1.
        -11    1    4    4    0    0  0.30345368868E+01  0.10477680570E+02  0.88852387098E+01  0.14069032356E+02  0.51100000000E-03 0. -1.
         12    1    4    4    0    0  0.40854285604E+00 -0.25222150612E+01 -0.50777908293E+01  0.56844028522E+01  0.00000000000E+00 0. -1.
</event>
<event>
 8    1  0.2511738E-006  0.9118800E+02  0.7816164E-02  0.1184000E+00
        -11   -1    0    0    0    0  0.00000000000E+00  0.00000000000E+00  0.45593999997E+02  0.45594000000E+02  0.51100000000E-03 0. -1.
         11   -1    0    0    0    0 -0.00000000000E+00 -0.00000000000E+00 -0.45593999997E+02  0.45594000000E+02  0.51100000000E-03 0.  1.
         23    2    1    2    0    0 -0.17763568394E-14  0.00000000000E+00  0.00000000000E+00  0.91188000000E+02  0.91188000000E+02 0.  0.
    9900012    2    3    3    0    0 -0.90159924073E+01 -0.60042255049E+01  0.35191493403E+02  0.54367081340E+02  0.39999993531E+02 0.  0.
        -12    1    3    3    0    0  0.90159924073E+01  0.60042255049E+01 -0.35191493403E+02  0.36820918660E+02  0.00000000000E+00 0.  1.
         11    1    4    4    0    0 -0.84722154144E+00 -0.12621646340E+02  0.60786471207E+01  0.14034731623E+02  0.51100000000E-03 0. -1.
        -11    1    4    4    0    0  0.77205448425E+00 -0.46763542706E+01  0.24867764233E+02  0.25315411424E+02  0.51100000000E-03 0.  1.
         12    1    4    4    0    0 -0.89408253501E+01  0.11293775105E+02  0.42450820500E+01  0.15016938293E+02  0.00000000000E+00 0. -1.
</event>
<event>
 8    1  0.2511738E-006  0.9118800E+02  0.7816164E-02  0.1184000E+00
        -11   -1    0    0    0    0  0.00000000000E+00  0.00000000000E+00  0.45593999997E+02  0.45594000000E+02  0.51100000000E-03 0. -1.
         11   -1    0    0    0    0 -0.00000000000E+00 -0.00000000000E+00 -0.45593999997E+02  0.45594000000E+02  0.51100000000E-03 0.  1.
         23    2    1    2    0    0  0.17763568394E-14  0.00000000000E+00  0.00000000000E+00  0.91188000000E+02  0.91188000000E+02 0.  0.
    9900012    2    3    3    0    0  0.13578507391E+02 -0.18264185375E+02 -0.28945175251E+02  0.54367088812E+02  0.40000010564E+02 0.  0.
        -12    1    3    3    0    0 -0.13578507391E+02  0.18264185375E+02  0.28945175251E+02  0.36820911188E+02  0.00000000000E+00 0.  1.
         11    1    4    4    0    0  0.13539513226E+02 -0.12442731705E+02  0.11792341162E-01  0.18388586949E+02  0.51100000000E-03 0. -1.
        -11    1    4    4    0    0  0.32090171744E+01  0.10696343080E+01 -0.28147673695E+02  0.28350193006E+02  0.51100000000E-03 0.  1.
        -12    1    4    4    0    0 -0.31700230087E+01 -0.68910879783E+01 -0.80929389736E+00  0.76283088567E+01  0.00000000000E+00 0.  1.
</event>
<event>
 8    1  0.2511738E-006  0.9118800E+02  0.7816164E-02  0.1184000E+00
        -11   -1    0    0    0    0  0.00000000000E+00  0.00000000000E+00  0.45593999997E+02  0.45594000000E+02  0.51100000000E-03 0. -1.
         11   -1    0    0    0    0 -0.00000000000E+00 -0.00000000000E+00 -0.45593999997E+02  0.45594000000E+02  0.51100000000E-03 0.  1.
         23    2    1    2    0    0  0.00000000000E+00 -0.71054273576E-14  0.88817841970E-15  0.91188000000E+02  0.91188000000E+02 0.  0.
    9900012    2    3    3    0    0  0.25139644637E+02  0.26620736099E+02 -0.38874795779E+01  0.54367111629E+02  0.40000062581E+02 0.  0.
        -12    1    3    3    0    0 -0.25139644637E+02 -0.26620736099E+02  0.38874795779E+01  0.36820888371E+02  0.00000000000E+00 0.  1.
         11    1    4    4    0    0 -0.28806679951E+01  0.70061063036E+00  0.83916358655E+01  0.88999245005E+01  0.51100000000E-03 0. -1.
        -11    1    4    4    0    0 -0.11937671653E+01  0.10825838985E+02 -0.28204498199E+01  0.11250724742E+02  0.51100000000E-03 0.  1.
         12    1    4    4    0    0  0.29214079797E+02  0.15094286484E+02 -0.94586656235E+01  0.34216462386E+02  0.00000000000E+00 0. -1.
</event>
<event>
 8    1  0.2511738E-006  0.9118800E+02  0.7816164E-02  0.1184000E+00
        -11   -1    0    0    0    0  0.00000000000E+00  0.00000000000E+00  0.45593999997E+02  0.45594000000E+02  0.51100000000E-03 0.  1.
         11   -1    0    0    0    0 -0.00000000000E+00 -0.00000000000E+00 -0.45593999997E+02  0.45594000000E+02  0.51100000000E-03 0. -1.
         23    2    1    2    0    0 -0.17763568394E-14  0.00000000000E+00  0.00000000000E+00  0.91188000000E+02  0.91188000000E+02 0.  0.
    9900012    2    3    3    0    0 -0.84946848301E+01 -0.11453232799E+02  0.33947690180E+02  0.54367056497E+02  0.39999936896E+02 0.  0.
         12    1    3    3    0    0  0.84946848301E+01  0.11453232799E+02 -0.33947690180E+02  0.36820943503E+02  0.00000000000E+00 0. -1.
         11    1    4    4    0    0 -0.93911956368E+01  0.10756882292E+02  0.10074889816E+02  0.17475939952E+02  0.51100000000E-03 0. -1.
        -11    1    4    4    0    0  0.30145177126E+01  0.13484354506E+01  0.72918837621E+01  0.80048213137E+01  0.51100000000E-03 0.  1.
        -12    1    4    4    0    0 -0.21180069059E+01 -0.23558550541E+02  0.16580916601E+02  0.28886295231E+02  0.00000000000E+00 0.  1.
</event>
<event>
 8    1  0.2511738E-006  0.9118800E+02  0.7816164E-02  0.1184000E+00
        -11   -1    0    0    0    0  0.00000000000E+00  0.00000000000E+00  0.45593999997E+02  0.45594000000E+02  0.51100000000E-03 0.  1.
         11   -1    0    0    0    0 -0.00000000000E+00 -0.00000000000E+00 -0.45593999997E+02  0.45594000000E+02  0.51100000000E-03 0. -1.
         23    2    1    2    0    0  0.17763568394E-14 -0.71054273576E-14 -0.35527136788E-14  0.91188000000E+02  0.91188000000E+02 0.  0.
    9900012    2    3    3    0    0 -0.86542683854E+01  0.30104197227E+02  0.19355128945E+02  0.54367081103E+02  0.39999992990E+02 0.  0.
         12    1    3    3    0    0  0.86542683854E+01 -0.30104197227E+02 -0.19355128945E+02  0.36820918897E+02  0.00000000000E+00 0. -1.
         11    1    4    4    0    0 -0.76055489826E+01 -0.51675606225E+01  0.13142735526E+02  0.16039936268E+02  0.51100000000E-03 0. -1.
        -11    1    4    4    0    0  0.44328553676E+01  0.51425843344E+01 -0.10075796552E+01  0.68637888493E+01  0.51100000000E-03 0.  1.
        -12    1    4    4    0    0 -0.54815747704E+01  0.30129173515E+02  0.72199730745E+01  0.31463355985E+02  0.00000000000E+00 0.  1.
</event>
<event>
 8    1  0.2511738E-006  0.9118800E+02  0.7816164E-02  0.1184000E+00
        -11   -1    0    0    0    0  0.00000000000E+00  0.00000000000E+00  0.45593999997E+02  0.45594000000E+02  0.51100000000E-03 0.  1.
         11   -1    0    0    0    0 -0.00000000000E+00 -0.00000000000E+00 -0.45593999997E+02  0.45594000000E+02  0.51100000000E-03 0. -1.
         23    2    1    2    0    0  0.17763568394E-14  0.00000000000E+00  0.00000000000E+00  0.91188000000E+02  0.91188000000E+02 0.  0.
    9900012    2    3    3    0    0 -0.91649573813E+01 -0.98651631358E+01 -0.34270398294E+02  0.54367108013E+02  0.40000054336E+02 0.  0.
        -12    1    3    3    0    0  0.91649573813E+01  0.98651631358E+01  0.34270398294E+02  0.36820891987E+02  0.00000000000E+00 0.  1.
         11    1    4    4    0    0 -0.85176415648E+01  0.17807519255E+01 -0.13695156319E+02  0.16225862137E+02  0.51100000000E-03 0. -1.
        -11    1    4    4    0    0  0.13114140423E+02 -0.89078804538E+01 -0.17803408288E+02  0.23838883366E+02  0.51100000000E-03 0.  1.
         12    1    4    4    0    0 -0.13761456240E+02 -0.27380346075E+01 -0.27718336872E+01  0.14302362509E+02  0.00000000000E+00 0. -1.
</event>
<event>
 8    1  0.2511738E-006  0.9118800E+02  0.7816164E-02  0.1184000E+00
        -11   -1    0    0    0    0  0.00000000000E+00  0.00000000000E+00  0.45593999997E+02  0.45594000000E+02  0.51100000000E-03 0. -1.
         11   -1    0    0    0    0 -0.00000000000E+00 -0.00000000000E+00 -0.45593999997E+02  0.45594000000E+02  0.51100000000E-03 0.  1.
         23    2    1    2    0    0  0.17763568394E-14 -0.17763568394E-14  0.00000000000E+00  0.91188000000E+02  0.91188000000E+02 0.  0.
    9900012    2    3    3    0    0  0.98389852848E+01 -0.90579900186E+01 -0.34306375609E+02  0.54367079017E+02  0.39999988236E+02 0.  0.
         12    1    3    3    0    0 -0.98389852848E+01  0.90579900186E+01  0.34306375609E+02  0.36820920983E+02  0.00000000000E+00 0. -1.
         11    1    4    4    0    0 -0.56833699059E+01 -0.10184246934E+02 -0.98269245234E+00  0.11704070395E+02  0.51100000000E-03 0. -1.
        -11    1    4    4    0    0  0.16559295490E+01  0.97288258381E+01 -0.16495644737E+02  0.19222342480E+02  0.51100000000E-03 0.  1.
         12    1    4    4    0    0  0.13866425642E+02 -0.86025689223E+01 -0.16828038419E+02  0.23440666142E+02  0.00000000000E+00 0. -1.
</event>
<event>
 8    1  0.2511738E-006  0.9118800E+02  0.7816164E-02  0.1184000E+00
        -11   -1    0    0    0    0  0.00000000000E+00  0.00000000000E+00  0.45593999997E+02  0.45594000000E+02  0.51100000000E-03 0. -1.
         11   -1    0    0    0    0 -0.00000000000E+00 -0.00000000000E+00 -0.45593999997E+02  0.45594000000E+02  0.51100000000E-03 0.  1.
         23    2    1    2    0    0 -0.35527136788E-14  0.17763568394E-14 -0.35527136788E-14  0.91188000000E+02  0.91188000000E+02 0.  0.
    9900012    2    3    3    0    0  0.20513964784E+02 -0.93474683404E+01  0.29113232894E+02  0.54367105863E+02  0.40000049436E+02 0.  0.
        -12    1    3    3    0    0 -0.20513964784E+02  0.93474683404E+01 -0.29113232894E+02  0.36820894137E+02  0.00000000000E+00 0.  1.
         11    1    4    4    0    0  0.48072814533E+01  0.32938445455E+01  0.26154495138E+02  0.26795838913E+02  0.51100000000E-03 0. -1.
        -11    1    4    4    0    0  0.10791876411E+02 -0.68617357138E+01  0.10742501371E+02  0.16701776835E+02  0.51100000000E-03 0.  1.
        -12    1    4    4    0    0  0.49148069196E+01 -0.57795771721E+01 -0.77837636152E+01  0.10869490115E+02  0.00000000000E+00 0.  1.
</event>
<event>
 8    1  0.2511738E-006  0.9118800E+02  0.7816164E-02  0.1184000E+00
        -11   -1    0    0    0    0  0.00000000000E+00  0.00000000000E+00  0.45593999997E+02  0.45594000000E+02  0.51100000000E-03 0.  1.
         11   -1    0    0    0    0 -0.00000000000E+00 -0.00000000000E+00 -0.45593999997E+02  0.45594000000E+02  0.51100000000E-03 0. -1.
         23    2    1    2    0    0 -0.35527136788E-14  0.00000000000E+00  0.00000000000E+00  0.91188000000E+02  0.91188000000E+02 0.  0.
    9900012    2    3    3    0    0 -0.21329431967E+02 -0.28321700183E+02 -0.99355859657E+01  0.54367092383E+02  0.40000018706E+02 0.  0.
        -12    1    3    3    0    0  0.21329431967E+02  0.28321700183E+02  0.99355859657E+01  0.36820907617E+02  0.00000000000E+00 0.  1.
         11    1    4    4    0    0 -0.11023713328E+02 -0.20284218084E+02  0.10638314723E+01  0.23110679274E+02  0.51100000000E-03 0. -1.
        -11    1    4    4    0    0 -0.15126607772E+02  0.14212996135E+01 -0.13527870213E+02  0.20342999485E+02  0.51100000000E-03 0.  1.
        -12    1    4    4    0    0  0.48208891329E+01 -0.94587817118E+01  0.25284527754E+01  0.10913413625E+02  0.00000000000E+00 0.  1.
</event>
<event>
 8    1  0.2511738E-006  0.9118800E+02  0.7816164E-02  0.1184000E+00
        -11   -1    0    0    0    0  0.00000000000E+00  0.00000000000E+00  0.45593999997E+02  0.45594000000E+02  0.51100000000E-03 0.  1.
         11   -1    0    0    0    0 -0.00000000000E+00 -0.00000000000E+00 -0.45593999997E+02  0.45594000000E+02  0.51100000000E-03 0. -1.
         23    2    1    2    0    0  0.00000000000E+00  0.71054273576E-14  0.00000000000E+00  0.91188000000E+02  0.91188000000E+02 0.  0.
    9900012    2    3    3    0    0 -0.19741810898E+01 -0.21252973487E+02  0.30003218739E+02  0.54367090075E+02  0.40000013445E+02 0.  0.
         12    1    3    3    0    0  0.19741810898E+01  0.21252973487E+02 -0.30003218739E+02  0.36820909925E+02  0.00000000000E+00 0. -1.
         11    1    4    4    0    0 -0.41606184724E+01 -0.24062926397E+01 -0.57253359161E+01  0.74753235351E+01  0.51100000000E-03 0. -1.
        -11    1    4    4    0    0 -0.74380551085E+00  0.52382093743E+01  0.27882676544E+01  0.59805117558E+01  0.51100000000E-03 0.  1.
        -12    1    4    4    0    0  0.29302428934E+01 -0.24084890221E+02  0.32940287000E+02  0.40911254785E+02  0.00000000000E+00 0.  1.
</event>
<event>
 8    1  0.2511738E-006  0.9118800E+02  0.7816164E-02  0.1184000E+00
        -11   -1    0    0    0    0  0.00000000000E+00  0.00000000000E+00  0.45593999997E+02  0.45594000000E+02  0.51100000000E-03 0. -1.
         11   -1    0    0    0    0 -0.00000000000E+00 -0.00000000000E+00 -0.45593999997E+02  0.45594000000E+02  0.51100000000E-03 0.  1.
         23    2    1    2    0    0  0.00000000000E+00  0.17763568394E-14  0.00000000000E+00  0.91188000000E+02  0.91188000000E+02 0.  0.
    9900012    2    3    3    0    0  0.16015001716E+02  0.61429046846E+01  0.32581679784E+02  0.54367062811E+02  0.39999951291E+02 0.  0.
        -12    1    3    3    0    0 -0.16015001716E+02 -0.61429046846E+01 -0.32581679784E+02  0.36820937189E+02  0.00000000000E+00 0.  1.
         11    1    4    4    0    0  0.77001739062E+00 -0.81511855991E+00  0.34274696869E+02  0.34293034144E+02  0.51100000000E-03 0. -1.
        -11    1    4    4    0    0  0.99737956601E+01 -0.14410879500E+01 -0.55283490685E+00  0.10092520054E+02  0.51100000000E-03 0.  1.
        -12    1    4    4    0    0  0.52711886651E+01  0.83991111946E+01 -0.11401821787E+01  0.99815086135E+01  0.00000000000E+00 0.  1.
</event>
<event>
 8    1  0.2511738E-006  0.9118800E+02  0.7816164E-02  0.1184000E+00
        -11   -1    0    0    0    0  0.00000000000E+00  0.00000000000E+00  0.45593999997E+02  0.45594000000E+02  0.51100000000E-03 0. -1.
         11   -1    0    0    0    0 -0.00000000000E+00 -0.00000000000E+00 -0.45593999997E+02  0.45594000000E+02  0.51100000000E-03 0.  1.
         23    2    1    2    0    0 -0.88817841970E-15  0.00000000000E+00 -0.17763568394E-14  0.91188000000E+02  0.91188000000E+02 0.  0.
    9900012    2    3    3    0    0 -0.63667544153E+01 -0.34165752881E+02 -0.12163322501E+02  0.54367073260E+02  0.39999975111E+02 0.  0.
         12    1    3    3    0    0  0.63667544153E+01  0.34165752881E+02  0.12163322501E+02  0.36820926740E+02  0.00000000000E+00 0. -1.
         11    1    4    4    0    0  0.27117643903E+01 -0.22499663652E+01 -0.34963334621E+01  0.49639059915E+01  0.51100000000E-03 0. -1.
        -11    1    4    4    0    0  0.95793394845E+01 -0.21311037970E+02 -0.14067520915E+02  0.27273049505E+02  0.51100000000E-03 0.  1.
         12    1    4    4    0    0 -0.18657858290E+02 -0.10604748546E+02  0.54005318764E+01  0.22130117764E+02  0.00000000000E+00 0. -1.
</event>
<event>
 8    1  0.2511738E-006  0.9118800E+02  0.7816164E-02  0.1184000E+00
        -11   -1    0    0    0    0  0.00000000000E+00  0.00000000000E+00  0.45593999997E+02  0.45594000000E+02  0.51100000000E-03 0. -1.
         11   -1    0    0    0    0 -0.00000000000E+00 -0.00000000000E+00 -0.45593999997E+02  0.45594000000E+02  0.51100000000E-03 0.  1.
         23    2    1    2    0    0  0.00000000000E+00  0.00000000000E+00 -0.35527136788E-14  0.91188000000E+02  0.91188000000E+02 0.  0.
    9900012    2    3    3    0    0  0.29897851036E+02 -0.99691979320E+01 -0.19039789095E+02  0.54367082402E+02  0.39999995951E+02 0.  0.
        -12    1    3    3    0    0 -0.29897851036E+02  0.99691979320E+01  0.19039789095E+02  0.36820917598E+02  0.00000000000E+00 0.  1.
         11    1    4    4    0    0  0.84037364663E+01  0.95442276475E+00 -0.12462594885E+02  0.15061539793E+02  0.51100000000E-03 0. -1.
        -11    1    4    4    0    0  0.79497108987E+01  0.38432869943E+01  0.99704063385E+01  0.13318324261E+02  0.51100000000E-03 0.  1.
        -12    1    4    4    0    0  0.13544403671E+02 -0.14766907691E+02 -0.16547600549E+02  0.25987218349E+02  0.00000000000E+00 0.  1.
</event>
<event>
 8    1  0.2511738E-006  0.9118800E+02  0.7816164E-02  0.1184000E+00
        -11   -1    0    0    0    0  0.00000000000E+00  0.00000000000E+00  0.45593999997E+02  0.45594000000E+02  0.51100000000E-03 0. -1.
         11   -1    0    0    0    0 -0.00000000000E+00 -0.00000000000E+00 -0.45593999997E+02  0.45594000000E+02  0.51100000000E-03 0.  1.
         23    2    1    2    0    0  0.00000000000E+00 -0.35527136788E-14  0.00000000000E+00  0.91188000000E+02  0.91188000000E+02 0.  0.
    9900012    2    3    3    0    0 -0.97782245504E+01  0.17383490803E+02 -0.30951254462E+02  0.54367087727E+02  0.40000008091E+02 0.  0.
         12    1    3    3    0    0  0.97782245504E+01 -0.17383490803E+02  0.30951254462E+02  0.36820912273E+02  0.00000000000E+00 0. -1.
         11    1    4    4    0    0  0.53493513264E+01 -0.28112219807E+00 -0.60228978406E+01  0.80603900627E+01  0.51100000000E-03 0. -1.
        -11    1    4    4    0    0 -0.93069313746E+00  0.64328395366E+01 -0.27287571886E+02  0.28051010568E+02  0.51100000000E-03 0.  1.
         12    1    4    4    0    0 -0.14196882739E+02  0.11231773465E+02  0.23592152643E+01  0.18255687096E+02  0.00000000000E+00 0. -1.
</event>
<event>
 8    1  0.2511738E-006  0.9118800E+02  0.7816164E-02  0.1184000E+00
        -11   -1    0    0    0    0  0.00000000000E+00  0.00000000000E+00  0.45593999997E+02  0.45594000000E+02  0.51100000000E-03 0.  1.
         11   -1    0    0    0    0 -0.00000000000E+00 -0.00000000000E+00 -0.45593999997E+02  0.45594000000E+02  0.51100000000E-03 0. -1.
         23    2    1    2    0    0  0.00000000000E+00 -0.35527136788E-14 -0.35527136788E-14  0.91188000000E+02  0.91188000000E+02 0.  0.
    9900012    2    3    3    0    0 -0.13443395442E+02  0.16728585929E+02  0.29920046050E+02  0.54367087140E+02  0.40000006753E+02 0.  0.
         12    1    3    3    0    0  0.13443395442E+02 -0.16728585929E+02 -0.29920046050E+02  0.36820912860E+02  0.00000000000E+00 0. -1.
         11    1    4    4    0    0 -0.32845385554E+01  0.47871118785E-01 -0.77983926166E+01  0.84619981583E+01  0.51100000000E-03 0. -1.
        -11    1    4    4    0    0 -0.11890905004E+02  0.70048522605E+01  0.11703820938E+02  0.18095330940E+02  0.51100000000E-03 0.  1.
        -12    1    4    4    0    0  0.17320481178E+01  0.96758625493E+01  0.26014617729E+02  0.27809758042E+02  0.00000000000E+00 0.  1.
</event>
<event>
 8    1  0.2511738E-006  0.9118800E+02  0.7816164E-02  0.1184000E+00
        -11   -1    0    0    0    0  0.00000000000E+00  0.00000000000E+00  0.45593999997E+02  0.45594000000E+02  0.51100000000E-03 0.  1.
         11   -1    0    0    0    0 -0.00000000000E+00 -0.00000000000E+00 -0.45593999997E+02  0.45594000000E+02  0.51100000000E-03 0. -1.
         23    2    1    2    0    0  0.00000000000E+00 -0.13322676296E-14  0.35527136788E-14  0.91188000000E+02  0.91188000000E+02 0.  0.
    9900012    2    3    3    0    0  0.35761925528E+02  0.30279426005E+01 -0.82278213462E+01  0.54367071196E+02  0.39999970406E+02 0.  0.
        -12    1    3    3    0    0 -0.35761925528E+02 -0.30279426005E+01  0.82278213462E+01  0.36820928804E+02  0.00000000000E+00 0.  1.
         11    1    4    4    0    0  0.13719097470E+02 -0.63475524747E-01  0.88503574897E+01  0.16326251636E+02  0.51100000000E-03 0. -1.
        -11    1    4    4    0    0  0.75612478805E+01  0.13840438737E+02 -0.99544532880E+01  0.18649969289E+02  0.51100000000E-03 0.  1.
         12    1    4    4    0    0  0.14481580178E+02 -0.10749020612E+02 -0.71237255479E+01  0.19390850271E+02  0.00000000000E+00 0. -1.
</event>
<event>
 8    1  0.2511738E-006  0.9118800E+02  0.7816164E-02  0.1184000E+00
        -11   -1    0    0    0    0  0.00000000000E+00  0.00000000000E+00  0.45593999997E+02  0.45594000000E+02  0.51100000000E-03 0.  1.
         11   -1    0    0    0    0 -0.00000000000E+00 -0.00000000000E+00 -0.45593999997E+02  0.45594000000E+02  0.51100000000E-03 0. -1.
         23    2    1    2    0    0  0.00000000000E+00  0.71054273576E-14  0.13322676296E-14  0.91188000000E+02  0.91188000000E+02 0.  0.
    9900012    2    3    3    0    0 -0.47711607484E+01  0.36360714663E+02  0.33036652414E+01  0.54367085431E+02  0.40000002856E+02 0.  0.
         12    1    3    3    0    0  0.47711607484E+01 -0.36360714663E+02 -0.33036652414E+01  0.36820914569E+02  0.00000000000E+00 0. -1.
         11    1    4    4    0    0 -0.89372222784E+01  0.52301010001E+01 -0.11495490586E+02  0.15471722677E+02  0.51100000000E-03 0. -1.
        -11    1    4    4    0    0  0.12665747457E+01  0.12182926838E+02  0.15449776832E+02  0.19716072691E+02  0.51100000000E-03 0.  1.
         12    1    4    4    0    0  0.28994867844E+01  0.18947686824E+02 -0.65062100523E+00  0.19179290062E+02  0.00000000000E+00 0. -1.
</event>
<event>
 8    1  0.2511738E-006  0.9118800E+02  0.7816164E-02  0.1184000E+00
        -11   -1    0    0    0    0  0.00000000000E+00  0.00000000000E+00  0.45593999997E+02  0.45594000000E+02  0.51100000000E-03 0.  1.
         11   -1    0    0    0    0 -0.00000000000E+00 -0.00000000000E+00 -0.45593999997E+02  0.45594000000E+02  0.51100000000E-03 0. -1.
         23    2    1    2    0    0 -0.71054273576E-14 -0.17763568394E-14  0.17763568394E-14  0.91188000000E+02  0.91188000000E+02 0.  0.
    9900012    2    3    3    0    0  0.32618977345E+02  0.14689058625E+02 -0.87186519610E+01  0.54367068204E+02  0.39999963584E+02 0.  0.
        -12    1    3    3    0    0 -0.32618977345E+02 -0.14689058625E+02  0.87186519610E+01  0.36820931796E+02  0.00000000000E+00 0.  1.
         11    1    4    4    0    0  0.66648736676E+00  0.65889594199E+01 -0.23021784413E+01  0.70113206662E+01  0.51100000000E-03 0.  1.
        -11    1    4    4    0    0  0.14881311933E+01 -0.45488219964E+01  0.95699996057E+01  0.10700056482E+02  0.51100000000E-03 0. -1.
         12    1    4    4    0    0  0.30464358785E+02  0.12648921201E+02 -0.15986473125E+02  0.36655691055E+02  0.00000000000E+00 0. -1.
</event>
<event>
 8    1  0.2511738E-006  0.9118800E+02  0.7816164E-02  0.1184000E+00
        -11   -1    0    0    0    0  0.00000000000E+00  0.00000000000E+00  0.45593999997E+02  0.45594000000E+02  0.51100000000E-03 0. -1.
         11   -1    0    0    0    0 -0.00000000000E+00 -0.00000000000E+00 -0.45593999997E+02  0.45594000000E+02  0.51100000000E-03 0.  1.
         23    2    1    2    0    0 -0.88817841970E-15 -0.35527136788E-14  0.00000000000E+00  0.91188000000E+02  0.91188000000E+02 0.  0.
    9900012    2    3    3    0    0 -0.22901700465E+01 -0.30959917198E+02 -0.19799494537E+02  0.54367063895E+02  0.39999953761E+02 0.  0.
         12    1    3    3    0    0  0.22901700465E+01  0.30959917198E+02  0.19799494537E+02  0.36820936105E+02  0.00000000000E+00 0. -1.
         11    1    4    4    0    0  0.54157416358E+01 -0.28293533865E+01  0.50984091353E+00  0.61315117279E+01  0.51100000000E-03 0. -1.
        -11    1    4    4    0    0  0.10900374128E+02 -0.12781503492E+02 -0.16982324063E+02  0.23886906842E+02  0.51100000000E-03 0.  1.
        -12    1    4    4    0    0 -0.18606285811E+02 -0.15349060320E+02 -0.33270113878E+01  0.24348645325E+02  0.00000000000E+00 0.  1.
</event>
<event>
 8    1  0.2511738E-006  0.9118800E+02  0.7816164E-02  0.1184000E+00
        -11   -1    0    0    0    0  0.00000000000E+00  0.00000000000E+00  0.45593999997E+02  0.45594000000E+02  0.51100000000E-03 0. -1.
         11   -1    0    0    0    0 -0.00000000000E+00 -0.00000000000E+00 -0.45593999997E+02  0.45594000000E+02  0.51100000000E-03 0.  1.
         23    2    1    2    0    0  0.00000000000E+00 -0.35527136788E-14  0.00000000000E+00  0.91188000000E+02  0.91188000000E+02 0.  0.
    9900012    2    3    3    0    0 -0.24071157806E+02  0.22946851325E+02  0.15805124594E+02  0.54367074057E+02  0.39999976929E+02 0.  0.
        -12    1    3    3    0    0  0.24071157806E+02 -0.22946851325E+02 -0.15805124594E+02  0.36820925943E+02  0.00000000000E+00 0.  1.
         11    1    4    4    0    0  0.26628946207E+01 -0.30945839981E+01 -0.26390081847E+01  0.48612572800E+01  0.51100000000E-03 0. -1.
        -11    1    4    4    0    0 -0.67614121048E+01  0.23386914880E+02  0.16179175520E+02  0.29230638071E+02  0.51100000000E-03 0.  1.
        -12    1    4    4    0    0 -0.19972640322E+02  0.26545204428E+01  0.22649572585E+01  0.20275178706E+02  0.00000000000E+00 0.  1.
</event>
<event>
 8    1  0.2511738E-006  0.9118800E+02  0.7816164E-02  0.1184000E+00
        -11   -1    0    0    0    0  0.00000000000E+00  0.00000000000E+00  0.45593999997E+02  0.45594000000E+02  0.51100000000E-03 0. -1.
         11   -1    0    0    0    0 -0.00000000000E+00 -0.00000000000E+00 -0.45593999997E+02  0.45594000000E+02  0.51100000000E-03 0.  1.
         23    2    1    2    0    0  0.00000000000E+00  0.00000000000E+00 -0.17763568394E-14  0.91188000000E+02  0.91188000000E+02 0.  0.
    9900012    2    3    3    0    0 -0.22814522861E+02  0.24168581116E+02 -0.15847910612E+02  0.54367095105E+02  0.40000024911E+02 0.  0.
         12    1    3    3    0    0  0.22814522861E+02 -0.24168581116E+02  0.15847910612E+02  0.36820904895E+02  0.00000000000E+00 0. -1.
         11    1    4    4    0    0 -0.10887963387E+01  0.68477409537E+01  0.91116119299E+01  0.11449825582E+02  0.51100000000E-03 0. -1.
        -11    1    4    4    0    0 -0.13418328607E+02 -0.22573724694E+01 -0.87643534629E+01  0.16185214393E+02  0.51100000000E-03 0.  1.
         12    1    4    4    0    0 -0.83073979149E+01  0.19578212632E+02 -0.16195169079E+02  0.26732055130E+02  0.00000000000E+00 0. -1.
</event>
<event>
 8    1  0.2511738E-006  0.9118800E+02  0.7816164E-02  0.1184000E+00
        -11   -1    0    0    0    0  0.00000000000E+00  0.00000000000E+00  0.45593999997E+02  0.45594000000E+02  0.51100000000E-03 0.  1.
         11   -1    0    0    0    0 -0.00000000000E+00 -0.00000000000E+00 -0.45593999997E+02  0.45594000000E+02  0.51100000000E-03 0. -1.
         23    2    1    2    0    0  0.17763568394E-14  0.00000000000E+00  0.00000000000E+00  0.91188000000E+02  0.91188000000E+02 0.  0.
    9900012    2    3    3    0    0  0.82318411831E+01  0.29170639969E+02 -0.20906733769E+02  0.54367068964E+02  0.39999965317E+02 0.  0.
        -12    1    3    3    0    0 -0.82318411831E+01 -0.29170639969E+02  0.20906733769E+02  0.36820931036E+02  0.00000000000E+00 0.  1.
         11    1    4    4    0    0 -0.10767322919E+00  0.15306777441E+01 -0.11241348862E+02  0.11345593523E+02  0.51100000000E-03 0. -1.
        -11    1    4    4    0    0  0.10647472822E+02  0.19137720148E+02  0.79720885019E+01  0.23306119482E+02  0.51100000000E-03 0.  1.
        -12    1    4    4    0    0 -0.23079584096E+01  0.85022420775E+01 -0.17637473409E+02  0.19715355960E+02  0.00000000000E+00 0.  1.
</event>
<event>
 8    1  0.2511738E-006  0.9118800E+02  0.7816164E-02  0.1184000E+00
        -11   -1    0    0    0    0  0.00000000000E+00  0.00000000000E+00  0.45593999997E+02  0.45594000000E+02  0.51100000000E-03 0.  1.
         11   -1    0    0    0    0 -0.00000000000E+00 -0.00000000000E+00 -0.45593999997E+02  0.45594000000E+02  0.51100000000E-03 0. -1.
         23    2    1    2    0    0  0.00000000000E+00  0.00000000000E+00 -0.71054273576E-14  0.91188000000E+02  0.91188000000E+02 0.  0.
    9900012    2    3    3    0    0  0.54657835427E+01 -0.74849885787E+01 -0.35635381723E+02  0.54367078308E+02  0.39999986618E+02 0.  0.
        -12    1    3    3    0    0 -0.54657835427E+01  0.74849885787E+01  0.35635381723E+02  0.36820921692E+02  0.00000000000E+00 0.  1.
         11    1    4    4    0    0 -0.74358652284E+01  0.75398001951E+01 -0.20799642371E+02  0.23340218544E+02  0.51100000000E-03 0. -1.
        -11    1    4    4    0    0 -0.22529637744E+00  0.30079145928E+01  0.15108213637E+01  0.33735574857E+01  0.51100000000E-03 0.  1.
         12    1    4    4    0    0  0.13126945149E+02 -0.18032703367E+02 -0.16346560715E+02  0.27653302278E+02  0.00000000000E+00 0. -1.
</event>
<event>
 8    1  0.2511738E-006  0.9118800E+02  0.7816164E-02  0.1184000E+00
        -11   -1    0    0    0    0  0.00000000000E+00  0.00000000000E+00  0.45593999997E+02  0.45594000000E+02  0.51100000000E-03 0.  1.
         11   -1    0    0    0    0 -0.00000000000E+00 -0.00000000000E+00 -0.45593999997E+02  0.45594000000E+02  0.51100000000E-03 0. -1.
         23    2    1    2    0    0  0.00000000000E+00  0.00000000000E+00 -0.44408920985E-15  0.91188000000E+02  0.91188000000E+02 0.  0.
    9900012    2    3    3    0    0 -0.88804892525E+01 -0.35651686653E+02  0.24237149160E+01  0.54367078711E+02  0.39999987537E+02 0.  0.
         12    1    3    3    0    0  0.88804892525E+01  0.35651686653E+02 -0.24237149160E+01  0.36820921289E+02  0.00000000000E+00 0. -1.
         11    1    4    4    0    0 -0.42898759960E+01 -0.14361182091E+02 -0.10517014499E+02  0.18309947607E+02  0.51100000000E-03 0. -1.
        -11    1    4    4    0    0 -0.52210906004E+01 -0.23069177848E+02  0.69081414125E+00  0.23662712822E+02  0.51100000000E-03 0.  1.
        -12    1    4    4    0    0  0.63047734398E+00  0.17786732860E+01  0.12249915274E+02  0.12394418283E+02  0.00000000000E+00 0.  1.
</event>
<event>
 8    1  0.2511738E-006  0.9118800E+02  0.7816164E-02  0.1184000E+00
        -11   -1    0    0    0    0  0.00000000000E+00  0.00000000000E+00  0.45593999997E+02  0.45594000000E+02  0.51100000000E-03 0. -1.
         11   -1    0    0    0    0 -0.00000000000E+00 -0.00000000000E+00 -0.45593999997E+02  0.45594000000E+02  0.51100000000E-03 0.  1.
         23    2    1    2    0    0  0.00000000000E+00 -0.35527136788E-14 -0.35527136788E-14  0.91188000000E+02  0.91188000000E+02 0.  0.
    9900012    2    3    3    0    0 -0.23043313178E+02  0.11308454482E+02  0.26398958259E+02  0.54367076299E+02  0.39999982039E+02 0.  0.
        -12    1    3    3    0    0  0.23043313178E+02 -0.11308454482E+02 -0.26398958259E+02  0.36820923701E+02  0.00000000000E+00 0.  1.
         11    1    4    4    0    0 -0.17940035836E+02  0.12384799008E+02  0.19193430854E+02  0.29045067059E+02  0.51100000000E-03 0. -1.
        -11    1    4    4    0    0 -0.11734548308E+02 -0.80453521954E+01  0.65976901465E+01  0.15683010918E+02  0.51100000000E-03 0.  1.
        -12    1    4    4    0    0  0.66312709656E+01  0.69690076697E+01  0.60783725934E+00  0.96389983221E+01  0.00000000000E+00 0.  1.
</event>
<event>
 8    1  0.2511738E-006  0.9118800E+02  0.7816164E-02  0.1184000E+00
        -11   -1    0    0    0    0  0.00000000000E+00  0.00000000000E+00  0.45593999997E+02  0.45594000000E+02  0.51100000000E-03 0. -1.
         11   -1    0    0    0    0 -0.00000000000E+00 -0.00000000000E+00 -0.45593999997E+02  0.45594000000E+02  0.51100000000E-03 0.  1.
         23    2    1    2    0    0  0.00000000000E+00  0.88817841970E-15  0.00000000000E+00  0.91188000000E+02  0.91188000000E+02 0.  0.
    9900012    2    3    3    0    0  0.35725142363E+02 -0.28245637090E+01  0.84566963721E+01  0.54367086506E+02  0.40000005309E+02 0.  0.
         12    1    3    3    0    0 -0.35725142363E+02  0.28245637090E+01 -0.84566963721E+01  0.36820913494E+02  0.00000000000E+00 0. -1.
         11    1    4    4    0    0  0.24212212107E+00 -0.21561064487E+01  0.12692207310E+02  0.12876317206E+02  0.51100000000E-03 0. -1.
        -11    1    4    4    0    0  0.24898156447E+02 -0.88263991127E+01 -0.80101812165E+01  0.27604103303E+02  0.51100000000E-03 0.  1.
        -12    1    4    4    0    0  0.10584863794E+02  0.81579418525E+01  0.37746702790E+01  0.13886665997E+02  0.00000000000E+00 0.  1.
</event>
<event>
 8    1  0.2511738E-006  0.9118800E+02  0.7816164E-02  0.1184000E+00
        -11   -1    0    0    0    0  0.00000000000E+00  0.00000000000E+00  0.45593999997E+02  0.45594000000E+02  0.51100000000E-03 0. -1.
         11   -1    0    0    0    0 -0.00000000000E+00 -0.00000000000E+00 -0.45593999997E+02  0.45594000000E+02  0.51100000000E-03 0.  1.
         23    2    1    2    0    0  0.00000000000E+00 -0.53290705182E-14  0.00000000000E+00  0.91188000000E+02  0.91188000000E+02 0.  0.
    9900012    2    3    3    0    0  0.20692449887E+02 -0.83406749574E+01  0.29292283997E+02  0.54367051576E+02  0.39999925678E+02 0.  0.
        -12    1    3    3    0    0 -0.20692449887E+02  0.83406749574E+01 -0.29292283997E+02  0.36820948424E+02  0.00000000000E+00 0.  1.
         11    1    4    4    0    0  0.22799893532E+01  0.11144528956E+02  0.11046207111E+02  0.15856152399E+02  0.51100000000E-03 0. -1.
        -11    1    4    4    0    0 -0.12729180630E+01 -0.52332514431E+00 -0.33852437764E+01  0.36543214539E+01  0.51100000000E-03 0.  1.
         12    1    4    4    0    0  0.19685378597E+02 -0.18961878769E+02  0.21631320663E+02  0.34856577723E+02  0.00000000000E+00 0. -1.
</event>
<event>
 8    1  0.2511738E-006  0.9118800E+02  0.7816164E-02  0.1184000E+00
        -11   -1    0    0    0    0  0.00000000000E+00  0.00000000000E+00  0.45593999997E+02  0.45594000000E+02  0.51100000000E-03 0.  1.
         11   -1    0    0    0    0 -0.00000000000E+00 -0.00000000000E+00 -0.45593999997E+02  0.45594000000E+02  0.51100000000E-03 0. -1.
         23    2    1    2    0    0 -0.35527136788E-14  0.00000000000E+00 -0.17763568394E-14  0.91188000000E+02  0.91188000000E+02 0.  0.
    9900012    2    3    3    0    0 -0.29132313094E+02  0.19381500428E+02 -0.11464932273E+02  0.54367097009E+02  0.40000029251E+02 0.  0.
        -12    1    3    3    0    0  0.29132313094E+02 -0.19381500428E+02  0.11464932273E+02  0.36820902991E+02  0.00000000000E+00 0.  1.
         11    1    4    4    0    0 -0.31809646881E+02  0.63904293271E+01 -0.16409649947E+02  0.36358875578E+02  0.51100000000E-03 0. -1.
        -11    1    4    4    0    0  0.58673858198E+01  0.90905383587E+01 -0.18011411767E+00  0.10821115717E+02  0.51100000000E-03 0.  1.
         12    1    4    4    0    0 -0.31900520327E+01  0.39005327424E+01  0.51248317915E+01  0.71871057135E+01  0.00000000000E+00 0. -1.
</event>
<event>
 8    1  0.2511738E-006  0.9118800E+02  0.7816164E-02  0.1184000E+00
        -11   -1    0    0    0    0  0.00000000000E+00  0.00000000000E+00  0.45593999997E+02  0.45594000000E+02  0.51100000000E-03 0.  1.
         11   -1    0    0    0    0 -0.00000000000E+00 -0.00000000000E+00 -0.45593999997E+02  0.45594000000E+02  0.51100000000E-03 0. -1.
         23    2    1    2    0    0  0.35527136788E-14 -0.33306690739E-15  0.35527136788E-14  0.91188000000E+02  0.91188000000E+02 0.  0.
    9900012    2    3    3    0    0 -0.29582590267E+02  0.44770015859E+00  0.21919167520E+02  0.54367082207E+02  0.39999995507E+02 0.  0.
         12    1    3    3    0    0  0.29582590267E+02 -0.44770015859E+00 -0.21919167520E+02  0.36820917793E+02  0.00000000000E+00 0. -1.
         11    1    4    4    0    0  0.86100793694E+00  0.88062419193E+01  0.18486450869E+02  0.20494879785E+02  0.51100000000E-03 0. -1.
        -11    1    4    4    0    0 -0.26161639707E+01  0.53430201064E+00  0.38140937552E+01  0.46558676951E+01  0.51100000000E-03 0.  1.
        -12    1    4    4    0    0 -0.27827434234E+02 -0.88928437713E+01 -0.38137710428E+00  0.29216334727E+02  0.00000000000E+00 0.  1.
</event>
<event>
 8    1  0.2511738E-006  0.9118800E+02  0.7816164E-02  0.1184000E+00
        -11   -1    0    0    0    0  0.00000000000E+00  0.00000000000E+00  0.45593999997E+02  0.45594000000E+02  0.51100000000E-03 0. -1.
         11   -1    0    0    0    0 -0.00000000000E+00 -0.00000000000E+00 -0.45593999997E+02  0.45594000000E+02  0.51100000000E-03 0.  1.
         23    2    1    2    0    0  0.35527136788E-14  0.00000000000E+00  0.00000000000E+00  0.91188000000E+02  0.91188000000E+02 0.  0.
    9900012    2    3    3    0    0  0.26831016541E+02  0.69402074891E+01  0.24242750090E+02  0.54367070346E+02  0.39999968468E+02 0.  0.
        -12    1    3    3    0    0 -0.26831016541E+02 -0.69402074891E+01 -0.24242750090E+02  0.36820929654E+02  0.00000000000E+00 0.  1.
         11    1    4    4    0    0  0.12456198034E+02  0.13578794967E+02  0.10422196808E+01  0.18456076624E+02  0.51100000000E-03 0. -1.
        -11    1    4    4    0    0  0.14104569474E+02  0.97238733637E+00  0.31805520579E+01  0.14491388092E+02  0.51100000000E-03 0.  1.
        -12    1    4    4    0    0  0.27024903319E+00 -0.76109748141E+01  0.20019978351E+02  0.21419605630E+02  0.00000000000E+00 0.  1.
</event>
<event>
 8    1  0.2511738E-006  0.9118800E+02  0.7816164E-02  0.1184000E+00
        -11   -1    0    0    0    0  0.00000000000E+00  0.00000000000E+00  0.45593999997E+02  0.45594000000E+02  0.51100000000E-03 0.  1.
         11   -1    0    0    0    0 -0.00000000000E+00 -0.00000000000E+00 -0.45593999997E+02  0.45594000000E+02  0.51100000000E-03 0. -1.
         23    2    1    2    0    0  0.00000000000E+00  0.35527136788E-14  0.00000000000E+00  0.91188000000E+02  0.91188000000E+02 0.  0.
    9900012    2    3    3    0    0  0.16105999940E+02  0.25420277707E+02  0.21217605024E+02  0.54367075029E+02  0.39999979144E+02 0.  0.
         12    1    3    3    0    0 -0.16105999940E+02 -0.25420277707E+02 -0.21217605024E+02  0.36820924971E+02  0.00000000000E+00 0. -1.
         11    1    4    4    0    0  0.11302590942E+02  0.18985623814E+02  0.33130905040E+01  0.22342315067E+02  0.51100000000E-03 0. -1.
        -11    1    4    4    0    0 -0.18662499460E+01  0.11402474591E+02  0.20310741924E+02  0.23367189677E+02  0.51100000000E-03 0.  1.
        -12    1    4    4    0    0  0.66696589435E+01 -0.49678206983E+01 -0.24062274042E+01  0.86575702846E+01  0.00000000000E+00 0.  1.
</event>
<event>
 8    1  0.2511738E-006  0.9118800E+02  0.7816164E-02  0.1184000E+00
        -11   -1    0    0    0    0  0.00000000000E+00  0.00000000000E+00  0.45593999997E+02  0.45594000000E+02  0.51100000000E-03 0.  1.
         11   -1    0    0    0    0 -0.00000000000E+00 -0.00000000000E+00 -0.45593999997E+02  0.45594000000E+02  0.51100000000E-03 0. -1.
         23    2    1    2    0    0  0.00000000000E+00 -0.88817841970E-15  0.00000000000E+00  0.91188000000E+02  0.91188000000E+02 0.  0.
    9900012    2    3    3    0    0  0.27473119797E+02 -0.46132659177E+01 -0.24077479802E+02  0.54367087906E+02  0.40000008500E+02 0.  0.
        -12    1    3    3    0    0 -0.27473119797E+02  0.46132659177E+01  0.24077479802E+02  0.36820912094E+02  0.00000000000E+00 0.  1.
         11    1    4    4    0    0  0.22877490745E+02 -0.26463648199E+01 -0.11204533326E+01  0.23057281832E+02  0.51100000000E-03 0. -1.
        -11    1    4    4    0    0  0.71519772729E+01 -0.12452395936E+01  0.89123123502E+00  0.73140750565E+01  0.51100000000E-03 0.  1.
        -12    1    4    4    0    0 -0.25563482211E+01 -0.72166150411E+00 -0.23848257704E+02  0.23995731018E+02  0.00000000000E+00 0.  1.
</event>
<event>
 8    1  0.2511738E-006  0.9118800E+02  0.7816164E-02  0.1184000E+00
        -11   -1    0    0    0    0  0.00000000000E+00  0.00000000000E+00  0.45593999997E+02  0.45594000000E+02  0.51100000000E-03 0.  1.
         11   -1    0    0    0    0 -0.00000000000E+00 -0.00000000000E+00 -0.45593999997E+02  0.45594000000E+02  0.51100000000E-03 0. -1.
         23    2    1    2    0    0  0.71054273576E-14  0.00000000000E+00  0.17763568394E-14  0.91188000000E+02  0.91188000000E+02 0.  0.
    9900012    2    3    3    0    0 -0.34295913261E+02 -0.12709964926E+02  0.42459276225E+01  0.54367071492E+02  0.39999971080E+02 0.  0.
         12    1    3    3    0    0  0.34295913261E+02  0.12709964926E+02 -0.42459276225E+01  0.36820928508E+02  0.00000000000E+00 0. -1.
         11    1    4    4    0    0 -0.32845231818E+01 -0.60306577824E+01  0.36448491250E+00  0.68767561636E+01  0.51100000000E-03 0. -1.
        -11    1    4    4    0    0 -0.39887765702E+01 -0.43237359517E+01  0.16541419989E+02  0.17556298204E+02  0.51100000000E-03 0.  1.
         12    1    4    4    0    0 -0.27022613509E+02 -0.23555711914E+01 -0.12659977279E+02  0.29934017124E+02  0.00000000000E+00 0. -1.
</event>
<event>
 8    1  0.2511738E-006  0.9118800E+02  0.7816164E-02  0.1184000E+00
        -11   -1    0    0    0    0  0.00000000000E+00  0.00000000000E+00  0.45593999997E+02  0.45594000000E+02  0.51100000000E-03 0.  1.
         11   -1    0    0    0    0 -0.00000000000E+00 -0.00000000000E+00 -0.45593999997E+02  0.45594000000E+02  0.51100000000E-03 0. -1.
         23    2    1    2    0    0  0.00000000000E+00  0.88817841970E-15  0.35527136788E-14  0.91188000000E+02  0.91188000000E+02 0.  0.
    9900012    2    3    3    0    0  0.21087515797E+02 -0.25008730571E+01 -0.30080607499E+02  0.54367073395E+02  0.39999975419E+02 0.  0.
        -12    1    3    3    0    0 -0.21087515797E+02  0.25008730571E+01  0.30080607499E+02  0.36820926605E+02  0.00000000000E+00 0.  1.
         11    1    4    4    0    0  0.23117621013E+01  0.10532768925E+02 -0.98913134648E+01  0.14632892659E+02  0.51100000000E-03 0. -1.
        -11    1    4    4    0    0  0.74261557161E+01 -0.23073471741E+00  0.52351965805E+01  0.90889114159E+01  0.51100000000E-03 0.  1.
        -12    1    4    4    0    0  0.11349597980E+02 -0.12802907265E+02 -0.25424490615E+02  0.30645269321E+02  0.00000000000E+00 0.  1.
</event>
<event>
 8    1  0.2511738E-006  0.9118800E+02  0.7816164E-02  0.1184000E+00
        -11   -1    0    0    0    0  0.00000000000E+00  0.00000000000E+00  0.45593999997E+02  0.45594000000E+02  0.51100000000E-03 0.  1.
         11   -1    0    0    0    0 -0.00000000000E+00 -0.00000000000E+00 -0.45593999997E+02  0.45594000000E+02  0.51100000000E-03 0. -1.
         23    2    1    2    0    0 -0.17763568394E-14  0.00000000000E+00  0.00000000000E+00  0.91188000000E+02  0.91188000000E+02 0.  0.
    9900012    2    3    3    0    0  0.15325695387E+02  0.25932663384E+02  0.21175450934E+02  0.54367086221E+02  0.40000004659E+02 0.  0.
         12    1    3    3    0    0 -0.15325695387E+02 -0.25932663384E+02 -0.21175450934E+02  0.36820913779E+02  0.00000000000E+00 0. -1.
         11    1    4    4    0    0  0.10888936900E+02  0.87320703554E+01 -0.77186846401E+01  0.15949799131E+02  0.51100000000E-03 0. -1.
        -11    1    4    4    0    0  0.11506800887E+02  0.10495863124E+02  0.17786208887E+02  0.23641464341E+02  0.51100000000E-03 0.  1.
         12    1    4    4    0    0 -0.70700423997E+01  0.67047299046E+01  0.11107926686E+02  0.14775822749E+02  0.00000000000E+00 0. -1.
</event>
<event>
 8    1  0.2511738E-006  0.9118800E+02  0.7816164E-02  0.1184000E+00
        -11   -1    0    0    0    0  0.00000000000E+00  0.00000000000E+00  0.45593999997E+02  0.45594000000E+02  0.51100000000E-03 0.  1.
         11   -1    0    0    0    0 -0.00000000000E+00 -0.00000000000E+00 -0.45593999997E+02  0.45594000000E+02  0.51100000000E-03 0. -1.
         23    2    1    2    0    0  0.00000000000E+00 -0.24424906542E-14 -0.35527136788E-14  0.91188000000E+02  0.91188000000E+02 0.  0.
    9900012    2    3    3    0    0 -0.21433335449E+02  0.67724411898E+00 -0.29932137153E+02  0.54367090687E+02  0.40000014840E+02 0.  0.
        -12    1    3    3    0    0  0.21433335449E+02 -0.67724411898E+00  0.29932137153E+02  0.36820909313E+02  0.00000000000E+00 0.  1.
         11    1    4    4    0    0 -0.92800479285E+01 -0.14110293952E+02 -0.25798890478E+02  0.30835084484E+02  0.51100000000E-03 0. -1.
        -11    1    4    4    0    0 -0.99452549773E+01  0.34863768778E+01  0.16157557538E+01  0.10661781615E+02  0.51100000000E-03 0.  1.
         12    1    4    4    0    0 -0.22080325430E+01  0.11301161193E+02 -0.57490024288E+01  0.12870224588E+02  0.00000000000E+00 0. -1.
</event>
<event>
 8    1  0.2511738E-006  0.9118800E+02  0.7816164E-02  0.1184000E+00
        -11   -1    0    0    0    0  0.00000000000E+00  0.00000000000E+00  0.45593999997E+02  0.45594000000E+02  0.51100000000E-03 0. -1.
         11   -1    0    0    0    0 -0.00000000000E+00 -0.00000000000E+00 -0.45593999997E+02  0.45594000000E+02  0.51100000000E-03 0.  1.
         23    2    1    2    0    0  0.00000000000E+00 -0.26645352591E-14  0.00000000000E+00  0.91188000000E+02  0.91188000000E+02 0.  0.
    9900012    2    3    3    0    0  0.32207738475E+02 -0.55755272807E+01 -0.16951839051E+02  0.54366949372E+02  0.39999692683E+02 0.  0.
         12    1    3    3    0    0 -0.32207738475E+02  0.55755272807E+01  0.16951839051E+02  0.36821050628E+02  0.00000000000E+00 0. -1.
         11    1    4    4    0    0  0.25565576536E+02  0.95326885052E+01 -0.14628212704E+02  0.30958931844E+02  0.51100000000E-03 0. -1.
        -11    1    4    4    0    0  0.98772119099E+01 -0.14231603320E+02 -0.60933474473E+01  0.18363734139E+02  0.51100000000E-03 0.  1.
         12    1    4    4    0    0 -0.32350499718E+01 -0.87661246592E+00  0.37697210996E+01  0.50442833885E+01  0.00000000000E+00 0. -1.
</event>
<event>
 8    1  0.2511738E-006  0.9118800E+02  0.7816164E-02  0.1184000E+00
        -11   -1    0    0    0    0  0.00000000000E+00  0.00000000000E+00  0.45593999997E+02  0.45594000000E+02  0.51100000000E-03 0.  1.
         11   -1    0    0    0    0 -0.00000000000E+00 -0.00000000000E+00 -0.45593999997E+02  0.45594000000E+02  0.51100000000E-03 0. -1.
         23    2    1    2    0    0 -0.71054273576E-14  0.00000000000E+00  0.00000000000E+00  0.91188000000E+02  0.91188000000E+02 0.  0.
    9900012    2    3    3    0    0 -0.35101065422E+02  0.81860856513E+01  0.75288595274E+01  0.54367075000E+02  0.39999979078E+02 0.  0.
        -12    1    3    3    0    0  0.35101065422E+02 -0.81860856513E+01 -0.75288595274E+01  0.36820925000E+02  0.00000000000E+00 0.  1.
         11    1    4    4    0    0  0.17197065428E+01 -0.26044392475E+01 -0.80070722514E+00  0.32220531822E+01  0.51100000000E-03 0. -1.
        -11    1    4    4    0    0  0.41571555122E+01  0.44724953819E+01 -0.46760865385E+01  0.76909649896E+01  0.51100000000E-03 0.  1.
         12    1    4    4    0    0 -0.40977927477E+02  0.63180295169E+01  0.13005653291E+02  0.43454056828E+02  0.00000000000E+00 0. -1.
</event>
<event>
 8    1  0.2511738E-006  0.9118800E+02  0.7816164E-02  0.1184000E+00
        -11   -1    0    0    0    0  0.00000000000E+00  0.00000000000E+00  0.45593999997E+02  0.45594000000E+02  0.51100000000E-03 0. -1.
         11   -1    0    0    0    0 -0.00000000000E+00 -0.00000000000E+00 -0.45593999997E+02  0.45594000000E+02  0.51100000000E-03 0.  1.
         23    2    1    2    0    0 -0.35527136788E-14  0.22204460493E-15  0.00000000000E+00  0.91188000000E+02  0.91188000000E+02 0.  0.
    9900012    2    3    3    0    0  0.22556360710E+02  0.14416000683E+01  0.29067369581E+02  0.54367087551E+02  0.40000007690E+02 0.  0.
        -12    1    3    3    0    0 -0.22556360710E+02 -0.14416000683E+01 -0.29067369581E+02  0.36820912449E+02  0.00000000000E+00 0.  1.
         11    1    4    4    0    0  0.97518282195E+01 -0.71202025220E+01  0.24303964680E+02  0.27138130684E+02  0.51100000000E-03 0. -1.
        -11    1    4    4    0    0  0.16185450802E+02 -0.11854800934E+01  0.47582193333E+01  0.16911973043E+02  0.51100000000E-03 0.  1.
        -12    1    4    4    0    0 -0.33809183117E+01  0.97472826837E+01  0.51855678307E-02  0.10316983825E+02  0.00000000000E+00 0.  1.
</event>
<event>
 8    1  0.2511738E-006  0.9118800E+02  0.7816164E-02  0.1184000E+00
        -11   -1    0    0    0    0  0.00000000000E+00  0.00000000000E+00  0.45593999997E+02  0.45594000000E+02  0.51100000000E-03 0. -1.
         11   -1    0    0    0    0 -0.00000000000E+00 -0.00000000000E+00 -0.45593999997E+02  0.45594000000E+02  0.51100000000E-03 0.  1.
         23    2    1    2    0    0  0.11102230246E-15  0.35527136788E-14 -0.35527136788E-14  0.91188000000E+02  0.91188000000E+02 0.  0.
    9900012    2    3    3    0    0  0.65864374275E+00  0.28966002430E+02  0.22722613733E+02  0.54367078186E+02  0.39999986341E+02 0.  0.
        -12    1    3    3    0    0 -0.65864374275E+00 -0.28966002430E+02 -0.22722613733E+02  0.36820921814E+02  0.00000000000E+00 0.  1.
         11    1    4    4    0    0 -0.73942312663E+01  0.44798370793E+01  0.12448728077E+02  0.15156332910E+02  0.51100000000E-03 0. -1.
        -11    1    4    4    0    0 -0.10213680596E+01  0.59191638561E+01 -0.90868401185E+01  0.10892674468E+02  0.51100000000E-03 0.  1.
         12    1    4    4    0    0  0.90742430686E+01  0.18567001494E+02  0.19360725774E+02  0.28318070808E+02  0.00000000000E+00 0. -1.
</event>
<event>
 8    1  0.2511738E-006  0.9118800E+02  0.7816164E-02  0.1184000E+00
        -11   -1    0    0    0    0  0.00000000000E+00  0.00000000000E+00  0.45593999997E+02  0.45594000000E+02  0.51100000000E-03 0.  1.
         11   -1    0    0    0    0 -0.00000000000E+00 -0.00000000000E+00 -0.45593999997E+02  0.45594000000E+02  0.51100000000E-03 0. -1.
         23    2    1    2    0    0  0.44408920985E-15  0.00000000000E+00  0.00000000000E+00  0.91188000000E+02  0.91188000000E+02 0.  0.
    9900012    2    3    3    0    0  0.21590831816E+01  0.32583288745E+02 -0.17013174857E+02  0.54367075727E+02  0.39999980735E+02 0.  0.
        -12    1    3    3    0    0 -0.21590831816E+01 -0.32583288745E+02  0.17013174857E+02  0.36820924273E+02  0.00000000000E+00 0.  1.
         11    1    4    4    0    0 -0.79217614647E+01  0.31961757964E+02 -0.15919689894E+02  0.36575193827E+02  0.51100000000E-03 0. -1.
        -11    1    4    4    0    0  0.76337229861E+01 -0.25648846064E+01 -0.69853535232E+01  0.10660559262E+02  0.51100000000E-03 0.  1.
         12    1    4    4    0    0  0.24471216602E+01  0.31864153870E+01  0.58918685609E+01  0.71313226387E+01  0.00000000000E+00 0. -1.
</event>
<event>
 8    1  0.2511738E-006  0.9118800E+02  0.7816164E-02  0.1184000E+00
        -11   -1    0    0    0    0  0.00000000000E+00  0.00000000000E+00  0.45593999997E+02  0.45594000000E+02  0.51100000000E-03 0.  1.
         11   -1    0    0    0    0 -0.00000000000E+00 -0.00000000000E+00 -0.45593999997E+02  0.45594000000E+02  0.51100000000E-03 0. -1.
         23    2    1    2    0    0  0.71054273576E-14  0.17763568394E-14  0.00000000000E+00  0.91188000000E+02  0.91188000000E+02 0.  0.
    9900012    2    3    3    0    0 -0.34593422943E+02 -0.94674424524E+01 -0.83336898022E+01  0.54366976614E+02  0.39999754785E+02 0.  0.
        -12    1    3    3    0    0  0.34593422943E+02  0.94674424524E+01  0.83336898022E+01  0.36821023386E+02  0.00000000000E+00 0.  1.
         11    1    4    4    0    0 -0.28918169573E+02  0.31364636816E+01 -0.11258798761E+02  0.31190679468E+02  0.51100000000E-03 0. -1.
        -11    1    4    4    0    0  0.15192907047E+01  0.43101545094E+01  0.11336303844E+01  0.47085872882E+01  0.51100000000E-03 0.  1.
        -12    1    4    4    0    0 -0.71945440746E+01 -0.16914060643E+02  0.17914785743E+01  0.18467709857E+02  0.00000000000E+00 0.  1.
</event>
<event>
 8    1  0.2511738E-006  0.9118800E+02  0.7816164E-02  0.1184000E+00
        -11   -1    0    0    0    0  0.00000000000E+00  0.00000000000E+00  0.45593999997E+02  0.45594000000E+02  0.51100000000E-03 0.  1.
         11   -1    0    0    0    0 -0.00000000000E+00 -0.00000000000E+00 -0.45593999997E+02  0.45594000000E+02  0.51100000000E-03 0. -1.
         23    2    1    2    0    0  0.17763568394E-14  0.00000000000E+00 -0.71054273576E-14  0.91188000000E+02  0.91188000000E+02 0.  0.
    9900012    2    3    3    0    0 -0.42228612190E+01  0.12382466100E+02  0.34418350965E+02  0.54367069719E+02  0.39999967038E+02 0.  0.
         12    1    3    3    0    0  0.42228612190E+01 -0.12382466100E+02 -0.34418350965E+02  0.36820930281E+02  0.00000000000E+00 0. -1.
         11    1    4    4    0    0 -0.16065958247E+02  0.64356287705E+01  0.17681245270E+02  0.24741842426E+02  0.51100000000E-03 0. -1.
        -11    1    4    4    0    0  0.13421254753E+02  0.56906683757E+00  0.19257618296E+02  0.23479986774E+02  0.51100000000E-03 0.  1.
         12    1    4    4    0    0 -0.15781577248E+01  0.53777704917E+01 -0.25205126004E+01  0.61452405189E+01  0.00000000000E+00 0. -1.
</event>
<event>
 8    1  0.2511738E-006  0.9118800E+02  0.7816164E-02  0.1184000E+00
        -11   -1    0    0    0    0  0.00000000000E+00  0.00000000000E+00  0.45593999997E+02  0.45594000000E+02  0.51100000000E-03 0. -1.
         11   -1    0    0    0    0 -0.00000000000E+00 -0.00000000000E+00 -0.45593999997E+02  0.45594000000E+02  0.51100000000E-03 0.  1.
         23    2    1    2    0    0  0.00000000000E+00  0.17763568394E-14  0.71054273576E-14  0.91188000000E+02  0.91188000000E+02 0.  0.
    9900012    2    3    3    0    0  0.40594094915E+01  0.81206066816E+01 -0.35684119104E+02  0.54367089982E+02  0.40000013233E+02 0.  0.
         12    1    3    3    0    0 -0.40594094915E+01 -0.81206066816E+01  0.35684119104E+02  0.36820910018E+02  0.00000000000E+00 0. -1.
         11    1    4    4    0    0  0.61874029314E+01  0.19749974280E+02 -0.13642214120E+02  0.24788211825E+02  0.51100000000E-03 0. -1.
        -11    1    4    4    0    0  0.40976642291E+00 -0.36591897784E-01  0.23858425751E+01  0.24210519496E+01  0.51100000000E-03 0.  1.
        -12    1    4    4    0    0 -0.25377598629E+01 -0.11592775701E+02 -0.24427747559E+02  0.27157826208E+02  0.00000000000E+00 0.  1.
</event>
<event>
 8    1  0.2511738E-006  0.9118800E+02  0.7816164E-02  0.1184000E+00
        -11   -1    0    0    0    0  0.00000000000E+00  0.00000000000E+00  0.45593999997E+02  0.45594000000E+02  0.51100000000E-03 0.  1.
         11   -1    0    0    0    0 -0.00000000000E+00 -0.00000000000E+00 -0.45593999997E+02  0.45594000000E+02  0.51100000000E-03 0. -1.
         23    2    1    2    0    0  0.00000000000E+00 -0.71054273576E-14  0.00000000000E+00  0.91188000000E+02  0.91188000000E+02 0.  0.
    9900012    2    3    3    0    0  0.85754509000E+01 -0.35495659638E+02  0.47224244932E+01  0.54367061604E+02  0.39999948539E+02 0.  0.
         12    1    3    3    0    0 -0.85754509000E+01  0.35495659638E+02 -0.47224244932E+01  0.36820938396E+02  0.00000000000E+00 0. -1.
         11    1    4    4    0    0 -0.25539302949E+01 -0.19537159799E+02 -0.16209027976E+01  0.19769939279E+02  0.51100000000E-03 0. -1.
        -11    1    4    4    0    0  0.13802043693E+02 -0.22095062663E+02  0.87537283746E+01  0.27483012297E+02  0.51100000000E-03 0.  1.
        -12    1    4    4    0    0 -0.26726624985E+01  0.61365628234E+01 -0.24104010838E+01  0.71141100287E+01  0.00000000000E+00 0.  1.
</event>
<event>
 8    1  0.2511738E-006  0.9118800E+02  0.7816164E-02  0.1184000E+00
        -11   -1    0    0    0    0  0.00000000000E+00  0.00000000000E+00  0.45593999997E+02  0.45594000000E+02  0.51100000000E-03 0.  1.
         11   -1    0    0    0    0 -0.00000000000E+00 -0.00000000000E+00 -0.45593999997E+02  0.45594000000E+02  0.51100000000E-03 0. -1.
         23    2    1    2    0    0  0.00000000000E+00 -0.44408920985E-15  0.00000000000E+00  0.91188000000E+02  0.91188000000E+02 0.  0.
    9900012    2    3    3    0    0 -0.35798163894E+02 -0.23885520758E+01  0.82810819586E+01  0.54366945729E+02  0.39999684378E+02 0.  0.
        -12    1    3    3    0    0  0.35798163894E+02  0.23885520758E+01 -0.82810819586E+01  0.36821054271E+02  0.00000000000E+00 0.  1.
         11    1    4    4    0    0 -0.29165717990E+01 -0.81315890059E+01 -0.39397453436E+01  0.94947735335E+01  0.51100000000E-03 0. -1.
        -11    1    4    4    0    0 -0.34590966973E+02 -0.13651776108E+01  0.14010271347E+02  0.37345500526E+02  0.51100000000E-03 0.  1.
        -12    1    4    4    0    0  0.17093748782E+01  0.71082145408E+01 -0.17894440450E+01  0.75266716697E+01  0.00000000000E+00 0.  1.
</event>
<event>
 8    1  0.2511738E-006  0.9118800E+02  0.7816164E-02  0.1184000E+00
        -11   -1    0    0    0    0  0.00000000000E+00  0.00000000000E+00  0.45593999997E+02  0.45594000000E+02  0.51100000000E-03 0.  1.
         11   -1    0    0    0    0 -0.00000000000E+00 -0.00000000000E+00 -0.45593999997E+02  0.45594000000E+02  0.51100000000E-03 0. -1.
         23    2    1    2    0    0  0.00000000000E+00  0.71054273576E-14  0.44408920985E-15  0.91188000000E+02  0.91188000000E+02 0.  0.
    9900012    2    3    3    0    0  0.16501092056E+02  0.32763135984E+02  0.31741591484E+01  0.54367022218E+02  0.39999858749E+02 0.  0.
        -12    1    3    3    0    0 -0.16501092056E+02 -0.32763135984E+02 -0.31741591484E+01  0.36820977782E+02  0.00000000000E+00 0.  1.
         11    1    4    4    0    0  0.12204084376E+02  0.14279595812E+02 -0.35598136271E+01  0.19118546109E+02  0.51100000000E-03 0. -1.
        -11    1    4    4    0    0  0.14491905081E+02  0.10686050394E+02 -0.40834340803E+01  0.18462974301E+02  0.51100000000E-03 0.  1.
         12    1    4    4    0    0 -0.10194897400E+02  0.77974897777E+01  0.10817406856E+02  0.16785501807E+02  0.00000000000E+00 0. -1.
</event>
<event>
 8    1  0.2511738E-006  0.9118800E+02  0.7816164E-02  0.1184000E+00
        -11   -1    0    0    0    0  0.00000000000E+00  0.00000000000E+00  0.45593999997E+02  0.45594000000E+02  0.51100000000E-03 0.  1.
         11   -1    0    0    0    0 -0.00000000000E+00 -0.00000000000E+00 -0.45593999997E+02  0.45594000000E+02  0.51100000000E-03 0. -1.
         23    2    1    2    0    0 -0.35527136788E-14  0.11102230246E-14  0.71054273576E-14  0.91188000000E+02  0.91188000000E+02 0.  0.
    9900012    2    3    3    0    0 -0.23444843870E+02 -0.16994402945E+01  0.28341310500E+02  0.54367099926E+02  0.40000035900E+02 0.  0.
         12    1    3    3    0    0  0.23444843870E+02  0.16994402945E+01 -0.28341310500E+02  0.36820900074E+02  0.00000000000E+00 0. -1.
         11    1    4    4    0    0 -0.15160968687E+02 -0.63546219968E+01 -0.48034081146E+00  0.16445878505E+02  0.51100000000E-03 0. -1.
        -11    1    4    4    0    0 -0.70176138472E+01  0.70934696868E+01  0.32116677831E+02  0.33631015618E+02  0.51100000000E-03 0.  1.
         12    1    4    4    0    0 -0.12662613363E+01 -0.24382879845E+01 -0.32950265195E+01  0.42902058029E+01  0.00000000000E+00 0. -1.
</event>
<event>
 8    1  0.2511738E-006  0.9118800E+02  0.7816164E-02  0.1184000E+00
        -11   -1    0    0    0    0  0.00000000000E+00  0.00000000000E+00  0.45593999997E+02  0.45594000000E+02  0.51100000000E-03 0.  1.
         11   -1    0    0    0    0 -0.00000000000E+00 -0.00000000000E+00 -0.45593999997E+02  0.45594000000E+02  0.51100000000E-03 0. -1.
         23    2    1    2    0    0  0.35527136788E-14  0.17763568394E-14  0.17763568394E-14  0.91188000000E+02  0.91188000000E+02 0.  0.
    9900012    2    3    3    0    0 -0.30105171998E+02  0.15533875849E+02 -0.14427646766E+02  0.54367086498E+02  0.40000005290E+02 0.  0.
        -12    1    3    3    0    0  0.30105171998E+02 -0.15533875849E+02  0.14427646766E+02  0.36820913502E+02  0.00000000000E+00 0.  1.
         11    1    4    4    0    0 -0.25798970818E+02  0.10711819314E+02  0.53015604717E+01  0.28433017989E+02  0.51100000000E-03 0. -1.
        -11    1    4    4    0    0 -0.15241778155E+01  0.75047891081E+01 -0.20595680641E+02  0.21973325622E+02  0.51100000000E-03 0.  1.
        -12    1    4    4    0    0 -0.27820233640E+01 -0.26827325731E+01  0.86647340333E+00  0.39607428868E+01  0.00000000000E+00 0.  1.
</event>
<event>
 8    1  0.2511738E-006  0.9118800E+02  0.7816164E-02  0.1184000E+00
        -11   -1    0    0    0    0  0.00000000000E+00  0.00000000000E+00  0.45593999997E+02  0.45594000000E+02  0.51100000000E-03 0. -1.
         11   -1    0    0    0    0 -0.00000000000E+00 -0.00000000000E+00 -0.45593999997E+02  0.45594000000E+02  0.51100000000E-03 0.  1.
         23    2    1    2    0    0 -0.35527136788E-14 -0.88817841970E-15  0.00000000000E+00  0.91188000000E+02  0.91188000000E+02 0.  0.
    9900012    2    3    3    0    0  0.30197688686E+02  0.70527382157E+01 -0.19852925954E+02  0.54367079489E+02  0.39999989312E+02 0.  0.
         12    1    3    3    0    0 -0.30197688686E+02 -0.70527382157E+01  0.19852925954E+02  0.36820920511E+02  0.00000000000E+00 0. -1.
         11    1    4    4    0    0  0.35818749492E+01  0.23153778598E+01  0.12646870874E+01  0.44486218625E+01  0.51100000000E-03 0. -1.
        -11    1    4    4    0    0  0.17022626318E+02 -0.95840417620E+01 -0.25509417040E+02  0.32130266436E+02  0.51100000000E-03 0.  1.
        -12    1    4    4    0    0  0.95931874189E+01  0.14321402118E+02  0.43918039990E+01  0.17788191191E+02  0.00000000000E+00 0.  1.
</event>
<event>
 8    1  0.2511738E-006  0.9118800E+02  0.7816164E-02  0.1184000E+00
        -11   -1    0    0    0    0  0.00000000000E+00  0.00000000000E+00  0.45593999997E+02  0.45594000000E+02  0.51100000000E-03 0.  1.
         11   -1    0    0    0    0 -0.00000000000E+00 -0.00000000000E+00 -0.45593999997E+02  0.45594000000E+02  0.51100000000E-03 0. -1.
         23    2    1    2    0    0 -0.17763568394E-14  0.00000000000E+00  0.00000000000E+00  0.91188000000E+02  0.91188000000E+02 0.  0.
    9900012    2    3    3    0    0 -0.14937792075E+02  0.33447854981E+02  0.37257219058E+01  0.54367114098E+02  0.40000068209E+02 0.  0.
         12    1    3    3    0    0  0.14937792075E+02 -0.33447854981E+02 -0.37257219058E+01  0.36820885902E+02  0.00000000000E+00 0. -1.
         11    1    4    4    0    0 -0.10181412690E+02  0.33466316852E+01 -0.76299730503E+01  0.13155895903E+02  0.51100000000E-03 0. -1.
        -11    1    4    4    0    0 -0.14979092706E+02  0.14929906634E+02  0.41673637891E+01  0.21555561965E+02  0.51100000000E-03 0.  1.
         12    1    4    4    0    0  0.10222713321E+02  0.15171316661E+02  0.71883311669E+01  0.19655656230E+02  0.00000000000E+00 0. -1.
</event>
<event>
 8    1  0.2511738E-006  0.9118800E+02  0.7816164E-02  0.1184000E+00
        -11   -1    0    0    0    0  0.00000000000E+00  0.00000000000E+00  0.45593999997E+02  0.45594000000E+02  0.51100000000E-03 0.  1.
         11   -1    0    0    0    0 -0.00000000000E+00 -0.00000000000E+00 -0.45593999997E+02  0.45594000000E+02  0.51100000000E-03 0. -1.
         23    2    1    2    0    0 -0.35527136788E-14 -0.88817841970E-15  0.35527136788E-14  0.91188000000E+02  0.91188000000E+02 0.  0.
    9900012    2    3    3    0    0 -0.23311337239E+02 -0.69013840575E+01 -0.27653802051E+02  0.54367077773E+02  0.39999985400E+02 0.  0.
        -12    1    3    3    0    0  0.23311337239E+02  0.69013840575E+01  0.27653802051E+02  0.36820922227E+02  0.00000000000E+00 0.  1.
         11    1    4    4    0    0  0.31144322304E+00  0.68319392784E+01  0.41024114006E+00  0.68513275530E+01  0.51100000000E-03 0. -1.
        -11    1    4    4    0    0 -0.46493448021E+01 -0.16618214681E+01  0.53237298064E+01  0.72608647552E+01  0.51100000000E-03 0.  1.
         12    1    4    4    0    0 -0.18973435659E+02 -0.12071501868E+02 -0.33387772997E+02  0.40254885465E+02  0.00000000000E+00 0. -1.
</event>
<event>
 8    1  0.2511738E-006  0.9118800E+02  0.7816164E-02  0.1184000E+00
        -11   -1    0    0    0    0  0.00000000000E+00  0.00000000000E+00  0.45593999997E+02  0.45594000000E+02  0.51100000000E-03 0. -1.
         11   -1    0    0    0    0 -0.00000000000E+00 -0.00000000000E+00 -0.45593999997E+02  0.45594000000E+02  0.51100000000E-03 0.  1.
         23    2    1    2    0    0  0.35527136788E-14  0.00000000000E+00 -0.35527136788E-14  0.91188000000E+02  0.91188000000E+02 0.  0.
    9900012    2    3    3    0    0 -0.22411107708E+02 -0.88348471900E+01 -0.27847210090E+02  0.54367090406E+02  0.40000014197E+02 0.  0.
         12    1    3    3    0    0  0.22411107708E+02  0.88348471900E+01  0.27847210090E+02  0.36820909594E+02  0.00000000000E+00 0. -1.
         11    1    4    4    0    0 -0.27316844188E+02 -0.13291307265E+02 -0.10995434744E+02  0.32307404889E+02  0.51100000000E-03 0. -1.
        -11    1    4    4    0    0 -0.27843882005E+01  0.23541558905E+01 -0.26424347347E+00  0.36557752232E+01  0.51100000000E-03 0.  1.
        -12    1    4    4    0    0  0.76901246800E+01  0.21023041841E+01 -0.16587531872E+02  0.18403910294E+02  0.00000000000E+00 0.  1.
</event>
<event>
 8    1  0.2511738E-006  0.9118800E+02  0.7816164E-02  0.1184000E+00
        -11   -1    0    0    0    0  0.00000000000E+00  0.00000000000E+00  0.45593999997E+02  0.45594000000E+02  0.51100000000E-03 0.  1.
         11   -1    0    0    0    0 -0.00000000000E+00 -0.00000000000E+00 -0.45593999997E+02  0.45594000000E+02  0.51100000000E-03 0. -1.
         23    2    1    2    0    0  0.26645352591E-14  0.00000000000E+00  0.00000000000E+00  0.91188000000E+02  0.91188000000E+02 0.  0.
    9900012    2    3    3    0    0 -0.55834250216E+01  0.36125716342E+02  0.44202540777E+01  0.54367073038E+02  0.39999974605E+02 0.  0.
         12    1    3    3    0    0  0.55834250216E+01 -0.36125716342E+02 -0.44202540777E+01  0.36820926962E+02  0.00000000000E+00 0. -1.
         11    1    4    4    0    0  0.85258439505E+01 -0.29635302855E+01  0.60777390454E+01  0.10881702026E+02  0.51100000000E-03 0. -1.
        -11    1    4    4    0    0 -0.11810010630E+02  0.30645188278E+02 -0.65063091568E+01  0.33480381939E+02  0.51100000000E-03 0.  1.
         12    1    4    4    0    0 -0.22992583422E+01  0.84440583496E+01  0.48488241890E+01  0.10004989073E+02  0.00000000000E+00 0. -1.
</event>
<event>
 8    1  0.2511738E-006  0.9118800E+02  0.7816164E-02  0.1184000E+00
        -11   -1    0    0    0    0  0.00000000000E+00  0.00000000000E+00  0.45593999997E+02  0.45594000000E+02  0.51100000000E-03 0.  1.
         11   -1    0    0    0    0 -0.00000000000E+00 -0.00000000000E+00 -0.45593999997E+02  0.45594000000E+02  0.51100000000E-03 0. -1.
         23    2    1    2    0    0  0.17763568394E-14  0.71054273576E-14  0.00000000000E+00  0.91188000000E+02  0.91188000000E+02 0.  0.
    9900012    2    3    3    0    0  0.13698731963E+02 -0.25885506635E+02 -0.22317369413E+02  0.54367086260E+02  0.40000004748E+02 0.  0.
        -12    1    3    3    0    0 -0.13698731963E+02  0.25885506635E+02  0.22317369413E+02  0.36820913740E+02  0.00000000000E+00 0.  1.
         11    1    4    4    0    0  0.46461876030E+01 -0.38241913899E+01  0.28810153729E+01  0.66717125889E+01  0.51100000000E-03 0. -1.
        -11    1    4    4    0    0 -0.59840433278E+01 -0.23990919159E+02 -0.11524649516E+02  0.27279855633E+02  0.51100000000E-03 0.  1.
         12    1    4    4    0    0  0.15036587687E+02  0.19296039141E+01 -0.13673735270E+02  0.20415518039E+02  0.00000000000E+00 0. -1.
</event>
<event>
 8    1  0.2511738E-006  0.9118800E+02  0.7816164E-02  0.1184000E+00
        -11   -1    0    0    0    0  0.00000000000E+00  0.00000000000E+00  0.45593999997E+02  0.45594000000E+02  0.51100000000E-03 0.  1.
         11   -1    0    0    0    0 -0.00000000000E+00 -0.00000000000E+00 -0.45593999997E+02  0.45594000000E+02  0.51100000000E-03 0. -1.
         23    2    1    2    0    0  0.35527136788E-14  0.00000000000E+00  0.17763568394E-14  0.91188000000E+02  0.91188000000E+02 0.  0.
    9900012    2    3    3    0    0  0.29098943311E+02 -0.16228769299E+02  0.15673478790E+02  0.54367090286E+02  0.40000013924E+02 0.  0.
         12    1    3    3    0    0 -0.29098943311E+02  0.16228769299E+02 -0.15673478790E+02  0.36820909714E+02  0.00000000000E+00 0. -1.
         11    1    4    4    0    0  0.59475853544E+01 -0.43005411364E+00 -0.90205690423E+01  0.10813389117E+02  0.51100000000E-03 0. -1.
        -11    1    4    4    0    0  0.20651373620E+02 -0.11826532154E+01  0.17391010715E+02  0.27024528765E+02  0.51100000000E-03 0.  1.
        -12    1    4    4    0    0  0.24999843368E+01 -0.14616061970E+02  0.73030371176E+01  0.16529172403E+02  0.00000000000E+00 0.  1.
</event>
<event>
 8    1  0.2511738E-006  0.9118800E+02  0.7816164E-02  0.1184000E+00
        -11   -1    0    0    0    0  0.00000000000E+00  0.00000000000E+00  0.45593999997E+02  0.45594000000E+02  0.51100000000E-03 0.  1.
         11   -1    0    0    0    0 -0.00000000000E+00 -0.00000000000E+00 -0.45593999997E+02  0.45594000000E+02  0.51100000000E-03 0. -1.
         23    2    1    2    0    0  0.35527136788E-14  0.00000000000E+00  0.00000000000E+00  0.91188000000E+02  0.91188000000E+02 0.  0.
    9900012    2    3    3    0    0  0.24132172295E+02 -0.15774921625E+02 -0.22903458973E+02  0.54367104779E+02  0.40000046965E+02 0.  0.
        -12    1    3    3    0    0 -0.24132172295E+02  0.15774921625E+02  0.22903458973E+02  0.36820895221E+02  0.00000000000E+00 0.  1.
         11    1    4    4    0    0  0.71372136149E+01  0.27406093487E+01 -0.49567958071E+01  0.91115631327E+01  0.51100000000E-03 0. -1.
        -11    1    4    4    0    0  0.16795537023E+02 -0.31293146021E+00  0.34644506438E+01  0.17151979726E+02  0.51100000000E-03 0.  1.
         12    1    4    4    0    0  0.19942165692E+00 -0.18202599513E+02 -0.21411113810E+02  0.28103561920E+02  0.00000000000E+00 0. -1.
</event>
<event>
 8    1  0.2511738E-006  0.9118800E+02  0.7816164E-02  0.1184000E+00
        -11   -1    0    0    0    0  0.00000000000E+00  0.00000000000E+00  0.45593999997E+02  0.45594000000E+02  0.51100000000E-03 0. -1.
         11   -1    0    0    0    0 -0.00000000000E+00 -0.00000000000E+00 -0.45593999997E+02  0.45594000000E+02  0.51100000000E-03 0.  1.
         23    2    1    2    0    0 -0.35527136788E-14  0.00000000000E+00  0.35527136788E-14  0.91188000000E+02  0.91188000000E+02 0.  0.
    9900012    2    3    3    0    0  0.21444262661E+02  0.92245652061E+01 -0.28475076924E+02  0.54367095474E+02  0.40000025751E+02 0.  0.
         12    1    3    3    0    0 -0.21444262661E+02 -0.92245652061E+01  0.28475076924E+02  0.36820904526E+02  0.00000000000E+00 0. -1.
         11    1    4    4    0    0  0.10070872600E+02 -0.10155372074E+01 -0.22003989684E+01  0.10358356367E+02  0.51100000000E-03 0. -1.
        -11    1    4    4    0    0  0.13504814151E+02 -0.16491538462E+01 -0.28633865167E+02  0.31701702609E+02  0.51100000000E-03 0.  1.
         12    1    4    4    0    0 -0.21314240904E+01  0.11889256260E+02  0.23591872112E+01  0.12307036498E+02  0.00000000000E+00 0. -1.
</event>
<event>
 8    1  0.2511738E-006  0.9118800E+02  0.7816164E-02  0.1184000E+00
        -11   -1    0    0    0    0  0.00000000000E+00  0.00000000000E+00  0.45593999997E+02  0.45594000000E+02  0.51100000000E-03 0.  1.
         11   -1    0    0    0    0 -0.00000000000E+00 -0.00000000000E+00 -0.45593999997E+02  0.45594000000E+02  0.51100000000E-03 0. -1.
         23    2    1    2    0    0  0.00000000000E+00  0.35527136788E-14  0.00000000000E+00  0.91188000000E+02  0.91188000000E+02 0.  0.
    9900012    2    3    3    0    0  0.28490668157E+02  0.21560153031E+02 -0.89008491016E+01  0.54367034702E+02  0.39999887211E+02 0.  0.
        -12    1    3    3    0    0 -0.28490668157E+02 -0.21560153031E+02  0.89008491016E+01  0.36820965298E+02  0.00000000000E+00 0.  1.
         11    1    4    4    0    0  0.30860655868E+02  0.14859723778E+02 -0.60347431424E+01  0.34779442152E+02  0.51100000000E-03 0. -1.
        -11    1    4    4    0    0 -0.12150183791E+01  0.85232574205E+01  0.59797383748E+01  0.10482340293E+02  0.51100000000E-03 0.  1.
         12    1    4    4    0    0 -0.11549693324E+01 -0.18228281678E+01 -0.88458443340E+01  0.91052522573E+01  0.00000000000E+00 0. -1.
</event>
<event>
 8    1  0.2511738E-006  0.9118800E+02  0.7816164E-02  0.1184000E+00
        -11   -1    0    0    0    0  0.00000000000E+00  0.00000000000E+00  0.45593999997E+02  0.45594000000E+02  0.51100000000E-03 0.  1.
         11   -1    0    0    0    0 -0.00000000000E+00 -0.00000000000E+00 -0.45593999997E+02  0.45594000000E+02  0.51100000000E-03 0. -1.
         23    2    1    2    0    0  0.13322676296E-14  0.55511151231E-15  0.00000000000E+00  0.91188000000E+02  0.91188000000E+02 0.  0.
    9900012    2    3    3    0    0  0.30025314372E+01 -0.82834550348E+00 -0.36688931493E+02  0.54367094995E+02  0.40000024660E+02 0.  0.
        -12    1    3    3    0    0 -0.30025314372E+01  0.82834550348E+00  0.36688931493E+02  0.36820905005E+02  0.00000000000E+00 0.  1.
         11    1    4    4    0    0  0.11550846442E+02  0.16108386793E+01 -0.22620613212E+02  0.25450127645E+02  0.51100000000E-03 0. -1.
        -11    1    4    4    0    0 -0.94253969089E+01 -0.51085805068E+01  0.33822188672E+01  0.11241668311E+02  0.51100000000E-03 0.  1.
         12    1    4    4    0    0  0.87708190458E+00  0.26693963240E+01 -0.17450537148E+02  0.17675299040E+02  0.00000000000E+00 0. -1.
</event>
<event>
 8    1  0.2511738E-006  0.9118800E+02  0.7816164E-02  0.1184000E+00
        -11   -1    0    0    0    0  0.00000000000E+00  0.00000000000E+00  0.45593999997E+02  0.45594000000E+02  0.51100000000E-03 0. -1.
         11   -1    0    0    0    0 -0.00000000000E+00 -0.00000000000E+00 -0.45593999997E+02  0.45594000000E+02  0.51100000000E-03 0.  1.
         23    2    1    2    0    0  0.17763568394E-14  0.00000000000E+00  0.00000000000E+00  0.91188000000E+02  0.91188000000E+02 0.  0.
    9900012    2    3    3    0    0 -0.12915313223E+02  0.67276693243E+01  0.33818857154E+02  0.54367055561E+02  0.39999934762E+02 0.  0.
        -12    1    3    3    0    0  0.12915313223E+02 -0.67276693243E+01 -0.33818857154E+02  0.36820944439E+02  0.00000000000E+00 0.  1.
         11    1    4    4    0    0 -0.18365674068E+02  0.73187933010E+01  0.25965356309E+02  0.32635294512E+02  0.51100000000E-03 0. -1.
        -11    1    4    4    0    0  0.28381453375E+01  0.92031639418E+01  0.14434815284E+01  0.97384256777E+01  0.51100000000E-03 0.  1.
        -12    1    4    4    0    0  0.26122155072E+01 -0.97942879185E+01  0.64100193165E+01  0.11993335371E+02  0.00000000000E+00 0.  1.
</event>
<event>
 8    1  0.2511738E-006  0.9118800E+02  0.7816164E-02  0.1184000E+00
        -11   -1    0    0    0    0  0.00000000000E+00  0.00000000000E+00  0.45593999997E+02  0.45594000000E+02  0.51100000000E-03 0. -1.
         11   -1    0    0    0    0 -0.00000000000E+00 -0.00000000000E+00 -0.45593999997E+02  0.45594000000E+02  0.51100000000E-03 0.  1.
         23    2    1    2    0    0  0.35527136788E-14  0.00000000000E+00  0.00000000000E+00  0.91188000000E+02  0.91188000000E+02 0.  0.
    9900012    2    3    3    0    0 -0.17959201521E+02  0.73715127421E+00 -0.32135614762E+02  0.54367162864E+02  0.40000179380E+02 0.  0.
         12    1    3    3    0    0  0.17959201521E+02 -0.73715127421E+00  0.32135614762E+02  0.36820837136E+02  0.00000000000E+00 0. -1.
         11    1    4    4    0    0  0.10858040669E+02 -0.43385014023E+01 -0.16373119683E+02  0.20119609588E+02  0.51100000000E-03 0. -1.
        -11    1    4    4    0    0 -0.15278750514E+02  0.63975895475E+01 -0.10769281209E+02  0.19757195836E+02  0.51100000000E-03 0.  1.
         12    1    4    4    0    0 -0.13538491677E+02 -0.13219368709E+01 -0.49932138703E+01  0.14490357440E+02  0.00000000000E+00 0. -1.
</event>
<event>
 8    1  0.2511738E-006  0.9118800E+02  0.7816164E-02  0.1184000E+00
        -11   -1    0    0    0    0  0.00000000000E+00  0.00000000000E+00  0.45593999997E+02  0.45594000000E+02  0.51100000000E-03 0.  1.
         11   -1    0    0    0    0 -0.00000000000E+00 -0.00000000000E+00 -0.45593999997E+02  0.45594000000E+02  0.51100000000E-03 0. -1.
         23    2    1    2    0    0  0.00000000000E+00  0.00000000000E+00  0.00000000000E+00  0.91188000000E+02  0.91188000000E+02 0.  0.
    9900012    2    3    3    0    0  0.52309837955E+01  0.19566960056E+02 -0.30749814107E+02  0.54367079521E+02  0.39999989385E+02 0.  0.
        -12    1    3    3    0    0 -0.52309837955E+01 -0.19566960056E+02  0.30749814107E+02  0.36820920479E+02  0.00000000000E+00 0.  1.
         11    1    4    4    0    0  0.15769105150E+01  0.10690972738E+02 -0.27410783093E+02  0.29464123522E+02  0.51100000000E-03 0. -1.
        -11    1    4    4    0    0 -0.57467905983E+01 -0.10500758412E+01  0.59782019787E+01  0.83586578236E+01  0.51100000000E-03 0.  1.
         12    1    4    4    0    0  0.94008638788E+01  0.99260631594E+01 -0.93172329922E+01  0.16544298176E+02  0.00000000000E+00 0. -1.
</event>
<event>
 8    1  0.2511738E-006  0.9118800E+02  0.7816164E-02  0.1184000E+00
        -11   -1    0    0    0    0  0.00000000000E+00  0.00000000000E+00  0.45593999997E+02  0.45594000000E+02  0.51100000000E-03 0.  1.
         11   -1    0    0    0    0 -0.00000000000E+00 -0.00000000000E+00 -0.45593999997E+02  0.45594000000E+02  0.51100000000E-03 0. -1.
         23    2    1    2    0    0 -0.88817841970E-15  0.00000000000E+00  0.71054273576E-14  0.91188000000E+02  0.91188000000E+02 0.  0.
    9900012    2    3    3    0    0 -0.71641279411E+01 -0.11546782263E+02 -0.34221747478E+02  0.54367069672E+02  0.39999966932E+02 0.  0.
        -12    1    3    3    0    0  0.71641279411E+01  0.11546782263E+02  0.34221747478E+02  0.36820930328E+02  0.00000000000E+00 0.  1.
         11    1    4    4    0    0 -0.14697843490E+02 -0.15200055563E+02 -0.11427880393E+02  0.24034657120E+02  0.51100000000E-03 0. -1.
        -11    1    4    4    0    0  0.60300506269E+01  0.71927251945E+01 -0.25495825119E+01  0.97261080363E+01  0.51100000000E-03 0.  1.
         12    1    4    4    0    0  0.15036649217E+01 -0.35394518951E+01 -0.20244284573E+02  0.20606304515E+02  0.00000000000E+00 0. -1.
</event>
<event>
 8    1  0.2511738E-006  0.9118800E+02  0.7816164E-02  0.1184000E+00
        -11   -1    0    0    0    0  0.00000000000E+00  0.00000000000E+00  0.45593999997E+02  0.45594000000E+02  0.51100000000E-03 0. -1.
         11   -1    0    0    0    0 -0.00000000000E+00 -0.00000000000E+00 -0.45593999997E+02  0.45594000000E+02  0.51100000000E-03 0.  1.
         23    2    1    2    0    0 -0.17763568394E-14  0.71054273576E-14  0.00000000000E+00  0.91188000000E+02  0.91188000000E+02 0.  0.
    9900012    2    3    3    0    0  0.14267198187E+02 -0.28311036972E+02 -0.18727295596E+02  0.54367090738E+02  0.40000014955E+02 0.  0.
         12    1    3    3    0    0 -0.14267198187E+02  0.28311036972E+02  0.18727295596E+02  0.36820909262E+02  0.00000000000E+00 0. -1.
         11    1    4    4    0    0  0.25969085607E+00  0.18994459468E+01  0.74704962520E+01  0.77125643439E+01  0.51100000000E-03 0. -1.
        -11    1    4    4    0    0 -0.30702335608E+01 -0.84206489981E+01 -0.13481367482E+02  0.16188913896E+02  0.51100000000E-03 0.  1.
         12    1    4    4    0    0  0.17077740892E+02 -0.21789833921E+02 -0.12716424366E+02  0.30465612499E+02  0.00000000000E+00 0. -1.
</event>
<event>
 8    1  0.2511738E-006  0.9118800E+02  0.7816164E-02  0.1184000E+00
        -11   -1    0    0    0    0  0.00000000000E+00  0.00000000000E+00  0.45593999997E+02  0.45594000000E+02  0.51100000000E-03 0. -1.
         11   -1    0    0    0    0 -0.00000000000E+00 -0.00000000000E+00 -0.45593999997E+02  0.45594000000E+02  0.51100000000E-03 0.  1.
         23    2    1    2    0    0  0.17763568394E-14  0.17763568394E-14  0.71054273576E-14  0.91188000000E+02  0.91188000000E+02 0.  0.
    9900012    2    3    3    0    0 -0.14837217183E+02 -0.12601654665E+02 -0.31254366371E+02  0.54367080249E+02  0.39999991044E+02 0.  0.
         12    1    3    3    0    0  0.14837217183E+02  0.12601654665E+02  0.31254366371E+02  0.36820919751E+02  0.00000000000E+00 0. -1.
         11    1    4    4    0    0  0.32932649866E+01 -0.28781205131E+01 -0.92975845109E+00  0.44714229277E+01  0.51100000000E-03 0. -1.
        -11    1    4    4    0    0 -0.14377272657E+01  0.50258738368E+01 -0.26846086252E+02  0.27350298258E+02  0.51100000000E-03 0.  1.
         12    1    4    4    0    0 -0.16692754904E+02 -0.14749407989E+02 -0.34785216683E+01  0.22545359063E+02  0.00000000000E+00 0. -1.
</event>
<event>
 8    1  0.2511738E-006  0.9118800E+02  0.7816164E-02  0.1184000E+00
        -11   -1    0    0    0    0  0.00000000000E+00  0.00000000000E+00  0.45593999997E+02  0.45594000000E+02  0.51100000000E-03 0. -1.
         11   -1    0    0    0    0 -0.00000000000E+00 -0.00000000000E+00 -0.45593999997E+02  0.45594000000E+02  0.51100000000E-03 0.  1.
         23    2    1    2    0    0  0.44408920985E-15  0.00000000000E+00  0.44408920985E-15  0.91188000000E+02  0.91188000000E+02 0.  0.
    9900012    2    3    3    0    0  0.17958094636E+01  0.36705035866E+02  0.23014512141E+01  0.54367064824E+02  0.39999955879E+02 0.  0.
         12    1    3    3    0    0 -0.17958094636E+01 -0.36705035866E+02 -0.23014512141E+01  0.36820935176E+02  0.00000000000E+00 0. -1.
         11    1    4    4    0    0  0.25965756385E+01  0.76377813891E+00 -0.63856575131E+01  0.69355738211E+01  0.51100000000E-03 0.  1.
        -11    1    4    4    0    0 -0.56007033777E+01 -0.36642879004E+01  0.19510138645E+01  0.69714660941E+01  0.51100000000E-03 0. -1.
        -12    1    4    4    0    0  0.47999372027E+01  0.39605545628E+02  0.67360948628E+01  0.40460024909E+02  0.00000000000E+00 0.  1.
</event>
<event>
 8    1  0.2511738E-006  0.9118800E+02  0.7816164E-02  0.1184000E+00
        -11   -1    0    0    0    0  0.00000000000E+00  0.00000000000E+00  0.45593999997E+02  0.45594000000E+02  0.51100000000E-03 0.  1.
         11   -1    0    0    0    0 -0.00000000000E+00 -0.00000000000E+00 -0.45593999997E+02  0.45594000000E+02  0.51100000000E-03 0. -1.
         23    2    1    2    0    0 -0.88817841970E-15  0.00000000000E+00  0.88817841970E-15  0.91188000000E+02  0.91188000000E+02 0.  0.
    9900012    2    3    3    0    0  0.42506342886E+01 -0.35860321583E+02 -0.71937013608E+01  0.54367083455E+02  0.39999998353E+02 0.  0.
        -12    1    3    3    0    0 -0.42506342886E+01  0.35860321583E+02  0.71937013608E+01  0.36820916545E+02  0.00000000000E+00 0.  1.
         11    1    4    4    0    0  0.84488949946E+01 -0.32308868317E+02  0.50466612054E+01  0.33774481315E+02  0.51100000000E-03 0. -1.
        -11    1    4    4    0    0 -0.81619785782E+00 -0.91583262925E+01 -0.38964131631E+01  0.99861481674E+01  0.51100000000E-03 0.  1.
        -12    1    4    4    0    0 -0.33820628482E+01  0.56068730256E+01 -0.83439494031E+01  0.10606453973E+02  0.00000000000E+00 0.  1.
</event>
<event>
 8    1  0.2511738E-006  0.9118800E+02  0.7816164E-02  0.1184000E+00
        -11   -1    0    0    0    0  0.00000000000E+00  0.00000000000E+00  0.45593999997E+02  0.45594000000E+02  0.51100000000E-03 0.  1.
         11   -1    0    0    0    0 -0.00000000000E+00 -0.00000000000E+00 -0.45593999997E+02  0.45594000000E+02  0.51100000000E-03 0. -1.
         23    2    1    2    0    0 -0.44408920985E-15  0.00000000000E+00  0.00000000000E+00  0.91188000000E+02  0.91188000000E+02 0.  0.
    9900012    2    3    3    0    0  0.75384441056E+00  0.36045975456E+02 -0.74765881501E+01  0.54367082054E+02  0.39999995159E+02 0.  0.
         12    1    3    3    0    0 -0.75384441056E+00 -0.36045975456E+02  0.74765881501E+01  0.36820917946E+02  0.00000000000E+00 0. -1.
         11    1    4    4    0    0  0.47181213360E+01 -0.35149597237E+01  0.64338905238E+01  0.87184034280E+01  0.51100000000E-03 0. -1.
        -11    1    4    4    0    0  0.58723047693E+01  0.25082376859E+02 -0.60539039358E+01  0.26462413822E+02  0.51100000000E-03 0.  1.
        -12    1    4    4    0    0 -0.98365816948E+01  0.14478558322E+02 -0.78565747380E+01  0.19186264804E+02  0.00000000000E+00 0.  1.
</event>
<event>
 8    1  0.2511738E-006  0.9118800E+02  0.7816164E-02  0.1184000E+00
        -11   -1    0    0    0    0  0.00000000000E+00  0.00000000000E+00  0.45593999997E+02  0.45594000000E+02  0.51100000000E-03 0. -1.
         11   -1    0    0    0    0 -0.00000000000E+00 -0.00000000000E+00 -0.45593999997E+02  0.45594000000E+02  0.51100000000E-03 0.  1.
         23    2    1    2    0    0  0.17763568394E-14  0.00000000000E+00  0.00000000000E+00  0.91188000000E+02  0.91188000000E+02 0.  0.
    9900012    2    3    3    0    0 -0.13967965934E+02  0.11898532648E+02 -0.31923356206E+02  0.54367084436E+02  0.40000000590E+02 0.  0.
         12    1    3    3    0    0  0.13967965934E+02 -0.11898532648E+02  0.31923356206E+02  0.36820915564E+02  0.00000000000E+00 0. -1.
         11    1    4    4    0    0 -0.34067929518E+00 -0.51758383222E+01 -0.86969778050E+00  0.52594428612E+01  0.51100000000E-03 0. -1.
        -11    1    4    4    0    0 -0.22356562149E+02  0.14281136888E+02 -0.29733437453E+02  0.39847760853E+02  0.51100000000E-03 0.  1.
        -12    1    4    4    0    0  0.87292755106E+01  0.27932340821E+01 -0.13202209724E+01  0.92598807225E+01  0.00000000000E+00 0.  1.
</event>
<event>
 8    1  0.2511738E-006  0.9118800E+02  0.7816164E-02  0.1184000E+00
        -11   -1    0    0    0    0  0.00000000000E+00  0.00000000000E+00  0.45593999997E+02  0.45594000000E+02  0.51100000000E-03 0.  1.
         11   -1    0    0    0    0 -0.00000000000E+00 -0.00000000000E+00 -0.45593999997E+02  0.45594000000E+02  0.51100000000E-03 0. -1.
         23    2    1    2    0    0 -0.17763568394E-14  0.00000000000E+00  0.00000000000E+00  0.91188000000E+02  0.91188000000E+02 0.  0.
    9900012    2    3    3    0    0  0.13736106866E+02  0.89725513102E+01  0.32963508218E+02  0.54367079548E+02  0.39999989446E+02 0.  0.
         12    1    3    3    0    0 -0.13736106866E+02 -0.89725513102E+01 -0.32963508218E+02  0.36820920452E+02  0.00000000000E+00 0. -1.
         11    1    4    4    0    0  0.25359118736E+01  0.21172011472E+02  0.21237813267E+02  0.30095342354E+02  0.51100000000E-03 0. -1.
        -11    1    4    4    0    0  0.96358018796E+01 -0.33928501066E+01  0.11419461709E+02  0.15322017351E+02  0.51100000000E-03 0.  1.
         12    1    4    4    0    0  0.15643931123E+01 -0.88066100552E+01  0.30623324235E+00  0.89497198432E+01  0.00000000000E+00 0. -1.
</event>
<event>
 8    1  0.2511738E-006  0.9118800E+02  0.7816164E-02  0.1184000E+00
        -11   -1    0    0    0    0  0.00000000000E+00  0.00000000000E+00  0.45593999997E+02  0.45594000000E+02  0.51100000000E-03 0.  1.
         11   -1    0    0    0    0 -0.00000000000E+00 -0.00000000000E+00 -0.45593999997E+02  0.45594000000E+02  0.51100000000E-03 0. -1.
         23    2    1    2    0    0  0.44408920985E-15  0.35527136788E-14  0.00000000000E+00  0.91188000000E+02  0.91188000000E+02 0.  0.
    9900012    2    3    3    0    0 -0.37530321270E+01  0.27528892818E+02 -0.24163083351E+02  0.54367084925E+02  0.40000001704E+02 0.  0.
        -12    1    3    3    0    0  0.37530321270E+01 -0.27528892818E+02  0.24163083351E+02  0.36820915075E+02  0.00000000000E+00 0.  1.
         11    1    4    4    0    0 -0.79020619178E+01  0.20545129369E+02 -0.42497108198E+01  0.22418852907E+02  0.51100000000E-03 0. -1.
        -11    1    4    4    0    0 -0.92960844816E+01  0.34114698797E+00 -0.41346589383E+01  0.10179831666E+02  0.51100000000E-03 0.  1.
        -12    1    4    4    0    0  0.13445114272E+02  0.66426164609E+01 -0.15778713593E+02  0.21768400352E+02  0.00000000000E+00 0.  1.
</event>
<event>
 8    1  0.2511738E-006  0.9118800E+02  0.7816164E-02  0.1184000E+00
        -11   -1    0    0    0    0  0.00000000000E+00  0.00000000000E+00  0.45593999997E+02  0.45594000000E+02  0.51100000000E-03 0. -1.
         11   -1    0    0    0    0 -0.00000000000E+00 -0.00000000000E+00 -0.45593999997E+02  0.45594000000E+02  0.51100000000E-03 0.  1.
         23    2    1    2    0    0  0.35527136788E-14  0.00000000000E+00  0.00000000000E+00  0.91188000000E+02  0.91188000000E+02 0.  0.
    9900012    2    3    3    0    0 -0.29539840695E+02 -0.21112063284E+02 -0.61203506153E+01  0.54367080728E+02  0.39999992136E+02 0.  0.
         12    1    3    3    0    0  0.29539840695E+02  0.21112063284E+02  0.61203506153E+01  0.36820919272E+02  0.00000000000E+00 0. -1.
         11    1    4    4    0    0  0.25139345582E+01  0.43482514327E+01  0.61167960713E+01  0.79146921560E+01  0.51100000000E-03 0. -1.
        -11    1    4    4    0    0 -0.17496291494E+02 -0.44329440756E+01  0.11810784545E+00  0.18049519632E+02  0.51100000000E-03 0.  1.
        -12    1    4    4    0    0 -0.14557483759E+02 -0.21027370641E+02 -0.12355254532E+02  0.28402868940E+02  0.00000000000E+00 0.  1.
</event>
<event>
 8    1  0.2511738E-006  0.9118800E+02  0.7816164E-02  0.1184000E+00
        -11   -1    0    0    0    0  0.00000000000E+00  0.00000000000E+00  0.45593999997E+02  0.45594000000E+02  0.51100000000E-03 0.  1.
         11   -1    0    0    0    0 -0.00000000000E+00 -0.00000000000E+00 -0.45593999997E+02  0.45594000000E+02  0.51100000000E-03 0. -1.
         23    2    1    2    0    0  0.00000000000E+00  0.00000000000E+00  0.17763568394E-14  0.91188000000E+02  0.91188000000E+02 0.  0.
    9900012    2    3    3    0    0  0.76356447665E+01 -0.35053696046E+02  0.82894400132E+01  0.54367088914E+02  0.40000010797E+02 0.  0.
         12    1    3    3    0    0 -0.76356447665E+01  0.35053696046E+02 -0.82894400132E+01  0.36820911086E+02  0.00000000000E+00 0. -1.
         11    1    4    4    0    0  0.63703104994E+01  0.31358997740E+01 -0.85669247185E+01  0.11126855919E+02  0.51100000000E-03 0. -1.
        -11    1    4    4    0    0  0.62007503576E+01 -0.24034134073E+02  0.10114637727E+02  0.26802887946E+02  0.51100000000E-03 0.  1.
         12    1    4    4    0    0 -0.49354160906E+01 -0.14155461747E+02  0.67417270048E+01  0.16437345049E+02  0.00000000000E+00 0. -1.
</event>
<event>
 8    1  0.2511738E-006  0.9118800E+02  0.7816164E-02  0.1184000E+00
        -11   -1    0    0    0    0  0.00000000000E+00  0.00000000000E+00  0.45593999997E+02  0.45594000000E+02  0.51100000000E-03 0. -1.
         11   -1    0    0    0    0 -0.00000000000E+00 -0.00000000000E+00 -0.45593999997E+02  0.45594000000E+02  0.51100000000E-03 0.  1.
         23    2    1    2    0    0  0.35527136788E-14  0.17763568394E-14  0.00000000000E+00  0.91188000000E+02  0.91188000000E+02 0.  0.
    9900012    2    3    3    0    0 -0.29125353589E+02  0.11222442987E+02  0.19533315022E+02  0.54367084150E+02  0.39999999937E+02 0.  0.
        -12    1    3    3    0    0  0.29125353589E+02 -0.11222442987E+02 -0.19533315022E+02  0.36820915850E+02  0.00000000000E+00 0.  1.
         11    1    4    4    0    0 -0.11468743929E+02  0.16841700167E+02  0.26650481914E+02  0.33547326844E+02  0.51100000000E-03 0. -1.
        -11    1    4    4    0    0 -0.75636489179E+01  0.75405131148E+00 -0.22325800635E+01  0.79222340494E+01  0.51100000000E-03 0.  1.
         12    1    4    4    0    0 -0.10092960742E+02 -0.63733084920E+01 -0.48845868285E+01  0.12897523257E+02  0.00000000000E+00 0. -1.
</event>
<event>
 8    1  0.2511738E-006  0.9118800E+02  0.7816164E-02  0.1184000E+00
        -11   -1    0    0    0    0  0.00000000000E+00  0.00000000000E+00  0.45593999997E+02  0.45594000000E+02  0.51100000000E-03 0.  1.
         11   -1    0    0    0    0 -0.00000000000E+00 -0.00000000000E+00 -0.45593999997E+02  0.45594000000E+02  0.51100000000E-03 0. -1.
         23    2    1    2    0    0  0.00000000000E+00  0.00000000000E+00  0.00000000000E+00  0.91188000000E+02  0.91188000000E+02 0.  0.
    9900012    2    3    3    0    0 -0.18407639740E+02 -0.26891241010E+02 -0.17140900447E+02  0.54366939288E+02  0.39999669694E+02 0.  0.
        -12    1    3    3    0    0  0.18407639740E+02  0.26891241010E+02  0.17140900447E+02  0.36821060712E+02  0.00000000000E+00 0.  1.
         11    1    4    4    0    0 -0.63579619009E+01 -0.31795743773E+02 -0.10881825481E+02  0.34202443300E+02  0.51100000000E-03 0.  1.
        -11    1    4    4    0    0  0.19532526224E+01 -0.13891368306E+01 -0.39771687217E+01  0.46435727887E+01  0.51100000000E-03 0. -1.
         12    1    4    4    0    0 -0.14002930461E+02  0.62936395944E+01 -0.22819062441E+01  0.15520923199E+02  0.00000000000E+00 0. -1.
</event>
<event>
 8    1  0.2511738E-006  0.9118800E+02  0.7816164E-02  0.1184000E+00
        -11   -1    0    0    0    0  0.00000000000E+00  0.00000000000E+00  0.45593999997E+02  0.45594000000E+02  0.51100000000E-03 0. -1.
         11   -1    0    0    0    0 -0.00000000000E+00 -0.00000000000E+00 -0.45593999997E+02  0.45594000000E+02  0.51100000000E-03 0.  1.
         23    2    1    2    0    0  0.00000000000E+00  0.00000000000E+00 -0.17763568394E-14  0.91188000000E+02  0.91188000000E+02 0.  0.
    9900012    2    3    3    0    0 -0.35343064682E+02 -0.50604567732E+01 -0.90021954376E+01  0.54367082486E+02  0.39999996143E+02 0.  0.
         12    1    3    3    0    0  0.35343064682E+02  0.50604567732E+01  0.90021954376E+01  0.36820917514E+02  0.00000000000E+00 0. -1.
         11    1    4    4    0    0 -0.35697473564E+02 -0.56119552923E+01 -0.90071722149E+01  0.37241546861E+02  0.51100000000E-03 0. -1.
        -11    1    4    4    0    0 -0.34552380357E+01  0.79496259562E+01  0.10796143737E+01  0.87350323516E+01  0.51100000000E-03 0.  1.
         12    1    4    4    0    0  0.38096469174E+01 -0.73981274371E+01 -0.10746375964E+01  0.83905032730E+01  0.00000000000E+00 0. -1.
</event>
<event>
 8    1  0.2511738E-006  0.9118800E+02  0.7816164E-02  0.1184000E+00
        -11   -1    0    0    0    0  0.00000000000E+00  0.00000000000E+00  0.45593999997E+02  0.45594000000E+02  0.51100000000E-03 0. -1.
         11   -1    0    0    0    0 -0.00000000000E+00 -0.00000000000E+00 -0.45593999997E+02  0.45594000000E+02  0.51100000000E-03 0.  1.
         23    2    1    2    0    0 -0.71054273576E-14  0.00000000000E+00  0.17763568394E-14  0.91188000000E+02  0.91188000000E+02 0.  0.
    9900012    2    3    3    0    0  0.35098965666E+02  0.61434225458E+01 -0.92790460545E+01  0.54367085738E+02  0.40000003558E+02 0.  0.
         12    1    3    3    0    0 -0.35098965666E+02 -0.61434225458E+01  0.92790460545E+01  0.36820914262E+02  0.00000000000E+00 0. -1.
         11    1    4    4    0    0 -0.31663855377E+01  0.90090185541E+01 -0.25903754679E+01  0.98943649623E+01  0.51100000000E-03 0. -1.
        -11    1    4    4    0    0  0.11277107789E+02  0.65214350043E+01  0.45054878158E+01  0.13784110247E+02  0.51100000000E-03 0.  1.
         12    1    4    4    0    0  0.26988243415E+02 -0.93870310125E+01 -0.11194158402E+02  0.30688610529E+02  0.00000000000E+00 0. -1.
</event>
<event>
 8    1  0.2511738E-006  0.9118800E+02  0.7816164E-02  0.1184000E+00
        -11   -1    0    0    0    0  0.00000000000E+00  0.00000000000E+00  0.45593999997E+02  0.45594000000E+02  0.51100000000E-03 0.  1.
         11   -1    0    0    0    0 -0.00000000000E+00 -0.00000000000E+00 -0.45593999997E+02  0.45594000000E+02  0.51100000000E-03 0. -1.
         23    2    1    2    0    0  0.00000000000E+00  0.35527136788E-14  0.00000000000E+00  0.91188000000E+02  0.91188000000E+02 0.  0.
    9900012    2    3    3    0    0 -0.16917691689E+02  0.31572041105E+02  0.85309934292E+01  0.54367083112E+02  0.39999997569E+02 0.  0.
         12    1    3    3    0    0  0.16917691689E+02 -0.31572041105E+02 -0.85309934292E+01  0.36820916888E+02  0.00000000000E+00 0. -1.
         11    1    4    4    0    0  0.22064378968E+01 -0.28696678826E-03  0.36743370937E+01  0.42859213262E+01  0.51100000000E-03 0. -1.
        -11    1    4    4    0    0 -0.47503017358E+01  0.14713840648E+02  0.18463089645E+02  0.24082112712E+02  0.51100000000E-03 0.  1.
         12    1    4    4    0    0 -0.14373827850E+02  0.16858487424E+02 -0.13606433310E+02  0.25999049073E+02  0.00000000000E+00 0. -1.
</event>
<event>
 8    1  0.2511738E-006  0.9118800E+02  0.7816164E-02  0.1184000E+00
        -11   -1    0    0    0    0  0.00000000000E+00  0.00000000000E+00  0.45593999997E+02  0.45594000000E+02  0.51100000000E-03 0.  1.
         11   -1    0    0    0    0 -0.00000000000E+00 -0.00000000000E+00 -0.45593999997E+02  0.45594000000E+02  0.51100000000E-03 0. -1.
         23    2    1    2    0    0 -0.44408920985E-15  0.00000000000E+00  0.17763568394E-14  0.91188000000E+02  0.91188000000E+02 0.  0.
    9900012    2    3    3    0    0 -0.39852522225E+01  0.33433761595E+02 -0.14902334789E+02  0.54367106042E+02  0.40000049844E+02 0.  0.
        -12    1    3    3    0    0  0.39852522225E+01 -0.33433761595E+02  0.14902334789E+02  0.36820893958E+02  0.00000000000E+00 0.  1.
         11    1    4    4    0    0  0.62268102709E+01  0.22734023660E+02  0.53878167568E+01  0.24179279716E+02  0.51100000000E-03 0. -1.
        -11    1    4    4    0    0 -0.51052850978E-01  0.11638105860E+02 -0.75830282243E+01  0.13890659873E+02  0.51100000000E-03 0.  1.
        -12    1    4    4    0    0 -0.10161009642E+02 -0.93836792387E+00 -0.12707123321E+02  0.16297166454E+02  0.00000000000E+00 0.  1.
</event>
<event>
 8    1  0.2511738E-006  0.9118800E+02  0.7816164E-02  0.1184000E+00
        -11   -1    0    0    0    0  0.00000000000E+00  0.00000000000E+00  0.45593999997E+02  0.45594000000E+02  0.51100000000E-03 0. -1.
         11   -1    0    0    0    0 -0.00000000000E+00 -0.00000000000E+00 -0.45593999997E+02  0.45594000000E+02  0.51100000000E-03 0.  1.
         23    2    1    2    0    0  0.35527136788E-14  0.35527136788E-14  0.35527136788E-14  0.91188000000E+02  0.91188000000E+02 0.  0.
    9900012    2    3    3    0    0 -0.10452563512E+02  0.28738515794E+02 -0.20509114431E+02  0.54367052854E+02  0.39999928590E+02 0.  0.
        -12    1    3    3    0    0  0.10452563512E+02 -0.28738515794E+02  0.20509114431E+02  0.36820947146E+02  0.00000000000E+00 0.  1.
         11    1    4    4    0    0  0.19869035082E+01  0.35743556001E+01 -0.14728168879E+01  0.43466071083E+01  0.51100000000E-03 0. -1.
        -11    1    4    4    0    0  0.83419331386E+01 -0.47503348783E+01 -0.60658223855E+01  0.11355515463E+02  0.51100000000E-03 0.  1.
        -12    1    4    4    0    0 -0.20781400158E+02  0.29914495072E+02 -0.12970475157E+02  0.38664930283E+02  0.00000000000E+00 0.  1.
</event>
<event>
 8    1  0.2511738E-006  0.9118800E+02  0.7816164E-02  0.1184000E+00
        -11   -1    0    0    0    0  0.00000000000E+00  0.00000000000E+00  0.45593999997E+02  0.45594000000E+02  0.51100000000E-03 0.  1.
         11   -1    0    0    0    0 -0.00000000000E+00 -0.00000000000E+00 -0.45593999997E+02  0.45594000000E+02  0.51100000000E-03 0. -1.
         23    2    1    2    0    0  0.00000000000E+00  0.17763568394E-14  0.00000000000E+00  0.91188000000E+02  0.91188000000E+02 0.  0.
    9900012    2    3    3    0    0 -0.73102837575E+01  0.51750394932E+01  0.35714962250E+02  0.54367084600E+02  0.40000000963E+02 0.  0.
         12    1    3    3    0    0  0.73102837575E+01 -0.51750394932E+01 -0.35714962250E+02  0.36820915400E+02  0.00000000000E+00 0. -1.
         11    1    4    4    0    0 -0.39739282335E+00 -0.32125438495E+01  0.15964806202E+01  0.36093087528E+01  0.51100000000E-03 0. -1.
        -11    1    4    4    0    0 -0.10855096921E+02 -0.52209211515E+01  0.34543505294E+02  0.36583396576E+02  0.51100000000E-03 0.  1.
        -12    1    4    4    0    0  0.39422059864E+01  0.13608504494E+02 -0.42502366426E+00  0.14174379271E+02  0.00000000000E+00 0.  1.
</event>
<event>
 8    1  0.2511738E-006  0.9118800E+02  0.7816164E-02  0.1184000E+00
        -11   -1    0    0    0    0  0.00000000000E+00  0.00000000000E+00  0.45593999997E+02  0.45594000000E+02  0.51100000000E-03 0.  1.
         11   -1    0    0    0    0 -0.00000000000E+00 -0.00000000000E+00 -0.45593999997E+02  0.45594000000E+02  0.51100000000E-03 0. -1.
         23    2    1    2    0    0  0.00000000000E+00 -0.35527136788E-14  0.71054273576E-14  0.91188000000E+02  0.91188000000E+02 0.  0.
    9900012    2    3    3    0    0  0.18030818113E+02  0.74407544253E+01  0.31229873613E+02  0.54367078853E+02  0.39999987862E+02 0.  0.
         12    1    3    3    0    0 -0.18030818113E+02 -0.74407544253E+01 -0.31229873613E+02  0.36820921147E+02  0.00000000000E+00 0. -1.
         11    1    4    4    0    0  0.10984132854E+02 -0.58008050617E+01  0.16004215721E+02  0.20259206179E+02  0.51100000000E-03 0. -1.
        -11    1    4    4    0    0 -0.25402289912E+01 -0.43671097491E+01  0.12985660632E+02  0.13933836270E+02  0.51100000000E-03 0.  1.
         12    1    4    4    0    0  0.95869142505E+01  0.17608669236E+02  0.22399972600E+01  0.20174036404E+02  0.00000000000E+00 0. -1.
</event>
<event>
 8    1  0.2511738E-006  0.9118800E+02  0.7816164E-02  0.1184000E+00
        -11   -1    0    0    0    0  0.00000000000E+00  0.00000000000E+00  0.45593999997E+02  0.45594000000E+02  0.51100000000E-03 0.  1.
         11   -1    0    0    0    0 -0.00000000000E+00 -0.00000000000E+00 -0.45593999997E+02  0.45594000000E+02  0.51100000000E-03 0. -1.
         23    2    1    2    0    0  0.00000000000E+00  0.00000000000E+00 -0.17763568394E-14  0.91188000000E+02  0.91188000000E+02 0.  0.
    9900012    2    3    3    0    0  0.28271737270E+02  0.19692822291E+02  0.12987757313E+02  0.54367079071E+02  0.39999988358E+02 0.  0.
         12    1    3    3    0    0 -0.28271737270E+02 -0.19692822291E+02 -0.12987757313E+02  0.36820920929E+02  0.00000000000E+00 0. -1.
         11    1    4    4    0    0  0.38276257698E+01 -0.12965404817E+01 -0.11645435599E+01  0.42056983033E+01  0.51100000000E-03 0. -1.
        -11    1    4    4    0    0  0.16935136617E+02  0.20367442761E+02 -0.72573892172E+01  0.27464545789E+02  0.51100000000E-03 0.  1.
         12    1    4    4    0    0  0.75089748833E+01  0.62192001151E+00  0.21409690090E+02  0.22696834979E+02  0.00000000000E+00 0. -1.
</event>
<event>
 8    1  0.2511738E-006  0.9118800E+02  0.7816164E-02  0.1184000E+00
        -11   -1    0    0    0    0  0.00000000000E+00  0.00000000000E+00  0.45593999997E+02  0.45594000000E+02  0.51100000000E-03 0.  1.
         11   -1    0    0    0    0 -0.00000000000E+00 -0.00000000000E+00 -0.45593999997E+02  0.45594000000E+02  0.51100000000E-03 0. -1.
         23    2    1    2    0    0  0.00000000000E+00  0.00000000000E+00  0.00000000000E+00  0.91188000000E+02  0.91188000000E+02 0.  0.
    9900012    2    3    3    0    0  0.13294516155E+02  0.12060518644E+02 -0.32149354291E+02  0.54367065043E+02  0.39999956379E+02 0.  0.
        -12    1    3    3    0    0 -0.13294516155E+02 -0.12060518644E+02  0.32149354291E+02  0.36820934957E+02  0.00000000000E+00 0.  1.
         11    1    4    4    0    0  0.75626536824E+01  0.12320754284E+02 -0.84818886840E+01  0.16761179933E+02  0.51100000000E-03 0. -1.
        -11    1    4    4    0    0  0.47486882079E+01 -0.95336529332E+01 -0.25910796840E+02  0.28014460036E+02  0.51100000000E-03 0.  1.
         12    1    4    4    0    0  0.98317426506E+00  0.92734172933E+01  0.22433312330E+01  0.95914250741E+01  0.00000000000E+00 0. -1.
</event>
<event>
 8    1  0.2511738E-006  0.9118800E+02  0.7816164E-02  0.1184000E+00
        -11   -1    0    0    0    0  0.00000000000E+00  0.00000000000E+00  0.45593999997E+02  0.45594000000E+02  0.51100000000E-03 0. -1.
         11   -1    0    0    0    0 -0.00000000000E+00 -0.00000000000E+00 -0.45593999997E+02  0.45594000000E+02  0.51100000000E-03 0.  1.
         23    2    1    2    0    0  0.35527136788E-14 -0.17763568394E-14  0.00000000000E+00  0.91188000000E+02  0.91188000000E+02 0.  0.
    9900012    2    3    3    0    0  0.28409595105E+02  0.87466444235E+01  0.21729491484E+02  0.54367086339E+02  0.40000004927E+02 0.  0.
         12    1    3    3    0    0 -0.28409595105E+02 -0.87466444235E+01 -0.21729491484E+02  0.36820913661E+02  0.00000000000E+00 0. -1.
         11    1    4    4    0    0  0.19793080724E+02 -0.21880845165E+01 -0.98939543458E+00  0.19938221134E+02  0.51100000000E-03 0. -1.
        -11    1    4    4    0    0  0.13916582591E+02  0.58859296972E+00  0.96906779620E+01  0.16968410424E+02  0.51100000000E-03 0.  1.
        -12    1    4    4    0    0 -0.53000682103E+01  0.10346135970E+02  0.13028208956E+02  0.17460454781E+02  0.00000000000E+00 0.  1.
</event>
<event>
 8    1  0.2511738E-006  0.9118800E+02  0.7816164E-02  0.1184000E+00
        -11   -1    0    0    0    0  0.00000000000E+00  0.00000000000E+00  0.45593999997E+02  0.45594000000E+02  0.51100000000E-03 0. -1.
         11   -1    0    0    0    0 -0.00000000000E+00 -0.00000000000E+00 -0.45593999997E+02  0.45594000000E+02  0.51100000000E-03 0.  1.
         23    2    1    2    0    0  0.13322676296E-14 -0.71054273576E-14  0.00000000000E+00  0.91188000000E+02  0.91188000000E+02 0.  0.
    9900012    2    3    3    0    0 -0.24747180772E+01  0.36240433123E+02  0.60237908005E+01  0.54367091834E+02  0.40000017455E+02 0.  0.
        -12    1    3    3    0    0  0.24747180772E+01 -0.36240433123E+02 -0.60237908005E+01  0.36820908166E+02  0.00000000000E+00 0.  1.
         11    1    4    4    0    0 -0.15752215778E+02  0.15430854162E+02  0.64150875735E+01  0.22965123795E+02  0.51100000000E-03 0. -1.
        -11    1    4    4    0    0  0.57814772115E+01 -0.29083057276E+01  0.66125310576E+00  0.65054574692E+01  0.51100000000E-03 0.  1.
         12    1    4    4    0    0  0.74960204896E+01  0.23717884689E+02 -0.10525498788E+01  0.24896510570E+02  0.00000000000E+00 0. -1.
</event>
<event>
 8    1  0.2511738E-006  0.9118800E+02  0.7816164E-02  0.1184000E+00
        -11   -1    0    0    0    0  0.00000000000E+00  0.00000000000E+00  0.45593999997E+02  0.45594000000E+02  0.51100000000E-03 0.  1.
         11   -1    0    0    0    0 -0.00000000000E+00 -0.00000000000E+00 -0.45593999997E+02  0.45594000000E+02  0.51100000000E-03 0. -1.
         23    2    1    2    0    0  0.00000000000E+00 -0.71054273576E-14  0.00000000000E+00  0.91188000000E+02  0.91188000000E+02 0.  0.
    9900012    2    3    3    0    0 -0.16356528088E+02 -0.32270208431E+02 -0.68467119163E+01  0.54367084376E+02  0.40000000452E+02 0.  0.
        -12    1    3    3    0    0  0.16356528088E+02  0.32270208431E+02  0.68467119163E+01  0.36820915624E+02  0.00000000000E+00 0.  1.
         11    1    4    4    0    0 -0.89989945520E+00 -0.24222050852E+02 -0.81824122014E+01  0.25582600263E+02  0.51100000000E-03 0. -1.
        -11    1    4    4    0    0 -0.69489728178E+01  0.79418284396E+01 -0.59453003049E+00  0.10569499913E+02  0.51100000000E-03 0.  1.
         12    1    4    4    0    0 -0.85076558153E+01 -0.15989986019E+02  0.19302303156E+01  0.18214984201E+02  0.00000000000E+00 0. -1.
</event>
<event>
 8    1  0.2511738E-006  0.9118800E+02  0.7816164E-02  0.1184000E+00
        -11   -1    0    0    0    0  0.00000000000E+00  0.00000000000E+00  0.45593999997E+02  0.45594000000E+02  0.51100000000E-03 0.  1.
         11   -1    0    0    0    0 -0.00000000000E+00 -0.00000000000E+00 -0.45593999997E+02  0.45594000000E+02  0.51100000000E-03 0. -1.
         23    2    1    2    0    0  0.00000000000E+00  0.00000000000E+00 -0.35527136788E-14  0.91188000000E+02  0.91188000000E+02 0.  0.
    9900012    2    3    3    0    0  0.11150302343E+02 -0.21102821397E+02  0.28037858684E+02  0.54367084303E+02  0.40000000284E+02 0.  0.
        -12    1    3    3    0    0 -0.11150302343E+02  0.21102821397E+02 -0.28037858684E+02  0.36820915697E+02  0.00000000000E+00 0.  1.
         11    1    4    4    0    0  0.12482749814E+02 -0.19319116614E+02  0.16883144513E+02  0.28532225264E+02  0.51100000000E-03 0. -1.
        -11    1    4    4    0    0  0.79831135659E+01 -0.48002492829E+01  0.12876678518E+02  0.15892807974E+02  0.51100000000E-03 0.  1.
        -12    1    4    4    0    0 -0.93155610370E+01  0.30165444999E+01 -0.17219643466E+01  0.99420510643E+01  0.00000000000E+00 0.  1.
</event>
<event>
 8    1  0.2511738E-006  0.9118800E+02  0.7816164E-02  0.1184000E+00
        -11   -1    0    0    0    0  0.00000000000E+00  0.00000000000E+00  0.45593999997E+02  0.45594000000E+02  0.51100000000E-03 0.  1.
         11   -1    0    0    0    0 -0.00000000000E+00 -0.00000000000E+00 -0.45593999997E+02  0.45594000000E+02  0.51100000000E-03 0. -1.
         23    2    1    2    0    0 -0.88817841970E-15  0.71054273576E-14  0.17763568394E-14  0.91188000000E+02  0.91188000000E+02 0.  0.
    9900012    2    3    3    0    0 -0.79792835619E+01  0.35211364177E+02  0.72298440236E+01  0.54367085047E+02  0.40000001982E+02 0.  0.
        -12    1    3    3    0    0  0.79792835619E+01 -0.35211364177E+02 -0.72298440236E+01  0.36820914953E+02  0.00000000000E+00 0.  1.
         11    1    4    4    0    0  0.33302603141E+01 -0.46930767143E+01  0.64384569152E+01  0.86353535258E+01  0.51100000000E-03 0. -1.
        -11    1    4    4    0    0  0.39496006947E+01  0.12177053073E+01 -0.11260562995E+00  0.41345897199E+01  0.51100000000E-03 0.  1.
        -12    1    4    4    0    0 -0.15259144571E+02  0.38686735584E+02  0.90399273834E+00  0.41597141801E+02  0.00000000000E+00 0.  1.
</event>
<event>
 8    1  0.2511738E-006  0.9118800E+02  0.7816164E-02  0.1184000E+00
        -11   -1    0    0    0    0  0.00000000000E+00  0.00000000000E+00  0.45593999997E+02  0.45594000000E+02  0.51100000000E-03 0. -1.
         11   -1    0    0    0    0 -0.00000000000E+00 -0.00000000000E+00 -0.45593999997E+02  0.45594000000E+02  0.51100000000E-03 0.  1.
         23    2    1    2    0    0  0.35527136788E-14  0.00000000000E+00  0.35527136788E-14  0.91188000000E+02  0.91188000000E+02 0.  0.
    9900012    2    3    3    0    0 -0.24980154813E+02 -0.19770701227E+02  0.18463242101E+02  0.54367081076E+02  0.39999992929E+02 0.  0.
        -12    1    3    3    0    0  0.24980154813E+02  0.19770701227E+02 -0.18463242101E+02  0.36820918924E+02  0.00000000000E+00 0.  1.
         11    1    4    4    0    0  0.34984295131E+01  0.29823609332E-01 -0.38789671370E+01  0.52236275534E+01  0.51100000000E-03 0. -1.
        -11    1    4    4    0    0 -0.36602937282E+01  0.77187825701E+00 -0.54300357503E+01  0.65938482491E+01  0.51100000000E-03 0.  1.
        -12    1    4    4    0    0 -0.24818290598E+02 -0.20572403093E+02  0.27772244988E+02  0.42549605274E+02  0.00000000000E+00 0.  1.
</event>
<event>
 8    1  0.2511738E-006  0.9118800E+02  0.7816164E-02  0.1184000E+00
        -11   -1    0    0    0    0  0.00000000000E+00  0.00000000000E+00  0.45593999997E+02  0.45594000000E+02  0.51100000000E-03 0.  1.
         11   -1    0    0    0    0 -0.00000000000E+00 -0.00000000000E+00 -0.45593999997E+02  0.45594000000E+02  0.51100000000E-03 0. -1.
         23    2    1    2    0    0  0.00000000000E+00  0.00000000000E+00  0.00000000000E+00  0.91188000000E+02  0.91188000000E+02 0.  0.
    9900012    2    3    3    0    0 -0.12885455154E+01  0.33408546857E+02 -0.15426867769E+02  0.54367087439E+02  0.40000007435E+02 0.  0.
        -12    1    3    3    0    0  0.12885455154E+01 -0.33408546857E+02  0.15426867769E+02  0.36820912561E+02  0.00000000000E+00 0.  1.
         11    1    4    4    0    0  0.91873937356E+01  0.67672392167E+01 -0.70203191237E+01  0.13397335971E+02  0.51100000000E-03 0. -1.
        -11    1    4    4    0    0 -0.19407341917E+01  0.20874883530E+02  0.72891585341E+01  0.22195924040E+02  0.51100000000E-03 0.  1.
        -12    1    4    4    0    0 -0.85352050592E+01  0.57664241103E+01 -0.15695707179E+02  0.18773827428E+02  0.00000000000E+00 0.  1.
</event>
<event>
 8    1  0.2511738E-006  0.9118800E+02  0.7816164E-02  0.1184000E+00
        -11   -1    0    0    0    0  0.00000000000E+00  0.00000000000E+00  0.45593999997E+02  0.45594000000E+02  0.51100000000E-03 0.  1.
         11   -1    0    0    0    0 -0.00000000000E+00 -0.00000000000E+00 -0.45593999997E+02  0.45594000000E+02  0.51100000000E-03 0. -1.
         23    2    1    2    0    0 -0.35527136788E-14  0.00000000000E+00  0.00000000000E+00  0.91188000000E+02  0.91188000000E+02 0.  0.
    9900012    2    3    3    0    0 -0.18528135008E+02 -0.27203209696E+02  0.16506737832E+02  0.54367098348E+02  0.40000032303E+02 0.  0.
        -12    1    3    3    0    0  0.18528135008E+02  0.27203209696E+02 -0.16506737832E+02  0.36820901652E+02  0.00000000000E+00 0.  1.
         11    1    4    4    0    0 -0.14674675908E+02 -0.12181576865E+01 -0.16100937501E+01  0.14812914072E+02  0.51100000000E-03 0. -1.
        -11    1    4    4    0    0  0.80288520386E+01 -0.12402392866E+02  0.15335461052E+02  0.21294557516E+02  0.51100000000E-03 0.  1.
        -12    1    4    4    0    0 -0.11882311138E+02 -0.13582659144E+02  0.27813705305E+01  0.18259626760E+02  0.00000000000E+00 0.  1.
</event>
<event>
 8    1  0.2511738E-006  0.9118800E+02  0.7816164E-02  0.1184000E+00
        -11   -1    0    0    0    0  0.00000000000E+00  0.00000000000E+00  0.45593999997E+02  0.45594000000E+02  0.51100000000E-03 0.  1.
         11   -1    0    0    0    0 -0.00000000000E+00 -0.00000000000E+00 -0.45593999997E+02  0.45594000000E+02  0.51100000000E-03 0. -1.
         23    2    1    2    0    0  0.35527136788E-14  0.35527136788E-14 -0.17763568394E-14  0.91188000000E+02  0.91188000000E+02 0.  0.
    9900012    2    3    3    0    0 -0.24453066586E+02 -0.25689500544E+02 -0.98933132485E+01  0.54367074554E+02  0.39999978061E+02 0.  0.
        -12    1    3    3    0    0  0.24453066586E+02  0.25689500544E+02  0.98933132485E+01  0.36820925446E+02  0.00000000000E+00 0.  1.
         11    1    4    4    0    0  0.29561148375E+01 -0.47350787868E+01  0.38795953616E-01  0.55822120559E+01  0.51100000000E-03 0. -1.
        -11    1    4    4    0    0  0.42730252653E+01  0.16982431275E+01  0.52535941365E+01  0.69816206034E+01  0.51100000000E-03 0.  1.
         12    1    4    4    0    0 -0.31682206689E+02 -0.22652664884E+02 -0.15185703339E+02  0.41803241895E+02  0.00000000000E+00 0. -1.
</event>
<event>
 8    1  0.2511738E-006  0.9118800E+02  0.7816164E-02  0.1184000E+00
        -11   -1    0    0    0    0  0.00000000000E+00  0.00000000000E+00  0.45593999997E+02  0.45594000000E+02  0.51100000000E-03 0.  1.
         11   -1    0    0    0    0 -0.00000000000E+00 -0.00000000000E+00 -0.45593999997E+02  0.45594000000E+02  0.51100000000E-03 0. -1.
         23    2    1    2    0    0  0.00000000000E+00  0.44408920985E-15  0.00000000000E+00  0.91188000000E+02  0.91188000000E+02 0.  0.
    9900012    2    3    3    0    0 -0.20423783531E+02  0.26947722426E+01  0.30518643614E+02  0.54367077426E+02  0.39999984609E+02 0.  0.
         12    1    3    3    0    0  0.20423783531E+02 -0.26947722426E+01 -0.30518643614E+02  0.36820922574E+02  0.00000000000E+00 0. -1.
         11    1    4    4    0    0  0.47376807686E+01 -0.24575529352E+01 -0.20493445448E+01  0.57170795708E+01  0.51100000000E-03 0. -1.
        -11    1    4    4    0    0 -0.42942944236E+01  0.11597183165E+02  0.19820741993E+02  0.23362308007E+02  0.51100000000E-03 0.  1.
        -12    1    4    4    0    0 -0.20867169876E+02 -0.64448579873E+01  0.12747246165E+02  0.25287689849E+02  0.00000000000E+00 0.  1.
</event>
<event>
 8    1  0.2511738E-006  0.9118800E+02  0.7816164E-02  0.1184000E+00
        -11   -1    0    0    0    0  0.00000000000E+00  0.00000000000E+00  0.45593999997E+02  0.45594000000E+02  0.51100000000E-03 0.  1.
         11   -1    0    0    0    0 -0.00000000000E+00 -0.00000000000E+00 -0.45593999997E+02  0.45594000000E+02  0.51100000000E-03 0. -1.
         23    2    1    2    0    0  0.00000000000E+00 -0.35527136788E-14  0.26645352591E-14  0.91188000000E+02  0.91188000000E+02 0.  0.
    9900012    2    3    3    0    0  0.27910681436E+02 -0.23364966723E+02  0.55546050769E+01  0.54367062400E+02  0.39999950353E+02 0.  0.
        -12    1    3    3    0    0 -0.27910681436E+02  0.23364966723E+02 -0.55546050769E+01  0.36820937600E+02  0.00000000000E+00 0.  1.
         11    1    4    4    0    0  0.14326050042E+00 -0.42901977715E+01 -0.78648440307E+01  0.89600274764E+01  0.51100000000E-03 0. -1.
        -11    1    4    4    0    0  0.10975428708E+02  0.34150667530E+01 -0.42342790515E+01  0.12249564711E+02  0.51100000000E-03 0.  1.
        -12    1    4    4    0    0  0.16791992227E+02 -0.22489835705E+02  0.17653728159E+02  0.33157470213E+02  0.00000000000E+00 0.  1.
</event>
<event>
 8    1  0.2511738E-006  0.9118800E+02  0.7816164E-02  0.1184000E+00
        -11   -1    0    0    0    0  0.00000000000E+00  0.00000000000E+00  0.45593999997E+02  0.45594000000E+02  0.51100000000E-03 0.  1.
         11   -1    0    0    0    0 -0.00000000000E+00 -0.00000000000E+00 -0.45593999997E+02  0.45594000000E+02  0.51100000000E-03 0. -1.
         23    2    1    2    0    0 -0.35527136788E-14  0.00000000000E+00  0.88817841970E-15  0.91188000000E+02  0.91188000000E+02 0.  0.
    9900012    2    3    3    0    0  0.22341847171E+02  0.28448238897E+02  0.68789090979E+01  0.54367084453E+02  0.40000000627E+02 0.  0.
         12    1    3    3    0    0 -0.22341847171E+02 -0.28448238897E+02 -0.68789090979E+01  0.36820915547E+02  0.00000000000E+00 0. -1.
         11    1    4    4    0    0 -0.83249149736E+00 -0.22051815025E+00 -0.55925860934E+01  0.56585059708E+01  0.51100000000E-03 0. -1.
        -11    1    4    4    0    0  0.78252266523E+01  0.16930644619E+02 -0.82331670541E+01  0.20387887075E+02  0.51100000000E-03 0.  1.
        -12    1    4    4    0    0  0.15349112017E+02  0.11738112428E+02  0.20704662245E+02  0.28320691407E+02  0.00000000000E+00 0.  1.
</event>
<event>
 8    1  0.2511738E-006  0.9118800E+02  0.7816164E-02  0.1184000E+00
        -11   -1    0    0    0    0  0.00000000000E+00  0.00000000000E+00  0.45593999997E+02  0.45594000000E+02  0.51100000000E-03 0.  1.
         11   -1    0    0    0    0 -0.00000000000E+00 -0.00000000000E+00 -0.45593999997E+02  0.45594000000E+02  0.51100000000E-03 0. -1.
         23    2    1    2    0    0 -0.35527136788E-14  0.00000000000E+00 -0.44408920985E-15  0.91188000000E+02  0.91188000000E+02 0.  0.
    9900012    2    3    3    0    0 -0.31879375110E+02  0.18177852796E+02 -0.30081505274E+01  0.54367111102E+02  0.40000061379E+02 0.  0.
        -12    1    3    3    0    0  0.31879375110E+02 -0.18177852796E+02  0.30081505274E+01  0.36820888898E+02  0.00000000000E+00 0.  1.
         11    1    4    4    0    0 -0.13670518838E+02 -0.24979390484E+01  0.10705655797E+02  0.17542344515E+02  0.51100000000E-03 0. -1.
        -11    1    4    4    0    0  0.35649817055E+01  0.43452127686E+01  0.12603946219E+01  0.57600836304E+01  0.51100000000E-03 0.  1.
         12    1    4    4    0    0 -0.21773837977E+02  0.16330579076E+02 -0.14974200946E+02  0.31064682956E+02  0.00000000000E+00 0. -1.
</event>
<event>
 8    1  0.2511738E-006  0.9118800E+02  0.7816164E-02  0.1184000E+00
        -11   -1    0    0    0    0  0.00000000000E+00  0.00000000000E+00  0.45593999997E+02  0.45594000000E+02  0.51100000000E-03 0. -1.
         11   -1    0    0    0    0 -0.00000000000E+00 -0.00000000000E+00 -0.45593999997E+02  0.45594000000E+02  0.51100000000E-03 0.  1.
         23    2    1    2    0    0  0.17763568394E-14  0.00000000000E+00 -0.35527136788E-14  0.91188000000E+02  0.91188000000E+02 0.  0.
    9900012    2    3    3    0    0 -0.12888952395E+02  0.21537936035E+02  0.26940141943E+02  0.54367095199E+02  0.40000025125E+02 0.  0.
        -12    1    3    3    0    0  0.12888952395E+02 -0.21537936035E+02 -0.26940141943E+02  0.36820904801E+02  0.00000000000E+00 0.  1.
         11    1    4    4    0    0 -0.10053769581E+00  0.16243619461E+02  0.22378023603E+01  0.16397348587E+02  0.51100000000E-03 0. -1.
        -11    1    4    4    0    0 -0.22177834146E+01 -0.23315695209E+01 -0.47641949718E+01  0.57491159055E+01  0.51100000000E-03 0.  1.
         12    1    4    4    0    0 -0.10570631285E+02  0.76258860950E+01  0.29466534554E+02  0.32220630706E+02  0.00000000000E+00 0. -1.
</event>
<event>
 8    1  0.2511738E-006  0.9118800E+02  0.7816164E-02  0.1184000E+00
        -11   -1    0    0    0    0  0.00000000000E+00  0.00000000000E+00  0.45593999997E+02  0.45594000000E+02  0.51100000000E-03 0. -1.
         11   -1    0    0    0    0 -0.00000000000E+00 -0.00000000000E+00 -0.45593999997E+02  0.45594000000E+02  0.51100000000E-03 0.  1.
         23    2    1    2    0    0  0.00000000000E+00  0.35527136788E-14  0.44408920985E-15  0.91188000000E+02  0.91188000000E+02 0.  0.
    9900012    2    3    3    0    0 -0.20326447248E+02 -0.30607767265E+02 -0.24039915833E+01  0.54367094930E+02  0.40000024512E+02 0.  0.
        -12    1    3    3    0    0  0.20326447248E+02  0.30607767265E+02  0.24039915833E+01  0.36820905070E+02  0.00000000000E+00 0.  1.
         11    1    4    4    0    0 -0.76015710188E+01 -0.17193749060E+01  0.35020085145E+01  0.85442492893E+01  0.51100000000E-03 0. -1.
        -11    1    4    4    0    0  0.43361021902E+01 -0.28018098977E+02 -0.40411112665E+01  0.28638195352E+02  0.51100000000E-03 0.  1.
        -12    1    4    4    0    0 -0.17060978419E+02 -0.87029338128E+00 -0.18648888312E+01  0.17184650288E+02  0.00000000000E+00 0.  1.
</event>
<event>
 8    1  0.2511738E-006  0.9118800E+02  0.7816164E-02  0.1184000E+00
        -11   -1    0    0    0    0  0.00000000000E+00  0.00000000000E+00  0.45593999997E+02  0.45594000000E+02  0.51100000000E-03 0.  1.
         11   -1    0    0    0    0 -0.00000000000E+00 -0.00000000000E+00 -0.45593999997E+02  0.45594000000E+02  0.51100000000E-03 0. -1.
         23    2    1    2    0    0  0.00000000000E+00 -0.35527136788E-14 -0.17763568394E-14  0.91188000000E+02  0.91188000000E+02 0.  0.
    9900012    2    3    3    0    0 -0.19859622534E+02 -0.30668896913E+02  0.45600768260E+01  0.54367080054E+02  0.39999990598E+02 0.  0.
         12    1    3    3    0    0  0.19859622534E+02  0.30668896913E+02 -0.45600768260E+01  0.36820919946E+02  0.00000000000E+00 0. -1.
         11    1    4    4    0    0  0.33501487763E+01  0.43999128557E+01 -0.75931618045E+01  0.93935529174E+01  0.51100000000E-03 0. -1.
        -11    1    4    4    0    0 -0.86459412945E+01 -0.90237397750E+01  0.80173988336E+01  0.14847857243E+02  0.51100000000E-03 0.  1.
         12    1    4    4    0    0 -0.14563830016E+02 -0.26045069993E+02  0.41358397970E+01  0.30125669893E+02  0.00000000000E+00 0. -1.
</event>
<event>
 8    1  0.2511738E-006  0.9118800E+02  0.7816164E-02  0.1184000E+00
        -11   -1    0    0    0    0  0.00000000000E+00  0.00000000000E+00  0.45593999997E+02  0.45594000000E+02  0.51100000000E-03 0.  1.
         11   -1    0    0    0    0 -0.00000000000E+00 -0.00000000000E+00 -0.45593999997E+02  0.45594000000E+02  0.51100000000E-03 0. -1.
         23    2    1    2    0    0  0.00000000000E+00  0.00000000000E+00  0.00000000000E+00  0.91188000000E+02  0.91188000000E+02 0.  0.
    9900012    2    3    3    0    0 -0.20113587681E+02  0.24727059718E+02 -0.18433688995E+02  0.54367017101E+02  0.39999847084E+02 0.  0.
        -12    1    3    3    0    0  0.20113587681E+02 -0.24727059718E+02  0.18433688995E+02  0.36820982899E+02  0.00000000000E+00 0.  1.
         11    1    4    4    0    0  0.94820605627E+01  0.53663657518E+01  0.40006115492E+01  0.11606560512E+02  0.51100000000E-03 0.  1.
        -11    1    4    4    0    0 -0.16910257571E+02  0.12976694165E+02 -0.17953907675E+02  0.27869233998E+02  0.51100000000E-03 0. -1.
        -12    1    4    4    0    0 -0.12685390673E+02  0.63839998010E+01 -0.44803928690E+01  0.14891222591E+02  0.00000000000E+00 0.  1.
</event>
<event>
 8    1  0.2511738E-006  0.9118800E+02  0.7816164E-02  0.1184000E+00
        -11   -1    0    0    0    0  0.00000000000E+00  0.00000000000E+00  0.45593999997E+02  0.45594000000E+02  0.51100000000E-03 0.  1.
         11   -1    0    0    0    0 -0.00000000000E+00 -0.00000000000E+00 -0.45593999997E+02  0.45594000000E+02  0.51100000000E-03 0. -1.
         23    2    1    2    0    0  0.00000000000E+00  0.35527136788E-14  0.00000000000E+00  0.91188000000E+02  0.91188000000E+02 0.  0.
    9900012    2    3    3    0    0  0.11876675074E+02  0.14281461715E+02 -0.31792500918E+02  0.54367100036E+02  0.40000036152E+02 0.  0.
        -12    1    3    3    0    0 -0.11876675074E+02 -0.14281461715E+02  0.31792500918E+02  0.36820899964E+02  0.00000000000E+00 0.  1.
         11    1    4    4    0    0 -0.73964148717E+01 -0.10933395403E+01 -0.41746839583E+01  0.85633130690E+01  0.51100000000E-03 0.  1.
        -11    1    4    4    0    0 -0.20359550076E+01  0.39449985118E+01  0.40161212617E+01  0.59864310153E+01  0.51100000000E-03 0. -1.
         12    1    4    4    0    0  0.21309044953E+02  0.11429802743E+02 -0.31633938222E+02  0.39817355952E+02  0.00000000000E+00 0. -1.
</event>
<event>
 8    1  0.2511738E-006  0.9118800E+02  0.7816164E-02  0.1184000E+00
        -11   -1    0    0    0    0  0.00000000000E+00  0.00000000000E+00  0.45593999997E+02  0.45594000000E+02  0.51100000000E-03 0.  1.
         11   -1    0    0    0    0 -0.00000000000E+00 -0.00000000000E+00 -0.45593999997E+02  0.45594000000E+02  0.51100000000E-03 0. -1.
         23    2    1    2    0    0  0.00000000000E+00 -0.17763568394E-14  0.00000000000E+00  0.91188000000E+02  0.91188000000E+02 0.  0.
    9900012    2    3    3    0    0  0.20540055281E+02  0.10731255048E+02 -0.28613469389E+02  0.54367023148E+02  0.39999860870E+02 0.  0.
        -12    1    3    3    0    0 -0.20540055281E+02 -0.10731255048E+02  0.28613469389E+02  0.36820976852E+02  0.00000000000E+00 0.  1.
         11    1    4    4    0    0  0.45988089855E+01  0.11464699851E+02 -0.17534579627E+02  0.21448773152E+02  0.51100000000E-03 0. -1.
        -11    1    4    4    0    0  0.22125394731E+02 -0.44227363990E+01 -0.12168528920E+02  0.25635264492E+02  0.51100000000E-03 0.  1.
        -12    1    4    4    0    0 -0.61841484351E+01  0.36892915965E+01  0.10896391589E+01  0.72829855037E+01  0.00000000000E+00 0.  1.
</event>
<event>
 8    1  0.2511738E-006  0.9118800E+02  0.7816164E-02  0.1184000E+00
        -11   -1    0    0    0    0  0.00000000000E+00  0.00000000000E+00  0.45593999997E+02  0.45594000000E+02  0.51100000000E-03 0. -1.
         11   -1    0    0    0    0 -0.00000000000E+00 -0.00000000000E+00 -0.45593999997E+02  0.45594000000E+02  0.51100000000E-03 0.  1.
         23    2    1    2    0    0  0.00000000000E+00 -0.71054273576E-14  0.00000000000E+00  0.91188000000E+02  0.91188000000E+02 0.  0.
    9900012    2    3    3    0    0  0.21236601737E+02 -0.28612625035E+02  0.92792841321E+01  0.54367072815E+02  0.39999974097E+02 0.  0.
        -12    1    3    3    0    0 -0.21236601737E+02  0.28612625035E+02 -0.92792841321E+01  0.36820927185E+02  0.00000000000E+00 0.  1.
         11    1    4    4    0    0  0.26012544869E+01 -0.36107533948E+01  0.83226651563E+00  0.45273317526E+01  0.51100000000E-03 0. -1.
        -11    1    4    4    0    0  0.19015232056E+02 -0.34475539000E+02  0.47261778761E+01  0.39654490251E+02  0.51100000000E-03 0.  1.
         12    1    4    4    0    0 -0.37988480617E+00  0.94736673602E+01  0.37208397403E+01  0.10185250811E+02  0.00000000000E+00 0. -1.
</event>
<event>
 8    1  0.2511738E-006  0.9118800E+02  0.7816164E-02  0.1184000E+00
        -11   -1    0    0    0    0  0.00000000000E+00  0.00000000000E+00  0.45593999997E+02  0.45594000000E+02  0.51100000000E-03 0. -1.
         11   -1    0    0    0    0 -0.00000000000E+00 -0.00000000000E+00 -0.45593999997E+02  0.45594000000E+02  0.51100000000E-03 0.  1.
         23    2    1    2    0    0 -0.17763568394E-14  0.71054273576E-14 -0.88817841970E-15  0.91188000000E+02  0.91188000000E+02 0.  0.
    9900012    2    3    3    0    0  0.14639485762E+02  0.33168024681E+02 -0.64302211836E+01  0.54367080008E+02  0.39999990494E+02 0.  0.
        -12    1    3    3    0    0 -0.14639485762E+02 -0.33168024681E+02  0.64302211836E+01  0.36820919992E+02  0.00000000000E+00 0.  1.
         11    1    4    4    0    0 -0.14045683568E+01  0.65735772183E+00  0.48605970391E+01  0.51019932655E+01  0.51100000000E-03 0. -1.
        -11    1    4    4    0    0 -0.76592228175E+01  0.96822053653E+01 -0.10721990648E+02  0.16351448823E+02  0.51100000000E-03 0.  1.
         12    1    4    4    0    0  0.23703276937E+02  0.22828461593E+02 -0.56882757485E+00  0.32913637919E+02  0.00000000000E+00 0. -1.
</event>
<event>
 8    1  0.2511738E-006  0.9118800E+02  0.7816164E-02  0.1184000E+00
        -11   -1    0    0    0    0  0.00000000000E+00  0.00000000000E+00  0.45593999997E+02  0.45594000000E+02  0.51100000000E-03 0. -1.
         11   -1    0    0    0    0 -0.00000000000E+00 -0.00000000000E+00 -0.45593999997E+02  0.45594000000E+02  0.51100000000E-03 0.  1.
         23    2    1    2    0    0  0.00000000000E+00  0.17763568394E-14  0.00000000000E+00  0.91188000000E+02  0.91188000000E+02 0.  0.
    9900012    2    3    3    0    0 -0.27079594423E+02  0.94397349890E+01  0.23094732475E+02  0.54367086121E+02  0.40000004431E+02 0.  0.
        -12    1    3    3    0    0  0.27079594423E+02 -0.94397349890E+01 -0.23094732475E+02  0.36820913879E+02  0.00000000000E+00 0.  1.
         11    1    4    4    0    0 -0.58426487590E+01  0.80755890700E+01  0.78257040420E+01  0.12672542261E+02  0.51100000000E-03 0.  1.
        -11    1    4    4    0    0 -0.58871207834E+01  0.86018558239E+01  0.21276015020E+02  0.23692170228E+02  0.51100000000E-03 0. -1.
        -12    1    4    4    0    0 -0.15349824880E+02 -0.72377099048E+01 -0.60069865871E+01  0.18002373632E+02  0.00000000000E+00 0.  1.
</event>
<event>
 8    1  0.2511738E-006  0.9118800E+02  0.7816164E-02  0.1184000E+00
        -11   -1    0    0    0    0  0.00000000000E+00  0.00000000000E+00  0.45593999997E+02  0.45594000000E+02  0.51100000000E-03 0.  1.
         11   -1    0    0    0    0 -0.00000000000E+00 -0.00000000000E+00 -0.45593999997E+02  0.45594000000E+02  0.51100000000E-03 0. -1.
         23    2    1    2    0    0  0.00000000000E+00  0.00000000000E+00  0.00000000000E+00  0.91188000000E+02  0.91188000000E+02 0.  0.
    9900012    2    3    3    0    0 -0.31278151395E+02 -0.17794241525E+02 -0.77988220925E+01  0.54367090014E+02  0.40000013305E+02 0.  0.
        -12    1    3    3    0    0  0.31278151395E+02  0.17794241525E+02  0.77988220925E+01  0.36820909986E+02  0.00000000000E+00 0.  1.
         11    1    4    4    0    0  0.10064661947E+01  0.33792979452E+01 -0.60768512235E+01  0.70257205934E+01  0.51100000000E-03 0. -1.
        -11    1    4    4    0    0 -0.15953357726E+02  0.43824278860E+01  0.24588559584E+01  0.16726065580E+02  0.51100000000E-03 0.  1.
        -12    1    4    4    0    0 -0.16331259864E+02 -0.25555967356E+02 -0.41808268274E+01  0.30615303840E+02  0.00000000000E+00 0.  1.
</event>
<event>
 8    1  0.2511738E-006  0.9118800E+02  0.7816164E-02  0.1184000E+00
        -11   -1    0    0    0    0  0.00000000000E+00  0.00000000000E+00  0.45593999997E+02  0.45594000000E+02  0.51100000000E-03 0.  1.
         11   -1    0    0    0    0 -0.00000000000E+00 -0.00000000000E+00 -0.45593999997E+02  0.45594000000E+02  0.51100000000E-03 0. -1.
         23    2    1    2    0    0  0.13322676296E-14  0.00000000000E+00  0.71054273576E-14  0.91188000000E+02  0.91188000000E+02 0.  0.
    9900012    2    3    3    0    0  0.32805068619E+01  0.17621389038E+02 -0.32163712649E+02  0.54367088981E+02  0.40000010950E+02 0.  0.
        -12    1    3    3    0    0 -0.32805068619E+01 -0.17621389038E+02  0.32163712649E+02  0.36820911019E+02  0.00000000000E+00 0.  1.
         11    1    4    4    0    0  0.65037117207E+00  0.65666796481E+00 -0.22354781799E+01  0.24189994691E+01  0.51100000000E-03 0. -1.
        -11    1    4    4    0    0 -0.14803225298E+02  0.11694169546E+02 -0.27820989496E+02  0.33613933679E+02  0.51100000000E-03 0.  1.
        -12    1    4    4    0    0  0.17433360988E+02  0.52705515272E+01 -0.21072449726E+01  0.18334155833E+02  0.00000000000E+00 0.  1.
</event>
<event>
 8    1  0.2511738E-006  0.9118800E+02  0.7816164E-02  0.1184000E+00
        -11   -1    0    0    0    0  0.00000000000E+00  0.00000000000E+00  0.45593999997E+02  0.45594000000E+02  0.51100000000E-03 0. -1.
         11   -1    0    0    0    0 -0.00000000000E+00 -0.00000000000E+00 -0.45593999997E+02  0.45594000000E+02  0.51100000000E-03 0.  1.
         23    2    1    2    0    0  0.00000000000E+00 -0.17763568394E-14  0.00000000000E+00  0.91188000000E+02  0.91188000000E+02 0.  0.
    9900012    2    3    3    0    0 -0.27477496222E+02  0.11044950687E+02 -0.21880947751E+02  0.54367087344E+02  0.40000007219E+02 0.  0.
         12    1    3    3    0    0  0.27477496222E+02 -0.11044950687E+02  0.21880947751E+02  0.36820912656E+02  0.00000000000E+00 0. -1.
         11    1    4    4    0    0 -0.27616032442E+01 -0.64868259243E+01 -0.41828815267E+01  0.81976741322E+01  0.51100000000E-03 0. -1.
        -11    1    4    4    0    0 -0.10264230235E+02  0.24417013063E+02 -0.91539144013E+01  0.28023902269E+02  0.51100000000E-03 0.  1.
        -12    1    4    4    0    0 -0.14451662743E+02 -0.68852364515E+01 -0.85441518230E+01  0.18145510944E+02  0.00000000000E+00 0.  1.
</event>
<event>
 8    1  0.2511738E-006  0.9118800E+02  0.7816164E-02  0.1184000E+00
        -11   -1    0    0    0    0  0.00000000000E+00  0.00000000000E+00  0.45593999997E+02  0.45594000000E+02  0.51100000000E-03 0. -1.
         11   -1    0    0    0    0 -0.00000000000E+00 -0.00000000000E+00 -0.45593999997E+02  0.45594000000E+02  0.51100000000E-03 0.  1.
         23    2    1    2    0    0  0.17763568394E-14 -0.71054273576E-14  0.00000000000E+00  0.91188000000E+02  0.91188000000E+02 0.  0.
    9900012    2    3    3    0    0  0.96849864250E+01 -0.34457944484E+02  0.86388106798E+01  0.54367109869E+02  0.40000058567E+02 0.  0.
         12    1    3    3    0    0 -0.96849864250E+01  0.34457944484E+02 -0.86388106798E+01  0.36820890131E+02  0.00000000000E+00 0. -1.
         11    1    4    4    0    0  0.13840948137E+02  0.17852297932E+01  0.48283576047E+01  0.14767258654E+02  0.51100000000E-03 0. -1.
        -11    1    4    4    0    0  0.13349834688E+01 -0.20939557694E+01 -0.34572491041E+01  0.42566892364E+01  0.51100000000E-03 0.  1.
        -12    1    4    4    0    0 -0.54909451803E+01 -0.34149218508E+02  0.72677021792E+01  0.35343161978E+02  0.00000000000E+00 0.  1.
</event>
<event>
 8    1  0.2511738E-006  0.9118800E+02  0.7816164E-02  0.1184000E+00
        -11   -1    0    0    0    0  0.00000000000E+00  0.00000000000E+00  0.45593999997E+02  0.45594000000E+02  0.51100000000E-03 0. -1.
         11   -1    0    0    0    0 -0.00000000000E+00 -0.00000000000E+00 -0.45593999997E+02  0.45594000000E+02  0.51100000000E-03 0.  1.
         23    2    1    2    0    0  0.44408920985E-15  0.17763568394E-14  0.00000000000E+00  0.91188000000E+02  0.91188000000E+02 0.  0.
    9900012    2    3    3    0    0  0.32179048629E+01 -0.98435875297E+01 -0.35334535807E+02  0.54367074592E+02  0.39999978148E+02 0.  0.
         12    1    3    3    0    0 -0.32179048629E+01  0.98435875297E+01  0.35334535807E+02  0.36820925408E+02  0.00000000000E+00 0. -1.
         11    1    4    4    0    0 -0.47326815709E+01 -0.16420131320E+02 -0.21490422591E+02  0.27456461003E+02  0.51100000000E-03 0. -1.
        -11    1    4    4    0    0  0.11386128906E+02 -0.19280722749E+01 -0.16706881959E+01  0.11668444346E+02  0.51100000000E-03 0.  1.
        -12    1    4    4    0    0 -0.34355424720E+01  0.85046160652E+01 -0.12173425020E+02  0.15242169242E+02  0.00000000000E+00 0.  1.
</event>
<event>
 8    1  0.2511738E-006  0.9118800E+02  0.7816164E-02  0.1184000E+00
        -11   -1    0    0    0    0  0.00000000000E+00  0.00000000000E+00  0.45593999997E+02  0.45594000000E+02  0.51100000000E-03 0.  1.
         11   -1    0    0    0    0 -0.00000000000E+00 -0.00000000000E+00 -0.45593999997E+02  0.45594000000E+02  0.51100000000E-03 0. -1.
         23    2    1    2    0    0  0.00000000000E+00  0.00000000000E+00  0.00000000000E+00  0.91188000000E+02  0.91188000000E+02 0.  0.
    9900012    2    3    3    0    0  0.14295815590E+02 -0.24096663589E+02 -0.23890557088E+02  0.54367105694E+02  0.40000049051E+02 0.  0.
        -12    1    3    3    0    0 -0.14295815590E+02  0.24096663589E+02  0.23890557088E+02  0.36820894306E+02  0.00000000000E+00 0.  1.
         11    1    4    4    0    0  0.75668925590E+01 -0.11100357151E+02 -0.61133142069E-01  0.13434266984E+02  0.51100000000E-03 0. -1.
        -11    1    4    4    0    0 -0.11066891622E+02 -0.22677750281E+01 -0.34116775698E+01  0.11800781239E+02  0.51100000000E-03 0.  1.
         12    1    4    4    0    0  0.17795814653E+02 -0.10728531410E+02 -0.20417746376E+02  0.29132057470E+02  0.00000000000E+00 0. -1.
</event>
<event>
 8    1  0.2511738E-006  0.9118800E+02  0.7816164E-02  0.1184000E+00
        -11   -1    0    0    0    0  0.00000000000E+00  0.00000000000E+00  0.45593999997E+02  0.45594000000E+02  0.51100000000E-03 0.  1.
         11   -1    0    0    0    0 -0.00000000000E+00 -0.00000000000E+00 -0.45593999997E+02  0.45594000000E+02  0.51100000000E-03 0. -1.
         23    2    1    2    0    0 -0.35527136788E-14  0.71054273576E-14  0.22204460493E-15  0.91188000000E+02  0.91188000000E+02 0.  0.
    9900012    2    3    3    0    0 -0.28137057536E+02 -0.23748752997E+02 -0.28644669871E+00  0.54367091165E+02  0.40000015929E+02 0.  0.
        -12    1    3    3    0    0  0.28137057536E+02  0.23748752997E+02  0.28644669871E+00  0.36820908835E+02  0.00000000000E+00 0.  1.
         11    1    4    4    0    0 -0.14060444553E+01  0.37370273616E+01 -0.27529189503E+01  0.48498347930E+01  0.51100000000E-03 0. -1.
        -11    1    4    4    0    0  0.45769270800E+01 -0.39123315799E+01  0.79202396275E+01  0.99491103072E+01  0.51100000000E-03 0.  1.
         12    1    4    4    0    0 -0.31307940161E+02 -0.23573448778E+02 -0.54537673759E+01  0.39568146065E+02  0.00000000000E+00 0. -1.
</event>
<event>
 8    1  0.2511738E-006  0.9118800E+02  0.7816164E-02  0.1184000E+00
        -11   -1    0    0    0    0  0.00000000000E+00  0.00000000000E+00  0.45593999997E+02  0.45594000000E+02  0.51100000000E-03 0.  1.
         11   -1    0    0    0    0 -0.00000000000E+00 -0.00000000000E+00 -0.45593999997E+02  0.45594000000E+02  0.51100000000E-03 0. -1.
         23    2    1    2    0    0  0.00000000000E+00  0.00000000000E+00  0.71054273576E-14  0.91188000000E+02  0.91188000000E+02 0.  0.
    9900012    2    3    3    0    0 -0.12225834527E+02  0.56230984547E+01  0.34273805095E+02  0.54367027962E+02  0.39999871846E+02 0.  0.
         12    1    3    3    0    0  0.12225834527E+02 -0.56230984547E+01 -0.34273805095E+02  0.36820972038E+02  0.00000000000E+00 0. -1.
         11    1    4    4    0    0 -0.67374468457E+01 -0.85530599860E+01  0.27342340594E+02  0.29430453862E+02  0.51100000000E-03 0. -1.
        -11    1    4    4    0    0 -0.11524955058E+02  0.42156569203E+01  0.42307792395E+01  0.12980594963E+02  0.51100000000E-03 0.  1.
         12    1    4    4    0    0  0.60365673774E+01  0.99605015203E+01  0.27006852613E+01  0.11955979137E+02  0.00000000000E+00 0. -1.
</event>
<event>
 8    1  0.2511738E-006  0.9118800E+02  0.7816164E-02  0.1184000E+00
        -11   -1    0    0    0    0  0.00000000000E+00  0.00000000000E+00  0.45593999997E+02  0.45594000000E+02  0.51100000000E-03 0.  1.
         11   -1    0    0    0    0 -0.00000000000E+00 -0.00000000000E+00 -0.45593999997E+02  0.45594000000E+02  0.51100000000E-03 0. -1.
         23    2    1    2    0    0  0.13322676296E-14  0.00000000000E+00 -0.35527136788E-14  0.91188000000E+02  0.91188000000E+02 0.  0.
    9900012    2    3    3    0    0 -0.20441674160E+01 -0.28026504188E+02  0.23793172544E+02  0.54367100811E+02  0.40000037918E+02 0.  0.
         12    1    3    3    0    0  0.20441674160E+01  0.28026504188E+02 -0.23793172544E+02  0.36820899189E+02  0.00000000000E+00 0. -1.
         11    1    4    4    0    0  0.96625167759E+01 -0.80401946039E+01  0.44338060569E+01  0.13329200881E+02  0.51100000000E-03 0. -1.
        -11    1    4    4    0    0 -0.47636916642E+01 -0.15583737439E+02  0.25853912209E+02  0.30560929430E+02  0.51100000000E-03 0.  1.
        -12    1    4    4    0    0 -0.69429925277E+01 -0.44025721442E+01 -0.64945457215E+01  0.10476970500E+02  0.00000000000E+00 0.  1.
</event>
<event>
 8    1  0.2511738E-006  0.9118800E+02  0.7816164E-02  0.1184000E+00
        -11   -1    0    0    0    0  0.00000000000E+00  0.00000000000E+00  0.45593999997E+02  0.45594000000E+02  0.51100000000E-03 0. -1.
         11   -1    0    0    0    0 -0.00000000000E+00 -0.00000000000E+00 -0.45593999997E+02  0.45594000000E+02  0.51100000000E-03 0.  1.
         23    2    1    2    0    0  0.00000000000E+00 -0.17763568394E-14  0.00000000000E+00  0.91188000000E+02  0.91188000000E+02 0.  0.
    9900012    2    3    3    0    0  0.88963452651E+01 -0.10679035921E+02 -0.34096790343E+02  0.54367110834E+02  0.40000060768E+02 0.  0.
         12    1    3    3    0    0 -0.88963452651E+01  0.10679035921E+02  0.34096790343E+02  0.36820889166E+02  0.00000000000E+00 0. -1.
         11    1    4    4    0    0 -0.50919611874E+01 -0.71176904947E+01  0.90577489284E+00  0.87982961492E+01  0.51100000000E-03 0. -1.
        -11    1    4    4    0    0  0.19797648105E+02  0.28176208527E+01 -0.20126757100E+02  0.28372032168E+02  0.51100000000E-03 0.  1.
        -12    1    4    4    0    0 -0.58093416521E+01 -0.63789662790E+01 -0.14875808136E+02  0.17196782517E+02  0.00000000000E+00 0.  1.
</event>
<event>
 8    1  0.2511738E-006  0.9118800E+02  0.7816164E-02  0.1184000E+00
        -11   -1    0    0    0    0  0.00000000000E+00  0.00000000000E+00  0.45593999997E+02  0.45594000000E+02  0.51100000000E-03 0. -1.
         11   -1    0    0    0    0 -0.00000000000E+00 -0.00000000000E+00 -0.45593999997E+02  0.45594000000E+02  0.51100000000E-03 0.  1.
         23    2    1    2    0    0 -0.35527136788E-14  0.27755575616E-16  0.00000000000E+00  0.91188000000E+02  0.91188000000E+02 0.  0.
    9900012    2    3    3    0    0  0.14495700624E+02 -0.12710638176E+00  0.33847175539E+02  0.54367180012E+02  0.40000218473E+02 0.  0.
        -12    1    3    3    0    0 -0.14495700624E+02  0.12710638176E+00 -0.33847175539E+02  0.36820819988E+02  0.00000000000E+00 0.  1.
         11    1    4    4    0    0  0.44501184676E+01 -0.71422813084E+01  0.21691719933E+01  0.86902844638E+01  0.51100000000E-03 0. -1.
        -11    1    4    4    0    0  0.20915481443E+02  0.69403727316E+01  0.21160202680E+02  0.30551273547E+02  0.51100000000E-03 0.  1.
         12    1    4    4    0    0 -0.10869899286E+02  0.74802195046E-01  0.10517800866E+02  0.15125622001E+02  0.00000000000E+00 0. -1.
</event>
<event>
 8    1  0.2511738E-006  0.9118800E+02  0.7816164E-02  0.1184000E+00
        -11   -1    0    0    0    0  0.00000000000E+00  0.00000000000E+00  0.45593999997E+02  0.45594000000E+02  0.51100000000E-03 0.  1.
         11   -1    0    0    0    0 -0.00000000000E+00 -0.00000000000E+00 -0.45593999997E+02  0.45594000000E+02  0.51100000000E-03 0. -1.
         23    2    1    2    0    0  0.17763568394E-14  0.35527136788E-14  0.00000000000E+00  0.91188000000E+02  0.91188000000E+02 0.  0.
    9900012    2    3    3    0    0  0.11504736541E+02 -0.22678895778E+02 -0.26628719206E+02  0.54367082532E+02  0.39999996249E+02 0.  0.
        -12    1    3    3    0    0 -0.11504736541E+02  0.22678895778E+02  0.26628719206E+02  0.36820917468E+02  0.00000000000E+00 0.  1.
         11    1    4    4    0    0  0.19225339390E+00 -0.76162334036E+01 -0.13647219820E+02  0.15629797878E+02  0.51100000000E-03 0. -1.
        -11    1    4    4    0    0 -0.34146406205E+01 -0.13146542592E+01 -0.17675981287E+02  0.18050717468E+02  0.51100000000E-03 0.  1.
        -12    1    4    4    0    0  0.14727123768E+02 -0.13748008116E+02  0.46944819016E+01  0.20686567186E+02  0.00000000000E+00 0.  1.
</event>
<event>
 8    1  0.2511738E-006  0.9118800E+02  0.7816164E-02  0.1184000E+00
        -11   -1    0    0    0    0  0.00000000000E+00  0.00000000000E+00  0.45593999997E+02  0.45594000000E+02  0.51100000000E-03 0.  1.
         11   -1    0    0    0    0 -0.00000000000E+00 -0.00000000000E+00 -0.45593999997E+02  0.45594000000E+02  0.51100000000E-03 0. -1.
         23    2    1    2    0    0  0.00000000000E+00  0.00000000000E+00  0.00000000000E+00  0.91188000000E+02  0.91188000000E+02 0.  0.
    9900012    2    3    3    0    0  0.31204947490E+02  0.17989698537E+02 -0.76415884449E+01  0.54367192359E+02  0.40000246621E+02 0.  0.
        -12    1    3    3    0    0 -0.31204947490E+02 -0.17989698537E+02  0.76415884449E+01  0.36820807641E+02  0.00000000000E+00 0.  1.
         11    1    4    4    0    0  0.51968033708E+01  0.85088258911E+01 -0.86324910000E+00  0.10007601241E+02  0.51100000000E-03 0. -1.
        -11    1    4    4    0    0  0.15103101202E+02  0.10118545814E+02  0.12596860766E+02  0.22117177414E+02  0.51100000000E-03 0.  1.
         12    1    4    4    0    0  0.10905042917E+02 -0.63767316776E+00 -0.19375200111E+02  0.22242413705E+02  0.00000000000E+00 0. -1.
</event>
<event>
 8    1  0.2511738E-006  0.9118800E+02  0.7816164E-02  0.1184000E+00
        -11   -1    0    0    0    0  0.00000000000E+00  0.00000000000E+00  0.45593999997E+02  0.45594000000E+02  0.51100000000E-03 0.  1.
         11   -1    0    0    0    0 -0.00000000000E+00 -0.00000000000E+00 -0.45593999997E+02  0.45594000000E+02  0.51100000000E-03 0. -1.
         23    2    1    2    0    0  0.88817841970E-15  0.44408920985E-15  0.71054273576E-14  0.91188000000E+02  0.91188000000E+02 0.  0.
    9900012    2    3    3    0    0  0.18513176093E+01  0.28648438365E+01 -0.36662563226E+02  0.54367105804E+02  0.40000049302E+02 0.  0.
        -12    1    3    3    0    0 -0.18513176093E+01 -0.28648438365E+01  0.36662563226E+02  0.36820894196E+02  0.00000000000E+00 0.  1.
         11    1    4    4    0    0 -0.14027309633E+02  0.67534860081E+01 -0.35795046102E+01  0.15974599911E+02  0.51100000000E-03 0.  1.
        -11    1    4    4    0    0  0.37505726409E+01 -0.20006148444E+00 -0.98647795928E+00  0.38832922575E+01  0.51100000000E-03 0. -1.
         12    1    4    4    0    0  0.12128054602E+02 -0.36885806871E+01 -0.32096580656E+02  0.34509213635E+02  0.00000000000E+00 0. -1.
</event>
<event>
 8    1  0.2511738E-006  0.9118800E+02  0.7816164E-02  0.1184000E+00
        -11   -1    0    0    0    0  0.00000000000E+00  0.00000000000E+00  0.45593999997E+02  0.45594000000E+02  0.51100000000E-03 0. -1.
         11   -1    0    0    0    0 -0.00000000000E+00 -0.00000000000E+00 -0.45593999997E+02  0.45594000000E+02  0.51100000000E-03 0.  1.
         23    2    1    2    0    0 -0.17763568394E-14 -0.35527136788E-14 -0.35527136788E-14  0.91188000000E+02  0.91188000000E+02 0.  0.
    9900012    2    3    3    0    0  0.82463644106E+01 -0.26001783127E+02 -0.24732255400E+02  0.54367085984E+02  0.40000004119E+02 0.  0.
         12    1    3    3    0    0 -0.82463644106E+01  0.26001783127E+02  0.24732255400E+02  0.36820914016E+02  0.00000000000E+00 0. -1.
         11    1    4    4    0    0  0.14030096890E+00 -0.48745958425E+01  0.71943181797E+01  0.86913510642E+01  0.51100000000E-03 0. -1.
        -11    1    4    4    0    0  0.59493766452E+00  0.16557056923E+01  0.28968379894E+01  0.33892451611E+01  0.51100000000E-03 0.  1.
        -12    1    4    4    0    0  0.75111257771E+01 -0.22782892977E+02 -0.34823411569E+02  0.42286489759E+02  0.00000000000E+00 0.  1.
</event>
<event>
 8    1  0.2511738E-006  0.9118800E+02  0.7816164E-02  0.1184000E+00
        -11   -1    0    0    0    0  0.00000000000E+00  0.00000000000E+00  0.45593999997E+02  0.45594000000E+02  0.51100000000E-03 0. -1.
         11   -1    0    0    0    0 -0.00000000000E+00 -0.00000000000E+00 -0.45593999997E+02  0.45594000000E+02  0.51100000000E-03 0.  1.
         23    2    1    2    0    0  0.00000000000E+00 -0.17763568394E-14  0.71054273576E-14  0.91188000000E+02  0.91188000000E+02 0.  0.
    9900012    2    3    3    0    0  0.91685900086E+01  0.14390215120E+02 -0.32628832419E+02  0.54367054344E+02  0.39999931989E+02 0.  0.
         12    1    3    3    0    0 -0.91685900086E+01 -0.14390215120E+02  0.32628832419E+02  0.36820945656E+02  0.00000000000E+00 0. -1.
         11    1    4    4    0    0  0.43644118235E+01 -0.80056511516E+01  0.14973711897E+01  0.92401656731E+01  0.51100000000E-03 0. -1.
        -11    1    4    4    0    0 -0.66202121978E+01  0.45213597511E+01 -0.12366838503E+02  0.14737998451E+02  0.51100000000E-03 0.  1.
        -12    1    4    4    0    0  0.11424390383E+02  0.17874506521E+02 -0.21759365106E+02  0.30388890220E+02  0.00000000000E+00 0.  1.
</event>
<event>
 8    1  0.2511738E-006  0.9118800E+02  0.7816164E-02  0.1184000E+00
        -11   -1    0    0    0    0  0.00000000000E+00  0.00000000000E+00  0.45593999997E+02  0.45594000000E+02  0.51100000000E-03 0. -1.
         11   -1    0    0    0    0 -0.00000000000E+00 -0.00000000000E+00 -0.45593999997E+02  0.45594000000E+02  0.51100000000E-03 0.  1.
         23    2    1    2    0    0 -0.35527136788E-14  0.44408920985E-15  0.00000000000E+00  0.91188000000E+02  0.91188000000E+02 0.  0.
    9900012    2    3    3    0    0 -0.29583965535E+02 -0.14120964999E+01 -0.21876359746E+02  0.54367080008E+02  0.39999990495E+02 0.  0.
         12    1    3    3    0    0  0.29583965535E+02  0.14120964999E+01  0.21876359746E+02  0.36820919992E+02  0.00000000000E+00 0. -1.
         11    1    4    4    0    0 -0.36106317832E+02 -0.62573213706E+01 -0.80704698688E+01  0.37522696362E+02  0.51100000000E-03 0. -1.
        -11    1    4    4    0    0  0.26337543157E+00  0.10417842989E+01 -0.61736926255E+01  0.62665111536E+01  0.51100000000E-03 0.  1.
         12    1    4    4    0    0  0.62589768650E+01  0.38034405719E+01 -0.76321972515E+01  0.10577872492E+02  0.00000000000E+00 0. -1.
</event>
<event>
 8    1  0.2511738E-006  0.9118800E+02  0.7816164E-02  0.1184000E+00
        -11   -1    0    0    0    0  0.00000000000E+00  0.00000000000E+00  0.45593999997E+02  0.45594000000E+02  0.51100000000E-03 0.  1.
         11   -1    0    0    0    0 -0.00000000000E+00 -0.00000000000E+00 -0.45593999997E+02  0.45594000000E+02  0.51100000000E-03 0. -1.
         23    2    1    2    0    0  0.00000000000E+00  0.17763568394E-14  0.00000000000E+00  0.91188000000E+02  0.91188000000E+02 0.  0.
    9900012    2    3    3    0    0  0.78841216048E+01  0.15459257948E+02  0.32475090686E+02  0.54367088213E+02  0.40000009198E+02 0.  0.
         12    1    3    3    0    0 -0.78841216048E+01 -0.15459257948E+02 -0.32475090686E+02  0.36820911787E+02  0.00000000000E+00 0. -1.
         11    1    4    4    0    0 -0.85550270513E+00  0.71270228526E+01  0.10232468348E+02  0.12499189909E+02  0.51100000000E-03 0. -1.
        -11    1    4    4    0    0  0.22939680795E+01 -0.43329476173E+01 -0.74679910068E+01  0.89335107625E+01  0.51100000000E-03 0.  1.
        -12    1    4    4    0    0  0.64456562304E+01  0.12665182713E+02  0.29710613345E+02  0.32934387541E+02  0.00000000000E+00 0.  1.
</event>
<event>
 8    1  0.2511738E-006  0.9118800E+02  0.7816164E-02  0.1184000E+00
        -11   -1    0    0    0    0  0.00000000000E+00  0.00000000000E+00  0.45593999997E+02  0.45594000000E+02  0.51100000000E-03 0.  1.
         11   -1    0    0    0    0 -0.00000000000E+00 -0.00000000000E+00 -0.45593999997E+02  0.45594000000E+02  0.51100000000E-03 0. -1.
         23    2    1    2    0    0  0.00000000000E+00  0.17763568394E-14  0.35527136788E-14  0.91188000000E+02  0.91188000000E+02 0.  0.
    9900012    2    3    3    0    0 -0.28893085560E+02  0.11507605968E+02  0.19711524683E+02  0.54367087551E+02  0.40000007689E+02 0.  0.
         12    1    3    3    0    0  0.28893085560E+02 -0.11507605968E+02 -0.19711524683E+02  0.36820912449E+02  0.00000000000E+00 0. -1.
         11    1    4    4    0    0  0.19721601527E+00 -0.70156541534E+01  0.18266708172E+00  0.70208022960E+01  0.51100000000E-03 0. -1.
        -11    1    4    4    0    0 -0.13817694897E+02  0.18311715789E+02  0.49994942124E+00  0.22945535014E+02  0.51100000000E-03 0.  1.
        -12    1    4    4    0    0 -0.15272606678E+02  0.21154433216E+00  0.19028908180E+02  0.24400750240E+02  0.00000000000E+00 0.  1.
</event>
<event>
 8    1  0.2511738E-006  0.9118800E+02  0.7816164E-02  0.1184000E+00
        -11   -1    0    0    0    0  0.00000000000E+00  0.00000000000E+00  0.45593999997E+02  0.45594000000E+02  0.51100000000E-03 0. -1.
         11   -1    0    0    0    0 -0.00000000000E+00 -0.00000000000E+00 -0.45593999997E+02  0.45594000000E+02  0.51100000000E-03 0.  1.
         23    2    1    2    0    0  0.00000000000E+00  0.71054273576E-14  0.00000000000E+00  0.91188000000E+02  0.91188000000E+02 0.  0.
    9900012    2    3    3    0    0  0.14553299509E+02  0.32697169641E+02 -0.86531067406E+01  0.54367086304E+02  0.40000004848E+02 0.  0.
        -12    1    3    3    0    0 -0.14553299509E+02 -0.32697169641E+02  0.86531067406E+01  0.36820913696E+02  0.00000000000E+00 0.  1.
         11    1    4    4    0    0  0.15985704366E+02  0.13504640967E+02 -0.27320436306E+01  0.21104078620E+02  0.51100000000E-03 0. -1.
        -11    1    4    4    0    0  0.10515548940E+02  0.17834899605E+02 -0.35352230165E+01  0.21003766697E+02  0.51100000000E-03 0.  1.
        -12    1    4    4    0    0 -0.11947953797E+02  0.13576290681E+01 -0.23858400935E+01  0.12259240987E+02  0.00000000000E+00 0.  1.
</event>
<event>
 8    1  0.2511738E-006  0.9118800E+02  0.7816164E-02  0.1184000E+00
        -11   -1    0    0    0    0  0.00000000000E+00  0.00000000000E+00  0.45593999997E+02  0.45594000000E+02  0.51100000000E-03 0. -1.
         11   -1    0    0    0    0 -0.00000000000E+00 -0.00000000000E+00 -0.45593999997E+02  0.45594000000E+02  0.51100000000E-03 0.  1.
         23    2    1    2    0    0 -0.53290705182E-14 -0.71054273576E-14  0.88817841970E-15  0.91188000000E+02  0.91188000000E+02 0.  0.
    9900012    2    3    3    0    0  0.13328807532E+02  0.33467440385E+02 -0.76191925501E+01  0.54367098718E+02  0.40000033147E+02 0.  0.
         12    1    3    3    0    0 -0.13328807532E+02 -0.33467440385E+02  0.76191925501E+01  0.36820901282E+02  0.00000000000E+00 0. -1.
         11    1    4    4    0    0 -0.64326687700E+01 -0.29120345007E+01 -0.75119587269E+01  0.10309640955E+02  0.51100000000E-03 0. -1.
        -11    1    4    4    0    0  0.18557379408E+02  0.21390119118E+02  0.36640248835E+01  0.28554134639E+02  0.51100000000E-03 0.  1.
         12    1    4    4    0    0  0.12040968934E+01  0.14989355767E+02 -0.37712587067E+01  0.15503323124E+02  0.00000000000E+00 0. -1.
</event>
<event>
 8    1  0.2511738E-006  0.9118800E+02  0.7816164E-02  0.1184000E+00
        -11   -1    0    0    0    0  0.00000000000E+00  0.00000000000E+00  0.45593999997E+02  0.45594000000E+02  0.51100000000E-03 0.  1.
         11   -1    0    0    0    0 -0.00000000000E+00 -0.00000000000E+00 -0.45593999997E+02  0.45594000000E+02  0.51100000000E-03 0. -1.
         23    2    1    2    0    0  0.00000000000E+00  0.00000000000E+00  0.71054273576E-14  0.91188000000E+02  0.91188000000E+02 0.  0.
    9900012    2    3    3    0    0  0.14491462707E+02  0.85614592082E+01 -0.32748717684E+02  0.54367087666E+02  0.40000007952E+02 0.  0.
        -12    1    3    3    0    0 -0.14491462707E+02 -0.85614592082E+01  0.32748717684E+02  0.36820912334E+02  0.00000000000E+00 0.  1.
         11    1    4    4    0    0 -0.10461663784E+01  0.54586322280E+01  0.33463713809E+01  0.64876291179E+01  0.51100000000E-03 0. -1.
        -11    1    4    4    0    0  0.15969878088E+02 -0.21533560025E+01 -0.57963986830E+01  0.17125191566E+02  0.51100000000E-03 0.  1.
         12    1    4    4    0    0 -0.43224900256E+00  0.52561829828E+01 -0.30298690382E+02  0.30754266982E+02  0.00000000000E+00 0. -1.
</event>
<event>
 8    1  0.2511738E-006  0.9118800E+02  0.7816164E-02  0.1184000E+00
        -11   -1    0    0    0    0  0.00000000000E+00  0.00000000000E+00  0.45593999997E+02  0.45594000000E+02  0.51100000000E-03 0. -1.
         11   -1    0    0    0    0 -0.00000000000E+00 -0.00000000000E+00 -0.45593999997E+02  0.45594000000E+02  0.51100000000E-03 0.  1.
         23    2    1    2    0    0  0.00000000000E+00  0.00000000000E+00  0.00000000000E+00  0.91188000000E+02  0.91188000000E+02 0.  0.
    9900012    2    3    3    0    0  0.21463302840E+02 -0.22915971823E+02  0.19234438471E+02  0.54367098915E+02  0.40000033597E+02 0.  0.
         12    1    3    3    0    0 -0.21463302840E+02  0.22915971823E+02 -0.19234438471E+02  0.36820901085E+02  0.00000000000E+00 0. -1.
         11    1    4    4    0    0 -0.93627936600E+01 -0.11294563827E+02  0.31354073914E+01  0.15001995098E+02  0.51100000000E-03 0. -1.
        -11    1    4    4    0    0  0.71751837498E+01 -0.89031896708E+01  0.17478072085E+01  0.11567405866E+02  0.51100000000E-03 0.  1.
         12    1    4    4    0    0  0.23650912751E+02 -0.27182183254E+01  0.14351223871E+02  0.27797697952E+02  0.00000000000E+00 0. -1.
</event>
<event>
 8    1  0.2511738E-006  0.9118800E+02  0.7816164E-02  0.1184000E+00
        -11   -1    0    0    0    0  0.00000000000E+00  0.00000000000E+00  0.45593999997E+02  0.45594000000E+02  0.51100000000E-03 0. -1.
         11   -1    0    0    0    0 -0.00000000000E+00 -0.00000000000E+00 -0.45593999997E+02  0.45594000000E+02  0.51100000000E-03 0.  1.
         23    2    1    2    0    0  0.00000000000E+00 -0.35527136788E-14 -0.35527136788E-14  0.91188000000E+02  0.91188000000E+02 0.  0.
    9900012    2    3    3    0    0 -0.24725288789E+02 -0.20239506412E+02 -0.18297605666E+02  0.54367083409E+02  0.39999998247E+02 0.  0.
         12    1    3    3    0    0  0.24725288789E+02  0.20239506412E+02  0.18297605666E+02  0.36820916591E+02  0.00000000000E+00 0. -1.
         11    1    4    4    0    0 -0.41830890605E+01 -0.42612227407E+01  0.54932428815E+01  0.81136903410E+01  0.51100000000E-03 0. -1.
        -11    1    4    4    0    0 -0.44129725043E+00 -0.19276863307E+02 -0.12185297967E+02  0.22809508741E+02  0.51100000000E-03 0.  1.
         12    1    4    4    0    0 -0.20100902478E+02  0.32985796351E+01 -0.11605550581E+02  0.23443884327E+02  0.00000000000E+00 0. -1.
</event>
<event>
 8    1  0.2511738E-006  0.9118800E+02  0.7816164E-02  0.1184000E+00
        -11   -1    0    0    0    0  0.00000000000E+00  0.00000000000E+00  0.45593999997E+02  0.45594000000E+02  0.51100000000E-03 0.  1.
         11   -1    0    0    0    0 -0.00000000000E+00 -0.00000000000E+00 -0.45593999997E+02  0.45594000000E+02  0.51100000000E-03 0. -1.
         23    2    1    2    0    0  0.00000000000E+00 -0.35527136788E-14  0.00000000000E+00  0.91188000000E+02  0.91188000000E+02 0.  0.
    9900012    2    3    3    0    0  0.16097496141E+02 -0.25388964453E+02 -0.21261468168E+02  0.54367096608E+02  0.40000028337E+02 0.  0.
         12    1    3    3    0    0 -0.16097496141E+02  0.25388964453E+02  0.21261468168E+02  0.36820903392E+02  0.00000000000E+00 0. -1.
         11    1    4    4    0    0  0.13530527213E+01 -0.82751585491E+01 -0.77753416966E+01  0.11435249863E+02  0.51100000000E-03 0. -1.
        -11    1    4    4    0    0  0.25613486007E+02 -0.12349308408E+02 -0.65275636825E+01  0.29174735157E+02  0.51100000000E-03 0.  1.
         12    1    4    4    0    0 -0.10869042587E+02 -0.47644974954E+01 -0.69585627885E+01  0.13757111588E+02  0.00000000000E+00 0. -1.
</event>
<event>
 8    1  0.2511738E-006  0.9118800E+02  0.7816164E-02  0.1184000E+00
        -11   -1    0    0    0    0  0.00000000000E+00  0.00000000000E+00  0.45593999997E+02  0.45594000000E+02  0.51100000000E-03 0.  1.
         11   -1    0    0    0    0 -0.00000000000E+00 -0.00000000000E+00 -0.45593999997E+02  0.45594000000E+02  0.51100000000E-03 0. -1.
         23    2    1    2    0    0  0.00000000000E+00  0.00000000000E+00  0.00000000000E+00  0.91188000000E+02  0.91188000000E+02 0.  0.
    9900012    2    3    3    0    0 -0.89003928763E+01 -0.11462593420E+02  0.33840466267E+02  0.54367011442E+02  0.39999834183E+02 0.  0.
         12    1    3    3    0    0  0.89003928763E+01  0.11462593420E+02 -0.33840466267E+02  0.36820988558E+02  0.00000000000E+00 0. -1.
         11    1    4    4    0    0 -0.56067209833E+01 -0.83652975350E+01  0.15225526641E+02  0.18254593526E+02  0.51100000000E-03 0. -1.
        -11    1    4    4    0    0  0.41160682798E+01 -0.79228266078E+01  0.24104233561E+02  0.25704615838E+02  0.51100000000E-03 0.  1.
         12    1    4    4    0    0 -0.74097401727E+01  0.48255307233E+01 -0.54892939352E+01  0.10407802078E+02  0.00000000000E+00 0. -1.
</event>
<event>
 8    1  0.2511738E-006  0.9118800E+02  0.7816164E-02  0.1184000E+00
        -11   -1    0    0    0    0  0.00000000000E+00  0.00000000000E+00  0.45593999997E+02  0.45594000000E+02  0.51100000000E-03 0.  1.
         11   -1    0    0    0    0 -0.00000000000E+00 -0.00000000000E+00 -0.45593999997E+02  0.45594000000E+02  0.51100000000E-03 0. -1.
         23    2    1    2    0    0  0.00000000000E+00  0.88817841970E-15  0.00000000000E+00  0.91188000000E+02  0.91188000000E+02 0.  0.
    9900012    2    3    3    0    0 -0.32635337012E+02 -0.57840805549E+01  0.16039274035E+02  0.54367093964E+02  0.40000022310E+02 0.  0.
         12    1    3    3    0    0  0.32635337012E+02  0.57840805549E+01 -0.16039274035E+02  0.36820906036E+02  0.00000000000E+00 0. -1.
         11    1    4    4    0    0  0.19875997003E+01 -0.41402112819E+00 -0.50107455343E+01  0.54064347896E+01  0.51100000000E-03 0. -1.
        -11    1    4    4    0    0 -0.14694328308E+02 -0.15196968446E+02  0.15036249894E+02  0.25941471537E+02  0.51100000000E-03 0.  1.
        -12    1    4    4    0    0 -0.19928608404E+02  0.98269090191E+01  0.60137696746E+01  0.23019187638E+02  0.00000000000E+00 0.  1.
</event>
<event>
 8    1  0.2511738E-006  0.9118800E+02  0.7816164E-02  0.1184000E+00
        -11   -1    0    0    0    0  0.00000000000E+00  0.00000000000E+00  0.45593999997E+02  0.45594000000E+02  0.51100000000E-03 0. -1.
         11   -1    0    0    0    0 -0.00000000000E+00 -0.00000000000E+00 -0.45593999997E+02  0.45594000000E+02  0.51100000000E-03 0.  1.
         23    2    1    2    0    0  0.35527136788E-14 -0.35527136788E-14  0.00000000000E+00  0.91188000000E+02  0.91188000000E+02 0.  0.
    9900012    2    3    3    0    0 -0.27211742535E+02  0.10321442832E+02  0.22555897922E+02  0.54367086853E+02  0.40000006098E+02 0.  0.
        -12    1    3    3    0    0  0.27211742535E+02 -0.10321442832E+02 -0.22555897922E+02  0.36820913147E+02  0.00000000000E+00 0.  1.
         11    1    4    4    0    0 -0.30998048571E+01  0.40358504601E+01  0.15378549038E+02  0.16198661978E+02  0.51100000000E-03 0. -1.
        -11    1    4    4    0    0 -0.55119039207E+01 -0.57201912546E+01 -0.80417157145E+01  0.11303577518E+02  0.51100000000E-03 0.  1.
        -12    1    4    4    0    0 -0.18600033757E+02  0.12005783627E+02  0.15219064598E+02  0.26864847357E+02  0.00000000000E+00 0.  1.
</event>
<event>
 8    1  0.2511738E-006  0.9118800E+02  0.7816164E-02  0.1184000E+00
        -11   -1    0    0    0    0  0.00000000000E+00  0.00000000000E+00  0.45593999997E+02  0.45594000000E+02  0.51100000000E-03 0. -1.
         11   -1    0    0    0    0 -0.00000000000E+00 -0.00000000000E+00 -0.45593999997E+02  0.45594000000E+02  0.51100000000E-03 0.  1.
         23    2    1    2    0    0 -0.35527136788E-14  0.00000000000E+00  0.17763568394E-14  0.91188000000E+02  0.91188000000E+02 0.  0.
    9900012    2    3    3    0    0 -0.22402771310E+02  0.24528580993E+02  0.15882186553E+02  0.54367091570E+02  0.40000016852E+02 0.  0.
         12    1    3    3    0    0  0.22402771310E+02 -0.24528580993E+02 -0.15882186553E+02  0.36820908430E+02  0.00000000000E+00 0. -1.
         11    1    4    4    0    0 -0.95946503315E+01  0.28354666866E+01  0.22395257849E+02  0.24528447988E+02  0.51100000000E-03 0. -1.
        -11    1    4    4    0    0 -0.59919889034E+01  0.14644150523E+02 -0.10779108631E+02  0.19145345614E+02  0.51100000000E-03 0.  1.
        -12    1    4    4    0    0 -0.68161320752E+01  0.70489637832E+01  0.42660373346E+01  0.10693297968E+02  0.00000000000E+00 0.  1.
</event>
<event>
 8    1  0.2511738E-006  0.9118800E+02  0.7816164E-02  0.1184000E+00
        -11   -1    0    0    0    0  0.00000000000E+00  0.00000000000E+00  0.45593999997E+02  0.45594000000E+02  0.51100000000E-03 0.  1.
         11   -1    0    0    0    0 -0.00000000000E+00 -0.00000000000E+00 -0.45593999997E+02  0.45594000000E+02  0.51100000000E-03 0. -1.
         23    2    1    2    0    0  0.00000000000E+00  0.00000000000E+00 -0.35527136788E-14  0.91188000000E+02  0.91188000000E+02 0.  0.
    9900012    2    3    3    0    0 -0.19697365120E+02 -0.11581781639E+02 -0.28873074685E+02  0.54367105112E+02  0.40000047723E+02 0.  0.
        -12    1    3    3    0    0  0.19697365120E+02  0.11581781639E+02  0.28873074685E+02  0.36820894888E+02  0.00000000000E+00 0.  1.
         11    1    4    4    0    0 -0.24577188751E+02 -0.56675118701E+01 -0.20455191323E+02  0.32474201299E+02  0.51100000000E-03 0. -1.
        -11    1    4    4    0    0  0.99372388004E+01 -0.68841490619E+01 -0.10807871617E+02  0.16215742735E+02  0.51100000000E-03 0.  1.
        -12    1    4    4    0    0 -0.50574151694E+01  0.96987929250E+00  0.23899882557E+01  0.56771610775E+01  0.00000000000E+00 0.  1.
</event>
<event>
 8    1  0.2511738E-006  0.9118800E+02  0.7816164E-02  0.1184000E+00
        -11   -1    0    0    0    0  0.00000000000E+00  0.00000000000E+00  0.45593999997E+02  0.45594000000E+02  0.51100000000E-03 0.  1.
         11   -1    0    0    0    0 -0.00000000000E+00 -0.00000000000E+00 -0.45593999997E+02  0.45594000000E+02  0.51100000000E-03 0. -1.
         23    2    1    2    0    0  0.00000000000E+00 -0.17763568394E-14 -0.35527136788E-14  0.91188000000E+02  0.91188000000E+02 0.  0.
    9900012    2    3    3    0    0 -0.18775182252E+02 -0.11574449344E+02 -0.29483973448E+02  0.54367081536E+02  0.39999993978E+02 0.  0.
        -12    1    3    3    0    0  0.18775182252E+02  0.11574449344E+02  0.29483973448E+02  0.36820918464E+02  0.00000000000E+00 0.  1.
         11    1    4    4    0    0 -0.52670652541E+01 -0.15298375914E+02 -0.67730334856E+01  0.17540132977E+02  0.51100000000E-03 0. -1.
        -11    1    4    4    0    0 -0.18081247776E+02 -0.49285967635E+01 -0.11690542411E+02  0.22088263157E+02  0.51100000000E-03 0.  1.
        -12    1    4    4    0    0  0.45731307776E+01  0.86525233340E+01 -0.11020397552E+02  0.14738685401E+02  0.00000000000E+00 0.  1.
</event>
<event>
 8    1  0.2511738E-006  0.9118800E+02  0.7816164E-02  0.1184000E+00
        -11   -1    0    0    0    0  0.00000000000E+00  0.00000000000E+00  0.45593999997E+02  0.45594000000E+02  0.51100000000E-03 0.  1.
         11   -1    0    0    0    0 -0.00000000000E+00 -0.00000000000E+00 -0.45593999997E+02  0.45594000000E+02  0.51100000000E-03 0. -1.
         23    2    1    2    0    0  0.17763568394E-14  0.88817841970E-15  0.00000000000E+00  0.91188000000E+02  0.91188000000E+02 0.  0.
    9900012    2    3    3    0    0 -0.11183377444E+02 -0.78279506727E+01 -0.34196988499E+02  0.54367098800E+02  0.40000033335E+02 0.  0.
        -12    1    3    3    0    0  0.11183377444E+02  0.78279506727E+01  0.34196988499E+02  0.36820901200E+02  0.00000000000E+00 0.  1.
         11    1    4    4    0    0 -0.35989732928E+01  0.12217275256E+01 -0.78529943880E+01  0.87243766555E+01  0.51100000000E-03 0.  1.
        -11    1    4    4    0    0  0.12932690077E+02 -0.22212915578E-01 -0.16994387788E+02  0.21355659264E+02  0.51100000000E-03 0. -1.
        -12    1    4    4    0    0 -0.20517094228E+02 -0.90274652827E+01 -0.93496063229E+01  0.24287062881E+02  0.00000000000E+00 0.  1.
</event>
<event>
 8    1  0.2511738E-006  0.9118800E+02  0.7816164E-02  0.1184000E+00
        -11   -1    0    0    0    0  0.00000000000E+00  0.00000000000E+00  0.45593999997E+02  0.45594000000E+02  0.51100000000E-03 0. -1.
         11   -1    0    0    0    0 -0.00000000000E+00 -0.00000000000E+00 -0.45593999997E+02  0.45594000000E+02  0.51100000000E-03 0.  1.
         23    2    1    2    0    0  0.00000000000E+00  0.00000000000E+00  0.00000000000E+00  0.91188000000E+02  0.91188000000E+02 0.  0.
    9900012    2    3    3    0    0 -0.32603361644E+02 -0.15476768082E+02 -0.72990581827E+01  0.54367003394E+02  0.39999815836E+02 0.  0.
        -12    1    3    3    0    0  0.32603361644E+02  0.15476768082E+02  0.72990581827E+01  0.36820996606E+02  0.00000000000E+00 0.  1.
         11    1    4    4    0    0 -0.19735216020E+01 -0.11529645713E+02  0.80129152439E+01  0.14178657508E+02  0.51100000000E-03 0. -1.
        -11    1    4    4    0    0 -0.20143534049E+02 -0.80695080272E+00 -0.19892897061E+02  0.28322084799E+02  0.51100000000E-03 0.  1.
        -12    1    4    4    0    0 -0.10486305993E+02 -0.31401715664E+01  0.45809236345E+01  0.11866261087E+02  0.00000000000E+00 0.  1.
</event>
<event>
 8    1  0.2511738E-006  0.9118800E+02  0.7816164E-02  0.1184000E+00
        -11   -1    0    0    0    0  0.00000000000E+00  0.00000000000E+00  0.45593999997E+02  0.45594000000E+02  0.51100000000E-03 0.  1.
         11   -1    0    0    0    0 -0.00000000000E+00 -0.00000000000E+00 -0.45593999997E+02  0.45594000000E+02  0.51100000000E-03 0. -1.
         23    2    1    2    0    0  0.17763568394E-14  0.71054273576E-14  0.00000000000E+00  0.91188000000E+02  0.91188000000E+02 0.  0.
    9900012    2    3    3    0    0 -0.12915429285E+02 -0.29771468996E+02 -0.17396305804E+02  0.54367080193E+02  0.39999990916E+02 0.  0.
        -12    1    3    3    0    0  0.12915429285E+02  0.29771468996E+02  0.17396305804E+02  0.36820919807E+02  0.00000000000E+00 0.  1.
         11    1    4    4    0    0 -0.87097805127E+01 -0.62268902705E+01 -0.14144003213E+02  0.17739426884E+02  0.51100000000E-03 0. -1.
        -11    1    4    4    0    0  0.21425712887E+01  0.50028844809E+01  0.36834075983E+01  0.65716783741E+01  0.51100000000E-03 0.  1.
        -12    1    4    4    0    0 -0.63482200608E+01 -0.28547463206E+02 -0.69357101890E+01  0.30055974935E+02  0.00000000000E+00 0.  1.
</event>
<event>
 8    1  0.2511738E-006  0.9118800E+02  0.7816164E-02  0.1184000E+00
        -11   -1    0    0    0    0  0.00000000000E+00  0.00000000000E+00  0.45593999997E+02  0.45594000000E+02  0.51100000000E-03 0. -1.
         11   -1    0    0    0    0 -0.00000000000E+00 -0.00000000000E+00 -0.45593999997E+02  0.45594000000E+02  0.51100000000E-03 0.  1.
         23    2    1    2    0    0 -0.17763568394E-14  0.88817841970E-15  0.00000000000E+00  0.91188000000E+02  0.91188000000E+02 0.  0.
    9900012    2    3    3    0    0  0.12845591480E+02 -0.43899823002E+01 -0.34227190485E+02  0.54367058492E+02  0.39999941444E+02 0.  0.
         12    1    3    3    0    0 -0.12845591480E+02  0.43899823002E+01  0.34227190485E+02  0.36820941508E+02  0.00000000000E+00 0. -1.
         11    1    4    4    0    0 -0.12366937555E+01  0.72639241522E+00  0.20509058094E+01  0.25026530495E+01  0.51100000000E-03 0. -1.
        -11    1    4    4    0    0 -0.10595302785E+02  0.28773563614E+01 -0.12949910904E+02  0.16977626849E+02  0.51100000000E-03 0.  1.
        -12    1    4    4    0    0  0.24677588020E+02 -0.79937310769E+01 -0.23328185390E+02  0.34886778593E+02  0.00000000000E+00 0.  1.
</event>
<event>
 8    1  0.2511738E-006  0.9118800E+02  0.7816164E-02  0.1184000E+00
        -11   -1    0    0    0    0  0.00000000000E+00  0.00000000000E+00  0.45593999997E+02  0.45594000000E+02  0.51100000000E-03 0.  1.
         11   -1    0    0    0    0 -0.00000000000E+00 -0.00000000000E+00 -0.45593999997E+02  0.45594000000E+02  0.51100000000E-03 0. -1.
         23    2    1    2    0    0  0.00000000000E+00 -0.66613381478E-15  0.00000000000E+00  0.91188000000E+02  0.91188000000E+02 0.  0.
    9900012    2    3    3    0    0 -0.24618718939E+02  0.13810486034E+01  0.27345802491E+02  0.54367061238E+02  0.39999947704E+02 0.  0.
         12    1    3    3    0    0  0.24618718939E+02 -0.13810486034E+01 -0.27345802491E+02  0.36820938762E+02  0.00000000000E+00 0. -1.
         11    1    4    4    0    0  0.55742738426E+01 -0.63672494831E+01  0.28558332777E+01  0.89314152755E+01  0.51100000000E-03 0. -1.
        -11    1    4    4    0    0 -0.13597583809E+02  0.14441618748E+02  0.16657240978E+02  0.25902090934E+02  0.51100000000E-03 0.  1.
         12    1    4    4    0    0 -0.16595408972E+02 -0.66933206612E+01  0.78327282358E+01  0.19533555029E+02  0.00000000000E+00 0. -1.
</event>
<event>
 8    1  0.2511738E-006  0.9118800E+02  0.7816164E-02  0.1184000E+00
        -11   -1    0    0    0    0  0.00000000000E+00  0.00000000000E+00  0.45593999997E+02  0.45594000000E+02  0.51100000000E-03 0. -1.
         11   -1    0    0    0    0 -0.00000000000E+00 -0.00000000000E+00 -0.45593999997E+02  0.45594000000E+02  0.51100000000E-03 0.  1.
         23    2    1    2    0    0  0.35527136788E-14  0.00000000000E+00  0.00000000000E+00  0.91188000000E+02  0.91188000000E+02 0.  0.
    9900012    2    3    3    0    0  0.22806326582E+02 -0.11453099182E+02 -0.26542071282E+02  0.54367033677E+02  0.39999884872E+02 0.  0.
         12    1    3    3    0    0 -0.22806326582E+02  0.11453099182E+02  0.26542071282E+02  0.36820966323E+02  0.00000000000E+00 0. -1.
         11    1    4    4    0    0  0.12798217196E+02 -0.93571171502E+01 -0.73615906088E+01  0.17479788938E+02  0.51100000000E-03 0. -1.
        -11    1    4    4    0    0 -0.91418248313E+01  0.29248323265E+01 -0.12976865673E+02  0.16140837907E+02  0.51100000000E-03 0.  1.
        -12    1    4    4    0    0  0.19149934218E+02 -0.50208143583E+01 -0.62036150005E+01  0.20746406832E+02  0.00000000000E+00 0.  1.
</event>
<event>
 8    1  0.2511738E-006  0.9118800E+02  0.7816164E-02  0.1184000E+00
        -11   -1    0    0    0    0  0.00000000000E+00  0.00000000000E+00  0.45593999997E+02  0.45594000000E+02  0.51100000000E-03 0.  1.
         11   -1    0    0    0    0 -0.00000000000E+00 -0.00000000000E+00 -0.45593999997E+02  0.45594000000E+02  0.51100000000E-03 0. -1.
         23    2    1    2    0    0  0.71054273576E-14 -0.88817841970E-15  0.00000000000E+00  0.91188000000E+02  0.91188000000E+02 0.  0.
    9900012    2    3    3    0    0 -0.34821699349E+02  0.70225661785E+01 -0.96908223084E+01  0.54367092647E+02  0.40000019307E+02 0.  0.
        -12    1    3    3    0    0  0.34821699349E+02 -0.70225661785E+01  0.96908223084E+01  0.36820907353E+02  0.00000000000E+00 0.  1.
         11    1    4    4    0    0 -0.93554667325E+01  0.48026776685E+01  0.96862342430E+01  0.14297328584E+02  0.51100000000E-03 0. -1.
        -11    1    4    4    0    0 -0.21144474311E+02 -0.52861561246E+01 -0.36265739215E+01  0.22094892603E+02  0.51100000000E-03 0.  1.
         12    1    4    4    0    0 -0.43217583054E+01  0.75060446347E+01 -0.15750482630E+02  0.17974871460E+02  0.00000000000E+00 0. -1.
</event>
<event>
 8    1  0.2511738E-006  0.9118800E+02  0.7816164E-02  0.1184000E+00
        -11   -1    0    0    0    0  0.00000000000E+00  0.00000000000E+00  0.45593999997E+02  0.45594000000E+02  0.51100000000E-03 0. -1.
         11   -1    0    0    0    0 -0.00000000000E+00 -0.00000000000E+00 -0.45593999997E+02  0.45594000000E+02  0.51100000000E-03 0.  1.
         23    2    1    2    0    0  0.00000000000E+00  0.00000000000E+00 -0.17763568394E-14  0.91188000000E+02  0.91188000000E+02 0.  0.
    9900012    2    3    3    0    0  0.18373660025E+01  0.36490937345E+02  0.45625851752E+01  0.54367060229E+02  0.39999945405E+02 0.  0.
        -12    1    3    3    0    0 -0.18373660025E+01 -0.36490937345E+02 -0.45625851752E+01  0.36820939771E+02  0.00000000000E+00 0.  1.
         11    1    4    4    0    0 -0.68938040214E+00  0.92035141254E+01  0.14019266459E+02  0.16784509224E+02  0.51100000000E-03 0. -1.
        -11    1    4    4    0    0  0.30946988198E+01  0.67992207167E+01  0.77918930857E+01  0.10794450484E+02  0.51100000000E-03 0.  1.
        -12    1    4    4    0    0 -0.56795241517E+00  0.20488202503E+02 -0.17248574369E+02  0.26788100521E+02  0.00000000000E+00 0.  1.
</event>
<event>
 8    1  0.2511738E-006  0.9118800E+02  0.7816164E-02  0.1184000E+00
        -11   -1    0    0    0    0  0.00000000000E+00  0.00000000000E+00  0.45593999997E+02  0.45594000000E+02  0.51100000000E-03 0. -1.
         11   -1    0    0    0    0 -0.00000000000E+00 -0.00000000000E+00 -0.45593999997E+02  0.45594000000E+02  0.51100000000E-03 0.  1.
         23    2    1    2    0    0  0.00000000000E+00  0.00000000000E+00  0.00000000000E+00  0.91188000000E+02  0.91188000000E+02 0.  0.
    9900012    2    3    3    0    0 -0.36491163785E+02 -0.39081426303E+01 -0.29837107305E+01  0.54367066512E+02  0.39999959727E+02 0.  0.
        -12    1    3    3    0    0  0.36491163785E+02  0.39081426303E+01  0.29837107305E+01  0.36820933488E+02  0.00000000000E+00 0.  1.
         11    1    4    4    0    0 -0.10843130468E+01  0.53893217452E+00  0.65987465735E+01  0.67089223631E+01  0.51100000000E-03 0. -1.
        -11    1    4    4    0    0  0.49252052607E+01 -0.25108511553E+01 -0.41568585662E+01  0.69167545702E+01  0.51100000000E-03 0.  1.
        -12    1    4    4    0    0 -0.40332055999E+02 -0.19362236495E+01 -0.54255987379E+01  0.40741389579E+02  0.00000000000E+00 0.  1.
</event>
<event>
 8    1  0.2511738E-006  0.9118800E+02  0.7816164E-02  0.1184000E+00
        -11   -1    0    0    0    0  0.00000000000E+00  0.00000000000E+00  0.45593999997E+02  0.45594000000E+02  0.51100000000E-03 0.  1.
         11   -1    0    0    0    0 -0.00000000000E+00 -0.00000000000E+00 -0.45593999997E+02  0.45594000000E+02  0.51100000000E-03 0. -1.
         23    2    1    2    0    0  0.00000000000E+00  0.00000000000E+00  0.00000000000E+00  0.91188000000E+02  0.91188000000E+02 0.  0.
    9900012    2    3    3    0    0  0.11979504679E+02 -0.91255106060E+01 -0.33600568663E+02  0.54367059075E+02  0.39999942772E+02 0.  0.
        -12    1    3    3    0    0 -0.11979504679E+02  0.91255106060E+01  0.33600568663E+02  0.36820940925E+02  0.00000000000E+00 0.  1.
         11    1    4    4    0    0  0.18683623420E+02  0.28401339948E+01 -0.25971081251E+02  0.32119171950E+02  0.51100000000E-03 0. -1.
        -11    1    4    4    0    0 -0.66961637336E+01 -0.66865811480E+01  0.33716057724E+01  0.10045730533E+02  0.51100000000E-03 0.  1.
         12    1    4    4    0    0 -0.79550069540E-02 -0.52790634528E+01 -0.11001093184E+02  0.12202156591E+02  0.00000000000E+00 0. -1.
</event>
<event>
 8    1  0.2511738E-006  0.9118800E+02  0.7816164E-02  0.1184000E+00
        -11   -1    0    0    0    0  0.00000000000E+00  0.00000000000E+00  0.45593999997E+02  0.45594000000E+02  0.51100000000E-03 0. -1.
         11   -1    0    0    0    0 -0.00000000000E+00 -0.00000000000E+00 -0.45593999997E+02  0.45594000000E+02  0.51100000000E-03 0.  1.
         23    2    1    2    0    0 -0.17763568394E-14  0.00000000000E+00  0.00000000000E+00  0.91188000000E+02  0.91188000000E+02 0.  0.
    9900012    2    3    3    0    0  0.12693793770E+02  0.18722849518E+02  0.29053451026E+02  0.54367075095E+02  0.39999979294E+02 0.  0.
        -12    1    3    3    0    0 -0.12693793770E+02 -0.18722849518E+02 -0.29053451026E+02  0.36820924905E+02  0.00000000000E+00 0.  1.
         11    1    4    4    0    0  0.12185112940E+02 -0.65265651734E+01  0.57835586795E+01  0.14984077602E+02  0.51100000000E-03 0.  1.
        -11    1    4    4    0    0  0.97391473078E+01  0.15190635023E+02  0.11887463177E+02  0.21608289236E+02  0.51100000000E-03 0. -1.
        -12    1    4    4    0    0 -0.92304664780E+01  0.10058779669E+02  0.11382429169E+02  0.17774708257E+02  0.00000000000E+00 0.  1.
</event>
<event>
 8    1  0.2511738E-006  0.9118800E+02  0.7816164E-02  0.1184000E+00
        -11   -1    0    0    0    0  0.00000000000E+00  0.00000000000E+00  0.45593999997E+02  0.45594000000E+02  0.51100000000E-03 0. -1.
         11   -1    0    0    0    0 -0.00000000000E+00 -0.00000000000E+00 -0.45593999997E+02  0.45594000000E+02  0.51100000000E-03 0.  1.
         23    2    1    2    0    0 -0.26645352591E-14 -0.71054273576E-14 -0.53290705182E-14  0.91188000000E+02  0.91188000000E+02 0.  0.
    9900012    2    3    3    0    0 -0.60629277836E+01 -0.33644424297E+02 -0.13677485176E+02  0.54367082299E+02  0.39999995716E+02 0.  0.
         12    1    3    3    0    0  0.60629277836E+01  0.33644424297E+02  0.13677485176E+02  0.36820917701E+02  0.00000000000E+00 0. -1.
         11    1    4    4    0    0 -0.12054782016E+02 -0.11338333992E+02  0.45168422876E+01  0.17154516947E+02  0.51100000000E-03 0. -1.
        -11    1    4    4    0    0  0.83380982655E+01 -0.13784015954E+02  0.93806921731E+00  0.16137005690E+02  0.51100000000E-03 0.  1.
        -12    1    4    4    0    0 -0.23462440333E+01 -0.85220743514E+01 -0.19132396681E+02  0.21075559662E+02  0.00000000000E+00 0.  1.
</event>
<event>
 8    1  0.2511738E-006  0.9118800E+02  0.7816164E-02  0.1184000E+00
        -11   -1    0    0    0    0  0.00000000000E+00  0.00000000000E+00  0.45593999997E+02  0.45594000000E+02  0.51100000000E-03 0.  1.
         11   -1    0    0    0    0 -0.00000000000E+00 -0.00000000000E+00 -0.45593999997E+02  0.45594000000E+02  0.51100000000E-03 0. -1.
         23    2    1    2    0    0 -0.53290705182E-14 -0.71054273576E-14  0.35527136788E-14  0.91188000000E+02  0.91188000000E+02 0.  0.
    9900012    2    3    3    0    0 -0.15548669189E+02 -0.27060181275E+02  0.19538824285E+02  0.54367079606E+02  0.39999989578E+02 0.  0.
         12    1    3    3    0    0  0.15548669189E+02  0.27060181275E+02 -0.19538824285E+02  0.36820920394E+02  0.00000000000E+00 0. -1.
         11    1    4    4    0    0  0.14153950308E+01  0.83651999302E+01  0.28880208627E+01  0.89621748326E+01  0.51100000000E-03 0. -1.
        -11    1    4    4    0    0 -0.70925588888E+01 -0.66477662753E+01  0.10605284484E+02  0.14386425800E+02  0.51100000000E-03 0.  1.
        -12    1    4    4    0    0 -0.98715053313E+01 -0.28777614930E+02  0.60455189381E+01  0.31018478973E+02  0.00000000000E+00 0.  1.
</event>
<event>
 8    1  0.2511738E-006  0.9118800E+02  0.7816164E-02  0.1184000E+00
        -11   -1    0    0    0    0  0.00000000000E+00  0.00000000000E+00  0.45593999997E+02  0.45594000000E+02  0.51100000000E-03 0.  1.
         11   -1    0    0    0    0 -0.00000000000E+00 -0.00000000000E+00 -0.45593999997E+02  0.45594000000E+02  0.51100000000E-03 0. -1.
         23    2    1    2    0    0  0.35527136788E-14  0.00000000000E+00  0.35527136788E-14  0.91188000000E+02  0.91188000000E+02 0.  0.
    9900012    2    3    3    0    0 -0.19318859517E+02 -0.99577633994E+01  0.29722129156E+02  0.54367077327E+02  0.39999984382E+02 0.  0.
         12    1    3    3    0    0  0.19318859517E+02  0.99577633994E+01 -0.29722129156E+02  0.36820922673E+02  0.00000000000E+00 0. -1.
         11    1    4    4    0    0  0.74964304805E+01 -0.74656750230E+01  0.13957099944E+02  0.17513806342E+02  0.51100000000E-03 0. -1.
        -11    1    4    4    0    0 -0.47205084116E+01  0.51479397602E+01  0.10944098646E+02  0.12982980354E+02  0.51100000000E-03 0.  1.
        -12    1    4    4    0    0 -0.22094781586E+02 -0.76400281367E+01  0.48209305666E+01  0.23870290631E+02  0.00000000000E+00 0.  1.
</event>
<event>
 8    1  0.2511738E-006  0.9118800E+02  0.7816164E-02  0.1184000E+00
        -11   -1    0    0    0    0  0.00000000000E+00  0.00000000000E+00  0.45593999997E+02  0.45594000000E+02  0.51100000000E-03 0. -1.
         11   -1    0    0    0    0 -0.00000000000E+00 -0.00000000000E+00 -0.45593999997E+02  0.45594000000E+02  0.51100000000E-03 0.  1.
         23    2    1    2    0    0  0.00000000000E+00  0.00000000000E+00  0.00000000000E+00  0.91188000000E+02  0.91188000000E+02 0.  0.
    9900012    2    3    3    0    0 -0.23404448768E+02 -0.19762622493E+02 -0.20431595191E+02  0.54367088116E+02  0.40000008977E+02 0.  0.
         12    1    3    3    0    0  0.23404448768E+02  0.19762622493E+02  0.20431595191E+02  0.36820911884E+02  0.00000000000E+00 0. -1.
         11    1    4    4    0    0 -0.11266603213E+01  0.61839892682E-01 -0.20492373796E+02  0.20523415206E+02  0.51100000000E-03 0. -1.
        -11    1    4    4    0    0 -0.51290883942E+01 -0.99067931622E+00 -0.56971990860E+01  0.77296229500E+01  0.51100000000E-03 0.  1.
         12    1    4    4    0    0 -0.17148700053E+02 -0.18833783070E+02  0.57579776912E+01  0.26114049960E+02  0.00000000000E+00 0. -1.
</event>
<event>
 8    1  0.2511738E-006  0.9118800E+02  0.7816164E-02  0.1184000E+00
        -11   -1    0    0    0    0  0.00000000000E+00  0.00000000000E+00  0.45593999997E+02  0.45594000000E+02  0.51100000000E-03 0.  1.
         11   -1    0    0    0    0 -0.00000000000E+00 -0.00000000000E+00 -0.45593999997E+02  0.45594000000E+02  0.51100000000E-03 0. -1.
         23    2    1    2    0    0  0.26645352591E-14  0.71054273576E-14  0.00000000000E+00  0.91188000000E+02  0.91188000000E+02 0.  0.
    9900012    2    3    3    0    0  0.69840711121E+01  0.33154784549E+02  0.14413990518E+02  0.54367080532E+02  0.39999991690E+02 0.  0.
        -12    1    3    3    0    0 -0.69840711121E+01 -0.33154784549E+02 -0.14413990518E+02  0.36820919468E+02  0.00000000000E+00 0.  1.
         11    1    4    4    0    0  0.84669559319E+01  0.19559350015E+02  0.17891648211E+01  0.21388282464E+02  0.51100000000E-03 0. -1.
        -11    1    4    4    0    0 -0.82038101854E+01  0.18797226482E+02  0.13314156269E+02  0.24452095665E+02  0.51100000000E-03 0.  1.
        -12    1    4    4    0    0  0.67209253655E+01 -0.52017919482E+01 -0.68933057193E+00  0.85267024035E+01  0.00000000000E+00 0.  1.
</event>
<event>
 8    1  0.2511738E-006  0.9118800E+02  0.7816164E-02  0.1184000E+00
        -11   -1    0    0    0    0  0.00000000000E+00  0.00000000000E+00  0.45593999997E+02  0.45594000000E+02  0.51100000000E-03 0. -1.
         11   -1    0    0    0    0 -0.00000000000E+00 -0.00000000000E+00 -0.45593999997E+02  0.45594000000E+02  0.51100000000E-03 0.  1.
         23    2    1    2    0    0 -0.17763568394E-14  0.71054273576E-14 -0.71054273576E-14  0.91188000000E+02  0.91188000000E+02 0.  0.
    9900012    2    3    3    0    0 -0.11272643274E+02  0.22531689209E+02 -0.26852024227E+02  0.54367072390E+02  0.39999973127E+02 0.  0.
         12    1    3    3    0    0  0.11272643274E+02 -0.22531689209E+02  0.26852024227E+02  0.36820927610E+02  0.00000000000E+00 0. -1.
         11    1    4    4    0    0  0.86728498534E+00 -0.19087967529E+01  0.93707389410E+00  0.22964746969E+01  0.51100000000E-03 0. -1.
        -11    1    4    4    0    0  0.24450539835E+01 -0.25054746469E+01 -0.20204919097E+02  0.20505961284E+02  0.51100000000E-03 0.  1.
         12    1    4    4    0    0 -0.14584982243E+02  0.26945960609E+02 -0.75841790241E+01  0.31564636409E+02  0.00000000000E+00 0. -1.
</event>
<event>
 8    1  0.2511738E-006  0.9118800E+02  0.7816164E-02  0.1184000E+00
        -11   -1    0    0    0    0  0.00000000000E+00  0.00000000000E+00  0.45593999997E+02  0.45594000000E+02  0.51100000000E-03 0.  1.
         11   -1    0    0    0    0 -0.00000000000E+00 -0.00000000000E+00 -0.45593999997E+02  0.45594000000E+02  0.51100000000E-03 0. -1.
         23    2    1    2    0    0  0.00000000000E+00  0.88817841970E-15  0.00000000000E+00  0.91188000000E+02  0.91188000000E+02 0.  0.
    9900012    2    3    3    0    0  0.29871425807E+02  0.62934805804E+01  0.20588089151E+02  0.54367090282E+02  0.40000013916E+02 0.  0.
         12    1    3    3    0    0 -0.29871425807E+02 -0.62934805804E+01 -0.20588089151E+02  0.36820909718E+02  0.00000000000E+00 0. -1.
         11    1    4    4    0    0 -0.49917098888E+01 -0.59113062849E+00  0.66431929399E+00  0.50702981588E+01  0.51100000000E-03 0. -1.
        -11    1    4    4    0    0  0.39540697775E+02  0.78523805740E+01  0.17945115405E+02  0.44126566016E+02  0.51100000000E-03 0.  1.
        -12    1    4    4    0    0 -0.46775620799E+01 -0.96776936519E+00  0.19786544524E+01  0.51702261070E+01  0.00000000000E+00 0.  1.
</event>
<event>
 8    1  0.2511738E-006  0.9118800E+02  0.7816164E-02  0.1184000E+00
        -11   -1    0    0    0    0  0.00000000000E+00  0.00000000000E+00  0.45593999997E+02  0.45594000000E+02  0.51100000000E-03 0.  1.
         11   -1    0    0    0    0 -0.00000000000E+00 -0.00000000000E+00 -0.45593999997E+02  0.45594000000E+02  0.51100000000E-03 0. -1.
         23    2    1    2    0    0  0.00000000000E+00 -0.35527136788E-14  0.35527136788E-14  0.91188000000E+02  0.91188000000E+02 0.  0.
    9900012    2    3    3    0    0 -0.80088815540E+01 -0.27839491570E+02  0.22728835825E+02  0.54367089465E+02  0.40000012054E+02 0.  0.
         12    1    3    3    0    0  0.80088815540E+01  0.27839491570E+02 -0.22728835825E+02  0.36820910535E+02  0.00000000000E+00 0. -1.
         11    1    4    4    0    0 -0.16745707172E+02 -0.14413247133E+02  0.46770968559E+00  0.22099302121E+02  0.51100000000E-03 0. -1.
        -11    1    4    4    0    0 -0.47447742190E+01 -0.68581420305E+01  0.72716024397E+01  0.11064501652E+02  0.51100000000E-03 0.  1.
         12    1    4    4    0    0  0.13481599838E+02 -0.65681024071E+01  0.14989523700E+02  0.21203285693E+02  0.00000000000E+00 0. -1.
</event>
<event>
 8    1  0.2511738E-006  0.9118800E+02  0.7816164E-02  0.1184000E+00
        -11   -1    0    0    0    0  0.00000000000E+00  0.00000000000E+00  0.45593999997E+02  0.45594000000E+02  0.51100000000E-03 0. -1.
         11   -1    0    0    0    0 -0.00000000000E+00 -0.00000000000E+00 -0.45593999997E+02  0.45594000000E+02  0.51100000000E-03 0.  1.
         23    2    1    2    0    0  0.00000000000E+00  0.00000000000E+00  0.35527136788E-14  0.91188000000E+02  0.91188000000E+02 0.  0.
    9900012    2    3    3    0    0 -0.10022579486E+02 -0.16221065837E+02 -0.31499286908E+02  0.54367079966E+02  0.39999990399E+02 0.  0.
         12    1    3    3    0    0  0.10022579486E+02  0.16221065837E+02  0.31499286908E+02  0.36820920034E+02  0.00000000000E+00 0. -1.
         11    1    4    4    0    0  0.95051373530E+01 -0.15635948909E+02 -0.31596447058E+01  0.18569165014E+02  0.51100000000E-03 0. -1.
        -11    1    4    4    0    0 -0.74412824530E+01 -0.26226056947E+01 -0.47376645233E+01  0.92030544153E+01  0.51100000000E-03 0.  1.
         12    1    4    4    0    0 -0.12086434386E+02  0.20374887665E+01 -0.23601977679E+02  0.26594860537E+02  0.00000000000E+00 0. -1.
</event>
<event>
 8    1  0.2511738E-006  0.9118800E+02  0.7816164E-02  0.1184000E+00
        -11   -1    0    0    0    0  0.00000000000E+00  0.00000000000E+00  0.45593999997E+02  0.45594000000E+02  0.51100000000E-03 0.  1.
         11   -1    0    0    0    0 -0.00000000000E+00 -0.00000000000E+00 -0.45593999997E+02  0.45594000000E+02  0.51100000000E-03 0. -1.
         23    2    1    2    0    0  0.00000000000E+00 -0.17763568394E-14  0.00000000000E+00  0.91188000000E+02  0.91188000000E+02 0.  0.
    9900012    2    3    3    0    0  0.57512139635E+01  0.15693367035E+02 -0.32808872593E+02  0.54367077255E+02  0.39999984218E+02 0.  0.
        -12    1    3    3    0    0 -0.57512139635E+01 -0.15693367035E+02  0.32808872593E+02  0.36820922745E+02  0.00000000000E+00 0.  1.
         11    1    4    4    0    0  0.28614085407E+01 -0.19466177381E+01 -0.48096936037E+01  0.59253803488E+01  0.51100000000E-03 0. -1.
        -11    1    4    4    0    0  0.12657446788E+02 -0.47240013889E+01 -0.37101502091E+01  0.14010437650E+02  0.51100000000E-03 0.  1.
         12    1    4    4    0    0 -0.97676413650E+01  0.22363986162E+02 -0.24289028781E+02  0.34431259256E+02  0.00000000000E+00 0. -1.
</event>
<event>
 8    1  0.2511738E-006  0.9118800E+02  0.7816164E-02  0.1184000E+00
        -11   -1    0    0    0    0  0.00000000000E+00  0.00000000000E+00  0.45593999997E+02  0.45594000000E+02  0.51100000000E-03 0.  1.
         11   -1    0    0    0    0 -0.00000000000E+00 -0.00000000000E+00 -0.45593999997E+02  0.45594000000E+02  0.51100000000E-03 0. -1.
         23    2    1    2    0    0  0.35527136788E-14  0.35527136788E-14 -0.35527136788E-14  0.91188000000E+02  0.91188000000E+02 0.  0.
    9900012    2    3    3    0    0  0.18726584841E+02  0.25654909822E+02 -0.18625786352E+02  0.54367091605E+02  0.40000016933E+02 0.  0.
        -12    1    3    3    0    0 -0.18726584841E+02 -0.25654909822E+02  0.18625786352E+02  0.36820908395E+02  0.00000000000E+00 0.  1.
         11    1    4    4    0    0 -0.44918355519E+01  0.11455839520E+01  0.34836635353E+01  0.57986947760E+01  0.51100000000E-03 0. -1.
        -11    1    4    4    0    0  0.19190707983E+01  0.13440395827E+02  0.29220212043E+01  0.13887594497E+02  0.51100000000E-03 0.  1.
         12    1    4    4    0    0  0.21299349594E+02  0.11068930042E+02 -0.25031471092E+02  0.34680802333E+02  0.00000000000E+00 0. -1.
</event>
<event>
 8    1  0.2511738E-006  0.9118800E+02  0.7816164E-02  0.1184000E+00
        -11   -1    0    0    0    0  0.00000000000E+00  0.00000000000E+00  0.45593999997E+02  0.45594000000E+02  0.51100000000E-03 0.  1.
         11   -1    0    0    0    0 -0.00000000000E+00 -0.00000000000E+00 -0.45593999997E+02  0.45594000000E+02  0.51100000000E-03 0. -1.
         23    2    1    2    0    0 -0.44408920985E-15  0.00000000000E+00  0.00000000000E+00  0.91188000000E+02  0.91188000000E+02 0.  0.
    9900012    2    3    3    0    0 -0.26667933071E+01  0.30781200657E+02 -0.20029604566E+02  0.54367093446E+02  0.40000021128E+02 0.  0.
        -12    1    3    3    0    0  0.26667933071E+01 -0.30781200657E+02  0.20029604566E+02  0.36820906554E+02  0.00000000000E+00 0.  1.
         11    1    4    4    0    0  0.41290844512E+01  0.21530035438E+02 -0.11816472646E+02  0.24904232380E+02  0.51100000000E-03 0. -1.
        -11    1    4    4    0    0  0.66052229882E+01  0.12821585488E+02 -0.39582516945E+01  0.14956262297E+02  0.51100000000E-03 0.  1.
         12    1    4    4    0    0 -0.13401100746E+02 -0.35704202692E+01 -0.42548802251E+01  0.14506598769E+02  0.00000000000E+00 0. -1.
</event>
<event>
 8    1  0.2511738E-006  0.9118800E+02  0.7816164E-02  0.1184000E+00
        -11   -1    0    0    0    0  0.00000000000E+00  0.00000000000E+00  0.45593999997E+02  0.45594000000E+02  0.51100000000E-03 0. -1.
         11   -1    0    0    0    0 -0.00000000000E+00 -0.00000000000E+00 -0.45593999997E+02  0.45594000000E+02  0.51100000000E-03 0.  1.
         23    2    1    2    0    0  0.00000000000E+00  0.00000000000E+00  0.71054273576E-14  0.91188000000E+02  0.91188000000E+02 0.  0.
    9900012    2    3    3    0    0  0.41226647706E+01  0.64076207258E+01  0.36023901865E+02  0.54367143495E+02  0.40000135226E+02 0.  0.
        -12    1    3    3    0    0 -0.41226647706E+01 -0.64076207258E+01 -0.36023901865E+02  0.36820856505E+02  0.00000000000E+00 0.  1.
         11    1    4    4    0    0 -0.62266057873E+01  0.17492249223E+02  0.10244586270E+02  0.21206153603E+02  0.51100000000E-03 0. -1.
        -11    1    4    4    0    0 -0.28103454898E+01 -0.45186463340E+01  0.31841184044E+01  0.62011947831E+01  0.51100000000E-03 0.  1.
         12    1    4    4    0    0  0.13159616048E+02 -0.65659821633E+01  0.22595197190E+02  0.26959795110E+02  0.00000000000E+00 0. -1.
</event>
<event>
 8    1  0.2511738E-006  0.9118800E+02  0.7816164E-02  0.1184000E+00
        -11   -1    0    0    0    0  0.00000000000E+00  0.00000000000E+00  0.45593999997E+02  0.45594000000E+02  0.51100000000E-03 0.  1.
         11   -1    0    0    0    0 -0.00000000000E+00 -0.00000000000E+00 -0.45593999997E+02  0.45594000000E+02  0.51100000000E-03 0. -1.
         23    2    1    2    0    0  0.00000000000E+00  0.00000000000E+00  0.00000000000E+00  0.91188000000E+02  0.91188000000E+02 0.  0.
    9900012    2    3    3    0    0  0.18402747550E+02  0.24388645235E+02  0.20550228719E+02  0.54367095147E+02  0.40000025007E+02 0.  0.
         12    1    3    3    0    0 -0.18402747550E+02 -0.24388645235E+02 -0.20550228719E+02  0.36820904853E+02  0.00000000000E+00 0. -1.
         11    1    4    4    0    0 -0.14461368570E+01  0.60836376361E-01 -0.43870323206E+01  0.46196391328E+01  0.51100000000E-03 0. -1.
        -11    1    4    4    0    0  0.19996065730E+02  0.14004224854E+02  0.18805482418E+01  0.24484636415E+02  0.51100000000E-03 0.  1.
        -12    1    4    4    0    0 -0.14718132271E+00  0.10323584004E+02  0.23056712798E+02  0.25262819599E+02  0.00000000000E+00 0.  1.
</event>
<event>
 8    1  0.2511738E-006  0.9118800E+02  0.7816164E-02  0.1184000E+00
        -11   -1    0    0    0    0  0.00000000000E+00  0.00000000000E+00  0.45593999997E+02  0.45594000000E+02  0.51100000000E-03 0.  1.
         11   -1    0    0    0    0 -0.00000000000E+00 -0.00000000000E+00 -0.45593999997E+02  0.45594000000E+02  0.51100000000E-03 0. -1.
         23    2    1    2    0    0 -0.35527136788E-14  0.00000000000E+00  0.35527136788E-14  0.91188000000E+02  0.91188000000E+02 0.  0.
    9900012    2    3    3    0    0 -0.27181628974E+02 -0.63110098546E+01  0.24023099501E+02  0.54367094135E+02  0.40000022701E+02 0.  0.
         12    1    3    3    0    0  0.27181628974E+02  0.63110098546E+01 -0.24023099501E+02  0.36820905865E+02  0.00000000000E+00 0. -1.
         11    1    4    4    0    0 -0.32466818066E+01  0.84181257974E+01  0.14431207438E+02  0.17019563246E+02  0.51100000000E-03 0. -1.
        -11    1    4    4    0    0 -0.16858006385E+02  0.28905576556E+00  0.11827951080E+02  0.20595542225E+02  0.51100000000E-03 0.  1.
         12    1    4    4    0    0 -0.70769407826E+01 -0.15018191418E+02 -0.22360590181E+01  0.16751988665E+02  0.00000000000E+00 0. -1.
</event>
<event>
 8    1  0.2511738E-006  0.9118800E+02  0.7816164E-02  0.1184000E+00
        -11   -1    0    0    0    0  0.00000000000E+00  0.00000000000E+00  0.45593999997E+02  0.45594000000E+02  0.51100000000E-03 0.  1.
         11   -1    0    0    0    0 -0.00000000000E+00 -0.00000000000E+00 -0.45593999997E+02  0.45594000000E+02  0.51100000000E-03 0. -1.
         23    2    1    2    0    0  0.00000000000E+00  0.71054273576E-14 -0.17763568394E-14  0.91188000000E+02  0.91188000000E+02 0.  0.
    9900012    2    3    3    0    0 -0.16389098553E+01  0.36049980792E+02 -0.73138140165E+01  0.54367095392E+02  0.40000025566E+02 0.  0.
        -12    1    3    3    0    0  0.16389098553E+01 -0.36049980792E+02  0.73138140165E+01  0.36820904608E+02  0.00000000000E+00 0.  1.
         11    1    4    4    0    0 -0.13952749702E+02  0.12973487358E+02  0.10457902514E+02  0.21733806011E+02  0.51100000000E-03 0. -1.
        -11    1    4    4    0    0  0.29525609384E+01  0.54832570270E+01 -0.47596458660E+00  0.62458199036E+01  0.51100000000E-03 0.  1.
         12    1    4    4    0    0  0.93612789087E+01  0.17593236408E+02 -0.17295751944E+02  0.26387469477E+02  0.00000000000E+00 0. -1.
</event>
<event>
 8    1  0.2511738E-006  0.9118800E+02  0.7816164E-02  0.1184000E+00
        -11   -1    0    0    0    0  0.00000000000E+00  0.00000000000E+00  0.45593999997E+02  0.45594000000E+02  0.51100000000E-03 0.  1.
         11   -1    0    0    0    0 -0.00000000000E+00 -0.00000000000E+00 -0.45593999997E+02  0.45594000000E+02  0.51100000000E-03 0. -1.
         23    2    1    2    0    0 -0.35527136788E-14  0.35527136788E-14  0.00000000000E+00  0.91188000000E+02  0.91188000000E+02 0.  0.
    9900012    2    3    3    0    0 -0.17928429807E+02  0.28808879364E+02  0.14296830707E+02  0.54367088906E+02  0.40000010778E+02 0.  0.
         12    1    3    3    0    0  0.17928429807E+02 -0.28808879364E+02 -0.14296830707E+02  0.36820911094E+02  0.00000000000E+00 0. -1.
         11    1    4    4    0    0 -0.17208162788E+02 -0.25178000759E+01  0.11457576393E+02  0.20826335271E+02  0.51100000000E-03 0. -1.
        -11    1    4    4    0    0 -0.54133545847E+01  0.11027765681E+02 -0.11120013770E+01  0.12335014029E+02  0.51100000000E-03 0.  1.
        -12    1    4    4    0    0  0.46930875659E+01  0.20298913759E+02  0.39512556911E+01  0.21205739606E+02  0.00000000000E+00 0.  1.
</event>
<event>
 8    1  0.2511738E-006  0.9118800E+02  0.7816164E-02  0.1184000E+00
        -11   -1    0    0    0    0  0.00000000000E+00  0.00000000000E+00  0.45593999997E+02  0.45594000000E+02  0.51100000000E-03 0.  1.
         11   -1    0    0    0    0 -0.00000000000E+00 -0.00000000000E+00 -0.45593999997E+02  0.45594000000E+02  0.51100000000E-03 0. -1.
         23    2    1    2    0    0  0.00000000000E+00  0.00000000000E+00 -0.71054273576E-14  0.91188000000E+02  0.91188000000E+02 0.  0.
    9900012    2    3    3    0    0  0.11425865154E+02  0.25208885342E+02  0.24284599213E+02  0.54367081304E+02  0.39999993448E+02 0.  0.
         12    1    3    3    0    0 -0.11425865154E+02 -0.25208885342E+02 -0.24284599213E+02  0.36820918696E+02  0.00000000000E+00 0. -1.
         11    1    4    4    0    0  0.77862146810E+01  0.56079279938E+01  0.48666762794E+01  0.10759113984E+02  0.51100000000E-03 0. -1.
        -11    1    4    4    0    0  0.56971428552E+01  0.27215417357E+02  0.21839845129E+02  0.35356968396E+02  0.51100000000E-03 0.  1.
         12    1    4    4    0    0 -0.20574923819E+01 -0.76144600089E+01 -0.24219221951E+01  0.82509989242E+01  0.00000000000E+00 0. -1.
</event>
<event>
 8    1  0.2511738E-006  0.9118800E+02  0.7816164E-02  0.1184000E+00
        -11   -1    0    0    0    0  0.00000000000E+00  0.00000000000E+00  0.45593999997E+02  0.45594000000E+02  0.51100000000E-03 0.  1.
         11   -1    0    0    0    0 -0.00000000000E+00 -0.00000000000E+00 -0.45593999997E+02  0.45594000000E+02  0.51100000000E-03 0. -1.
         23    2    1    2    0    0  0.00000000000E+00  0.00000000000E+00 -0.17763568394E-14  0.91188000000E+02  0.91188000000E+02 0.  0.
    9900012    2    3    3    0    0 -0.17073261890E+02  0.29331199179E+02 -0.14281590717E+02  0.54367090855E+02  0.40000015223E+02 0.  0.
        -12    1    3    3    0    0  0.17073261890E+02 -0.29331199179E+02  0.14281590717E+02  0.36820909145E+02  0.00000000000E+00 0.  1.
         11    1    4    4    0    0 -0.11235827354E+02  0.10628665176E+01 -0.13731279576E+02  0.17774181855E+02  0.51100000000E-03 0.  1.
        -11    1    4    4    0    0 -0.86089079119E+01  0.15102856683E+02  0.94896790071E+01  0.19805645239E+02  0.51100000000E-03 0. -1.
         12    1    4    4    0    0  0.27714733761E+01  0.13165475978E+02 -0.10039990148E+02  0.16787263761E+02  0.00000000000E+00 0. -1.
</event>
<event>
 8    1  0.2511738E-006  0.9118800E+02  0.7816164E-02  0.1184000E+00
        -11   -1    0    0    0    0  0.00000000000E+00  0.00000000000E+00  0.45593999997E+02  0.45594000000E+02  0.51100000000E-03 0.  1.
         11   -1    0    0    0    0 -0.00000000000E+00 -0.00000000000E+00 -0.45593999997E+02  0.45594000000E+02  0.51100000000E-03 0. -1.
         23    2    1    2    0    0  0.00000000000E+00  0.00000000000E+00 -0.88817841970E-15  0.91188000000E+02  0.91188000000E+02 0.  0.
    9900012    2    3    3    0    0 -0.34777634849E+02  0.10605082668E+02 -0.58162284479E+01  0.54367079623E+02  0.39999989616E+02 0.  0.
        -12    1    3    3    0    0  0.34777634849E+02 -0.10605082668E+02  0.58162284479E+01  0.36820920377E+02  0.00000000000E+00 0.  1.
         11    1    4    4    0    0 -0.14635236321E+02 -0.30967594262E+01 -0.12977818302E+02  0.19804136670E+02  0.51100000000E-03 0. -1.
        -11    1    4    4    0    0 -0.18506813934E+01 -0.25655314627E+01 -0.59906187798E+01  0.67745469909E+01  0.51100000000E-03 0.  1.
        -12    1    4    4    0    0 -0.18291717134E+02  0.16267373557E+02  0.13152208634E+02  0.27788395962E+02  0.00000000000E+00 0.  1.
</event>
<event>
 8    1  0.2511738E-006  0.9118800E+02  0.7816164E-02  0.1184000E+00
        -11   -1    0    0    0    0  0.00000000000E+00  0.00000000000E+00  0.45593999997E+02  0.45594000000E+02  0.51100000000E-03 0. -1.
         11   -1    0    0    0    0 -0.00000000000E+00 -0.00000000000E+00 -0.45593999997E+02  0.45594000000E+02  0.51100000000E-03 0.  1.
         23    2    1    2    0    0  0.35527136788E-14  0.00000000000E+00 -0.17763568394E-14  0.91188000000E+02  0.91188000000E+02 0.  0.
    9900012    2    3    3    0    0 -0.24582810031E+02 -0.23416057772E+02  0.14253176093E+02  0.54367091003E+02  0.40000015560E+02 0.  0.
        -12    1    3    3    0    0  0.24582810031E+02  0.23416057772E+02 -0.14253176093E+02  0.36820908997E+02  0.00000000000E+00 0.  1.
         11    1    4    4    0    0  0.15750619738E+01 -0.21270618390E+02  0.90007400873E+01  0.23150234325E+02  0.51100000000E-03 0. -1.
        -11    1    4    4    0    0 -0.42039995986E+01 -0.70095380744E+01  0.25868251839E+01  0.85731500299E+01  0.51100000000E-03 0.  1.
        -12    1    4    4    0    0 -0.21953872406E+02  0.48640986923E+01  0.26656108222E+01  0.22643706648E+02  0.00000000000E+00 0.  1.
</event>
<event>
 8    1  0.2511738E-006  0.9118800E+02  0.7816164E-02  0.1184000E+00
        -11   -1    0    0    0    0  0.00000000000E+00  0.00000000000E+00  0.45593999997E+02  0.45594000000E+02  0.51100000000E-03 0.  1.
         11   -1    0    0    0    0 -0.00000000000E+00 -0.00000000000E+00 -0.45593999997E+02  0.45594000000E+02  0.51100000000E-03 0. -1.
         23    2    1    2    0    0  0.00000000000E+00  0.35527136788E-14  0.00000000000E+00  0.91188000000E+02  0.91188000000E+02 0.  0.
    9900012    2    3    3    0    0  0.23184034685E+02  0.27105905311E+02 -0.91405914972E+01  0.54367082305E+02  0.39999995730E+02 0.  0.
        -12    1    3    3    0    0 -0.23184034685E+02 -0.27105905311E+02  0.91405914972E+01  0.36820917695E+02  0.00000000000E+00 0.  1.
         11    1    4    4    0    0 -0.62818211127E-01  0.23133244823E+01 -0.10262488091E+02  0.10520174826E+02  0.51100000000E-03 0. -1.
        -11    1    4    4    0    0  0.26170116120E+02  0.19387982346E+02  0.90623124464E+01  0.33806720402E+02  0.51100000000E-03 0.  1.
        -12    1    4    4    0    0 -0.29232632231E+01  0.54045984823E+01 -0.79404158522E+01  0.10040187077E+02  0.00000000000E+00 0.  1.
</event>
<event>
 8    1  0.2511738E-006  0.9118800E+02  0.7816164E-02  0.1184000E+00
        -11   -1    0    0    0    0  0.00000000000E+00  0.00000000000E+00  0.45593999997E+02  0.45594000000E+02  0.51100000000E-03 0. -1.
         11   -1    0    0    0    0 -0.00000000000E+00 -0.00000000000E+00 -0.45593999997E+02  0.45594000000E+02  0.51100000000E-03 0.  1.
         23    2    1    2    0    0  0.00000000000E+00 -0.71054273576E-14  0.17763568394E-14  0.91188000000E+02  0.91188000000E+02 0.  0.
    9900012    2    3    3    0    0 -0.21462713150E+01 -0.36390320116E+02  0.51881088980E+01  0.54367104402E+02  0.40000046105E+02 0.  0.
        -12    1    3    3    0    0  0.21462713150E+01  0.36390320116E+02 -0.51881088980E+01  0.36820895598E+02  0.00000000000E+00 0.  1.
         11    1    4    4    0    0  0.18223021138E+01 -0.18656740475E+01 -0.29333022372E+01  0.39250206268E+01  0.51100000000E-03 0. -1.
        -11    1    4    4    0    0 -0.23680071465E+01  0.64611898688E+01 -0.36227473916E+01  0.77768072685E+01  0.51100000000E-03 0.  1.
         12    1    4    4    0    0 -0.16005662823E+01 -0.40985835937E+02  0.11744158527E+02  0.42665276507E+02  0.00000000000E+00 0. -1.
</event>
<event>
 8    1  0.2511738E-006  0.9118800E+02  0.7816164E-02  0.1184000E+00
        -11   -1    0    0    0    0  0.00000000000E+00  0.00000000000E+00  0.45593999997E+02  0.45594000000E+02  0.51100000000E-03 0.  1.
         11   -1    0    0    0    0 -0.00000000000E+00 -0.00000000000E+00 -0.45593999997E+02  0.45594000000E+02  0.51100000000E-03 0. -1.
         23    2    1    2    0    0  0.00000000000E+00  0.00000000000E+00  0.00000000000E+00  0.91188000000E+02  0.91188000000E+02 0.  0.
    9900012    2    3    3    0    0 -0.16791606394E+02 -0.25113480853E+02 -0.21050790972E+02  0.54367071625E+02  0.39999971383E+02 0.  0.
        -12    1    3    3    0    0  0.16791606394E+02  0.25113480853E+02  0.21050790972E+02  0.36820928375E+02  0.00000000000E+00 0.  1.
         11    1    4    4    0    0  0.35805934783E+00 -0.26974536127E+01 -0.87164270328E+01  0.91312957990E+01  0.51100000000E-03 0. -1.
        -11    1    4    4    0    0 -0.27126509617E+02 -0.16208256727E+02 -0.71847189525E+01  0.32406408268E+02  0.51100000000E-03 0.  1.
        -12    1    4    4    0    0  0.99768438750E+01 -0.62077705131E+01 -0.51496449869E+01  0.12829367558E+02  0.00000000000E+00 0.  1.
</event>
<event>
 8    1  0.2511738E-006  0.9118800E+02  0.7816164E-02  0.1184000E+00
        -11   -1    0    0    0    0  0.00000000000E+00  0.00000000000E+00  0.45593999997E+02  0.45594000000E+02  0.51100000000E-03 0.  1.
         11   -1    0    0    0    0 -0.00000000000E+00 -0.00000000000E+00 -0.45593999997E+02  0.45594000000E+02  0.51100000000E-03 0. -1.
         23    2    1    2    0    0  0.00000000000E+00 -0.88817841970E-15  0.00000000000E+00  0.91188000000E+02  0.91188000000E+02 0.  0.
    9900012    2    3    3    0    0  0.12461785934E+02  0.54163347597E+01  0.34222026856E+02  0.54367083213E+02  0.39999997801E+02 0.  0.
         12    1    3    3    0    0 -0.12461785934E+02 -0.54163347597E+01 -0.34222026856E+02  0.36820916787E+02  0.00000000000E+00 0. -1.
         11    1    4    4    0    0  0.40795089562E+01  0.14163241009E+02  0.10974708654E+02  0.18376180765E+02  0.51100000000E-03 0. -1.
        -11    1    4    4    0    0  0.42394884186E+01  0.68785981419E+01  0.16696026617E+02  0.18548468387E+02  0.51100000000E-03 0.  1.
        -12    1    4    4    0    0  0.41427885592E+01 -0.15625504391E+02  0.65512915848E+01  0.17442434061E+02  0.00000000000E+00 0.  1.
</event>
<event>
 8    1  0.2511738E-006  0.9118800E+02  0.7816164E-02  0.1184000E+00
        -11   -1    0    0    0    0  0.00000000000E+00  0.00000000000E+00  0.45593999997E+02  0.45594000000E+02  0.51100000000E-03 0. -1.
         11   -1    0    0    0    0 -0.00000000000E+00 -0.00000000000E+00 -0.45593999997E+02  0.45594000000E+02  0.51100000000E-03 0.  1.
         23    2    1    2    0    0  0.35527136788E-14 -0.44408920985E-15  0.00000000000E+00  0.91188000000E+02  0.91188000000E+02 0.  0.
    9900012    2    3    3    0    0 -0.29092356604E+02 -0.36945702103E+01 -0.22265757415E+02  0.54367095406E+02  0.40000025598E+02 0.  0.
         12    1    3    3    0    0  0.29092356604E+02  0.36945702103E+01  0.22265757415E+02  0.36820904594E+02  0.00000000000E+00 0. -1.
         11    1    4    4    0    0 -0.22781855554E+02 -0.18476852781E+02 -0.86559976142E+01  0.30583219682E+02  0.51100000000E-03 0. -1.
        -11    1    4    4    0    0 -0.40794091100E+01  0.15803317853E+02 -0.91953914234E+01  0.18733436885E+02  0.51100000000E-03 0.  1.
         12    1    4    4    0    0 -0.22310919398E+01 -0.10210352824E+01 -0.44143683772E+01  0.50504388385E+01  0.00000000000E+00 0. -1.
</event>
<event>
 8    1  0.2511738E-006  0.9118800E+02  0.7816164E-02  0.1184000E+00
        -11   -1    0    0    0    0  0.00000000000E+00  0.00000000000E+00  0.45593999997E+02  0.45594000000E+02  0.51100000000E-03 0. -1.
         11   -1    0    0    0    0 -0.00000000000E+00 -0.00000000000E+00 -0.45593999997E+02  0.45594000000E+02  0.51100000000E-03 0.  1.
         23    2    1    2    0    0 -0.44408920985E-15  0.17763568394E-14  0.00000000000E+00  0.91188000000E+02  0.91188000000E+02 0.  0.
    9900012    2    3    3    0    0 -0.18459904890E+01  0.15358175045E+02  0.33414019672E+02  0.54367110111E+02  0.40000059119E+02 0.  0.
        -12    1    3    3    0    0  0.18459904890E+01 -0.15358175045E+02 -0.33414019672E+02  0.36820889889E+02  0.00000000000E+00 0.  1.
         11    1    4    4    0    0  0.32998259161E+01  0.64002761204E+01  0.13635192532E+02  0.15419820399E+02  0.51100000000E-03 0. -1.
        -11    1    4    4    0    0  0.90422500459E+01 -0.37418159572E+01 -0.20312908432E+01  0.99944792411E+01  0.51100000000E-03 0.  1.
        -12    1    4    4    0    0 -0.14188066451E+02  0.12699714882E+02  0.21810117983E+02  0.28952810471E+02  0.00000000000E+00 0.  1.
</event>
<event>
 8    1  0.2511738E-006  0.9118800E+02  0.7816164E-02  0.1184000E+00
        -11   -1    0    0    0    0  0.00000000000E+00  0.00000000000E+00  0.45593999997E+02  0.45594000000E+02  0.51100000000E-03 0. -1.
         11   -1    0    0    0    0 -0.00000000000E+00 -0.00000000000E+00 -0.45593999997E+02  0.45594000000E+02  0.51100000000E-03 0.  1.
         23    2    1    2    0    0  0.00000000000E+00  0.17763568394E-14 -0.35527136788E-14  0.91188000000E+02  0.91188000000E+02 0.  0.
    9900012    2    3    3    0    0 -0.29631214132E+02 -0.12349371750E+02  0.18035042668E+02  0.54367101076E+02  0.40000038523E+02 0.  0.
        -12    1    3    3    0    0  0.29631214132E+02  0.12349371750E+02 -0.18035042668E+02  0.36820898924E+02  0.00000000000E+00 0.  1.
         11    1    4    4    0    0 -0.31745716962E+02 -0.13132601593E+01  0.99805020399E+01  0.33303537634E+02  0.51100000000E-03 0. -1.
        -11    1    4    4    0    0 -0.39119827960E+01 -0.34554729274E+00 -0.26837125496E+01  0.47566086278E+01  0.51100000000E-03 0.  1.
        -12    1    4    4    0    0  0.60264856264E+01 -0.10690564298E+02  0.10738253178E+02  0.16306954814E+02  0.00000000000E+00 0.  1.
</event>
<event>
 8    1  0.2511738E-006  0.9118800E+02  0.7816164E-02  0.1184000E+00
        -11   -1    0    0    0    0  0.00000000000E+00  0.00000000000E+00  0.45593999997E+02  0.45594000000E+02  0.51100000000E-03 0.  1.
         11   -1    0    0    0    0 -0.00000000000E+00 -0.00000000000E+00 -0.45593999997E+02  0.45594000000E+02  0.51100000000E-03 0. -1.
         23    2    1    2    0    0  0.11102230246E-15  0.35527136788E-14  0.00000000000E+00  0.91188000000E+02  0.91188000000E+02 0.  0.
    9900012    2    3    3    0    0 -0.25580156724E+00  0.30573461998E+02  0.20517476506E+02  0.54367233370E+02  0.40000340113E+02 0.  0.
         12    1    3    3    0    0  0.25580156724E+00 -0.30573461998E+02 -0.20517476506E+02  0.36820766630E+02  0.00000000000E+00 0. -1.
         11    1    4    4    0    0  0.69833081568E+01 -0.17716006258E+01 -0.22080976946E+01  0.75353073779E+01  0.51100000000E-03 0. -1.
        -11    1    4    4    0    0  0.64187438194E+01  0.83661774723E+01 -0.79198732589E+00  0.10574518519E+02  0.51100000000E-03 0.  1.
        -12    1    4    4    0    0 -0.13657853543E+02  0.23978885152E+02  0.23517561527E+02  0.36257407474E+02  0.00000000000E+00 0.  1.
</event>
<event>
 8    1  0.2511738E-006  0.9118800E+02  0.7816164E-02  0.1184000E+00
        -11   -1    0    0    0    0  0.00000000000E+00  0.00000000000E+00  0.45593999997E+02  0.45594000000E+02  0.51100000000E-03 0. -1.
         11   -1    0    0    0    0 -0.00000000000E+00 -0.00000000000E+00 -0.45593999997E+02  0.45594000000E+02  0.51100000000E-03 0.  1.
         23    2    1    2    0    0  0.35527136788E-14  0.44408920985E-15  0.71054273576E-14  0.91188000000E+02  0.91188000000E+02 0.  0.
    9900012    2    3    3    0    0  0.18942854934E+02  0.22945593561E+01  0.31491000692E+02  0.54367083658E+02  0.39999998814E+02 0.  0.
        -12    1    3    3    0    0 -0.18942854934E+02 -0.22945593561E+01 -0.31491000692E+02  0.36820916342E+02  0.00000000000E+00 0.  1.
         11    1    4    4    0    0  0.15808159902E+02  0.21269908047E+01  0.30799215274E+00  0.15953584826E+02  0.51100000000E-03 0. -1.
        -11    1    4    4    0    0  0.67262056917E+01 -0.90745868773E+01  0.10258968063E+02  0.15258977554E+02  0.51100000000E-03 0.  1.
        -12    1    4    4    0    0 -0.35915106592E+01  0.92421554287E+01  0.20924040476E+02  0.23154521278E+02  0.00000000000E+00 0.  1.
</event>
<event>
 8    1  0.2511738E-006  0.9118800E+02  0.7816164E-02  0.1184000E+00
        -11   -1    0    0    0    0  0.00000000000E+00  0.00000000000E+00  0.45593999997E+02  0.45594000000E+02  0.51100000000E-03 0.  1.
         11   -1    0    0    0    0 -0.00000000000E+00 -0.00000000000E+00 -0.45593999997E+02  0.45594000000E+02  0.51100000000E-03 0. -1.
         23    2    1    2    0    0  0.17763568394E-14  0.71054273576E-14  0.66613381478E-15  0.91188000000E+02  0.91188000000E+02 0.  0.
    9900012    2    3    3    0    0  0.14160569258E+02 -0.33950965713E+02  0.16094973959E+01  0.54367078279E+02  0.39999986553E+02 0.  0.
        -12    1    3    3    0    0 -0.14160569258E+02  0.33950965713E+02 -0.16094973959E+01  0.36820921721E+02  0.00000000000E+00 0.  1.
         11    1    4    4    0    0 -0.64297337995E+01 -0.12539479122E+02  0.44831194088E+01  0.14787777834E+02  0.51100000000E-03 0. -1.
        -11    1    4    4    0    0 -0.40447856870E+01  0.27385238790E+01 -0.12553652703E+01  0.50433864132E+01  0.51100000000E-03 0.  1.
        -12    1    4    4    0    0  0.24635088744E+02 -0.24150010470E+02 -0.16182567426E+01  0.34535914032E+02  0.00000000000E+00 0.  1.
</event>
<event>
 8    1  0.2511738E-006  0.9118800E+02  0.7816164E-02  0.1184000E+00
        -11   -1    0    0    0    0  0.00000000000E+00  0.00000000000E+00  0.45593999997E+02  0.45594000000E+02  0.51100000000E-03 0.  1.
         11   -1    0    0    0    0 -0.00000000000E+00 -0.00000000000E+00 -0.45593999997E+02  0.45594000000E+02  0.51100000000E-03 0. -1.
         23    2    1    2    0    0  0.17763568394E-14 -0.35527136788E-14  0.00000000000E+00  0.91188000000E+02  0.91188000000E+02 0.  0.
    9900012    2    3    3    0    0 -0.92932523565E+01 -0.28504689896E+02 -0.21375150986E+02  0.54367096085E+02  0.40000027146E+02 0.  0.
        -12    1    3    3    0    0  0.92932523565E+01  0.28504689896E+02  0.21375150986E+02  0.36820903915E+02  0.00000000000E+00 0.  1.
         11    1    4    4    0    0 -0.21153232932E+02 -0.11143758065E+02 -0.13612348027E+02  0.27512517630E+02  0.51100000000E-03 0. -1.
        -11    1    4    4    0    0  0.73254306520E+01 -0.71139273038E+01  0.36655544513E+01  0.10849248159E+02  0.51100000000E-03 0.  1.
        -12    1    4    4    0    0  0.45345499233E+01 -0.10247004527E+02 -0.11428357411E+02  0.16005330296E+02  0.00000000000E+00 0.  1.
</event>
<event>
 8    1  0.2511738E-006  0.9118800E+02  0.7816164E-02  0.1184000E+00
        -11   -1    0    0    0    0  0.00000000000E+00  0.00000000000E+00  0.45593999997E+02  0.45594000000E+02  0.51100000000E-03 0.  1.
         11   -1    0    0    0    0 -0.00000000000E+00 -0.00000000000E+00 -0.45593999997E+02  0.45594000000E+02  0.51100000000E-03 0. -1.
         23    2    1    2    0    0  0.44408920985E-15  0.00000000000E+00 -0.22204460493E-14  0.91188000000E+02  0.91188000000E+02 0.  0.
    9900012    2    3    3    0    0 -0.28904072844E+01  0.36683691624E+02  0.13163546398E+01  0.54367075582E+02  0.39999980405E+02 0.  0.
         12    1    3    3    0    0  0.28904072844E+01 -0.36683691624E+02 -0.13163546398E+01  0.36820924418E+02  0.00000000000E+00 0. -1.
         11    1    4    4    0    0  0.10743532869E+01  0.14862970288E+02 -0.16916487098E+02  0.22543949449E+02  0.51100000000E-03 0. -1.
        -11    1    4    4    0    0 -0.30082700353E+01  0.55122929944E+01  0.13381210815E+02  0.14781470353E+02  0.51100000000E-03 0.  1.
        -12    1    4    4    0    0 -0.95649053593E+00  0.16308428342E+02  0.48516309235E+01  0.17041655780E+02  0.00000000000E+00 0.  1.
</event>
<event>
 8    1  0.2511738E-006  0.9118800E+02  0.7816164E-02  0.1184000E+00
        -11   -1    0    0    0    0  0.00000000000E+00  0.00000000000E+00  0.45593999997E+02  0.45594000000E+02  0.51100000000E-03 0. -1.
         11   -1    0    0    0    0 -0.00000000000E+00 -0.00000000000E+00 -0.45593999997E+02  0.45594000000E+02  0.51100000000E-03 0.  1.
         23    2    1    2    0    0  0.17763568394E-14  0.00000000000E+00  0.00000000000E+00  0.91188000000E+02  0.91188000000E+02 0.  0.
    9900012    2    3    3    0    0  0.95363261421E+01 -0.33080770458E+02  0.13057542060E+02  0.54367105184E+02  0.40000047887E+02 0.  0.
         12    1    3    3    0    0 -0.95363261421E+01  0.33080770458E+02 -0.13057542060E+02  0.36820894816E+02  0.00000000000E+00 0. -1.
         11    1    4    4    0    0 -0.52404938782E+01  0.13351101305E+01  0.52083146037E+01  0.75081180345E+01  0.51100000000E-03 0. -1.
        -11    1    4    4    0    0  0.18250768145E+02 -0.37256857991E+02  0.56780816981E+01  0.41873674514E+02  0.51100000000E-03 0.  1.
        -12    1    4    4    0    0 -0.34739481243E+01  0.28409774021E+01  0.21711457586E+01  0.49853126356E+01  0.00000000000E+00 0.  1.
</event>
<event>
 8    1  0.2511738E-006  0.9118800E+02  0.7816164E-02  0.1184000E+00
        -11   -1    0    0    0    0  0.00000000000E+00  0.00000000000E+00  0.45593999997E+02  0.45594000000E+02  0.51100000000E-03 0. -1.
         11   -1    0    0    0    0 -0.00000000000E+00 -0.00000000000E+00 -0.45593999997E+02  0.45594000000E+02  0.51100000000E-03 0.  1.
         23    2    1    2    0    0  0.00000000000E+00  0.88817841970E-15  0.00000000000E+00  0.91188000000E+02  0.91188000000E+02 0.  0.
    9900012    2    3    3    0    0 -0.23838464884E+02 -0.52910437617E+01 -0.27559249612E+02  0.54367084866E+02  0.40000001569E+02 0.  0.
        -12    1    3    3    0    0  0.23838464884E+02  0.52910437617E+01  0.27559249612E+02  0.36820915134E+02  0.00000000000E+00 0.  1.
         11    1    4    4    0    0 -0.26575573860E+02 -0.11103038959E+02 -0.20614562580E+02  0.35418904426E+02  0.51100000000E-03 0. -1.
        -11    1    4    4    0    0  0.22102415724E+01  0.87940827269E+01 -0.10763836176E+02  0.14074133305E+02  0.51100000000E-03 0.  1.
        -12    1    4    4    0    0  0.52686740391E+00 -0.29820875296E+01  0.38191491428E+01  0.48740471346E+01  0.00000000000E+00 0.  1.
</event>
<event>
 8    1  0.2511738E-006  0.9118800E+02  0.7816164E-02  0.1184000E+00
        -11   -1    0    0    0    0  0.00000000000E+00  0.00000000000E+00  0.45593999997E+02  0.45594000000E+02  0.51100000000E-03 0.  1.
         11   -1    0    0    0    0 -0.00000000000E+00 -0.00000000000E+00 -0.45593999997E+02  0.45594000000E+02  0.51100000000E-03 0. -1.
         23    2    1    2    0    0  0.35527136788E-14 -0.17763568394E-14 -0.35527136788E-14  0.91188000000E+02  0.91188000000E+02 0.  0.
    9900012    2    3    3    0    0  0.25237041480E+02 -0.14735977250E+02 -0.22399166513E+02  0.54367082729E+02  0.39999996698E+02 0.  0.
        -12    1    3    3    0    0 -0.25237041480E+02  0.14735977250E+02  0.22399166513E+02  0.36820917271E+02  0.00000000000E+00 0.  1.
         11    1    4    4    0    0  0.21646933263E+01 -0.15652838830E+02 -0.58470974432E+01  0.16848911223E+02  0.51100000000E-03 0. -1.
        -11    1    4    4    0    0  0.18686058750E+02 -0.10445494097E+02 -0.92757994471E+01  0.23330614955E+02  0.51100000000E-03 0.  1.
        -12    1    4    4    0    0  0.43862894029E+01  0.11362355677E+02 -0.72762696232E+01  0.14187556551E+02  0.00000000000E+00 0.  1.
</event>
<event>
 8    1  0.2511738E-006  0.9118800E+02  0.7816164E-02  0.1184000E+00
        -11   -1    0    0    0    0  0.00000000000E+00  0.00000000000E+00  0.45593999997E+02  0.45594000000E+02  0.51100000000E-03 0.  1.
         11   -1    0    0    0    0 -0.00000000000E+00 -0.00000000000E+00 -0.45593999997E+02  0.45594000000E+02  0.51100000000E-03 0. -1.
         23    2    1    2    0    0  0.71054273576E-14 -0.17763568394E-14 -0.17763568394E-14  0.91188000000E+02  0.91188000000E+02 0.  0.
    9900012    2    3    3    0    0  0.33778480226E+02 -0.98869695304E+01 -0.10818589909E+02  0.54367085013E+02  0.40000001903E+02 0.  0.
         12    1    3    3    0    0 -0.33778480226E+02  0.98869695304E+01  0.10818589909E+02  0.36820914987E+02  0.00000000000E+00 0. -1.
         11    1    4    4    0    0  0.26858478528E+00  0.17633439125E+01  0.41245034739E+01  0.44936676232E+01  0.51100000000E-03 0. -1.
        -11    1    4    4    0    0  0.19384030464E+02  0.13617534906E+01 -0.22054240352E+02  0.29393613717E+02  0.51100000000E-03 0.  1.
        -12    1    4    4    0    0  0.14125864977E+02 -0.13012066934E+02  0.71111469689E+01  0.20479803672E+02  0.00000000000E+00 0.  1.
</event>
<event>
 8    1  0.2511738E-006  0.9118800E+02  0.7816164E-02  0.1184000E+00
        -11   -1    0    0    0    0  0.00000000000E+00  0.00000000000E+00  0.45593999997E+02  0.45594000000E+02  0.51100000000E-03 0.  1.
         11   -1    0    0    0    0 -0.00000000000E+00 -0.00000000000E+00 -0.45593999997E+02  0.45594000000E+02  0.51100000000E-03 0. -1.
         23    2    1    2    0    0  0.00000000000E+00  0.00000000000E+00  0.00000000000E+00  0.91188000000E+02  0.91188000000E+02 0.  0.
    9900012    2    3    3    0    0 -0.21487204425E+02  0.19866489663E+02  0.22347301913E+02  0.54367091968E+02  0.40000017759E+02 0.  0.
         12    1    3    3    0    0  0.21487204425E+02 -0.19866489663E+02 -0.22347301913E+02  0.36820908032E+02  0.00000000000E+00 0. -1.
         11    1    4    4    0    0  0.22169756972E+01 -0.82710443927E+01  0.58642292374E+01  0.10378551989E+02  0.51100000000E-03 0. -1.
        -11    1    4    4    0    0 -0.24309049088E+02  0.29824561983E+02  0.17083485197E+02  0.42098454031E+02  0.51100000000E-03 0.  1.
        -12    1    4    4    0    0  0.60486896624E+00 -0.16870279270E+01 -0.60041252158E+00  0.18900859474E+01  0.00000000000E+00 0.  1.
</event>
<event>
 8    1  0.2511738E-006  0.9118800E+02  0.7816164E-02  0.1184000E+00
        -11   -1    0    0    0    0  0.00000000000E+00  0.00000000000E+00  0.45593999997E+02  0.45594000000E+02  0.51100000000E-03 0. -1.
         11   -1    0    0    0    0 -0.00000000000E+00 -0.00000000000E+00 -0.45593999997E+02  0.45594000000E+02  0.51100000000E-03 0.  1.
         23    2    1    2    0    0 -0.48849813084E-14  0.00000000000E+00  0.00000000000E+00  0.91188000000E+02  0.91188000000E+02 0.  0.
    9900012    2    3    3    0    0 -0.23340157435E+01  0.13750161227E+01  0.36721123551E+02  0.54367092710E+02  0.40000019450E+02 0.  0.
        -12    1    3    3    0    0  0.23340157435E+01 -0.13750161227E+01 -0.36721123551E+02  0.36820907290E+02  0.00000000000E+00 0.  1.
         11    1    4    4    0    0 -0.17616649051E+02  0.48763932861E+00  0.79027743979E+01  0.19314190621E+02  0.51100000000E-03 0. -1.
        -11    1    4    4    0    0  0.15516593118E+02  0.53151700995E+00  0.16240255031E+02  0.22467600139E+02  0.51100000000E-03 0.  1.
        -12    1    4    4    0    0 -0.23395980969E+00  0.35585978415E+00  0.12578094123E+02  0.12585301949E+02  0.00000000000E+00 0.  1.
</event>
<event>
 8    1  0.2511738E-006  0.9118800E+02  0.7816164E-02  0.1184000E+00
        -11   -1    0    0    0    0  0.00000000000E+00  0.00000000000E+00  0.45593999997E+02  0.45594000000E+02  0.51100000000E-03 0.  1.
         11   -1    0    0    0    0 -0.00000000000E+00 -0.00000000000E+00 -0.45593999997E+02  0.45594000000E+02  0.51100000000E-03 0. -1.
         23    2    1    2    0    0  0.35527136788E-14 -0.35527136788E-14  0.00000000000E+00  0.91188000000E+02  0.91188000000E+02 0.  0.
    9900012    2    3    3    0    0 -0.24342060819E+02  0.18304218364E+02 -0.20692984451E+02  0.54367082842E+02  0.39999996956E+02 0.  0.
        -12    1    3    3    0    0  0.24342060819E+02 -0.18304218364E+02  0.20692984451E+02  0.36820917158E+02  0.00000000000E+00 0.  1.
         11    1    4    4    0    0 -0.46947745342E+01  0.10485355151E+02 -0.16462239771E+01  0.11605758666E+02  0.51100000000E-03 0. -1.
        -11    1    4    4    0    0  0.33300421119E+00 -0.10864128270E+02 -0.65221983962E+01  0.12675931802E+02  0.51100000000E-03 0.  1.
         12    1    4    4    0    0 -0.19980290496E+02  0.18682991484E+02 -0.12524562078E+02  0.30085392374E+02  0.00000000000E+00 0. -1.
</event>
<event>
 8    1  0.2511738E-006  0.9118800E+02  0.7816164E-02  0.1184000E+00
        -11   -1    0    0    0    0  0.00000000000E+00  0.00000000000E+00  0.45593999997E+02  0.45594000000E+02  0.51100000000E-03 0. -1.
         11   -1    0    0    0    0 -0.00000000000E+00 -0.00000000000E+00 -0.45593999997E+02  0.45594000000E+02  0.51100000000E-03 0.  1.
         23    2    1    2    0    0 -0.17763568394E-14  0.00000000000E+00  0.00000000000E+00  0.91188000000E+02  0.91188000000E+02 0.  0.
    9900012    2    3    3    0    0  0.14191525275E+02  0.20667426822E+02  0.26967383425E+02  0.54367059085E+02  0.39999942796E+02 0.  0.
        -12    1    3    3    0    0 -0.14191525275E+02 -0.20667426822E+02 -0.26967383425E+02  0.36820940915E+02  0.00000000000E+00 0.  1.
         11    1    4    4    0    0  0.72268568670E+01  0.19057969188E+01  0.57710726257E+01  0.94427115589E+01  0.51100000000E-03 0. -1.
        -11    1    4    4    0    0  0.16375281305E+02  0.12765619132E+02  0.25570836448E+02  0.32939012532E+02  0.51100000000E-03 0.  1.
        -12    1    4    4    0    0 -0.94106128975E+01  0.59960107710E+01 -0.43745256489E+01  0.11985334994E+02  0.00000000000E+00 0.  1.
</event>
<event>
 8    1  0.2511738E-006  0.9118800E+02  0.7816164E-02  0.1184000E+00
        -11   -1    0    0    0    0  0.00000000000E+00  0.00000000000E+00  0.45593999997E+02  0.45594000000E+02  0.51100000000E-03 0.  1.
         11   -1    0    0    0    0 -0.00000000000E+00 -0.00000000000E+00 -0.45593999997E+02  0.45594000000E+02  0.51100000000E-03 0. -1.
         23    2    1    2    0    0  0.00000000000E+00  0.17763568394E-14  0.00000000000E+00  0.91188000000E+02  0.91188000000E+02 0.  0.
    9900012    2    3    3    0    0 -0.28698678876E+02  0.67141180247E+01 -0.22070081750E+02  0.54367054079E+02  0.39999931384E+02 0.  0.
        -12    1    3    3    0    0  0.28698678876E+02 -0.67141180247E+01  0.22070081750E+02  0.36820945921E+02  0.00000000000E+00 0.  1.
         11    1    4    4    0    0 -0.26923199631E+02 -0.11106812827E+02 -0.93920410832E+01  0.30601150395E+02  0.51100000000E-03 0. -1.
        -11    1    4    4    0    0 -0.16310405251E+01  0.15335114033E+02 -0.58429644513E+01  0.16491399257E+02  0.51100000000E-03 0.  1.
         12    1    4    4    0    0 -0.14443872040E+00  0.24858168180E+01 -0.68350762150E+01  0.72745044272E+01  0.00000000000E+00 0. -1.
</event>
<event>
 8    1  0.2511738E-006  0.9118800E+02  0.7816164E-02  0.1184000E+00
        -11   -1    0    0    0    0  0.00000000000E+00  0.00000000000E+00  0.45593999997E+02  0.45594000000E+02  0.51100000000E-03 0.  1.
         11   -1    0    0    0    0 -0.00000000000E+00 -0.00000000000E+00 -0.45593999997E+02  0.45594000000E+02  0.51100000000E-03 0. -1.
         23    2    1    2    0    0  0.00000000000E+00  0.00000000000E+00  0.00000000000E+00  0.91188000000E+02  0.91188000000E+02 0.  0.
    9900012    2    3    3    0    0  0.21418924338E+02 -0.14147668854E+02 -0.26398008394E+02  0.54367058934E+02  0.39999942452E+02 0.  0.
        -12    1    3    3    0    0 -0.21418924338E+02  0.14147668854E+02  0.26398008394E+02  0.36820941066E+02  0.00000000000E+00 0.  1.
         11    1    4    4    0    0  0.24137828380E+02 -0.21758855865E+02 -0.11165760854E+02  0.34362141714E+02  0.51100000000E-03 0. -1.
        -11    1    4    4    0    0 -0.59086480481E+00 -0.22404993383E+01 -0.56128870808E+01  0.60723521098E+01  0.51100000000E-03 0.  1.
         12    1    4    4    0    0 -0.21280392374E+01  0.98516863491E+01 -0.96193604588E+01  0.13932565110E+02  0.00000000000E+00 0. -1.
</event>
<event>
 8    1  0.2511738E-006  0.9118800E+02  0.7816164E-02  0.1184000E+00
        -11   -1    0    0    0    0  0.00000000000E+00  0.00000000000E+00  0.45593999997E+02  0.45594000000E+02  0.51100000000E-03 0. -1.
         11   -1    0    0    0    0 -0.00000000000E+00 -0.00000000000E+00 -0.45593999997E+02  0.45594000000E+02  0.51100000000E-03 0.  1.
         23    2    1    2    0    0  0.00000000000E+00  0.44408920985E-15  0.00000000000E+00  0.91188000000E+02  0.91188000000E+02 0.  0.
    9900012    2    3    3    0    0 -0.30910678023E+02  0.29503058105E+01 -0.19789031240E+02  0.54367080978E+02  0.39999992706E+02 0.  0.
         12    1    3    3    0    0  0.30910678023E+02 -0.29503058105E+01  0.19789031240E+02  0.36820919022E+02  0.00000000000E+00 0. -1.
         11    1    4    4    0    0 -0.83733589313E+01 -0.54250987867E+01 -0.46739352426E+01  0.11017736045E+02  0.51100000000E-03 0. -1.
        -11    1    4    4    0    0 -0.29255902450E+02  0.65408687739E-01 -0.74242236711E+01  0.30183293456E+02  0.51100000000E-03 0.  1.
        -12    1    4    4    0    0  0.67185833589E+01  0.83099959094E+01 -0.76908723262E+01  0.13166051477E+02  0.00000000000E+00 0.  1.
</event>
<event>
 8    1  0.2511738E-006  0.9118800E+02  0.7816164E-02  0.1184000E+00
        -11   -1    0    0    0    0  0.00000000000E+00  0.00000000000E+00  0.45593999997E+02  0.45594000000E+02  0.51100000000E-03 0.  1.
         11   -1    0    0    0    0 -0.00000000000E+00 -0.00000000000E+00 -0.45593999997E+02  0.45594000000E+02  0.51100000000E-03 0. -1.
         23    2    1    2    0    0  0.00000000000E+00  0.00000000000E+00  0.00000000000E+00  0.91188000000E+02  0.91188000000E+02 0.  0.
    9900012    2    3    3    0    0  0.90727525210E+01  0.35586023929E+02  0.26632724910E+01  0.54367177661E+02  0.40000213113E+02 0.  0.
         12    1    3    3    0    0 -0.90727525210E+01 -0.35586023929E+02 -0.26632724910E+01  0.36820822339E+02  0.00000000000E+00 0. -1.
         11    1    4    4    0    0 -0.77072635682E+00 -0.52169544518E+01 -0.82848065759E+01  0.98208275176E+01  0.51100000000E-03 0. -1.
        -11    1    4    4    0    0  0.11224588634E+02  0.34038293547E+02  0.67660821557E+01  0.36474329132E+02  0.51100000000E-03 0.  1.
        -12    1    4    4    0    0 -0.13811097563E+01  0.67646848331E+01  0.41819969111E+01  0.80720210118E+01  0.00000000000E+00 0.  1.
</event>
<event>
 8    1  0.2511738E-006  0.9118800E+02  0.7816164E-02  0.1184000E+00
        -11   -1    0    0    0    0  0.00000000000E+00  0.00000000000E+00  0.45593999997E+02  0.45594000000E+02  0.51100000000E-03 0.  1.
         11   -1    0    0    0    0 -0.00000000000E+00 -0.00000000000E+00 -0.45593999997E+02  0.45594000000E+02  0.51100000000E-03 0. -1.
         23    2    1    2    0    0  0.00000000000E+00  0.35527136788E-14  0.00000000000E+00  0.91188000000E+02  0.91188000000E+02 0.  0.
    9900012    2    3    3    0    0  0.13930769563E+02  0.26442509008E+02  0.21505985819E+02  0.54367081363E+02  0.39999993582E+02 0.  0.
         12    1    3    3    0    0 -0.13930769563E+02 -0.26442509008E+02 -0.21505985819E+02  0.36820918637E+02  0.00000000000E+00 0. -1.
         11    1    4    4    0    0  0.65358053974E+01  0.11868079932E+02 -0.54548576740E+01  0.14605599815E+02  0.51100000000E-03 0. -1.
        -11    1    4    4    0    0 -0.18772796727E+00  0.19146835528E+02  0.23354875372E+02  0.30200774103E+02  0.51100000000E-03 0.  1.
         12    1    4    4    0    0  0.75826921331E+01 -0.45724064517E+01  0.36059681212E+01  0.95607074444E+01  0.00000000000E+00 0. -1.
</event>
<event>
 8    1  0.2511738E-006  0.9118800E+02  0.7816164E-02  0.1184000E+00
        -11   -1    0    0    0    0  0.00000000000E+00  0.00000000000E+00  0.45593999997E+02  0.45594000000E+02  0.51100000000E-03 0. -1.
         11   -1    0    0    0    0 -0.00000000000E+00 -0.00000000000E+00 -0.45593999997E+02  0.45594000000E+02  0.51100000000E-03 0.  1.
         23    2    1    2    0    0  0.00000000000E+00 -0.88817841970E-15  0.00000000000E+00  0.91188000000E+02  0.91188000000E+02 0.  0.
    9900012    2    3    3    0    0 -0.26127347922E+02  0.67965144153E+01  0.25038944786E+02  0.54367086464E+02  0.40000005212E+02 0.  0.
        -12    1    3    3    0    0  0.26127347922E+02 -0.67965144153E+01 -0.25038944786E+02  0.36820913536E+02  0.00000000000E+00 0.  1.
         11    1    4    4    0    0 -0.15872405513E+02  0.81182032475E+01  0.11613907723E+02  0.21277249202E+02  0.51100000000E-03 0. -1.
        -11    1    4    4    0    0 -0.74250249536E+01 -0.14748725427E+02  0.69124666948E+01  0.17900784714E+02  0.51100000000E-03 0.  1.
        -12    1    4    4    0    0 -0.28299174560E+01  0.13427036595E+02  0.65125703678E+01  0.15189052549E+02  0.00000000000E+00 0.  1.
</event>
<event>
 8    1  0.2511738E-006  0.9118800E+02  0.7816164E-02  0.1184000E+00
        -11   -1    0    0    0    0  0.00000000000E+00  0.00000000000E+00  0.45593999997E+02  0.45594000000E+02  0.51100000000E-03 0.  1.
         11   -1    0    0    0    0 -0.00000000000E+00 -0.00000000000E+00 -0.45593999997E+02  0.45594000000E+02  0.51100000000E-03 0. -1.
         23    2    1    2    0    0  0.00000000000E+00 -0.35527136788E-14  0.35527136788E-14  0.91188000000E+02  0.91188000000E+02 0.  0.
    9900012    2    3    3    0    0 -0.27077820544E+02  0.19151542658E+02 -0.15993437154E+02  0.54367082255E+02  0.39999995616E+02 0.  0.
        -12    1    3    3    0    0  0.27077820544E+02 -0.19151542658E+02  0.15993437154E+02  0.36820917745E+02  0.00000000000E+00 0.  1.
         11    1    4    4    0    0 -0.46894861366E+01  0.20883020831E+02 -0.16899438463E+02  0.27270549314E+02  0.51100000000E-03 0. -1.
        -11    1    4    4    0    0 -0.26434021348E+01  0.23067491799E+01  0.54078484705E+01  0.64461998081E+01  0.51100000000E-03 0.  1.
        -12    1    4    4    0    0 -0.19744932273E+02 -0.40382273532E+01 -0.45018471608E+01  0.20650333132E+02  0.00000000000E+00 0.  1.
</event>
<event>
 8    1  0.2511738E-006  0.9118800E+02  0.7816164E-02  0.1184000E+00
        -11   -1    0    0    0    0  0.00000000000E+00  0.00000000000E+00  0.45593999997E+02  0.45594000000E+02  0.51100000000E-03 0. -1.
         11   -1    0    0    0    0 -0.00000000000E+00 -0.00000000000E+00 -0.45593999997E+02  0.45594000000E+02  0.51100000000E-03 0.  1.
         23    2    1    2    0    0  0.00000000000E+00 -0.35527136788E-14  0.00000000000E+00  0.91188000000E+02  0.91188000000E+02 0.  0.
    9900012    2    3    3    0    0 -0.71543471623E+01 -0.29772154691E+02  0.20450263942E+02  0.54367093254E+02  0.40000020691E+02 0.  0.
        -12    1    3    3    0    0  0.71543471623E+01  0.29772154691E+02 -0.20450263942E+02  0.36820906746E+02  0.00000000000E+00 0.  1.
         11    1    4    4    0    0 -0.10515279377E+02  0.15992603262E+01  0.53893125315E+01  0.11923649768E+02  0.51100000000E-03 0. -1.
        -11    1    4    4    0    0 -0.89529653294E+01 -0.21191928956E+02  0.12744461476E+02  0.26299709878E+02  0.51100000000E-03 0.  1.
        -12    1    4    4    0    0  0.12313897544E+02 -0.10179486061E+02  0.23164899347E+01  0.16143733608E+02  0.00000000000E+00 0.  1.
</event>
<event>
 8    1  0.2511738E-006  0.9118800E+02  0.7816164E-02  0.1184000E+00
        -11   -1    0    0    0    0  0.00000000000E+00  0.00000000000E+00  0.45593999997E+02  0.45594000000E+02  0.51100000000E-03 0.  1.
         11   -1    0    0    0    0 -0.00000000000E+00 -0.00000000000E+00 -0.45593999997E+02  0.45594000000E+02  0.51100000000E-03 0. -1.
         23    2    1    2    0    0  0.00000000000E+00 -0.44408920985E-15  0.00000000000E+00  0.91188000000E+02  0.91188000000E+02 0.  0.
    9900012    2    3    3    0    0  0.68385256880E+00  0.12721357942E+01 -0.36792574466E+02  0.54367088555E+02  0.40000009979E+02 0.  0.
        -12    1    3    3    0    0 -0.68385256880E+00 -0.12721357942E+01  0.36792574466E+02  0.36820911445E+02  0.00000000000E+00 0.  1.
         11    1    4    4    0    0  0.57121648435E+00  0.13397694579E+02 -0.26425803934E+02  0.29633555678E+02  0.51100000000E-03 0. -1.
        -11    1    4    4    0    0  0.14305186850E+01  0.17280755037E+01  0.40914699913E+01  0.46661285457E+01  0.51100000000E-03 0.  1.
         12    1    4    4    0    0 -0.13178826005E+01 -0.13853634289E+02 -0.14458240523E+02  0.20067404331E+02  0.00000000000E+00 0. -1.
</event>
<event>
 8    1  0.2511738E-006  0.9118800E+02  0.7816164E-02  0.1184000E+00
        -11   -1    0    0    0    0  0.00000000000E+00  0.00000000000E+00  0.45593999997E+02  0.45594000000E+02  0.51100000000E-03 0. -1.
         11   -1    0    0    0    0 -0.00000000000E+00 -0.00000000000E+00 -0.45593999997E+02  0.45594000000E+02  0.51100000000E-03 0.  1.
         23    2    1    2    0    0 -0.17763568394E-14  0.00000000000E+00 -0.71054273576E-14  0.91188000000E+02  0.91188000000E+02 0.  0.
    9900012    2    3    3    0    0 -0.14157255502E+02 -0.27791368845E+01  0.33876766241E+02  0.54366990017E+02  0.39999785342E+02 0.  0.
        -12    1    3    3    0    0  0.14157255502E+02  0.27791368845E+01 -0.33876766241E+02  0.36821009983E+02  0.00000000000E+00 0.  1.
         11    1    4    4    0    0  0.13011591118E+01  0.39816861177E+01 -0.18170442415E+01  0.45660146092E+01  0.51100000000E-03 0. -1.
        -11    1    4    4    0    0  0.19521832174E+01  0.78956833158E+01  0.84245263750E+00  0.81769530417E+01  0.51100000000E-03 0.  1.
         12    1    4    4    0    0 -0.17410597831E+02 -0.14656506318E+02  0.34851357845E+02  0.41624022366E+02  0.00000000000E+00 0. -1.
</event>
<event>
 8    1  0.2511738E-006  0.9118800E+02  0.7816164E-02  0.1184000E+00
        -11   -1    0    0    0    0  0.00000000000E+00  0.00000000000E+00  0.45593999997E+02  0.45594000000E+02  0.51100000000E-03 0.  1.
         11   -1    0    0    0    0 -0.00000000000E+00 -0.00000000000E+00 -0.45593999997E+02  0.45594000000E+02  0.51100000000E-03 0. -1.
         23    2    1    2    0    0  0.00000000000E+00  0.00000000000E+00  0.00000000000E+00  0.91188000000E+02  0.91188000000E+02 0.  0.
    9900012    2    3    3    0    0  0.25688125851E+02 -0.22909177112E+02  0.13079354184E+02  0.54367085949E+02  0.40000004038E+02 0.  0.
         12    1    3    3    0    0 -0.25688125851E+02  0.22909177112E+02 -0.13079354184E+02  0.36820914051E+02  0.00000000000E+00 0. -1.
         11    1    4    4    0    0  0.18928758526E+02 -0.24350326057E+02 -0.70396386251E+01  0.31635309239E+02  0.51100000000E-03 0. -1.
        -11    1    4    4    0    0  0.56769130844E+00  0.26782372811E+01  0.16113863039E+01  0.31767584795E+01  0.51100000000E-03 0.  1.
         12    1    4    4    0    0  0.61916760173E+01 -0.12370883360E+01  0.18507606505E+02  0.19555018231E+02  0.00000000000E+00 0. -1.
</event>
<event>
 8    1  0.2511738E-006  0.9118800E+02  0.7816164E-02  0.1184000E+00
        -11   -1    0    0    0    0  0.00000000000E+00  0.00000000000E+00  0.45593999997E+02  0.45594000000E+02  0.51100000000E-03 0.  1.
         11   -1    0    0    0    0 -0.00000000000E+00 -0.00000000000E+00 -0.45593999997E+02  0.45594000000E+02  0.51100000000E-03 0. -1.
         23    2    1    2    0    0  0.00000000000E+00  0.35527136788E-14  0.35527136788E-14  0.91188000000E+02  0.91188000000E+02 0.  0.
    9900012    2    3    3    0    0  0.18968529222E+02  0.20814935078E+02  0.23721584166E+02  0.54367079608E+02  0.39999989583E+02 0.  0.
         12    1    3    3    0    0 -0.18968529222E+02 -0.20814935078E+02 -0.23721584166E+02  0.36820920392E+02  0.00000000000E+00 0. -1.
         11    1    4    4    0    0 -0.88322549820E+01  0.38195823976E+01 -0.36563420331E+01  0.10294016470E+02  0.51100000000E-03 0. -1.
        -11    1    4    4    0    0  0.17768465938E+02  0.90508979113E+01  0.95027536418E+01  0.22089351775E+02  0.51100000000E-03 0.  1.
         12    1    4    4    0    0  0.10032318266E+02  0.79444547694E+01  0.17875172557E+02  0.21983711364E+02  0.00000000000E+00 0. -1.
</event>
<event>
 8    1  0.2511738E-006  0.9118800E+02  0.7816164E-02  0.1184000E+00
        -11   -1    0    0    0    0  0.00000000000E+00  0.00000000000E+00  0.45593999997E+02  0.45594000000E+02  0.51100000000E-03 0. -1.
         11   -1    0    0    0    0 -0.00000000000E+00 -0.00000000000E+00 -0.45593999997E+02  0.45594000000E+02  0.51100000000E-03 0.  1.
         23    2    1    2    0    0  0.00000000000E+00 -0.71054273576E-14 -0.88817841970E-15  0.91188000000E+02  0.91188000000E+02 0.  0.
    9900012    2    3    3    0    0  0.23879517754E+02 -0.27734125158E+02 -0.40456411767E+01  0.54367078244E+02  0.39999986472E+02 0.  0.
         12    1    3    3    0    0 -0.23879517754E+02  0.27734125158E+02  0.40456411767E+01  0.36820921756E+02  0.00000000000E+00 0. -1.
         11    1    4    4    0    0  0.11426116407E+02  0.66749059325E+01 -0.39281063832E+01  0.13803641743E+02  0.51100000000E-03 0. -1.
        -11    1    4    4    0    0  0.91167751724E+01 -0.51818892563E+01 -0.32537917047E+01  0.10979741642E+02  0.51100000000E-03 0.  1.
        -12    1    4    4    0    0  0.33366261742E+01 -0.29227141835E+02  0.31362569112E+01  0.29583694858E+02  0.00000000000E+00 0.  1.
</event>
<event>
 8    1  0.2511738E-006  0.9118800E+02  0.7816164E-02  0.1184000E+00
        -11   -1    0    0    0    0  0.00000000000E+00  0.00000000000E+00  0.45593999997E+02  0.45594000000E+02  0.51100000000E-03 0.  1.
         11   -1    0    0    0    0 -0.00000000000E+00 -0.00000000000E+00 -0.45593999997E+02  0.45594000000E+02  0.51100000000E-03 0. -1.
         23    2    1    2    0    0  0.15543122345E-14  0.00000000000E+00  0.00000000000E+00  0.91188000000E+02  0.91188000000E+02 0.  0.
    9900012    2    3    3    0    0 -0.16808962489E+01  0.11104965233E+02  0.35066129648E+02  0.54367094070E+02  0.40000022551E+02 0.  0.
         12    1    3    3    0    0  0.16808962489E+01 -0.11104965233E+02 -0.35066129648E+02  0.36820905930E+02  0.00000000000E+00 0. -1.
         11    1    4    4    0    0 -0.36965262702E+01  0.68478598890E+01  0.33003460890E+02  0.33908493368E+02  0.51100000000E-03 0. -1.
        -11    1    4    4    0    0 -0.72339456745E+01  0.66429197056E+01  0.41809906404E+01  0.10674222933E+02  0.51100000000E-03 0.  1.
         12    1    4    4    0    0  0.92495756959E+01 -0.23858143616E+01 -0.21183218823E+01  0.97843777686E+01  0.00000000000E+00 0. -1.
</event>
<event>
 8    1  0.2511738E-006  0.9118800E+02  0.7816164E-02  0.1184000E+00
        -11   -1    0    0    0    0  0.00000000000E+00  0.00000000000E+00  0.45593999997E+02  0.45594000000E+02  0.51100000000E-03 0. -1.
         11   -1    0    0    0    0 -0.00000000000E+00 -0.00000000000E+00 -0.45593999997E+02  0.45594000000E+02  0.51100000000E-03 0.  1.
         23    2    1    2    0    0  0.00000000000E+00 -0.35527136788E-14  0.00000000000E+00  0.91188000000E+02  0.91188000000E+02 0.  0.
    9900012    2    3    3    0    0  0.20190523283E+02  0.25757624722E+02  0.16872112276E+02  0.54367073417E+02  0.39999975469E+02 0.  0.
        -12    1    3    3    0    0 -0.20190523283E+02 -0.25757624722E+02 -0.16872112276E+02  0.36820926583E+02  0.00000000000E+00 0.  1.
         11    1    4    4    0    0 -0.54638287564E+01  0.14664747385E+02  0.82522217881E+01  0.17692015296E+02  0.51100000000E-03 0.  1.
        -11    1    4    4    0    0  0.23545178326E+02  0.30617153790E+01  0.13226985619E+02  0.27179085200E+02  0.51100000000E-03 0. -1.
        -12    1    4    4    0    0  0.21091737138E+01  0.80311619586E+01 -0.46070951319E+01  0.94959729209E+01  0.00000000000E+00 0.  1.
</event>
<event>
 8    1  0.2511738E-006  0.9118800E+02  0.7816164E-02  0.1184000E+00
        -11   -1    0    0    0    0  0.00000000000E+00  0.00000000000E+00  0.45593999997E+02  0.45594000000E+02  0.51100000000E-03 0.  1.
         11   -1    0    0    0    0 -0.00000000000E+00 -0.00000000000E+00 -0.45593999997E+02  0.45594000000E+02  0.51100000000E-03 0. -1.
         23    2    1    2    0    0  0.00000000000E+00  0.88817841970E-15  0.35527136788E-14  0.91188000000E+02  0.91188000000E+02 0.  0.
    9900012    2    3    3    0    0  0.16586220701E+02  0.76652414159E+01  0.31967487492E+02  0.54367096974E+02  0.40000029171E+02 0.  0.
         12    1    3    3    0    0 -0.16586220701E+02 -0.76652414159E+01 -0.31967487492E+02  0.36820903026E+02  0.00000000000E+00 0. -1.
         11    1    4    4    0    0  0.11695182139E+02  0.10813189272E+00  0.22736923290E+02  0.25568665564E+02  0.51100000000E-03 0. -1.
        -11    1    4    4    0    0 -0.23301294300E+01  0.15928255045E+02  0.68223594121E+01  0.17483803938E+02  0.51100000000E-03 0.  1.
         12    1    4    4    0    0  0.72211679916E+01 -0.83711455217E+01  0.24082047896E+01  0.11314627471E+02  0.00000000000E+00 0. -1.
</event>
<event>
 8    1  0.2511738E-006  0.9118800E+02  0.7816164E-02  0.1184000E+00
        -11   -1    0    0    0    0  0.00000000000E+00  0.00000000000E+00  0.45593999997E+02  0.45594000000E+02  0.51100000000E-03 0.  1.
         11   -1    0    0    0    0 -0.00000000000E+00 -0.00000000000E+00 -0.45593999997E+02  0.45594000000E+02  0.51100000000E-03 0. -1.
         23    2    1    2    0    0 -0.17763568394E-14  0.00000000000E+00 -0.88817841970E-15  0.91188000000E+02  0.91188000000E+02 0.  0.
    9900012    2    3    3    0    0 -0.10137857477E+02  0.34781039948E+02 -0.65788069832E+01  0.54367114684E+02  0.40000069546E+02 0.  0.
        -12    1    3    3    0    0  0.10137857477E+02 -0.34781039948E+02  0.65788069832E+01  0.36820885316E+02  0.00000000000E+00 0.  1.
         11    1    4    4    0    0 -0.94421070445E+01 -0.13587820947E+01  0.55389907966E+01  0.11030870026E+02  0.51100000000E-03 0.  1.
        -11    1    4    4    0    0  0.61621979150E+01  0.17464075234E+02 -0.14193926362E+02  0.23333112797E+02  0.51100000000E-03 0. -1.
         12    1    4    4    0    0 -0.68579483471E+01  0.18675746809E+02  0.20761285826E+01  0.20003131862E+02  0.00000000000E+00 0. -1.
</event>
<event>
 8    1  0.2511738E-006  0.9118800E+02  0.7816164E-02  0.1184000E+00
        -11   -1    0    0    0    0  0.00000000000E+00  0.00000000000E+00  0.45593999997E+02  0.45594000000E+02  0.51100000000E-03 0.  1.
         11   -1    0    0    0    0 -0.00000000000E+00 -0.00000000000E+00 -0.45593999997E+02  0.45594000000E+02  0.51100000000E-03 0. -1.
         23    2    1    2    0    0 -0.35527136788E-14 -0.17763568394E-14  0.71054273576E-14  0.91188000000E+02  0.91188000000E+02 0.  0.
    9900012    2    3    3    0    0 -0.17957543393E+02 -0.93561796373E+01  0.30753342699E+02  0.54367088152E+02  0.40000009061E+02 0.  0.
         12    1    3    3    0    0  0.17957543393E+02  0.93561796373E+01 -0.30753342699E+02  0.36820911848E+02  0.00000000000E+00 0. -1.
         11    1    4    4    0    0 -0.16352191298E+02 -0.96771760971E+01  0.10906363551E+02  0.21908689226E+02  0.51100000000E-03 0. -1.
        -11    1    4    4    0    0 -0.95098679840E+00 -0.37254431402E+01  0.25325762421E+02  0.25615962698E+02  0.51100000000E-03 0.  1.
        -12    1    4    4    0    0 -0.65436529629E+00  0.40464396000E+01 -0.54787832727E+01  0.68424362275E+01  0.00000000000E+00 0.  1.
</event>
<event>
 8    1  0.2511738E-006  0.9118800E+02  0.7816164E-02  0.1184000E+00
        -11   -1    0    0    0    0  0.00000000000E+00  0.00000000000E+00  0.45593999997E+02  0.45594000000E+02  0.51100000000E-03 0.  1.
         11   -1    0    0    0    0 -0.00000000000E+00 -0.00000000000E+00 -0.45593999997E+02  0.45594000000E+02  0.51100000000E-03 0. -1.
         23    2    1    2    0    0  0.35527136788E-14 -0.35527136788E-14 -0.17763568394E-14  0.91188000000E+02  0.91188000000E+02 0.  0.
    9900012    2    3    3    0    0  0.27307783029E+02  0.20888287001E+02  0.13181221993E+02  0.54367079845E+02  0.39999990123E+02 0.  0.
         12    1    3    3    0    0 -0.27307783029E+02 -0.20888287001E+02 -0.13181221993E+02  0.36820920155E+02  0.00000000000E+00 0. -1.
         11    1    4    4    0    0 -0.86373174584E+00 -0.16670816397E+01 -0.13629166631E+01  0.23200723726E+01  0.51100000000E-03 0. -1.
        -11    1    4    4    0    0 -0.40206690212E+01 -0.58060051134E+01  0.17349617904E+01  0.72722463814E+01  0.51100000000E-03 0.  1.
        -12    1    4    4    0    0  0.32192183797E+02  0.28361373754E+02  0.12809176865E+02  0.44774761091E+02  0.00000000000E+00 0.  1.
</event>
<event>
 8    1  0.2511738E-006  0.9118800E+02  0.7816164E-02  0.1184000E+00
        -11   -1    0    0    0    0  0.00000000000E+00  0.00000000000E+00  0.45593999997E+02  0.45594000000E+02  0.51100000000E-03 0.  1.
         11   -1    0    0    0    0 -0.00000000000E+00 -0.00000000000E+00 -0.45593999997E+02  0.45594000000E+02  0.51100000000E-03 0. -1.
         23    2    1    2    0    0 -0.17763568394E-14 -0.35527136788E-14  0.35527136788E-14  0.91188000000E+02  0.91188000000E+02 0.  0.
    9900012    2    3    3    0    0 -0.11837334678E+02  0.25841447818E+02  0.23406774527E+02  0.54367081877E+02  0.39999994756E+02 0.  0.
         12    1    3    3    0    0  0.11837334678E+02 -0.25841447818E+02 -0.23406774527E+02  0.36820918123E+02  0.00000000000E+00 0. -1.
         11    1    4    4    0    0  0.12785087039E+02  0.77659792895E+01 -0.67944877393E+00  0.14974329228E+02  0.51100000000E-03 0. -1.
        -11    1    4    4    0    0 -0.99689159862E+01  0.45865353438E+01  0.11146957894E+02  0.15641939233E+02  0.51100000000E-03 0.  1.
         12    1    4    4    0    0 -0.14653505731E+02  0.13488933185E+02  0.12939265407E+02  0.23750813417E+02  0.00000000000E+00 0. -1.
</event>
<event>
 8    1  0.2511738E-006  0.9118800E+02  0.7816164E-02  0.1184000E+00
        -11   -1    0    0    0    0  0.00000000000E+00  0.00000000000E+00  0.45593999997E+02  0.45594000000E+02  0.51100000000E-03 0.  1.
         11   -1    0    0    0    0 -0.00000000000E+00 -0.00000000000E+00 -0.45593999997E+02  0.45594000000E+02  0.51100000000E-03 0. -1.
         23    2    1    2    0    0 -0.71054273576E-14 -0.17763568394E-14 -0.13322676296E-14  0.91188000000E+02  0.91188000000E+02 0.  0.
    9900012    2    3    3    0    0  0.33236869474E+02  0.15417797966E+02  0.36580750251E+01  0.54367088829E+02  0.40000010603E+02 0.  0.
        -12    1    3    3    0    0 -0.33236869474E+02 -0.15417797966E+02 -0.36580750251E+01  0.36820911171E+02  0.00000000000E+00 0.  1.
         11    1    4    4    0    0  0.25465380258E+02  0.42627526134E+01 -0.45920943142E+01  0.26224873345E+02  0.51100000000E-03 0. -1.
        -11    1    4    4    0    0  0.94881933366E+00 -0.27084351028E+01  0.11920344885E+02  0.12260933948E+02  0.51100000000E-03 0.  1.
         12    1    4    4    0    0  0.68226698826E+01  0.13863480456E+02 -0.36701755457E+01  0.15881281536E+02  0.00000000000E+00 0. -1.
</event>
<event>
 8    1  0.2511738E-006  0.9118800E+02  0.7816164E-02  0.1184000E+00
        -11   -1    0    0    0    0  0.00000000000E+00  0.00000000000E+00  0.45593999997E+02  0.45594000000E+02  0.51100000000E-03 0. -1.
         11   -1    0    0    0    0 -0.00000000000E+00 -0.00000000000E+00 -0.45593999997E+02  0.45594000000E+02  0.51100000000E-03 0.  1.
         23    2    1    2    0    0  0.00000000000E+00  0.00000000000E+00  0.66613381478E-15  0.91188000000E+02  0.91188000000E+02 0.  0.
    9900012    2    3    3    0    0  0.16042385743E+02  0.33128164582E+02 -0.97330529184E+00  0.54367071819E+02  0.39999971827E+02 0.  0.
         12    1    3    3    0    0 -0.16042385743E+02 -0.33128164582E+02  0.97330529184E+00  0.36820928181E+02  0.00000000000E+00 0. -1.
         11    1    4    4    0    0  0.12240665456E+02  0.58754662406E+00  0.11782625576E+02  0.17000275514E+02  0.51100000000E-03 0. -1.
        -11    1    4    4    0    0 -0.13518965226E+01  0.20714212985E+02 -0.25439453570E+01  0.20913581760E+02  0.51100000000E-03 0.  1.
         12    1    4    4    0    0  0.51536168096E+01  0.11826404972E+02 -0.10211985510E+02  0.16453214545E+02  0.00000000000E+00 0. -1.
</event>
<event>
 8    1  0.2511738E-006  0.9118800E+02  0.7816164E-02  0.1184000E+00
        -11   -1    0    0    0    0  0.00000000000E+00  0.00000000000E+00  0.45593999997E+02  0.45594000000E+02  0.51100000000E-03 0.  1.
         11   -1    0    0    0    0 -0.00000000000E+00 -0.00000000000E+00 -0.45593999997E+02  0.45594000000E+02  0.51100000000E-03 0. -1.
         23    2    1    2    0    0  0.17763568394E-14  0.00000000000E+00  0.00000000000E+00  0.91188000000E+02  0.91188000000E+02 0.  0.
    9900012    2    3    3    0    0 -0.14520889477E+02 -0.20038885975E+02 -0.27264766249E+02  0.54367073057E+02  0.39999974648E+02 0.  0.
        -12    1    3    3    0    0  0.14520889477E+02  0.20038885975E+02  0.27264766249E+02  0.36820926943E+02  0.00000000000E+00 0.  1.
         11    1    4    4    0    0 -0.20349377009E+01 -0.15301187269E+02 -0.13276627964E+02  0.20360160943E+02  0.51100000000E-03 0. -1.
        -11    1    4    4    0    0 -0.86607457559E+01  0.11280352934E+02 -0.41123246075E+01  0.14804259296E+02  0.51100000000E-03 0.  1.
        -12    1    4    4    0    0 -0.38252060206E+01 -0.16018051640E+02 -0.98758136778E+01  0.19202652818E+02  0.00000000000E+00 0.  1.
</event>
<event>
 8    1  0.2511738E-006  0.9118800E+02  0.7816164E-02  0.1184000E+00
        -11   -1    0    0    0    0  0.00000000000E+00  0.00000000000E+00  0.45593999997E+02  0.45594000000E+02  0.51100000000E-03 0.  1.
         11   -1    0    0    0    0 -0.00000000000E+00 -0.00000000000E+00 -0.45593999997E+02  0.45594000000E+02  0.51100000000E-03 0. -1.
         23    2    1    2    0    0  0.00000000000E+00  0.88817841970E-15  0.00000000000E+00  0.91188000000E+02  0.91188000000E+02 0.  0.
    9900012    2    3    3    0    0 -0.14089999516E+02  0.64624866230E+01  0.33398920909E+02  0.54367085595E+02  0.40000003232E+02 0.  0.
         12    1    3    3    0    0  0.14089999516E+02 -0.64624866230E+01 -0.33398920909E+02  0.36820914405E+02  0.00000000000E+00 0. -1.
         11    1    4    4    0    0 -0.11161440732E+02  0.14762675259E+02  0.21648400476E+00  0.18508409051E+02  0.51100000000E-03 0. -1.
        -11    1    4    4    0    0  0.79678339415E+00  0.22587955950E+01  0.56885147251E+01  0.61722136512E+01  0.51100000000E-03 0.  1.
        -12    1    4    4    0    0 -0.37253421783E+01 -0.10558984231E+02  0.27493922179E+02  0.29686462893E+02  0.00000000000E+00 0.  1.
</event>
<event>
 8    1  0.2511738E-006  0.9118800E+02  0.7816164E-02  0.1184000E+00
        -11   -1    0    0    0    0  0.00000000000E+00  0.00000000000E+00  0.45593999997E+02  0.45594000000E+02  0.51100000000E-03 0.  1.
         11   -1    0    0    0    0 -0.00000000000E+00 -0.00000000000E+00 -0.45593999997E+02  0.45594000000E+02  0.51100000000E-03 0. -1.
         23    2    1    2    0    0  0.00000000000E+00  0.35527136788E-14 -0.35527136788E-14  0.91188000000E+02  0.91188000000E+02 0.  0.
    9900012    2    3    3    0    0  0.15103080681E+02 -0.27768875322E+02 -0.18882990803E+02  0.54367070837E+02  0.39999969588E+02 0.  0.
        -12    1    3    3    0    0 -0.15103080681E+02  0.27768875322E+02  0.18882990803E+02  0.36820929163E+02  0.00000000000E+00 0.  1.
         11    1    4    4    0    0  0.96834529061E+01 -0.12287212971E+02 -0.10379311040E+02  0.18774316518E+02  0.51100000000E-03 0. -1.
        -11    1    4    4    0    0 -0.88699914726E+01 -0.17215725061E+02 -0.86191946219E+01  0.21197840793E+02  0.51100000000E-03 0.  1.
        -12    1    4    4    0    0  0.14289619248E+02  0.17340627104E+01  0.11551485897E+00  0.14394913526E+02  0.00000000000E+00 0.  1.
</event>
<event>
 8    1  0.2511738E-006  0.9118800E+02  0.7816164E-02  0.1184000E+00
        -11   -1    0    0    0    0  0.00000000000E+00  0.00000000000E+00  0.45593999997E+02  0.45594000000E+02  0.51100000000E-03 0. -1.
         11   -1    0    0    0    0 -0.00000000000E+00 -0.00000000000E+00 -0.45593999997E+02  0.45594000000E+02  0.51100000000E-03 0.  1.
         23    2    1    2    0    0  0.00000000000E+00 -0.35527136788E-14 -0.35527136788E-14  0.91188000000E+02  0.91188000000E+02 0.  0.
    9900012    2    3    3    0    0  0.83047624439E+01 -0.26900768232E+02  0.23730978308E+02  0.54367085533E+02  0.40000003090E+02 0.  0.
        -12    1    3    3    0    0 -0.83047624439E+01  0.26900768232E+02 -0.23730978308E+02  0.36820914467E+02  0.00000000000E+00 0.  1.
         11    1    4    4    0    0  0.15750689128E+02 -0.14085854422E+02  0.14600026438E+02  0.25683774549E+02  0.51100000000E-03 0. -1.
        -11    1    4    4    0    0  0.39743934874E+01  0.49715120861E+00 -0.48236366031E+01  0.62698032869E+01  0.51100000000E-03 0.  1.
        -12    1    4    4    0    0 -0.11420320172E+02 -0.13312065018E+02  0.13954588473E+02  0.22413507697E+02  0.00000000000E+00 0.  1.
</event>
<event>
 8    1  0.2511738E-006  0.9118800E+02  0.7816164E-02  0.1184000E+00
        -11   -1    0    0    0    0  0.00000000000E+00  0.00000000000E+00  0.45593999997E+02  0.45594000000E+02  0.51100000000E-03 0.  1.
         11   -1    0    0    0    0 -0.00000000000E+00 -0.00000000000E+00 -0.45593999997E+02  0.45594000000E+02  0.51100000000E-03 0. -1.
         23    2    1    2    0    0  0.00000000000E+00  0.00000000000E+00  0.88817841970E-15  0.91188000000E+02  0.91188000000E+02 0.  0.
    9900012    2    3    3    0    0 -0.31466704314E+02  0.18673156936E+02  0.41157711537E+01  0.54367084170E+02  0.39999999983E+02 0.  0.
         12    1    3    3    0    0  0.31466704314E+02 -0.18673156936E+02 -0.41157711537E+01  0.36820915830E+02  0.00000000000E+00 0. -1.
         11    1    4    4    0    0 -0.33991570799E+02  0.20606287192E+02 -0.73431654000E+01  0.40422370485E+02  0.51100000000E-03 0. -1.
        -11    1    4    4    0    0 -0.16238761826E+01 -0.26059955863E+01  0.22025396275E+01  0.37788050921E+01  0.51100000000E-03 0.  1.
        -12    1    4    4    0    0  0.41487426677E+01  0.67286533034E+00  0.92563969263E+01  0.10165908594E+02  0.00000000000E+00 0.  1.
</event>
<event>
 8    1  0.2511738E-006  0.9118800E+02  0.7816164E-02  0.1184000E+00
        -11   -1    0    0    0    0  0.00000000000E+00  0.00000000000E+00  0.45593999997E+02  0.45594000000E+02  0.51100000000E-03 0.  1.
         11   -1    0    0    0    0 -0.00000000000E+00 -0.00000000000E+00 -0.45593999997E+02  0.45594000000E+02  0.51100000000E-03 0. -1.
         23    2    1    2    0    0  0.13322676296E-14  0.35527136788E-14  0.00000000000E+00  0.91188000000E+02  0.91188000000E+02 0.  0.
    9900012    2    3    3    0    0  0.69201674755E+00  0.31338716632E+02  0.19318029341E+02  0.54367077891E+02  0.39999985669E+02 0.  0.
         12    1    3    3    0    0 -0.69201674755E+00 -0.31338716632E+02 -0.19318029341E+02  0.36820922109E+02  0.00000000000E+00 0. -1.
         11    1    4    4    0    0 -0.15790993357E+02  0.20971990156E+02  0.90596987790E+01  0.27771531908E+02  0.51100000000E-03 0. -1.
        -11    1    4    4    0    0  0.43500063177E+01  0.22801292004E+01  0.10947125716E+02  0.11998379301E+02  0.51100000000E-03 0.  1.
        -12    1    4    4    0    0  0.12133003787E+02  0.80865972759E+01 -0.68879515446E+00  0.14597166682E+02  0.00000000000E+00 0.  1.
</event>
<event>
 8    1  0.2511738E-006  0.9118800E+02  0.7816164E-02  0.1184000E+00
        -11   -1    0    0    0    0  0.00000000000E+00  0.00000000000E+00  0.45593999997E+02  0.45594000000E+02  0.51100000000E-03 0.  1.
         11   -1    0    0    0    0 -0.00000000000E+00 -0.00000000000E+00 -0.45593999997E+02  0.45594000000E+02  0.51100000000E-03 0. -1.
         23    2    1    2    0    0  0.00000000000E+00  0.00000000000E+00  0.35527136788E-14  0.91188000000E+02  0.91188000000E+02 0.  0.
    9900012    2    3    3    0    0 -0.19813548349E+02 -0.23195775827E+02  0.20619373372E+02  0.54367091909E+02  0.40000017625E+02 0.  0.
         12    1    3    3    0    0  0.19813548349E+02  0.23195775827E+02 -0.20619373372E+02  0.36820908091E+02  0.00000000000E+00 0. -1.
         11    1    4    4    0    0 -0.37642288915E+01 -0.15118331723E+02 -0.74293163449E+00  0.15597606255E+02  0.51100000000E-03 0. -1.
        -11    1    4    4    0    0 -0.27374542425E+01 -0.12130973568E+02 -0.95142937399E+00  0.12472345151E+02  0.51100000000E-03 0.  1.
        -12    1    4    4    0    0 -0.13311865215E+02  0.40535294638E+01  0.22313734381E+02  0.26297140503E+02  0.00000000000E+00 0.  1.
</event>
<event>
 8    1  0.2511738E-006  0.9118800E+02  0.7816164E-02  0.1184000E+00
        -11   -1    0    0    0    0  0.00000000000E+00  0.00000000000E+00  0.45593999997E+02  0.45594000000E+02  0.51100000000E-03 0. -1.
         11   -1    0    0    0    0 -0.00000000000E+00 -0.00000000000E+00 -0.45593999997E+02  0.45594000000E+02  0.51100000000E-03 0.  1.
         23    2    1    2    0    0 -0.88817841970E-15 -0.71054273576E-14  0.88817841970E-15  0.91188000000E+02  0.91188000000E+02 0.  0.
    9900012    2    3    3    0    0 -0.47811485209E+01  0.35994308630E+02 -0.61099312944E+01  0.54367069874E+02  0.39999967392E+02 0.  0.
         12    1    3    3    0    0  0.47811485209E+01 -0.35994308630E+02  0.61099312944E+01  0.36820930126E+02  0.00000000000E+00 0. -1.
         11    1    4    4    0    0 -0.82844845649E+01  0.10603580553E+02 -0.90334354027E+01  0.16207145353E+02  0.51100000000E-03 0. -1.
        -11    1    4    4    0    0  0.13357635845E+02  0.24768871663E+02  0.14688072092E+01  0.28179439912E+02  0.51100000000E-03 0.  1.
         12    1    4    4    0    0 -0.98542998013E+01  0.62185641292E+00  0.14546968991E+01  0.99804846095E+01  0.00000000000E+00 0. -1.
</event>
<event>
 8    1  0.2511738E-006  0.9118800E+02  0.7816164E-02  0.1184000E+00
        -11   -1    0    0    0    0  0.00000000000E+00  0.00000000000E+00  0.45593999997E+02  0.45594000000E+02  0.51100000000E-03 0. -1.
         11   -1    0    0    0    0 -0.00000000000E+00 -0.00000000000E+00 -0.45593999997E+02  0.45594000000E+02  0.51100000000E-03 0.  1.
         23    2    1    2    0    0 -0.17763568394E-14  0.00000000000E+00  0.88817841970E-15  0.91188000000E+02  0.91188000000E+02 0.  0.
    9900012    2    3    3    0    0  0.89836235776E+01  0.35130324754E+02 -0.63981305480E+01  0.54367064590E+02  0.39999955346E+02 0.  0.
         12    1    3    3    0    0 -0.89836235776E+01 -0.35130324754E+02  0.63981305480E+01  0.36820935410E+02  0.00000000000E+00 0. -1.
         11    1    4    4    0    0 -0.88390938986E+01  0.30253493282E+01 -0.62964674288E+01  0.11266224827E+02  0.51100000000E-03 0. -1.
        -11    1    4    4    0    0  0.13902914666E+02  0.13925143982E+02 -0.99571396913E+01  0.22053237908E+02  0.51100000000E-03 0.  1.
        -12    1    4    4    0    0  0.39198028102E+01  0.18179831444E+02  0.98554765721E+01  0.21047601855E+02  0.00000000000E+00 0.  1.
</event>
<event>
 8    1  0.2511738E-006  0.9118800E+02  0.7816164E-02  0.1184000E+00
        -11   -1    0    0    0    0  0.00000000000E+00  0.00000000000E+00  0.45593999997E+02  0.45594000000E+02  0.51100000000E-03 0. -1.
         11   -1    0    0    0    0 -0.00000000000E+00 -0.00000000000E+00 -0.45593999997E+02  0.45594000000E+02  0.51100000000E-03 0.  1.
         23    2    1    2    0    0  0.35527136788E-14  0.00000000000E+00 -0.35527136788E-14  0.91188000000E+02  0.91188000000E+02 0.  0.
    9900012    2    3    3    0    0  0.20204663899E+02  0.15541203725E+02 -0.26571100528E+02  0.54367070629E+02  0.39999969113E+02 0.  0.
         12    1    3    3    0    0 -0.20204663899E+02 -0.15541203725E+02  0.26571100528E+02  0.36820929371E+02  0.00000000000E+00 0. -1.
         11    1    4    4    0    0  0.89824833979E+01 -0.10098661024E+02 -0.82019301020E+01  0.15809478806E+02  0.51100000000E-03 0. -1.
        -11    1    4    4    0    0  0.11738381647E+01 -0.29851253516E+01 -0.35818134596E+01  0.48081448941E+01  0.51100000000E-03 0.  1.
        -12    1    4    4    0    0  0.10048342336E+02  0.28624990100E+02 -0.14787356966E+02  0.33749446929E+02  0.00000000000E+00 0.  1.
</event>
<event>
 8    1  0.2511738E-006  0.9118800E+02  0.7816164E-02  0.1184000E+00
        -11   -1    0    0    0    0  0.00000000000E+00  0.00000000000E+00  0.45593999997E+02  0.45594000000E+02  0.51100000000E-03 0. -1.
         11   -1    0    0    0    0 -0.00000000000E+00 -0.00000000000E+00 -0.45593999997E+02  0.45594000000E+02  0.51100000000E-03 0.  1.
         23    2    1    2    0    0  0.35527136788E-14  0.00000000000E+00  0.13322676296E-14  0.91188000000E+02  0.91188000000E+02 0.  0.
    9900012    2    3    3    0    0  0.23549464879E+02  0.28200917940E+02  0.24310735653E+01  0.54367093066E+02  0.40000020263E+02 0.  0.
         12    1    3    3    0    0 -0.23549464879E+02 -0.28200917940E+02 -0.24310735653E+01  0.36820906934E+02  0.00000000000E+00 0. -1.
         11    1    4    4    0    0  0.11029387222E+02  0.50607485050E+01  0.83574271412E+01  0.14734488339E+02  0.51100000000E-03 0. -1.
        -11    1    4    4    0    0  0.19953568462E+02  0.15518065805E+02 -0.11321229339E+02  0.27697030431E+02  0.51100000000E-03 0.  1.
        -12    1    4    4    0    0 -0.74334908046E+01  0.76221036304E+01  0.53948757630E+01  0.11935574297E+02  0.00000000000E+00 0.  1.
</event>
<event>
 8    1  0.2511738E-006  0.9118800E+02  0.7816164E-02  0.1184000E+00
        -11   -1    0    0    0    0  0.00000000000E+00  0.00000000000E+00  0.45593999997E+02  0.45594000000E+02  0.51100000000E-03 0.  1.
         11   -1    0    0    0    0 -0.00000000000E+00 -0.00000000000E+00 -0.45593999997E+02  0.45594000000E+02  0.51100000000E-03 0. -1.
         23    2    1    2    0    0  0.22204460493E-15 -0.26645352591E-14  0.00000000000E+00  0.91188000000E+02  0.91188000000E+02 0.  0.
    9900012    2    3    3    0    0 -0.15811701045E+01  0.51103247259E+01  0.36430483540E+02  0.54366869536E+02  0.39999510678E+02 0.  0.
         12    1    3    3    0    0  0.15811701045E+01 -0.51103247259E+01 -0.36430483540E+02  0.36821130464E+02  0.00000000000E+00 0. -1.
         11    1    4    4    0    0  0.69156271904E+01 -0.10610432981E+02  0.22998457202E+02  0.26255213224E+02  0.51100000000E-03 0. -1.
        -11    1    4    4    0    0  0.42793522196E+01  0.53420420813E+01  0.85301118976E+01  0.10936776411E+02  0.51100000000E-03 0.  1.
         12    1    4    4    0    0 -0.12776149515E+02  0.10378715625E+02  0.49019144398E+01  0.17174879901E+02  0.00000000000E+00 0. -1.
</event>
<event>
 8    1  0.2511738E-006  0.9118800E+02  0.7816164E-02  0.1184000E+00
        -11   -1    0    0    0    0  0.00000000000E+00  0.00000000000E+00  0.45593999997E+02  0.45594000000E+02  0.51100000000E-03 0.  1.
         11   -1    0    0    0    0 -0.00000000000E+00 -0.00000000000E+00 -0.45593999997E+02  0.45594000000E+02  0.51100000000E-03 0. -1.
         23    2    1    2    0    0  0.35527136788E-14  0.00000000000E+00  0.17763568394E-14  0.91188000000E+02  0.91188000000E+02 0.  0.
    9900012    2    3    3    0    0  0.29542286722E+02 -0.18317241434E+02  0.12145224453E+02  0.54367156507E+02  0.40000164888E+02 0.  0.
        -12    1    3    3    0    0 -0.29542286722E+02  0.18317241434E+02 -0.12145224453E+02  0.36820843493E+02  0.00000000000E+00 0.  1.
         11    1    4    4    0    0  0.10960502855E+02 -0.80166217056E+01 -0.69122646006E+01  0.15237396384E+02  0.51100000000E-03 0. -1.
        -11    1    4    4    0    0 -0.17902589648E+00 -0.14351326168E+02  0.11904750336E+02  0.18647136345E+02  0.51100000000E-03 0.  1.
         12    1    4    4    0    0  0.18760809764E+02  0.40507064390E+01  0.71527387171E+01  0.20482623778E+02  0.00000000000E+00 0. -1.
</event>
<event>
 8    1  0.2511738E-006  0.9118800E+02  0.7816164E-02  0.1184000E+00
        -11   -1    0    0    0    0  0.00000000000E+00  0.00000000000E+00  0.45593999997E+02  0.45594000000E+02  0.51100000000E-03 0.  1.
         11   -1    0    0    0    0 -0.00000000000E+00 -0.00000000000E+00 -0.45593999997E+02  0.45594000000E+02  0.51100000000E-03 0. -1.
         23    2    1    2    0    0  0.99920072216E-15 -0.35527136788E-14  0.00000000000E+00  0.91188000000E+02  0.91188000000E+02 0.  0.
    9900012    2    3    3    0    0 -0.96578067423E+00 -0.30713449633E+02  0.20286242533E+02  0.54367077188E+02  0.39999984065E+02 0.  0.
         12    1    3    3    0    0  0.96578067423E+00  0.30713449633E+02 -0.20286242533E+02  0.36820922812E+02  0.00000000000E+00 0. -1.
         11    1    4    4    0    0 -0.13410942215E+02 -0.41988566272E+01  0.14902446517E+02  0.20483326891E+02  0.51100000000E-03 0. -1.
        -11    1    4    4    0    0  0.31842239585E+01 -0.61024882627E+01  0.88403650787E+01  0.11204093011E+02  0.51100000000E-03 0.  1.
         12    1    4    4    0    0  0.92609375821E+01 -0.20412104743E+02 -0.34565690626E+01  0.22679657286E+02  0.00000000000E+00 0. -1.
</event>
<event>
 8    1  0.2511738E-006  0.9118800E+02  0.7816164E-02  0.1184000E+00
        -11   -1    0    0    0    0  0.00000000000E+00  0.00000000000E+00  0.45593999997E+02  0.45594000000E+02  0.51100000000E-03 0.  1.
         11   -1    0    0    0    0 -0.00000000000E+00 -0.00000000000E+00 -0.45593999997E+02  0.45594000000E+02  0.51100000000E-03 0. -1.
         23    2    1    2    0    0  0.00000000000E+00  0.00000000000E+00 -0.17763568394E-14  0.91188000000E+02  0.91188000000E+02 0.  0.
    9900012    2    3    3    0    0  0.33789439180E+02 -0.10908499042E+02 -0.97497976547E+01  0.54367080596E+02  0.39999991834E+02 0.  0.
        -12    1    3    3    0    0 -0.33789439180E+02  0.10908499042E+02  0.97497976547E+01  0.36820919404E+02  0.00000000000E+00 0.  1.
         11    1    4    4    0    0 -0.20015489377E+01 -0.13139121417E+02 -0.51843338714E+01  0.14266044571E+02  0.51100000000E-03 0. -1.
        -11    1    4    4    0    0  0.12239954845E+02  0.65248040162E+01  0.43790604436E+01  0.14545299333E+02  0.51100000000E-03 0.  1.
         12    1    4    4    0    0  0.23551033273E+02 -0.42941816414E+01 -0.89445242269E+01  0.25555736692E+02  0.00000000000E+00 0. -1.
</event>
<event>
 8    1  0.2511738E-006  0.9118800E+02  0.7816164E-02  0.1184000E+00
        -11   -1    0    0    0    0  0.00000000000E+00  0.00000000000E+00  0.45593999997E+02  0.45594000000E+02  0.51100000000E-03 0.  1.
         11   -1    0    0    0    0 -0.00000000000E+00 -0.00000000000E+00 -0.45593999997E+02  0.45594000000E+02  0.51100000000E-03 0. -1.
         23    2    1    2    0    0  0.00000000000E+00  0.00000000000E+00  0.44408920985E-15  0.91188000000E+02  0.91188000000E+02 0.  0.
    9900012    2    3    3    0    0 -0.20790223368E+02  0.30355194887E+02  0.14519855539E+01  0.54367088735E+02  0.40000010390E+02 0.  0.
        -12    1    3    3    0    0  0.20790223368E+02 -0.30355194887E+02 -0.14519855539E+01  0.36820911265E+02  0.00000000000E+00 0.  1.
         11    1    4    4    0    0 -0.12068209926E+02  0.50589259796E+01 -0.49927400919E+01  0.14005780120E+02  0.51100000000E-03 0. -1.
        -11    1    4    4    0    0 -0.31111084484E+00  0.24589498337E+02 -0.60106804434E+01  0.25315380662E+02  0.51100000000E-03 0.  1.
        -12    1    4    4    0    0 -0.84109025974E+01  0.70677057053E+00  0.12455406089E+02  0.15045927954E+02  0.00000000000E+00 0.  1.
</event>
<event>
 8    1  0.2511738E-006  0.9118800E+02  0.7816164E-02  0.1184000E+00
        -11   -1    0    0    0    0  0.00000000000E+00  0.00000000000E+00  0.45593999997E+02  0.45594000000E+02  0.51100000000E-03 0.  1.
         11   -1    0    0    0    0 -0.00000000000E+00 -0.00000000000E+00 -0.45593999997E+02  0.45594000000E+02  0.51100000000E-03 0. -1.
         23    2    1    2    0    0 -0.35527136788E-14  0.00000000000E+00  0.88817841970E-15  0.91188000000E+02  0.91188000000E+02 0.  0.
    9900012    2    3    3    0    0  0.24114040803E+02 -0.27046471857E+02  0.65406500517E+01  0.54367099592E+02  0.40000035140E+02 0.  0.
        -12    1    3    3    0    0 -0.24114040803E+02  0.27046471857E+02 -0.65406500517E+01  0.36820900408E+02  0.00000000000E+00 0.  1.
         11    1    4    4    0    0  0.19752570871E+02 -0.27148943225E+02  0.41440499033E+01  0.33829016008E+02  0.51100000000E-03 0. -1.
        -11    1    4    4    0    0 -0.31030186821E+01 -0.10864348734E+01  0.95690529758E+01  0.10118094721E+02  0.51100000000E-03 0.  1.
        -12    1    4    4    0    0  0.74644886144E+01  0.11889062413E+01 -0.71724528274E+01  0.10419988862E+02  0.00000000000E+00 0.  1.
</event>
<event>
 8    1  0.2511738E-006  0.9118800E+02  0.7816164E-02  0.1184000E+00
        -11   -1    0    0    0    0  0.00000000000E+00  0.00000000000E+00  0.45593999997E+02  0.45594000000E+02  0.51100000000E-03 0. -1.
         11   -1    0    0    0    0 -0.00000000000E+00 -0.00000000000E+00 -0.45593999997E+02  0.45594000000E+02  0.51100000000E-03 0.  1.
         23    2    1    2    0    0 -0.88817841970E-15  0.44408920985E-15  0.00000000000E+00  0.91188000000E+02  0.91188000000E+02 0.  0.
    9900012    2    3    3    0    0  0.42538992637E+01 -0.30359491272E+01  0.36448151756E+02  0.54367076431E+02  0.39999982340E+02 0.  0.
        -12    1    3    3    0    0 -0.42538992637E+01  0.30359491272E+01 -0.36448151756E+02  0.36820923569E+02  0.00000000000E+00 0.  1.
         11    1    4    4    0    0  0.82251329815E+00  0.12963322131E+02  0.32839453155E+02  0.35315066651E+02  0.51100000000E-03 0. -1.
        -11    1    4    4    0    0  0.47214399296E+01 -0.10953872391E+02  0.59645248562E+01  0.13336224068E+02  0.51100000000E-03 0.  1.
        -12    1    4    4    0    0 -0.12900539641E+01 -0.50453988676E+01 -0.23558262549E+01  0.57157857121E+01  0.00000000000E+00 0.  1.
</event>
<event>
 8    1  0.2511738E-006  0.9118800E+02  0.7816164E-02  0.1184000E+00
        -11   -1    0    0    0    0  0.00000000000E+00  0.00000000000E+00  0.45593999997E+02  0.45594000000E+02  0.51100000000E-03 0. -1.
         11   -1    0    0    0    0 -0.00000000000E+00 -0.00000000000E+00 -0.45593999997E+02  0.45594000000E+02  0.51100000000E-03 0.  1.
         23    2    1    2    0    0  0.00000000000E+00  0.17763568394E-14  0.00000000000E+00  0.91188000000E+02  0.91188000000E+02 0.  0.
    9900012    2    3    3    0    0  0.13313271771E+02 -0.83589361865E+01  0.33296549003E+02  0.54367147281E+02  0.40000143857E+02 0.  0.
        -12    1    3    3    0    0 -0.13313271771E+02  0.83589361865E+01 -0.33296549003E+02  0.36820852719E+02  0.00000000000E+00 0.  1.
         11    1    4    4    0    0  0.99141668055E+01  0.85500194203E+01  0.33224085143E+02  0.35710409818E+02  0.51100000000E-03 0. -1.
        -11    1    4    4    0    0  0.32802279191E+01 -0.80199751801E+01 -0.31224216307E+01  0.92102884967E+01  0.51100000000E-03 0.  1.
         12    1    4    4    0    0  0.11887704673E+00 -0.88889804266E+01  0.31948854912E+01  0.94464489666E+01  0.00000000000E+00 0. -1.
</event>
<event>
 8    1  0.2511738E-006  0.9118800E+02  0.7816164E-02  0.1184000E+00
        -11   -1    0    0    0    0  0.00000000000E+00  0.00000000000E+00  0.45593999997E+02  0.45594000000E+02  0.51100000000E-03 0.  1.
         11   -1    0    0    0    0 -0.00000000000E+00 -0.00000000000E+00 -0.45593999997E+02  0.45594000000E+02  0.51100000000E-03 0. -1.
         23    2    1    2    0    0  0.00000000000E+00  0.00000000000E+00  0.44408920985E-15  0.91188000000E+02  0.91188000000E+02 0.  0.
    9900012    2    3    3    0    0  0.30614417570E+02  0.20348511202E+02 -0.21151642199E+01  0.54367103882E+02  0.40000044919E+02 0.  0.
         12    1    3    3    0    0 -0.30614417570E+02 -0.20348511202E+02  0.21151642199E+01  0.36820896118E+02  0.00000000000E+00 0. -1.
         11    1    4    4    0    0  0.22544278674E+02 -0.63939641087E+01 -0.56864835464E+01  0.24113551653E+02  0.51100000000E-03 0. -1.
        -11    1    4    4    0    0  0.22807084776E+01  0.23076332577E+02  0.28407939549E+01  0.23362124624E+02  0.51100000000E-03 0.  1.
        -12    1    4    4    0    0  0.57894304189E+01  0.36661427334E+01  0.73052537160E+00  0.68914276051E+01  0.00000000000E+00 0.  1.
</event>
<event>
 8    1  0.2511738E-006  0.9118800E+02  0.7816164E-02  0.1184000E+00
        -11   -1    0    0    0    0  0.00000000000E+00  0.00000000000E+00  0.45593999997E+02  0.45594000000E+02  0.51100000000E-03 0.  1.
         11   -1    0    0    0    0 -0.00000000000E+00 -0.00000000000E+00 -0.45593999997E+02  0.45594000000E+02  0.51100000000E-03 0. -1.
         23    2    1    2    0    0  0.00000000000E+00  0.00000000000E+00  0.00000000000E+00  0.91188000000E+02  0.91188000000E+02 0.  0.
    9900012    2    3    3    0    0  0.34095302288E+02  0.97299499963E+01 -0.99306881406E+01  0.54367080240E+02  0.39999991023E+02 0.  0.
        -12    1    3    3    0    0 -0.34095302288E+02 -0.97299499963E+01  0.99306881406E+01  0.36820919760E+02  0.00000000000E+00 0.  1.
         11    1    4    4    0    0  0.10740450648E+02 -0.90958843822E+01 -0.18289531453E+02  0.23078114174E+02  0.51100000000E-03 0. -1.
        -11    1    4    4    0    0  0.97533069187E+01  0.98013639574E+01  0.36831509031E+01  0.14309414108E+02  0.51100000000E-03 0.  1.
         12    1    4    4    0    0  0.13601544721E+02  0.90244704211E+01  0.46756924092E+01  0.16979551958E+02  0.00000000000E+00 0. -1.
</event>
<event>
 8    1  0.2511738E-006  0.9118800E+02  0.7816164E-02  0.1184000E+00
        -11   -1    0    0    0    0  0.00000000000E+00  0.00000000000E+00  0.45593999997E+02  0.45594000000E+02  0.51100000000E-03 0.  1.
         11   -1    0    0    0    0 -0.00000000000E+00 -0.00000000000E+00 -0.45593999997E+02  0.45594000000E+02  0.51100000000E-03 0. -1.
         23    2    1    2    0    0  0.00000000000E+00  0.00000000000E+00  0.00000000000E+00  0.91188000000E+02  0.91188000000E+02 0.  0.
    9900012    2    3    3    0    0 -0.22464761598E+01 -0.92118898047E+01  0.35579221425E+02  0.54366992869E+02  0.39999791843E+02 0.  0.
         12    1    3    3    0    0  0.22464761598E+01  0.92118898047E+01 -0.35579221425E+02  0.36821007131E+02  0.00000000000E+00 0. -1.
         11    1    4    4    0    0 -0.50409441135E+01 -0.14292664632E+02  0.82523173258E+01  0.17256654407E+02  0.51100000000E-03 0. -1.
        -11    1    4    4    0    0 -0.48481516849E+01 -0.32745102325E+01 -0.15839857269E+01  0.60610232689E+01  0.51100000000E-03 0.  1.
        -12    1    4    4    0    0  0.76426196386E+01  0.83552850594E+01  0.28910889827E+02  0.31049315193E+02  0.00000000000E+00 0.  1.
</event>
<event>
 8    1  0.2511738E-006  0.9118800E+02  0.7816164E-02  0.1184000E+00
        -11   -1    0    0    0    0  0.00000000000E+00  0.00000000000E+00  0.45593999997E+02  0.45594000000E+02  0.51100000000E-03 0.  1.
         11   -1    0    0    0    0 -0.00000000000E+00 -0.00000000000E+00 -0.45593999997E+02  0.45594000000E+02  0.51100000000E-03 0. -1.
         23    2    1    2    0    0  0.71054273576E-14 -0.44408920985E-15  0.00000000000E+00  0.91188000000E+02  0.91188000000E+02 0.  0.
    9900012    2    3    3    0    0 -0.27740437806E+02  0.55496333302E+00 -0.24206220686E+02  0.54367068536E+02  0.39999964342E+02 0.  0.
        -12    1    3    3    0    0  0.27740437806E+02 -0.55496333302E+00  0.24206220686E+02  0.36820931464E+02  0.00000000000E+00 0.  1.
         11    1    4    4    0    0 -0.27380054904E+02  0.55706388219E+01 -0.23004631766E+02  0.36192713444E+02  0.51100000000E-03 0. -1.
        -11    1    4    4    0    0  0.35053598929E+01 -0.75633052018E+01  0.55305577449E+01  0.10003909375E+02  0.51100000000E-03 0.  1.
        -12    1    4    4    0    0 -0.38657427941E+01  0.25476297129E+01 -0.67321466650E+01  0.81704457175E+01  0.00000000000E+00 0.  1.
</event>
<event>
 8    1  0.2511738E-006  0.9118800E+02  0.7816164E-02  0.1184000E+00
        -11   -1    0    0    0    0  0.00000000000E+00  0.00000000000E+00  0.45593999997E+02  0.45594000000E+02  0.51100000000E-03 0.  1.
         11   -1    0    0    0    0 -0.00000000000E+00 -0.00000000000E+00 -0.45593999997E+02  0.45594000000E+02  0.51100000000E-03 0. -1.
         23    2    1    2    0    0  0.00000000000E+00 -0.17763568394E-14 -0.17763568394E-14  0.91188000000E+02  0.91188000000E+02 0.  0.
    9900012    2    3    3    0    0 -0.34066927126E+02  0.52051254911E+01 -0.12966530086E+02  0.54367085323E+02  0.40000002611E+02 0.  0.
        -12    1    3    3    0    0  0.34066927126E+02 -0.52051254911E+01  0.12966530086E+02  0.36820914677E+02  0.00000000000E+00 0.  1.
         11    1    4    4    0    0 -0.20856363220E+02  0.51181051091E+01 -0.40185440194E+01  0.21847919420E+02  0.51100000000E-03 0. -1.
        -11    1    4    4    0    0 -0.37365582391E+01 -0.90157417008E+01 -0.15125671233E+02  0.18000872101E+02  0.51100000000E-03 0.  1.
        -12    1    4    4    0    0 -0.94740056666E+01  0.91027620828E+01  0.61776851661E+01  0.14518293802E+02  0.00000000000E+00 0.  1.
</event>
<event>
 8    1  0.2511738E-006  0.9118800E+02  0.7816164E-02  0.1184000E+00
        -11   -1    0    0    0    0  0.00000000000E+00  0.00000000000E+00  0.45593999997E+02  0.45594000000E+02  0.51100000000E-03 0. -1.
         11   -1    0    0    0    0 -0.00000000000E+00 -0.00000000000E+00 -0.45593999997E+02  0.45594000000E+02  0.51100000000E-03 0.  1.
         23    2    1    2    0    0 -0.71054273576E-14  0.00000000000E+00  0.17763568394E-14  0.91188000000E+02  0.91188000000E+02 0.  0.
    9900012    2    3    3    0    0  0.33909877442E+02  0.57274624919E+01 -0.13156624003E+02  0.54367077009E+02  0.39999983658E+02 0.  0.
         12    1    3    3    0    0 -0.33909877442E+02 -0.57274624919E+01  0.13156624003E+02  0.36820922991E+02  0.00000000000E+00 0. -1.
         11    1    4    4    0    0  0.23624775581E+02 -0.44634921033E+01 -0.11686854776E+02  0.26732664622E+02  0.51100000000E-03 0. -1.
        -11    1    4    4    0    0  0.11446673943E+02 -0.38955958998E+00 -0.90247695874E+01  0.14581651738E+02  0.51100000000E-03 0.  1.
        -12    1    4    4    0    0 -0.11615720815E+01  0.10580514185E+02  0.75550003602E+01  0.13052760649E+02  0.00000000000E+00 0.  1.
</event>
<event>
 8    1  0.2511738E-006  0.9118800E+02  0.7816164E-02  0.1184000E+00
        -11   -1    0    0    0    0  0.00000000000E+00  0.00000000000E+00  0.45593999997E+02  0.45594000000E+02  0.51100000000E-03 0. -1.
         11   -1    0    0    0    0 -0.00000000000E+00 -0.00000000000E+00 -0.45593999997E+02  0.45594000000E+02  0.51100000000E-03 0.  1.
         23    2    1    2    0    0 -0.35527136788E-14 -0.99920072216E-15 -0.35527136788E-14  0.91188000000E+02  0.91188000000E+02 0.  0.
    9900012    2    3    3    0    0  0.21569116174E+02 -0.52299852239E+00  0.29837554207E+02  0.54367082833E+02  0.39999996935E+02 0.  0.
        -12    1    3    3    0    0 -0.21569116174E+02  0.52299852239E+00 -0.29837554207E+02  0.36820917167E+02  0.00000000000E+00 0.  1.
         11    1    4    4    0    0  0.19976778060E+02  0.57294932058E+01  0.14203279202E+02  0.25172045892E+02  0.51100000000E-03 0. -1.
        -11    1    4    4    0    0  0.63118012543E+01  0.76201026792E+01  0.49762480609E+01  0.11075551677E+02  0.51100000000E-03 0.  1.
         12    1    4    4    0    0 -0.47194631400E+01 -0.13872594407E+02  0.10658026944E+02  0.18119485265E+02  0.00000000000E+00 0. -1.
</event>
<event>
 8    1  0.2511738E-006  0.9118800E+02  0.7816164E-02  0.1184000E+00
        -11   -1    0    0    0    0  0.00000000000E+00  0.00000000000E+00  0.45593999997E+02  0.45594000000E+02  0.51100000000E-03 0. -1.
         11   -1    0    0    0    0 -0.00000000000E+00 -0.00000000000E+00 -0.45593999997E+02  0.45594000000E+02  0.51100000000E-03 0.  1.
         23    2    1    2    0    0 -0.44408920985E-15  0.71054273576E-14  0.17763568394E-14  0.91188000000E+02  0.91188000000E+02 0.  0.
    9900012    2    3    3    0    0  0.31934607811E+01 -0.34033742258E+02 -0.13685232554E+02  0.54367090263E+02  0.40000013872E+02 0.  0.
         12    1    3    3    0    0 -0.31934607811E+01  0.34033742258E+02  0.13685232554E+02  0.36820909737E+02  0.00000000000E+00 0. -1.
         11    1    4    4    0    0  0.12967548277E+02 -0.27299693555E+01  0.33289579123E+01  0.13663528169E+02  0.51100000000E-03 0. -1.
        -11    1    4    4    0    0 -0.17910131789E+01 -0.28348925209E+02 -0.12106414855E+02  0.30877735824E+02  0.51100000000E-03 0.  1.
        -12    1    4    4    0    0 -0.79830743166E+01 -0.29548476937E+01 -0.49077756109E+01  0.98258262698E+01  0.00000000000E+00 0.  1.
</event>
<event>
 8    1  0.2511738E-006  0.9118800E+02  0.7816164E-02  0.1184000E+00
        -11   -1    0    0    0    0  0.00000000000E+00  0.00000000000E+00  0.45593999997E+02  0.45594000000E+02  0.51100000000E-03 0.  1.
         11   -1    0    0    0    0 -0.00000000000E+00 -0.00000000000E+00 -0.45593999997E+02  0.45594000000E+02  0.51100000000E-03 0. -1.
         23    2    1    2    0    0 -0.35527136788E-14 -0.35527136788E-14  0.35527136788E-14  0.91188000000E+02  0.91188000000E+02 0.  0.
    9900012    2    3    3    0    0  0.26238939149E+02  0.15343744396E+02 -0.20781428545E+02  0.54367079423E+02  0.39999989161E+02 0.  0.
        -12    1    3    3    0    0 -0.26238939149E+02 -0.15343744396E+02  0.20781428545E+02  0.36820920577E+02  0.00000000000E+00 0.  1.
         11    1    4    4    0    0  0.79250398760E+01 -0.20095094063E+01 -0.31073288532E+01  0.87464208653E+01  0.51100000000E-03 0.  1.
        -11    1    4    4    0    0  0.52072126505E+01  0.74255515255E+01  0.99565184467E+01  0.13467967140E+02  0.51100000000E-03 0. -1.
         12    1    4    4    0    0  0.13106686623E+02  0.99277022765E+01 -0.27630618138E+02  0.32152691418E+02  0.00000000000E+00 0. -1.
</event>
<event>
 8    1  0.2511738E-006  0.9118800E+02  0.7816164E-02  0.1184000E+00
        -11   -1    0    0    0    0  0.00000000000E+00  0.00000000000E+00  0.45593999997E+02  0.45594000000E+02  0.51100000000E-03 0. -1.
         11   -1    0    0    0    0 -0.00000000000E+00 -0.00000000000E+00 -0.45593999997E+02  0.45594000000E+02  0.51100000000E-03 0.  1.
         23    2    1    2    0    0  0.00000000000E+00  0.71054273576E-14  0.00000000000E+00  0.91188000000E+02  0.91188000000E+02 0.  0.
    9900012    2    3    3    0    0 -0.10945911130E+02  0.34508754257E+02 -0.67165698306E+01  0.54367090165E+02  0.40000013649E+02 0.  0.
         12    1    3    3    0    0  0.10945911130E+02 -0.34508754257E+02  0.67165698306E+01  0.36820909835E+02  0.00000000000E+00 0. -1.
         11    1    4    4    0    0 -0.15783832291E+02 -0.20115640865E+01 -0.55692306620E+01  0.16857997577E+02  0.51100000000E-03 0. -1.
        -11    1    4    4    0    0 -0.36569330896E+00  0.21221602836E+02  0.75408941367E+00  0.21238145155E+02  0.51100000000E-03 0.  1.
         12    1    4    4    0    0  0.52036144703E+01  0.15298715507E+02 -0.19014285822E+01  0.16270947433E+02  0.00000000000E+00 0. -1.
</event>
<event>
 8    1  0.2511738E-006  0.9118800E+02  0.7816164E-02  0.1184000E+00
        -11   -1    0    0    0    0  0.00000000000E+00  0.00000000000E+00  0.45593999997E+02  0.45594000000E+02  0.51100000000E-03 0.  1.
         11   -1    0    0    0    0 -0.00000000000E+00 -0.00000000000E+00 -0.45593999997E+02  0.45594000000E+02  0.51100000000E-03 0. -1.
         23    2    1    2    0    0  0.17763568394E-14 -0.71054273576E-14  0.13322676296E-14  0.91188000000E+02  0.91188000000E+02 0.  0.
    9900012    2    3    3    0    0 -0.85806980537E+01  0.35783084243E+02 -0.13126572851E+01  0.54367074343E+02  0.39999977581E+02 0.  0.
        -12    1    3    3    0    0  0.85806980537E+01 -0.35783084243E+02  0.13126572851E+01  0.36820925657E+02  0.00000000000E+00 0.  1.
         11    1    4    4    0    0 -0.22588080508E+01  0.22231329563E+02  0.12403689111E+02  0.25557498544E+02  0.51100000000E-03 0.  1.
        -11    1    4    4    0    0  0.42505792091E+01  0.11031747728E+02 -0.13491726614E+02  0.17938605543E+02  0.51100000000E-03 0. -1.
         12    1    4    4    0    0 -0.10572469212E+02  0.25200069518E+01 -0.22461978264E+00  0.10870970257E+02  0.00000000000E+00 0. -1.
</event>
<event>
 8    1  0.2511738E-006  0.9118800E+02  0.7816164E-02  0.1184000E+00
        -11   -1    0    0    0    0  0.00000000000E+00  0.00000000000E+00  0.45593999997E+02  0.45594000000E+02  0.51100000000E-03 0. -1.
         11   -1    0    0    0    0 -0.00000000000E+00 -0.00000000000E+00 -0.45593999997E+02  0.45594000000E+02  0.51100000000E-03 0.  1.
         23    2    1    2    0    0 -0.71054273576E-14  0.17763568394E-14 -0.17763568394E-14  0.91188000000E+02  0.91188000000E+02 0.  0.
    9900012    2    3    3    0    0 -0.33652925845E+02  0.86636377134E+01 -0.12173782297E+02  0.54367095451E+02  0.40000025700E+02 0.  0.
         12    1    3    3    0    0  0.33652925845E+02 -0.86636377134E+01  0.12173782297E+02  0.36820904549E+02  0.00000000000E+00 0. -1.
         11    1    4    4    0    0 -0.85272943002E+01  0.96641633234E+01  0.76842885709E+01  0.15005302127E+02  0.51100000000E-03 0. -1.
        -11    1    4    4    0    0  0.21916697174E+00  0.48232922239E+01  0.21580053783E+01  0.52885886125E+01  0.51100000000E-03 0.  1.
        -12    1    4    4    0    0 -0.25344798517E+02 -0.58238178339E+01 -0.22016076246E+02  0.34073204711E+02  0.00000000000E+00 0.  1.
</event>
<event>
 8    1  0.2511738E-006  0.9118800E+02  0.7816164E-02  0.1184000E+00
        -11   -1    0    0    0    0  0.00000000000E+00  0.00000000000E+00  0.45593999997E+02  0.45594000000E+02  0.51100000000E-03 0.  1.
         11   -1    0    0    0    0 -0.00000000000E+00 -0.00000000000E+00 -0.45593999997E+02  0.45594000000E+02  0.51100000000E-03 0. -1.
         23    2    1    2    0    0  0.11102230246E-15  0.00000000000E+00 -0.16653345369E-15  0.91188000000E+02  0.91188000000E+02 0.  0.
    9900012    2    3    3    0    0  0.92054910604E+00  0.36809006615E+02  0.16772281904E+00  0.54367102271E+02  0.40000041247E+02 0.  0.
        -12    1    3    3    0    0 -0.92054910604E+00 -0.36809006615E+02 -0.16772281904E+00  0.36820897729E+02  0.00000000000E+00 0.  1.
         11    1    4    4    0    0 -0.88314031373E+01 -0.97888119793E+00 -0.65272581698E+01  0.11025288624E+02  0.51100000000E-03 0. -1.
        -11    1    4    4    0    0  0.12181377413E+01  0.30817632228E+02  0.89095911201E+01  0.32102821213E+02  0.51100000000E-03 0.  1.
        -12    1    4    4    0    0  0.85338145020E+01  0.69702555852E+01 -0.22146101313E+01  0.11238992433E+02  0.00000000000E+00 0.  1.
</event>
<event>
 8    1  0.2511738E-006  0.9118800E+02  0.7816164E-02  0.1184000E+00
        -11   -1    0    0    0    0  0.00000000000E+00  0.00000000000E+00  0.45593999997E+02  0.45594000000E+02  0.51100000000E-03 0.  1.
         11   -1    0    0    0    0 -0.00000000000E+00 -0.00000000000E+00 -0.45593999997E+02  0.45594000000E+02  0.51100000000E-03 0. -1.
         23    2    1    2    0    0  0.00000000000E+00 -0.35527136788E-14  0.88817841970E-15  0.91188000000E+02  0.91188000000E+02 0.  0.
    9900012    2    3    3    0    0 -0.24298356780E+02  0.27639291885E+02  0.12004697622E+01  0.54367058597E+02  0.39999941685E+02 0.  0.
        -12    1    3    3    0    0  0.24298356780E+02 -0.27639291885E+02 -0.12004697622E+01  0.36820941403E+02  0.00000000000E+00 0.  1.
         11    1    4    4    0    0 -0.13068929825E+02  0.31166643957E+00  0.35196859514E+01  0.13538177580E+02  0.51100000000E-03 0. -1.
        -11    1    4    4    0    0 -0.49957936514E+01 -0.13234400784E+00 -0.10395984436E+02  0.11534815204E+02  0.51100000000E-03 0.  1.
        -12    1    4    4    0    0 -0.62336333035E+01  0.27459969454E+02  0.80767682466E+01  0.29294065813E+02  0.00000000000E+00 0.  1.
</event>
<event>
 8    1  0.2511738E-006  0.9118800E+02  0.7816164E-02  0.1184000E+00
        -11   -1    0    0    0    0  0.00000000000E+00  0.00000000000E+00  0.45593999997E+02  0.45594000000E+02  0.51100000000E-03 0.  1.
         11   -1    0    0    0    0 -0.00000000000E+00 -0.00000000000E+00 -0.45593999997E+02  0.45594000000E+02  0.51100000000E-03 0. -1.
         23    2    1    2    0    0 -0.35527136788E-14  0.00000000000E+00 -0.17763568394E-14  0.91188000000E+02  0.91188000000E+02 0.  0.
    9900012    2    3    3    0    0 -0.10425858729E+02  0.32551007934E+02 -0.13693653946E+02  0.54367043927E+02  0.39999908240E+02 0.  0.
         12    1    3    3    0    0  0.10425858729E+02 -0.32551007934E+02  0.13693653946E+02  0.36820956073E+02  0.00000000000E+00 0. -1.
         11    1    4    4    0    0  0.33584659458E+01  0.96934127931E+00 -0.19126550670E+01  0.39846161285E+01  0.51100000000E-03 0. -1.
        -11    1    4    4    0    0 -0.22045512853E+02  0.17108964710E+02  0.30529250142E+01  0.28072079756E+02  0.51100000000E-03 0.  1.
        -12    1    4    4    0    0  0.82611881790E+01  0.14472701944E+02 -0.14833923893E+02  0.22310348042E+02  0.00000000000E+00 0.  1.
</event>
<event>
 8    1  0.2511738E-006  0.9118800E+02  0.7816164E-02  0.1184000E+00
        -11   -1    0    0    0    0  0.00000000000E+00  0.00000000000E+00  0.45593999997E+02  0.45594000000E+02  0.51100000000E-03 0.  1.
         11   -1    0    0    0    0 -0.00000000000E+00 -0.00000000000E+00 -0.45593999997E+02  0.45594000000E+02  0.51100000000E-03 0. -1.
         23    2    1    2    0    0  0.71054273576E-14  0.17763568394E-14  0.00000000000E+00  0.91188000000E+02  0.91188000000E+02 0.  0.
    9900012    2    3    3    0    0 -0.32848844164E+02 -0.13186813026E+02  0.10141038024E+02  0.54367092177E+02  0.40000018236E+02 0.  0.
         12    1    3    3    0    0  0.32848844164E+02  0.13186813026E+02 -0.10141038024E+02  0.36820907823E+02  0.00000000000E+00 0. -1.
         11    1    4    4    0    0 -0.30390650317E+00  0.75011468332E+01 -0.31969524845E+01  0.81596610484E+01  0.51100000000E-03 0. -1.
        -11    1    4    4    0    0 -0.29379648213E+02 -0.25214910901E+02  0.11736523080E+02  0.40456166837E+02  0.51100000000E-03 0.  1.
        -12    1    4    4    0    0 -0.31652894486E+01  0.45269510421E+01  0.16014674288E+01  0.57512642920E+01  0.00000000000E+00 0.  1.
</event>
<event>
 8    1  0.2511738E-006  0.9118800E+02  0.7816164E-02  0.1184000E+00
        -11   -1    0    0    0    0  0.00000000000E+00  0.00000000000E+00  0.45593999997E+02  0.45594000000E+02  0.51100000000E-03 0. -1.
         11   -1    0    0    0    0 -0.00000000000E+00 -0.00000000000E+00 -0.45593999997E+02  0.45594000000E+02  0.51100000000E-03 0.  1.
         23    2    1    2    0    0 -0.35527136788E-14  0.00000000000E+00  0.00000000000E+00  0.91188000000E+02  0.91188000000E+02 0.  0.
    9900012    2    3    3    0    0 -0.29312192825E+02  0.12620461381E+02 -0.18365714749E+02  0.54367079698E+02  0.39999989787E+02 0.  0.
         12    1    3    3    0    0  0.29312192825E+02 -0.12620461381E+02  0.18365714749E+02  0.36820920302E+02  0.00000000000E+00 0. -1.
         11    1    4    4    0    0 -0.17517683011E+02  0.20903502761E+01 -0.18414980590E+02  0.25501966448E+02  0.51100000000E-03 0.  1.
        -11    1    4    4    0    0  0.86538578029E-01 -0.73725472502E+01 -0.23620702973E+00  0.73768377984E+01  0.51100000000E-03 0. -1.
        -12    1    4    4    0    0 -0.11881048392E+02  0.17902658355E+02  0.28547287091E+00  0.21488275451E+02  0.00000000000E+00 0.  1.
</event>
<event>
 8    1  0.2511738E-006  0.9118800E+02  0.7816164E-02  0.1184000E+00
        -11   -1    0    0    0    0  0.00000000000E+00  0.00000000000E+00  0.45593999997E+02  0.45594000000E+02  0.51100000000E-03 0.  1.
         11   -1    0    0    0    0 -0.00000000000E+00 -0.00000000000E+00 -0.45593999997E+02  0.45594000000E+02  0.51100000000E-03 0. -1.
         23    2    1    2    0    0  0.00000000000E+00  0.00000000000E+00  0.00000000000E+00  0.91188000000E+02  0.91188000000E+02 0.  0.
    9900012    2    3    3    0    0  0.35751401259E+02  0.14637078012E+01 -0.86876132012E+01  0.54367085350E+02  0.40000002673E+02 0.  0.
        -12    1    3    3    0    0 -0.35751401259E+02 -0.14637078012E+01  0.86876132012E+01  0.36820914650E+02  0.00000000000E+00 0.  1.
         11    1    4    4    0    0  0.29046278496E+02  0.23041600862E+01 -0.17567707542E+01  0.29190438365E+02  0.51100000000E-03 0. -1.
        -11    1    4    4    0    0 -0.88922466428E+00  0.58511894300E+01 -0.12350367910E+02  0.13695208141E+02  0.51100000000E-03 0.  1.
         12    1    4    4    0    0  0.75943474269E+01 -0.66916417150E+01  0.54195254633E+01  0.11481438844E+02  0.00000000000E+00 0. -1.
</event>
<event>
 8    1  0.2511738E-006  0.9118800E+02  0.7816164E-02  0.1184000E+00
        -11   -1    0    0    0    0  0.00000000000E+00  0.00000000000E+00  0.45593999997E+02  0.45594000000E+02  0.51100000000E-03 0.  1.
         11   -1    0    0    0    0 -0.00000000000E+00 -0.00000000000E+00 -0.45593999997E+02  0.45594000000E+02  0.51100000000E-03 0. -1.
         23    2    1    2    0    0  0.00000000000E+00  0.17763568394E-14  0.22204460493E-15  0.91188000000E+02  0.91188000000E+02 0.  0.
    9900012    2    3    3    0    0 -0.35892404361E+02  0.81422963883E+01  0.11035549940E+01  0.54367088619E+02  0.40000010125E+02 0.  0.
         12    1    3    3    0    0  0.35892404361E+02 -0.81422963883E+01 -0.11035549940E+01  0.36820911381E+02  0.00000000000E+00 0. -1.
         11    1    4    4    0    0 -0.22672452468E+02  0.19199261561E+02 -0.44899101911E+01  0.30046814128E+02  0.51100000000E-03 0. -1.
        -11    1    4    4    0    0 -0.56585351120E+00  0.38516123618E+01 -0.27830185661E+00  0.39028912572E+01  0.51100000000E-03 0.  1.
        -12    1    4    4    0    0 -0.12654098381E+02 -0.14908577535E+02  0.58717670417E+01  0.20417383235E+02  0.00000000000E+00 0.  1.
</event>
<event>
 8    1  0.2511738E-006  0.9118800E+02  0.7816164E-02  0.1184000E+00
        -11   -1    0    0    0    0  0.00000000000E+00  0.00000000000E+00  0.45593999997E+02  0.45594000000E+02  0.51100000000E-03 0.  1.
         11   -1    0    0    0    0 -0.00000000000E+00 -0.00000000000E+00 -0.45593999997E+02  0.45594000000E+02  0.51100000000E-03 0. -1.
         23    2    1    2    0    0  0.00000000000E+00  0.00000000000E+00  0.17763568394E-14  0.91188000000E+02  0.91188000000E+02 0.  0.
    9900012    2    3    3    0    0 -0.30589518446E+02 -0.16429543723E+02 -0.12252817659E+02  0.54367080860E+02  0.39999992437E+02 0.  0.
        -12    1    3    3    0    0  0.30589518446E+02  0.16429543723E+02  0.12252817659E+02  0.36820919140E+02  0.00000000000E+00 0.  1.
         11    1    4    4    0    0 -0.96227811462E+01 -0.15249391869E+02 -0.69171063250E+01  0.19312903188E+02  0.51100000000E-03 0. -1.
        -11    1    4    4    0    0 -0.13810531215E+02 -0.11695158546E+02 -0.10948897312E+02  0.21151497783E+02  0.51100000000E-03 0.  1.
        -12    1    4    4    0    0 -0.71562060850E+01  0.10515006693E+02  0.56131859778E+01  0.13902679889E+02  0.00000000000E+00 0.  1.
</event>
<event>
 8    1  0.2511738E-006  0.9118800E+02  0.7816164E-02  0.1184000E+00
        -11   -1    0    0    0    0  0.00000000000E+00  0.00000000000E+00  0.45593999997E+02  0.45594000000E+02  0.51100000000E-03 0.  1.
         11   -1    0    0    0    0 -0.00000000000E+00 -0.00000000000E+00 -0.45593999997E+02  0.45594000000E+02  0.51100000000E-03 0. -1.
         23    2    1    2    0    0  0.12212453271E-14  0.00000000000E+00  0.00000000000E+00  0.91188000000E+02  0.91188000000E+02 0.  0.
    9900012    2    3    3    0    0 -0.80406035750E+00 -0.25961978816E+02  0.26098099672E+02  0.54367059442E+02  0.39999943611E+02 0.  0.
         12    1    3    3    0    0  0.80406035750E+00  0.25961978816E+02 -0.26098099672E+02  0.36820940558E+02  0.00000000000E+00 0. -1.
         11    1    4    4    0    0  0.33294575124E+01 -0.63000982111E+01  0.14925277188E+02  0.16539057536E+02  0.51100000000E-03 0. -1.
        -11    1    4    4    0    0 -0.46432947648E+01 -0.22797698635E+02  0.18576053350E+02  0.29771882837E+02  0.51100000000E-03 0.  1.
         12    1    4    4    0    0  0.50977689491E+00  0.31358180306E+01 -0.74032308660E+01  0.80561190693E+01  0.00000000000E+00 0. -1.
</event>
<event>
 8    1  0.2511738E-006  0.9118800E+02  0.7816164E-02  0.1184000E+00
        -11   -1    0    0    0    0  0.00000000000E+00  0.00000000000E+00  0.45593999997E+02  0.45594000000E+02  0.51100000000E-03 0.  1.
         11   -1    0    0    0    0 -0.00000000000E+00 -0.00000000000E+00 -0.45593999997E+02  0.45594000000E+02  0.51100000000E-03 0. -1.
         23    2    1    2    0    0  0.00000000000E+00  0.00000000000E+00  0.17763568394E-14  0.91188000000E+02  0.91188000000E+02 0.  0.
    9900012    2    3    3    0    0  0.19613919577E+02  0.29600751175E+02 -0.97399059242E+01  0.54367135280E+02  0.40000116499E+02 0.  0.
        -12    1    3    3    0    0 -0.19613919577E+02 -0.29600751175E+02  0.97399059242E+01  0.36820864720E+02  0.00000000000E+00 0.  1.
         11    1    4    4    0    0  0.72836429861E+00  0.17129153246E+02 -0.36736794431E+01  0.17533805245E+02  0.51100000000E-03 0. -1.
        -11    1    4    4    0    0  0.28919537950E+01  0.73778567175E+01  0.10563328333E+02  0.13205304700E+02  0.51100000000E-03 0.  1.
         12    1    4    4    0    0  0.15993601483E+02  0.50937412117E+01 -0.16629554814E+02  0.23628025335E+02  0.00000000000E+00 0. -1.
</event>
<event>
 8    1  0.2511738E-006  0.9118800E+02  0.7816164E-02  0.1184000E+00
        -11   -1    0    0    0    0  0.00000000000E+00  0.00000000000E+00  0.45593999997E+02  0.45594000000E+02  0.51100000000E-03 0. -1.
         11   -1    0    0    0    0 -0.00000000000E+00 -0.00000000000E+00 -0.45593999997E+02  0.45594000000E+02  0.51100000000E-03 0.  1.
         23    2    1    2    0    0  0.71054273576E-14  0.00000000000E+00  0.22204460493E-14  0.91188000000E+02  0.91188000000E+02 0.  0.
    9900012    2    3    3    0    0  0.25518488369E+02  0.26294215353E+02  0.36333669150E+01  0.54367077078E+02  0.39999983815E+02 0.  0.
         12    1    3    3    0    0 -0.25518488369E+02 -0.26294215353E+02 -0.36333669150E+01  0.36820922922E+02  0.00000000000E+00 0. -1.
         11    1    4    4    0    0  0.19351344736E+02 -0.77673244939E+00 -0.29919044119E+01  0.19596666774E+02  0.51100000000E-03 0. -1.
        -11    1    4    4    0    0  0.62978561465E+01  0.60959640042E+01 -0.56871735136E+01  0.10448335371E+02  0.51100000000E-03 0.  1.
        -12    1    4    4    0    0 -0.13071251306E+00  0.20974983798E+02  0.12312444841E+02  0.24322074933E+02  0.00000000000E+00 0.  1.
</event>
<event>
 8    1  0.2511738E-006  0.9118800E+02  0.7816164E-02  0.1184000E+00
        -11   -1    0    0    0    0  0.00000000000E+00  0.00000000000E+00  0.45593999997E+02  0.45594000000E+02  0.51100000000E-03 0. -1.
         11   -1    0    0    0    0 -0.00000000000E+00 -0.00000000000E+00 -0.45593999997E+02  0.45594000000E+02  0.51100000000E-03 0.  1.
         23    2    1    2    0    0  0.00000000000E+00 -0.35527136788E-14  0.35527136788E-14  0.91188000000E+02  0.91188000000E+02 0.  0.
    9900012    2    3    3    0    0 -0.16062707794E+02  0.21328082351E+02 -0.25355120878E+02  0.54367084297E+02  0.40000000273E+02 0.  0.
         12    1    3    3    0    0  0.16062707794E+02 -0.21328082351E+02  0.25355120878E+02  0.36820915703E+02  0.00000000000E+00 0. -1.
         11    1    4    4    0    0 -0.24209217573E+02  0.25638709250E+02 -0.24172987400E+02  0.42752344352E+02  0.51100000000E-03 0.  1.
        -11    1    4    4    0    0 -0.58110077167E+00 -0.23226946704E+01 -0.11670744240E+01  0.26635787225E+01  0.51100000000E-03 0. -1.
        -12    1    4    4    0    0  0.87276105506E+01 -0.19879322282E+01 -0.15059053964E-01  0.89511612231E+01  0.00000000000E+00 0.  1.
</event>
<event>
 8    1  0.2511738E-006  0.9118800E+02  0.7816164E-02  0.1184000E+00
        -11   -1    0    0    0    0  0.00000000000E+00  0.00000000000E+00  0.45593999997E+02  0.45594000000E+02  0.51100000000E-03 0. -1.
         11   -1    0    0    0    0 -0.00000000000E+00 -0.00000000000E+00 -0.45593999997E+02  0.45594000000E+02  0.51100000000E-03 0.  1.
         23    2    1    2    0    0 -0.35527136788E-14  0.00000000000E+00  0.35527136788E-14  0.91188000000E+02  0.91188000000E+02 0.  0.
    9900012    2    3    3    0    0 -0.27281257378E+02 -0.10534553312E+02  0.22372624311E+02  0.54367107341E+02  0.40000052806E+02 0.  0.
        -12    1    3    3    0    0  0.27281257378E+02  0.10534553312E+02 -0.22372624311E+02  0.36820892659E+02  0.00000000000E+00 0.  1.
         11    1    4    4    0    0 -0.44127039068E+01  0.10971844300E+02 -0.12620372627E+01  0.11893109830E+02  0.51100000000E-03 0. -1.
        -11    1    4    4    0    0 -0.22664269497E+01  0.18035775954E+01 -0.69714740175E+00  0.29791941901E+01  0.51100000000E-03 0.  1.
         12    1    4    4    0    0 -0.20602126522E+02 -0.23309975208E+02  0.24331808975E+02  0.39494803322E+02  0.00000000000E+00 0. -1.
</event>
<event>
 8    1  0.2511738E-006  0.9118800E+02  0.7816164E-02  0.1184000E+00
        -11   -1    0    0    0    0  0.00000000000E+00  0.00000000000E+00  0.45593999997E+02  0.45594000000E+02  0.51100000000E-03 0. -1.
         11   -1    0    0    0    0 -0.00000000000E+00 -0.00000000000E+00 -0.45593999997E+02  0.45594000000E+02  0.51100000000E-03 0.  1.
         23    2    1    2    0    0 -0.35527136788E-14  0.00000000000E+00  0.00000000000E+00  0.91188000000E+02  0.91188000000E+02 0.  0.
    9900012    2    3    3    0    0 -0.24339578252E+02 -0.18560858303E+02  0.20465801902E+02  0.54367223556E+02  0.40000317739E+02 0.  0.
        -12    1    3    3    0    0  0.24339578252E+02  0.18560858303E+02 -0.20465801902E+02  0.36820776444E+02  0.00000000000E+00 0.  1.
         11    1    4    4    0    0 -0.56027735318E+01 -0.44623898902E+01  0.14709364692E+02  0.16360605266E+02  0.51100000000E-03 0. -1.
        -11    1    4    4    0    0  0.67929076624E+00 -0.10837944797E+02 -0.84238963162E+01  0.13743526213E+02  0.51100000000E-03 0.  1.
         12    1    4    4    0    0 -0.19416095487E+02 -0.32605236163E+01  0.14180333526E+02  0.24263092076E+02  0.00000000000E+00 0. -1.
</event>
<event>
 8    1  0.2511738E-006  0.9118800E+02  0.7816164E-02  0.1184000E+00
        -11   -1    0    0    0    0  0.00000000000E+00  0.00000000000E+00  0.45593999997E+02  0.45594000000E+02  0.51100000000E-03 0. -1.
         11   -1    0    0    0    0 -0.00000000000E+00 -0.00000000000E+00 -0.45593999997E+02  0.45594000000E+02  0.51100000000E-03 0.  1.
         23    2    1    2    0    0  0.00000000000E+00  0.17763568394E-14  0.35527136788E-14  0.91188000000E+02  0.91188000000E+02 0.  0.
    9900012    2    3    3    0    0 -0.18895760988E+02 -0.13177665128E+02  0.28724168815E+02  0.54367102188E+02  0.40000041059E+02 0.  0.
         12    1    3    3    0    0  0.18895760988E+02  0.13177665128E+02 -0.28724168815E+02  0.36820897812E+02  0.00000000000E+00 0. -1.
         11    1    4    4    0    0  0.13582310898E+01 -0.50080515336E+01  0.17067160587E+02  0.17838535328E+02  0.51100000000E-03 0. -1.
        -11    1    4    4    0    0 -0.14223760233E+02 -0.26983478416E+01  0.20118232389E+02  0.24785877248E+02  0.51100000000E-03 0.  1.
        -12    1    4    4    0    0 -0.60302318443E+01 -0.54712657531E+01 -0.84612241610E+01  0.11742689613E+02  0.00000000000E+00 0.  1.
</event>
<event>
 8    1  0.2511738E-006  0.9118800E+02  0.7816164E-02  0.1184000E+00
        -11   -1    0    0    0    0  0.00000000000E+00  0.00000000000E+00  0.45593999997E+02  0.45594000000E+02  0.51100000000E-03 0. -1.
         11   -1    0    0    0    0 -0.00000000000E+00 -0.00000000000E+00 -0.45593999997E+02  0.45594000000E+02  0.51100000000E-03 0.  1.
         23    2    1    2    0    0 -0.35527136788E-14 -0.88817841970E-15  0.00000000000E+00  0.91188000000E+02  0.91188000000E+02 0.  0.
    9900012    2    3    3    0    0  0.24731402493E+02 -0.63065357730E+01  0.26539892347E+02  0.54367074583E+02  0.39999978128E+02 0.  0.
        -12    1    3    3    0    0 -0.24731402493E+02  0.63065357730E+01 -0.26539892347E+02  0.36820925417E+02  0.00000000000E+00 0.  1.
         11    1    4    4    0    0  0.13150001192E+02 -0.77004220201E+01  0.58224456683E+01  0.16313181923E+02  0.51100000000E-03 0. -1.
        -11    1    4    4    0    0  0.39693867743E+01 -0.10396720823E+02  0.21273567824E+02  0.24008592700E+02  0.51100000000E-03 0.  1.
        -12    1    4    4    0    0  0.76120145267E+01  0.11790607070E+02 -0.55612114472E+00  0.14045299960E+02  0.00000000000E+00 0.  1.
</event>
<event>
 8    1  0.2511738E-006  0.9118800E+02  0.7816164E-02  0.1184000E+00
        -11   -1    0    0    0    0  0.00000000000E+00  0.00000000000E+00  0.45593999997E+02  0.45594000000E+02  0.51100000000E-03 0. -1.
         11   -1    0    0    0    0 -0.00000000000E+00 -0.00000000000E+00 -0.45593999997E+02  0.45594000000E+02  0.51100000000E-03 0.  1.
         23    2    1    2    0    0  0.35527136788E-14  0.00000000000E+00  0.00000000000E+00  0.91188000000E+02  0.91188000000E+02 0.  0.
    9900012    2    3    3    0    0 -0.19824109696E+02  0.27658891922E+02 -0.14063097787E+02  0.54367077320E+02  0.39999984367E+02 0.  0.
         12    1    3    3    0    0  0.19824109696E+02 -0.27658891922E+02  0.14063097787E+02  0.36820922680E+02  0.00000000000E+00 0. -1.
         11    1    4    4    0    0 -0.80496011619E+01  0.17210817936E+02 -0.21595572376E+02  0.28764163110E+02  0.51100000000E-03 0. -1.
        -11    1    4    4    0    0 -0.12391104124E+02  0.70077537325E+01 -0.29631975158E+01  0.14540585049E+02  0.51100000000E-03 0.  1.
         12    1    4    4    0    0  0.61659558981E+00  0.34403202534E+01  0.10495672104E+02  0.11062329162E+02  0.00000000000E+00 0. -1.
</event>
<event>
 8    1  0.2511738E-006  0.9118800E+02  0.7816164E-02  0.1184000E+00
        -11   -1    0    0    0    0  0.00000000000E+00  0.00000000000E+00  0.45593999997E+02  0.45594000000E+02  0.51100000000E-03 0. -1.
         11   -1    0    0    0    0 -0.00000000000E+00 -0.00000000000E+00 -0.45593999997E+02  0.45594000000E+02  0.51100000000E-03 0.  1.
         23    2    1    2    0    0  0.00000000000E+00 -0.71054273576E-14  0.35527136788E-14  0.91188000000E+02  0.91188000000E+02 0.  0.
    9900012    2    3    3    0    0 -0.10550843736E+01 -0.34958087339E+02  0.11515155016E+02  0.54367083818E+02  0.39999999181E+02 0.  0.
        -12    1    3    3    0    0  0.10550843736E+01  0.34958087339E+02 -0.11515155016E+02  0.36820916182E+02  0.00000000000E+00 0.  1.
         11    1    4    4    0    0 -0.27212590682E+01  0.11085861234E+01  0.34666425954E+01  0.45444279349E+01  0.51100000000E-03 0. -1.
        -11    1    4    4    0    0  0.67966750755E+00 -0.35663510472E+01 -0.11379987793E+02  0.11945079746E+02  0.51100000000E-03 0.  1.
         12    1    4    4    0    0  0.98650718711E+00 -0.32500322415E+02  0.19428500213E+02  0.37877576137E+02  0.00000000000E+00 0. -1.
</event>
<event>
 8    1  0.2511738E-006  0.9118800E+02  0.7816164E-02  0.1184000E+00
        -11   -1    0    0    0    0  0.00000000000E+00  0.00000000000E+00  0.45593999997E+02  0.45594000000E+02  0.51100000000E-03 0.  1.
         11   -1    0    0    0    0 -0.00000000000E+00 -0.00000000000E+00 -0.45593999997E+02  0.45594000000E+02  0.51100000000E-03 0. -1.
         23    2    1    2    0    0  0.00000000000E+00 -0.35527136788E-14  0.00000000000E+00  0.91188000000E+02  0.91188000000E+02 0.  0.
    9900012    2    3    3    0    0 -0.19764133687E+02 -0.12512095419E+02  0.28435982703E+02  0.54367100711E+02  0.40000037691E+02 0.  0.
         12    1    3    3    0    0  0.19764133687E+02  0.12512095419E+02 -0.28435982703E+02  0.36820899289E+02  0.00000000000E+00 0. -1.
         11    1    4    4    0    0 -0.84165125202E+01 -0.12064440789E+01 -0.11530647996E+01  0.85803699811E+01  0.51100000000E-03 0. -1.
        -11    1    4    4    0    0 -0.36018211508E+01  0.72271335537E+01 -0.20308128455E+01  0.83263903391E+01  0.51100000000E-03 0.  1.
        -12    1    4    4    0    0 -0.77458000158E+01 -0.18532784893E+02  0.31619860348E+02  0.37460340391E+02  0.00000000000E+00 0.  1.
</event>
<event>
 8    1  0.2511738E-006  0.9118800E+02  0.7816164E-02  0.1184000E+00
        -11   -1    0    0    0    0  0.00000000000E+00  0.00000000000E+00  0.45593999997E+02  0.45594000000E+02  0.51100000000E-03 0. -1.
         11   -1    0    0    0    0 -0.00000000000E+00 -0.00000000000E+00 -0.45593999997E+02  0.45594000000E+02  0.51100000000E-03 0.  1.
         23    2    1    2    0    0  0.00000000000E+00 -0.71054273576E-14 -0.88817841970E-15  0.91188000000E+02  0.91188000000E+02 0.  0.
    9900012    2    3    3    0    0  0.84480112324E+01 -0.35129695586E+02 -0.70932986729E+01  0.54367091648E+02  0.40000017031E+02 0.  0.
        -12    1    3    3    0    0 -0.84480112324E+01  0.35129695586E+02  0.70932986729E+01  0.36820908352E+02  0.00000000000E+00 0.  1.
         11    1    4    4    0    0  0.42494489393E+01 -0.14173499812E+02  0.10421608574E+02  0.18098503771E+02  0.51100000000E-03 0. -1.
        -11    1    4    4    0    0  0.62773576262E+01  0.19782753493E+01 -0.10138563320E+02  0.12087566280E+02  0.51100000000E-03 0.  1.
        -12    1    4    4    0    0 -0.20787953331E+01 -0.22934471124E+02 -0.73763439268E+01  0.24181021597E+02  0.00000000000E+00 0.  1.
</event>
<event>
 8    1  0.2511738E-006  0.9118800E+02  0.7816164E-02  0.1184000E+00
        -11   -1    0    0    0    0  0.00000000000E+00  0.00000000000E+00  0.45593999997E+02  0.45594000000E+02  0.51100000000E-03 0. -1.
         11   -1    0    0    0    0 -0.00000000000E+00 -0.00000000000E+00 -0.45593999997E+02  0.45594000000E+02  0.51100000000E-03 0.  1.
         23    2    1    2    0    0  0.00000000000E+00 -0.44408920985E-15  0.00000000000E+00  0.91188000000E+02  0.91188000000E+02 0.  0.
    9900012    2    3    3    0    0 -0.34366095999E+02  0.18631917106E+01 -0.13087352990E+02  0.54367097704E+02  0.40000030836E+02 0.  0.
         12    1    3    3    0    0  0.34366095999E+02 -0.18631917106E+01  0.13087352990E+02  0.36820902296E+02  0.00000000000E+00 0. -1.
         11    1    4    4    0    0  0.45224005295E-01 -0.42148434531E+00  0.23887534708E+01  0.24260745391E+01  0.51100000000E-03 0. -1.
        -11    1    4    4    0    0 -0.46794165482E+01  0.15766578976E+02 -0.86761296015E+01  0.18594546968E+02  0.51100000000E-03 0.  1.
        -12    1    4    4    0    0 -0.29731903457E+02 -0.13481902920E+02 -0.67999768591E+01  0.33346476197E+02  0.00000000000E+00 0.  1.
</event>
<event>
 8    1  0.2511738E-006  0.9118800E+02  0.7816164E-02  0.1184000E+00
        -11   -1    0    0    0    0  0.00000000000E+00  0.00000000000E+00  0.45593999997E+02  0.45594000000E+02  0.51100000000E-03 0.  1.
         11   -1    0    0    0    0 -0.00000000000E+00 -0.00000000000E+00 -0.45593999997E+02  0.45594000000E+02  0.51100000000E-03 0. -1.
         23    2    1    2    0    0  0.00000000000E+00  0.00000000000E+00  0.00000000000E+00  0.91188000000E+02  0.91188000000E+02 0.  0.
    9900012    2    3    3    0    0 -0.88000315660E+01  0.33291439417E+02 -0.13039062168E+02  0.54367114130E+02  0.40000068283E+02 0.  0.
        -12    1    3    3    0    0  0.88000315660E+01 -0.33291439417E+02  0.13039062168E+02  0.36820885870E+02  0.00000000000E+00 0.  1.
         11    1    4    4    0    0 -0.13537346154E+02  0.28414757911E+02 -0.19006515907E+01  0.31532058048E+02  0.51100000000E-03 0. -1.
        -11    1    4    4    0    0 -0.12844547464E+01 -0.39826025176E+01  0.29622271769E+01  0.51269617628E+01  0.51100000000E-03 0.  1.
         12    1    4    4    0    0  0.60217693347E+01  0.88592840236E+01 -0.14100637755E+02  0.17708094319E+02  0.00000000000E+00 0. -1.
</event>
<event>
 8    1  0.2511738E-006  0.9118800E+02  0.7816164E-02  0.1184000E+00
        -11   -1    0    0    0    0  0.00000000000E+00  0.00000000000E+00  0.45593999997E+02  0.45594000000E+02  0.51100000000E-03 0. -1.
         11   -1    0    0    0    0 -0.00000000000E+00 -0.00000000000E+00 -0.45593999997E+02  0.45594000000E+02  0.51100000000E-03 0.  1.
         23    2    1    2    0    0 -0.22204460493E-15  0.00000000000E+00 -0.22204460493E-15  0.91188000000E+02  0.91188000000E+02 0.  0.
    9900012    2    3    3    0    0 -0.13823825657E+01  0.36793057195E+02  0.37435268349E+00  0.54367079598E+02  0.39999989559E+02 0.  0.
         12    1    3    3    0    0  0.13823825657E+01 -0.36793057195E+02 -0.37435268349E+00  0.36820920402E+02  0.00000000000E+00 0. -1.
         11    1    4    4    0    0  0.12320397487E+02  0.18429983176E+02  0.11878143551E+02  0.25150482472E+02  0.51100000000E-03 0. -1.
        -11    1    4    4    0    0 -0.13886213558E+02  0.71255800081E+01 -0.62977339945E+01  0.16830397237E+02  0.51100000000E-03 0.  1.
        -12    1    4    4    0    0  0.18343350597E+00  0.11237494011E+02 -0.52060568732E+01  0.12386199888E+02  0.00000000000E+00 0.  1.
</event>
<event>
 8    1  0.2511738E-006  0.9118800E+02  0.7816164E-02  0.1184000E+00
        -11   -1    0    0    0    0  0.00000000000E+00  0.00000000000E+00  0.45593999997E+02  0.45594000000E+02  0.51100000000E-03 0. -1.
         11   -1    0    0    0    0 -0.00000000000E+00 -0.00000000000E+00 -0.45593999997E+02  0.45594000000E+02  0.51100000000E-03 0.  1.
         23    2    1    2    0    0 -0.35527136788E-14 -0.35527136788E-14  0.17763568394E-14  0.91188000000E+02  0.91188000000E+02 0.  0.
    9900012    2    3    3    0    0  0.30941388767E+02  0.16447873245E+02 -0.11308227736E+02  0.54367108000E+02  0.40000054308E+02 0.  0.
        -12    1    3    3    0    0 -0.30941388767E+02 -0.16447873245E+02  0.11308227736E+02  0.36820892000E+02  0.00000000000E+00 0.  1.
         11    1    4    4    0    0  0.29199094970E+02  0.17325331262E+02 -0.61790348377E+00  0.33957857049E+02  0.51100000000E-03 0. -1.
        -11    1    4    4    0    0 -0.51408625471E+01  0.14572019557E+01  0.20649058391E+01  0.57285025664E+01  0.51100000000E-03 0.  1.
         12    1    4    4    0    0  0.68831563440E+01 -0.23346599720E+01 -0.12755230092E+02  0.14680748385E+02  0.00000000000E+00 0. -1.
</event>
<event>
 8    1  0.2511738E-006  0.9118800E+02  0.7816164E-02  0.1184000E+00
        -11   -1    0    0    0    0  0.00000000000E+00  0.00000000000E+00  0.45593999997E+02  0.45594000000E+02  0.51100000000E-03 0.  1.
         11   -1    0    0    0    0 -0.00000000000E+00 -0.00000000000E+00 -0.45593999997E+02  0.45594000000E+02  0.51100000000E-03 0. -1.
         23    2    1    2    0    0 -0.17763568394E-14  0.00000000000E+00  0.71054273576E-14  0.91188000000E+02  0.91188000000E+02 0.  0.
    9900012    2    3    3    0    0  0.93407780056E+01  0.22694090710E+02 -0.27450098234E+02  0.54367085020E+02  0.40000001920E+02 0.  0.
        -12    1    3    3    0    0 -0.93407780056E+01 -0.22694090710E+02  0.27450098234E+02  0.36820914980E+02  0.00000000000E+00 0.  1.
         11    1    4    4    0    0  0.29116848379E+01  0.97010797942E+01 -0.16174817424E+01  0.10256953993E+02  0.51100000000E-03 0. -1.
        -11    1    4    4    0    0 -0.10662814097E+02  0.13672750567E+02 -0.70822670399E+01  0.18729608091E+02  0.51100000000E-03 0.  1.
         12    1    4    4    0    0  0.17091907265E+02 -0.67973965152E+00 -0.18750349452E+02  0.25380522936E+02  0.00000000000E+00 0. -1.
</event>
<event>
 8    1  0.2511738E-006  0.9118800E+02  0.7816164E-02  0.1184000E+00
        -11   -1    0    0    0    0  0.00000000000E+00  0.00000000000E+00  0.45593999997E+02  0.45594000000E+02  0.51100000000E-03 0. -1.
         11   -1    0    0    0    0 -0.00000000000E+00 -0.00000000000E+00 -0.45593999997E+02  0.45594000000E+02  0.51100000000E-03 0.  1.
         23    2    1    2    0    0 -0.17763568394E-14  0.00000000000E+00  0.00000000000E+00  0.91188000000E+02  0.91188000000E+02 0.  0.
    9900012    2    3    3    0    0 -0.94778067076E+01 -0.29294331468E+02  0.20193872015E+02  0.54367093668E+02  0.40000021636E+02 0.  0.
        -12    1    3    3    0    0  0.94778067076E+01  0.29294331468E+02 -0.20193872015E+02  0.36820906332E+02  0.00000000000E+00 0.  1.
         11    1    4    4    0    0 -0.95736844209E+01 -0.11136208438E+02 -0.66522737317E+01  0.16122137508E+02  0.51100000000E-03 0. -1.
        -11    1    4    4    0    0  0.16923819326E+01 -0.81547522975E+00  0.19086172963E+02  0.19178403351E+02  0.51100000000E-03 0.  1.
         12    1    4    4    0    0 -0.15965042193E+01 -0.17342647800E+02  0.77599727834E+01  0.19066552809E+02  0.00000000000E+00 0. -1.
</event>
<event>
 8    1  0.2511738E-006  0.9118800E+02  0.7816164E-02  0.1184000E+00
        -11   -1    0    0    0    0  0.00000000000E+00  0.00000000000E+00  0.45593999997E+02  0.45594000000E+02  0.51100000000E-03 0.  1.
         11   -1    0    0    0    0 -0.00000000000E+00 -0.00000000000E+00 -0.45593999997E+02  0.45594000000E+02  0.51100000000E-03 0. -1.
         23    2    1    2    0    0  0.00000000000E+00  0.00000000000E+00  0.00000000000E+00  0.91188000000E+02  0.91188000000E+02 0.  0.
    9900012    2    3    3    0    0 -0.53127365467E+01 -0.35885076184E+02 -0.63100912512E+01  0.54367066905E+02  0.39999960624E+02 0.  0.
        -12    1    3    3    0    0  0.53127365467E+01  0.35885076184E+02  0.63100912512E+01  0.36820933095E+02  0.00000000000E+00 0.  1.
         11    1    4    4    0    0  0.15120270837E+01 -0.30732468228E+02 -0.97493515580E+01  0.32277247178E+02  0.51100000000E-03 0. -1.
        -11    1    4    4    0    0 -0.19037298543E+01 -0.31304067242E+00  0.11395133724E+02  0.11557303088E+02  0.51100000000E-03 0.  1.
         12    1    4    4    0    0 -0.49210337761E+01 -0.48395672837E+01 -0.79558734175E+01  0.10532516639E+02  0.00000000000E+00 0. -1.
</event>
<event>
 8    1  0.2511738E-006  0.9118800E+02  0.7816164E-02  0.1184000E+00
        -11   -1    0    0    0    0  0.00000000000E+00  0.00000000000E+00  0.45593999997E+02  0.45594000000E+02  0.51100000000E-03 0.  1.
         11   -1    0    0    0    0 -0.00000000000E+00 -0.00000000000E+00 -0.45593999997E+02  0.45594000000E+02  0.51100000000E-03 0. -1.
         23    2    1    2    0    0  0.00000000000E+00  0.35527136788E-14  0.35527136788E-14  0.91188000000E+02  0.91188000000E+02 0.  0.
    9900012    2    3    3    0    0  0.19518600954E+02 -0.16231681955E+02 -0.26670893309E+02  0.54367084310E+02  0.40000000302E+02 0.  0.
        -12    1    3    3    0    0 -0.19518600954E+02  0.16231681955E+02  0.26670893309E+02  0.36820915690E+02  0.00000000000E+00 0.  1.
         11    1    4    4    0    0  0.11445993635E+02 -0.16174198956E+02 -0.92410000639E+01  0.21863475583E+02  0.51100000000E-03 0.  1.
        -11    1    4    4    0    0  0.72008945042E+01 -0.95239417184E+01 -0.19414521682E+02  0.22792147769E+02  0.51100000000E-03 0. -1.
         12    1    4    4    0    0  0.87171281531E+00  0.94664587185E+01  0.19846284369E+01  0.97114609577E+01  0.00000000000E+00 0. -1.
</event>
<event>
 8    1  0.2511738E-006  0.9118800E+02  0.7816164E-02  0.1184000E+00
        -11   -1    0    0    0    0  0.00000000000E+00  0.00000000000E+00  0.45593999997E+02  0.45594000000E+02  0.51100000000E-03 0.  1.
         11   -1    0    0    0    0 -0.00000000000E+00 -0.00000000000E+00 -0.45593999997E+02  0.45594000000E+02  0.51100000000E-03 0. -1.
         23    2    1    2    0    0  0.00000000000E+00  0.71054273576E-14 -0.71054273576E-14  0.91188000000E+02  0.91188000000E+02 0.  0.
    9900012    2    3    3    0    0  0.86027583278E+01 -0.27680714901E+02  0.22705720522E+02  0.54367093266E+02  0.40000020718E+02 0.  0.
         12    1    3    3    0    0 -0.86027583278E+01  0.27680714901E+02 -0.22705720522E+02  0.36820906734E+02  0.00000000000E+00 0. -1.
         11    1    4    4    0    0  0.10410209928E+02  0.11739495064E+01  0.20180011387E+01  0.10668784235E+02  0.51100000000E-03 0. -1.
        -11    1    4    4    0    0  0.63768445784E+01 -0.29228120372E+02  0.13586796275E+02  0.32856478822E+02  0.51100000000E-03 0.  1.
         12    1    4    4    0    0 -0.81842961789E+01  0.37345596457E+00  0.71009231081E+01  0.10841830209E+02  0.00000000000E+00 0. -1.
</event>
<event>
 8    1  0.2511738E-006  0.9118800E+02  0.7816164E-02  0.1184000E+00
        -11   -1    0    0    0    0  0.00000000000E+00  0.00000000000E+00  0.45593999997E+02  0.45594000000E+02  0.51100000000E-03 0.  1.
         11   -1    0    0    0    0 -0.00000000000E+00 -0.00000000000E+00 -0.45593999997E+02  0.45594000000E+02  0.51100000000E-03 0. -1.
         23    2    1    2    0    0  0.35527136788E-14  0.44408920985E-15  0.00000000000E+00  0.91188000000E+02  0.91188000000E+02 0.  0.
    9900012    2    3    3    0    0 -0.21880727941E+02  0.26875647219E+01  0.29492255594E+02  0.54367049450E+02  0.39999920832E+02 0.  0.
         12    1    3    3    0    0  0.21880727941E+02 -0.26875647219E+01 -0.29492255594E+02  0.36820950550E+02  0.00000000000E+00 0. -1.
         11    1    4    4    0    0 -0.25454397226E+02 -0.34345959843E+01  0.13375848295E+02  0.28959214519E+02  0.51100000000E-03 0. -1.
        -11    1    4    4    0    0  0.45416510369E+01  0.10844079145E+02  0.16835648813E+02  0.20534354576E+02  0.51100000000E-03 0.  1.
        -12    1    4    4    0    0 -0.96798175219E+00 -0.47219184386E+01 -0.71924151398E+00  0.48734803548E+01  0.00000000000E+00 0.  1.
</event>
<event>
 8    1  0.2511738E-006  0.9118800E+02  0.7816164E-02  0.1184000E+00
        -11   -1    0    0    0    0  0.00000000000E+00  0.00000000000E+00  0.45593999997E+02  0.45594000000E+02  0.51100000000E-03 0.  1.
         11   -1    0    0    0    0 -0.00000000000E+00 -0.00000000000E+00 -0.45593999997E+02  0.45594000000E+02  0.51100000000E-03 0. -1.
         23    2    1    2    0    0  0.00000000000E+00  0.00000000000E+00 -0.17763568394E-14  0.91188000000E+02  0.91188000000E+02 0.  0.
    9900012    2    3    3    0    0 -0.88013409104E+01  0.35301353305E+02  0.56683816873E+01  0.54367086134E+02  0.40000004460E+02 0.  0.
         12    1    3    3    0    0  0.88013409104E+01 -0.35301353305E+02 -0.56683816873E+01  0.36820913866E+02  0.00000000000E+00 0. -1.
         11    1    4    4    0    0  0.21030890675E+01  0.13570090177E+01 -0.67612987430E+01  0.72096891786E+01  0.51100000000E-03 0. -1.
        -11    1    4    4    0    0 -0.83363133876E+01  0.33523569136E+02  0.19468564727E+02  0.39652853886E+02  0.51100000000E-03 0.  1.
        -12    1    4    4    0    0 -0.25681165904E+01  0.42077515132E+00 -0.70388842966E+01  0.75045430701E+01  0.00000000000E+00 0.  1.
</event>
<event>
 8    1  0.2511738E-006  0.9118800E+02  0.7816164E-02  0.1184000E+00
        -11   -1    0    0    0    0  0.00000000000E+00  0.00000000000E+00  0.45593999997E+02  0.45594000000E+02  0.51100000000E-03 0. -1.
         11   -1    0    0    0    0 -0.00000000000E+00 -0.00000000000E+00 -0.45593999997E+02  0.45594000000E+02  0.51100000000E-03 0.  1.
         23    2    1    2    0    0  0.00000000000E+00  0.17763568394E-14 -0.35527136788E-14  0.91188000000E+02  0.91188000000E+02 0.  0.
    9900012    2    3    3    0    0  0.28494041415E+02 -0.11726203240E+02  0.20158284779E+02  0.54367208539E+02  0.40000283505E+02 0.  0.
         12    1    3    3    0    0 -0.28494041415E+02  0.11726203240E+02 -0.20158284779E+02  0.36820791461E+02  0.00000000000E+00 0. -1.
         11    1    4    4    0    0  0.13192265197E+01 -0.70262823681E+01  0.12075908628E+02  0.14033409136E+02  0.51100000000E-03 0. -1.
        -11    1    4    4    0    0  0.18843728950E+02  0.10760151862E+02  0.67333636853E+01  0.22720149111E+02  0.51100000000E-03 0.  1.
        -12    1    4    4    0    0  0.83310859455E+01 -0.15460072734E+02  0.13490124655E+01  0.17613650292E+02  0.00000000000E+00 0.  1.
</event>
<event>
 8    1  0.2511738E-006  0.9118800E+02  0.7816164E-02  0.1184000E+00
        -11   -1    0    0    0    0  0.00000000000E+00  0.00000000000E+00  0.45593999997E+02  0.45594000000E+02  0.51100000000E-03 0.  1.
         11   -1    0    0    0    0 -0.00000000000E+00 -0.00000000000E+00 -0.45593999997E+02  0.45594000000E+02  0.51100000000E-03 0. -1.
         23    2    1    2    0    0  0.00000000000E+00 -0.35527136788E-14  0.00000000000E+00  0.91188000000E+02  0.91188000000E+02 0.  0.
    9900012    2    3    3    0    0 -0.26393149863E+02 -0.16928558893E+02  0.19302872875E+02  0.54367144943E+02  0.40000138527E+02 0.  0.
         12    1    3    3    0    0  0.26393149863E+02  0.16928558893E+02 -0.19302872875E+02  0.36820855057E+02  0.00000000000E+00 0. -1.
         11    1    4    4    0    0 -0.55587277112E+01 -0.11644850616E+02 -0.70203002142E+01  0.14689677158E+02  0.51100000000E-03 0.  1.
        -11    1    4    4    0    0 -0.61406741694E+01 -0.53587738831E+01 -0.14298303779E+01  0.82745846998E+01  0.51100000000E-03 0. -1.
        -12    1    4    4    0    0 -0.14693747982E+02  0.75065606618E-01  0.27753003467E+02  0.31402883085E+02  0.00000000000E+00 0.  1.
</event>
<event>
 8    1  0.2511738E-006  0.9118800E+02  0.7816164E-02  0.1184000E+00
        -11   -1    0    0    0    0  0.00000000000E+00  0.00000000000E+00  0.45593999997E+02  0.45594000000E+02  0.51100000000E-03 0.  1.
         11   -1    0    0    0    0 -0.00000000000E+00 -0.00000000000E+00 -0.45593999997E+02  0.45594000000E+02  0.51100000000E-03 0. -1.
         23    2    1    2    0    0  0.00000000000E+00  0.00000000000E+00  0.44408920985E-15  0.91188000000E+02  0.91188000000E+02 0.  0.
    9900012    2    3    3    0    0 -0.25733408166E+02  0.26303485105E+02 -0.13030109172E+01  0.54367089339E+02  0.40000011766E+02 0.  0.
        -12    1    3    3    0    0  0.25733408166E+02 -0.26303485105E+02  0.13030109172E+01  0.36820910661E+02  0.00000000000E+00 0.  1.
         11    1    4    4    0    0 -0.29703583903E+02  0.17773353818E+02 -0.95263307761E+00  0.34628059614E+02  0.51100000000E-03 0. -1.
        -11    1    4    4    0    0  0.15590623540E+01  0.74343376485E+01  0.79683729734E+01  0.11008860967E+02  0.51100000000E-03 0.  1.
         12    1    4    4    0    0  0.24111133830E+01  0.10957936382E+01 -0.83187508130E+01  0.87301687573E+01  0.00000000000E+00 0. -1.
</event>
<event>
 8    1  0.2511738E-006  0.9118800E+02  0.7816164E-02  0.1184000E+00
        -11   -1    0    0    0    0  0.00000000000E+00  0.00000000000E+00  0.45593999997E+02  0.45594000000E+02  0.51100000000E-03 0. -1.
         11   -1    0    0    0    0 -0.00000000000E+00 -0.00000000000E+00 -0.45593999997E+02  0.45594000000E+02  0.51100000000E-03 0.  1.
         23    2    1    2    0    0  0.00000000000E+00  0.00000000000E+00  0.00000000000E+00  0.91188000000E+02  0.91188000000E+02 0.  0.
    9900012    2    3    3    0    0  0.23659230028E+02  0.99966512357E+00  0.28196019179E+02  0.54367163597E+02  0.40000181051E+02 0.  0.
        -12    1    3    3    0    0 -0.23659230028E+02 -0.99966512357E+00 -0.28196019179E+02  0.36820836403E+02  0.00000000000E+00 0.  1.
         11    1    4    4    0    0 -0.48244957279E+00 -0.43344702228E+01  0.21529158423E+02  0.21966452885E+02  0.51100000000E-03 0. -1.
        -11    1    4    4    0    0  0.89152003625E+01 -0.48840440166E+01 -0.42964016799E+01  0.11036020620E+02  0.51100000000E-03 0.  1.
         12    1    4    4    0    0  0.15226479238E+02  0.10218179363E+02  0.10963262436E+02  0.21364690092E+02  0.00000000000E+00 0. -1.
</event>
<event>
 8    1  0.2511738E-006  0.9118800E+02  0.7816164E-02  0.1184000E+00
        -11   -1    0    0    0    0  0.00000000000E+00  0.00000000000E+00  0.45593999997E+02  0.45594000000E+02  0.51100000000E-03 0. -1.
         11   -1    0    0    0    0 -0.00000000000E+00 -0.00000000000E+00 -0.45593999997E+02  0.45594000000E+02  0.51100000000E-03 0.  1.
         23    2    1    2    0    0  0.00000000000E+00  0.00000000000E+00  0.00000000000E+00  0.91188000000E+02  0.91188000000E+02 0.  0.
    9900012    2    3    3    0    0 -0.11250464688E+02  0.29227318862E+02  0.19364164056E+02  0.54367082396E+02  0.39999995939E+02 0.  0.
        -12    1    3    3    0    0  0.11250464688E+02 -0.29227318862E+02 -0.19364164056E+02  0.36820917604E+02  0.00000000000E+00 0.  1.
         11    1    4    4    0    0  0.19319872440E+01  0.35017321043E+01 -0.15769972317E+01  0.42990258165E+01  0.51100000000E-03 0. -1.
        -11    1    4    4    0    0  0.17418667077E+01  0.23004564305E+01 -0.88671694065E+01  0.93248535088E+01  0.51100000000E-03 0.  1.
         12    1    4    4    0    0 -0.14924318640E+02  0.23425130328E+02  0.29808330694E+02  0.40743203071E+02  0.00000000000E+00 0. -1.
</event>
<event>
 8    1  0.2511738E-006  0.9118800E+02  0.7816164E-02  0.1184000E+00
        -11   -1    0    0    0    0  0.00000000000E+00  0.00000000000E+00  0.45593999997E+02  0.45594000000E+02  0.51100000000E-03 0. -1.
         11   -1    0    0    0    0 -0.00000000000E+00 -0.00000000000E+00 -0.45593999997E+02  0.45594000000E+02  0.51100000000E-03 0.  1.
         23    2    1    2    0    0  0.71054273576E-14  0.00000000000E+00  0.00000000000E+00  0.91188000000E+02  0.91188000000E+02 0.  0.
    9900012    2    3    3    0    0 -0.35063023143E+02  0.53871015592E+01 -0.98662513367E+01  0.54367090579E+02  0.40000014593E+02 0.  0.
        -12    1    3    3    0    0  0.35063023143E+02 -0.53871015592E+01  0.98662513367E+01  0.36820909421E+02  0.00000000000E+00 0.  1.
         11    1    4    4    0    0 -0.18102066603E+02 -0.97071544768E+01 -0.41226244141E+01  0.20950171734E+02  0.51100000000E-03 0. -1.
        -11    1    4    4    0    0  0.42360983430E+01  0.10253504648E+02 -0.82484772700E+00  0.11124713964E+02  0.51100000000E-03 0.  1.
        -12    1    4    4    0    0 -0.21197054883E+02  0.48407513879E+01 -0.49187791956E+01  0.22292204881E+02  0.00000000000E+00 0.  1.
</event>
<event>
 8    1  0.2511738E-006  0.9118800E+02  0.7816164E-02  0.1184000E+00
        -11   -1    0    0    0    0  0.00000000000E+00  0.00000000000E+00  0.45593999997E+02  0.45594000000E+02  0.51100000000E-03 0.  1.
         11   -1    0    0    0    0 -0.00000000000E+00 -0.00000000000E+00 -0.45593999997E+02  0.45594000000E+02  0.51100000000E-03 0. -1.
         23    2    1    2    0    0 -0.10658141036E-13  0.35527136788E-14 -0.28865798640E-14  0.91188000000E+02  0.91188000000E+02 0.  0.
    9900012    2    3    3    0    0 -0.30454216510E+02  0.20629842094E+02 -0.16523709239E+01  0.54367081791E+02  0.39999994559E+02 0.  0.
        -12    1    3    3    0    0  0.30454216510E+02 -0.20629842094E+02  0.16523709239E+01  0.36820918209E+02  0.00000000000E+00 0.  1.
         11    1    4    4    0    0  0.16447709725E+01  0.16388272438E+01  0.94163835855E+01  0.96984177255E+01  0.51100000000E-03 0. -1.
        -11    1    4    4    0    0 -0.12250399063E+02 -0.33861391889E+01  0.18220313552E+00  0.12711074465E+02  0.51100000000E-03 0.  1.
         12    1    4    4    0    0 -0.19848588420E+02  0.22377154039E+02 -0.11250957645E+02  0.31957589601E+02  0.00000000000E+00 0. -1.
</event>
<event>
 8    1  0.2511738E-006  0.9118800E+02  0.7816164E-02  0.1184000E+00
        -11   -1    0    0    0    0  0.00000000000E+00  0.00000000000E+00  0.45593999997E+02  0.45594000000E+02  0.51100000000E-03 0.  1.
         11   -1    0    0    0    0 -0.00000000000E+00 -0.00000000000E+00 -0.45593999997E+02  0.45594000000E+02  0.51100000000E-03 0. -1.
         23    2    1    2    0    0 -0.71054273576E-14 -0.35527136788E-14  0.00000000000E+00  0.91188000000E+02  0.91188000000E+02 0.  0.
    9900012    2    3    3    0    0 -0.28662919343E+02 -0.20991699987E+02 -0.96729483450E+01  0.54367077370E+02  0.39999984480E+02 0.  0.
        -12    1    3    3    0    0  0.28662919343E+02  0.20991699987E+02  0.96729483450E+01  0.36820922630E+02  0.00000000000E+00 0.  1.
         11    1    4    4    0    0 -0.49816089067E+01  0.27283407395E+01 -0.24206414346E+00  0.56849684081E+01  0.51100000000E-03 0. -1.
        -11    1    4    4    0    0 -0.19993406908E+02 -0.19012978473E+02  0.92246547184E+01  0.29091647000E+02  0.51100000000E-03 0.  1.
         12    1    4    4    0    0 -0.36879035283E+01 -0.47070622533E+01 -0.18655538920E+02  0.19590461962E+02  0.00000000000E+00 0. -1.
</event>
<event>
 8    1  0.2511738E-006  0.9118800E+02  0.7816164E-02  0.1184000E+00
        -11   -1    0    0    0    0  0.00000000000E+00  0.00000000000E+00  0.45593999997E+02  0.45594000000E+02  0.51100000000E-03 0. -1.
         11   -1    0    0    0    0 -0.00000000000E+00 -0.00000000000E+00 -0.45593999997E+02  0.45594000000E+02  0.51100000000E-03 0.  1.
         23    2    1    2    0    0  0.44408920985E-15 -0.22204460493E-15  0.00000000000E+00  0.91188000000E+02  0.91188000000E+02 0.  0.
    9900012    2    3    3    0    0 -0.22748588711E+01 -0.11336116830E+01 -0.36733097541E+02  0.54367075062E+02  0.39999979220E+02 0.  0.
         12    1    3    3    0    0  0.22748588711E+01  0.11336116830E+01  0.36733097541E+02  0.36820924938E+02  0.00000000000E+00 0. -1.
         11    1    4    4    0    0 -0.36768650414E+01 -0.94144284074E+00  0.44322955863E+00  0.38212699274E+01  0.51100000000E-03 0. -1.
        -11    1    4    4    0    0 -0.11077911164E+02 -0.70352639030E+00 -0.36373603989E+02  0.38029648073E+02  0.51100000000E-03 0.  1.
        -12    1    4    4    0    0  0.12479917334E+02  0.51135754808E+00 -0.80272311029E+00  0.12516157062E+02  0.00000000000E+00 0.  1.
</event>
<event>
 8    1  0.2511738E-006  0.9118800E+02  0.7816164E-02  0.1184000E+00
        -11   -1    0    0    0    0  0.00000000000E+00  0.00000000000E+00  0.45593999997E+02  0.45594000000E+02  0.51100000000E-03 0. -1.
         11   -1    0    0    0    0 -0.00000000000E+00 -0.00000000000E+00 -0.45593999997E+02  0.45594000000E+02  0.51100000000E-03 0.  1.
         23    2    1    2    0    0  0.00000000000E+00  0.00000000000E+00  0.00000000000E+00  0.91188000000E+02  0.91188000000E+02 0.  0.
    9900012    2    3    3    0    0 -0.84295649532E+01  0.32046914781E+02  0.16053604298E+02  0.54367074926E+02  0.39999978910E+02 0.  0.
        -12    1    3    3    0    0  0.84295649532E+01 -0.32046914781E+02 -0.16053604298E+02  0.36820925074E+02  0.00000000000E+00 0.  1.
         11    1    4    4    0    0 -0.30033918438E+01  0.53408823350E+01 -0.21193766493E+00  0.61310932564E+01  0.51100000000E-03 0. -1.
        -11    1    4    4    0    0 -0.14405986384E+01 -0.90636736875E+01  0.13481613894E+01  0.92759390114E+01  0.51100000000E-03 0.  1.
         12    1    4    4    0    0 -0.39855744710E+01  0.35769706134E+02  0.14917380574E+02  0.38960042659E+02  0.00000000000E+00 0. -1.
</event>
<event>
 8    1  0.2511738E-006  0.9118800E+02  0.7816164E-02  0.1184000E+00
        -11   -1    0    0    0    0  0.00000000000E+00  0.00000000000E+00  0.45593999997E+02  0.45594000000E+02  0.51100000000E-03 0. -1.
         11   -1    0    0    0    0 -0.00000000000E+00 -0.00000000000E+00 -0.45593999997E+02  0.45594000000E+02  0.51100000000E-03 0.  1.
         23    2    1    2    0    0 -0.17763568394E-14  0.00000000000E+00  0.00000000000E+00  0.91188000000E+02  0.91188000000E+02 0.  0.
    9900012    2    3    3    0    0 -0.24794849738E+01 -0.35000997858E+02  0.11160758525E+02  0.54367078941E+02  0.39999988061E+02 0.  0.
        -12    1    3    3    0    0  0.24794849738E+01  0.35000997858E+02 -0.11160758525E+02  0.36820921059E+02  0.00000000000E+00 0.  1.
         11    1    4    4    0    0  0.61589072692E+01 -0.33605199524E+01  0.13721007356E+01  0.71489785138E+01  0.51100000000E-03 0. -1.
        -11    1    4    4    0    0 -0.17765156894E+02 -0.59482658805E+01  0.61112205313E+01  0.19706082389E+02  0.51100000000E-03 0.  1.
         12    1    4    4    0    0  0.91267646514E+01 -0.25692212025E+02  0.36774372585E+01  0.27512018038E+02  0.00000000000E+00 0. -1.
</event>
<event>
 8    1  0.2511738E-006  0.9118800E+02  0.7816164E-02  0.1184000E+00
        -11   -1    0    0    0    0  0.00000000000E+00  0.00000000000E+00  0.45593999997E+02  0.45594000000E+02  0.51100000000E-03 0. -1.
         11   -1    0    0    0    0 -0.00000000000E+00 -0.00000000000E+00 -0.45593999997E+02  0.45594000000E+02  0.51100000000E-03 0.  1.
         23    2    1    2    0    0  0.00000000000E+00 -0.88817841970E-15  0.00000000000E+00  0.91188000000E+02  0.91188000000E+02 0.  0.
    9900012    2    3    3    0    0  0.31737367240E+02  0.40108164501E+01 -0.18232687652E+02  0.54367108825E+02  0.40000056189E+02 0.  0.
         12    1    3    3    0    0 -0.31737367240E+02 -0.40108164501E+01  0.18232687652E+02  0.36820891175E+02  0.00000000000E+00 0. -1.
         11    1    4    4    0    0  0.26376381659E+02 -0.10944845957E+02 -0.15220357116E+02  0.32359889268E+02  0.51100000000E-03 0. -1.
        -11    1    4    4    0    0  0.81837212250E+01  0.10301285732E+02  0.34072897687E+01  0.13590415912E+02  0.51100000000E-03 0.  1.
         12    1    4    4    0    0 -0.28227356445E+01  0.46543766752E+01 -0.64196203041E+01  0.84168036452E+01  0.00000000000E+00 0. -1.
</event>
<event>
 8    1  0.2511738E-006  0.9118800E+02  0.7816164E-02  0.1184000E+00
        -11   -1    0    0    0    0  0.00000000000E+00  0.00000000000E+00  0.45593999997E+02  0.45594000000E+02  0.51100000000E-03 0. -1.
         11   -1    0    0    0    0 -0.00000000000E+00 -0.00000000000E+00 -0.45593999997E+02  0.45594000000E+02  0.51100000000E-03 0.  1.
         23    2    1    2    0    0  0.00000000000E+00  0.33306690739E-15  0.00000000000E+00  0.91188000000E+02  0.91188000000E+02 0.  0.
    9900012    2    3    3    0    0 -0.30676129835E+02  0.68325649880E+00 -0.20354023078E+02  0.54367108694E+02  0.40000055891E+02 0.  0.
         12    1    3    3    0    0  0.30676129835E+02 -0.68325649880E+00  0.20354023078E+02  0.36820891306E+02  0.00000000000E+00 0. -1.
         11    1    4    4    0    0  0.38504525338E+01  0.26911722766E+01 -0.44268604482E+00  0.47185129154E+01  0.51100000000E-03 0. -1.
        -11    1    4    4    0    0 -0.24614356698E+02 -0.62712566355E+01 -0.26738367969E+02  0.36880015419E+02  0.51100000000E-03 0.  1.
        -12    1    4    4    0    0 -0.99122256705E+01  0.42633408577E+01  0.68270309354E+01  0.12768580360E+02  0.00000000000E+00 0.  1.
</event>
<event>
 8    1  0.2511738E-006  0.9118800E+02  0.7816164E-02  0.1184000E+00
        -11   -1    0    0    0    0  0.00000000000E+00  0.00000000000E+00  0.45593999997E+02  0.45594000000E+02  0.51100000000E-03 0.  1.
         11   -1    0    0    0    0 -0.00000000000E+00 -0.00000000000E+00 -0.45593999997E+02  0.45594000000E+02  0.51100000000E-03 0. -1.
         23    2    1    2    0    0 -0.88817841970E-15  0.00000000000E+00  0.00000000000E+00  0.91188000000E+02  0.91188000000E+02 0.  0.
    9900012    2    3    3    0    0 -0.49460047535E+01  0.19101680795E+02 -0.31087653156E+02  0.54367090845E+02  0.40000015200E+02 0.  0.
        -12    1    3    3    0    0  0.49460047535E+01 -0.19101680795E+02  0.31087653156E+02  0.36820909155E+02  0.00000000000E+00 0.  1.
         11    1    4    4    0    0  0.10221974883E+02  0.14687229222E+02 -0.11963646228E+02  0.21525155146E+02  0.51100000000E-03 0. -1.
        -11    1    4    4    0    0 -0.20945234839E+01  0.11378523208E+02 -0.59093061731E+01  0.12991447908E+02  0.51100000000E-03 0.  1.
         12    1    4    4    0    0 -0.13073456153E+02 -0.69640716352E+01 -0.13214700755E+02  0.19850487791E+02  0.00000000000E+00 0. -1.
</event>
<event>
 8    1  0.2511738E-006  0.9118800E+02  0.7816164E-02  0.1184000E+00
        -11   -1    0    0    0    0  0.00000000000E+00  0.00000000000E+00  0.45593999997E+02  0.45594000000E+02  0.51100000000E-03 0.  1.
         11   -1    0    0    0    0 -0.00000000000E+00 -0.00000000000E+00 -0.45593999997E+02  0.45594000000E+02  0.51100000000E-03 0. -1.
         23    2    1    2    0    0  0.35527136788E-14  0.17763568394E-14  0.00000000000E+00  0.91188000000E+02  0.91188000000E+02 0.  0.
    9900012    2    3    3    0    0  0.28784428766E+02 -0.11551083569E+02 -0.19844629722E+02  0.54367079319E+02  0.39999988923E+02 0.  0.
        -12    1    3    3    0    0 -0.28784428766E+02  0.11551083569E+02  0.19844629722E+02  0.36820920681E+02  0.00000000000E+00 0.  1.
         11    1    4    4    0    0  0.22804845375E+02 -0.48392133040E+01 -0.10462647764E+02  0.25552807213E+02  0.51100000000E-03 0. -1.
        -11    1    4    4    0    0 -0.85892061406E+01 -0.50240802559E+01 -0.10036833582E+02  0.14133431047E+02  0.51100000000E-03 0.  1.
        -12    1    4    4    0    0  0.14568789532E+02 -0.16877900088E+01  0.65485162355E+00  0.14680841058E+02  0.00000000000E+00 0.  1.
</event>
<event>
 8    1  0.2511738E-006  0.9118800E+02  0.7816164E-02  0.1184000E+00
        -11   -1    0    0    0    0  0.00000000000E+00  0.00000000000E+00  0.45593999997E+02  0.45594000000E+02  0.51100000000E-03 0.  1.
         11   -1    0    0    0    0 -0.00000000000E+00 -0.00000000000E+00 -0.45593999997E+02  0.45594000000E+02  0.51100000000E-03 0. -1.
         23    2    1    2    0    0  0.35527136788E-14 -0.35527136788E-14 -0.17763568394E-14  0.91188000000E+02  0.91188000000E+02 0.  0.
    9900012    2    3    3    0    0 -0.27332635732E+02  0.21765212432E+02  0.11618195055E+02  0.54367083327E+02  0.39999998061E+02 0.  0.
         12    1    3    3    0    0  0.27332635732E+02 -0.21765212432E+02 -0.11618195055E+02  0.36820916673E+02  0.00000000000E+00 0. -1.
         11    1    4    4    0    0  0.83236521750E+00  0.12739933609E+02  0.11214094269E+02  0.16992782313E+02  0.51100000000E-03 0. -1.
        -11    1    4    4    0    0  0.33790212247E+01  0.36140001413E+01  0.19838880496E+01  0.53305340739E+01  0.51100000000E-03 0.  1.
         12    1    4    4    0    0 -0.31544022174E+02  0.54112786822E+01 -0.15797872628E+01  0.32043766940E+02  0.00000000000E+00 0. -1.
</event>
<event>
 8    1  0.2511738E-006  0.9118800E+02  0.7816164E-02  0.1184000E+00
        -11   -1    0    0    0    0  0.00000000000E+00  0.00000000000E+00  0.45593999997E+02  0.45594000000E+02  0.51100000000E-03 0. -1.
         11   -1    0    0    0    0 -0.00000000000E+00 -0.00000000000E+00 -0.45593999997E+02  0.45594000000E+02  0.51100000000E-03 0.  1.
         23    2    1    2    0    0 -0.71054273576E-14  0.00000000000E+00 -0.88817841970E-15  0.91188000000E+02  0.91188000000E+02 0.  0.
    9900012    2    3    3    0    0 -0.33582441291E+02  0.13927811539E+02 -0.58321315512E+01  0.54367108433E+02  0.40000055295E+02 0.  0.
         12    1    3    3    0    0  0.33582441291E+02 -0.13927811539E+02  0.58321315512E+01  0.36820891567E+02  0.00000000000E+00 0. -1.
         11    1    4    4    0    0  0.38719480110E+01  0.14193592666E+01 -0.13050723262E+01  0.43254798769E+01  0.51100000000E-03 0. -1.
        -11    1    4    4    0    0 -0.84077312911E+01  0.18275271518E+02 -0.34365208685E+01  0.20407968308E+02  0.51100000000E-03 0.  1.
         12    1    4    4    0    0 -0.29046658011E+02 -0.57668192452E+01 -0.10905383566E+01  0.29633660248E+02  0.00000000000E+00 0. -1.
</event>
<event>
 8    1  0.2511738E-006  0.9118800E+02  0.7816164E-02  0.1184000E+00
        -11   -1    0    0    0    0  0.00000000000E+00  0.00000000000E+00  0.45593999997E+02  0.45594000000E+02  0.51100000000E-03 0. -1.
         11   -1    0    0    0    0 -0.00000000000E+00 -0.00000000000E+00 -0.45593999997E+02  0.45594000000E+02  0.51100000000E-03 0.  1.
         23    2    1    2    0    0  0.17763568394E-14  0.00000000000E+00 -0.35527136788E-14  0.91188000000E+02  0.91188000000E+02 0.  0.
    9900012    2    3    3    0    0 -0.11439580279E+02  0.20626089582E+02  0.28275079626E+02  0.54367086157E+02  0.40000004512E+02 0.  0.
         12    1    3    3    0    0  0.11439580279E+02 -0.20626089582E+02 -0.28275079626E+02  0.36820913843E+02  0.00000000000E+00 0. -1.
         11    1    4    4    0    0  0.26262620475E+00 -0.73881127773E+01 -0.64485479086E+00  0.74208504160E+01  0.51100000000E-03 0. -1.
        -11    1    4    4    0    0 -0.73939508028E+00 -0.18531538491E+01 -0.18240426896E+01  0.27033342871E+01  0.51100000000E-03 0.  1.
        -12    1    4    4    0    0 -0.10962811403E+02  0.29867356209E+02  0.30743977106E+02  0.44242901454E+02  0.00000000000E+00 0.  1.
</event>
<event>
 8    1  0.2511738E-006  0.9118800E+02  0.7816164E-02  0.1184000E+00
        -11   -1    0    0    0    0  0.00000000000E+00  0.00000000000E+00  0.45593999997E+02  0.45594000000E+02  0.51100000000E-03 0.  1.
         11   -1    0    0    0    0 -0.00000000000E+00 -0.00000000000E+00 -0.45593999997E+02  0.45594000000E+02  0.51100000000E-03 0. -1.
         23    2    1    2    0    0  0.00000000000E+00  0.88817841970E-15  0.00000000000E+00  0.91188000000E+02  0.91188000000E+02 0.  0.
    9900012    2    3    3    0    0  0.35049380588E+02  0.60099124358E+01 -0.95499472234E+01  0.54367087205E+02  0.40000006901E+02 0.  0.
        -12    1    3    3    0    0 -0.35049380588E+02 -0.60099124358E+01  0.95499472234E+01  0.36820912795E+02  0.00000000000E+00 0.  1.
         11    1    4    4    0    0  0.33690177023E+02 -0.24919056773E+01  0.65643834185E+00  0.33788585844E+02  0.51100000000E-03 0.  1.
        -11    1    4    4    0    0  0.38269702676E+01  0.12527680220E+02 -0.81541855405E+01  0.15429815787E+02  0.51100000000E-03 0. -1.
        -12    1    4    4    0    0 -0.24677667026E+01 -0.40258621068E+01 -0.20522000248E+01  0.51486855743E+01  0.00000000000E+00 0.  1.
</event>
<event>
 8    1  0.2511738E-006  0.9118800E+02  0.7816164E-02  0.1184000E+00
        -11   -1    0    0    0    0  0.00000000000E+00  0.00000000000E+00  0.45593999997E+02  0.45594000000E+02  0.51100000000E-03 0.  1.
         11   -1    0    0    0    0 -0.00000000000E+00 -0.00000000000E+00 -0.45593999997E+02  0.45594000000E+02  0.51100000000E-03 0. -1.
         23    2    1    2    0    0  0.00000000000E+00  0.35527136788E-14  0.00000000000E+00  0.91188000000E+02  0.91188000000E+02 0.  0.
    9900012    2    3    3    0    0 -0.20656051873E+02 -0.22482548698E+02 -0.20582589824E+02  0.54367075530E+02  0.39999980287E+02 0.  0.
        -12    1    3    3    0    0  0.20656051873E+02  0.22482548698E+02  0.20582589824E+02  0.36820924470E+02  0.00000000000E+00 0.  1.
         11    1    4    4    0    0 -0.20909426186E+02 -0.27476717527E+02 -0.10950615423E+02  0.36222784099E+02  0.51100000000E-03 0. -1.
        -11    1    4    4    0    0 -0.39277552305E+01  0.30651654893E+01  0.22011711026E+01  0.54468022831E+01  0.51100000000E-03 0.  1.
         12    1    4    4    0    0  0.41811295432E+01  0.19290033405E+01 -0.11833145504E+02  0.12697489148E+02  0.00000000000E+00 0. -1.
</event>
<event>
 8    1  0.2511738E-006  0.9118800E+02  0.7816164E-02  0.1184000E+00
        -11   -1    0    0    0    0  0.00000000000E+00  0.00000000000E+00  0.45593999997E+02  0.45594000000E+02  0.51100000000E-03 0.  1.
         11   -1    0    0    0    0 -0.00000000000E+00 -0.00000000000E+00 -0.45593999997E+02  0.45594000000E+02  0.51100000000E-03 0. -1.
         23    2    1    2    0    0  0.00000000000E+00  0.00000000000E+00  0.00000000000E+00  0.91188000000E+02  0.91188000000E+02 0.  0.
    9900012    2    3    3    0    0  0.26710123442E+02  0.41980419469E+01 -0.24994491784E+02  0.54367097377E+02  0.40000030090E+02 0.  0.
        -12    1    3    3    0    0 -0.26710123442E+02 -0.41980419469E+01  0.24994491784E+02  0.36820902623E+02  0.00000000000E+00 0.  1.
         11    1    4    4    0    0  0.15251937122E+02  0.14285434720E+02 -0.13376799072E+02  0.24811972610E+02  0.51100000000E-03 0. -1.
        -11    1    4    4    0    0  0.92777064791E+01 -0.68598438543E+01 -0.18408992308E+02  0.21726120069E+02  0.51100000000E-03 0.  1.
        -12    1    4    4    0    0  0.21804798403E+01 -0.32275489187E+01  0.67912995956E+01  0.78290046975E+01  0.00000000000E+00 0.  1.
</event>
<event>
 8    1  0.2511738E-006  0.9118800E+02  0.7816164E-02  0.1184000E+00
        -11   -1    0    0    0    0  0.00000000000E+00  0.00000000000E+00  0.45593999997E+02  0.45594000000E+02  0.51100000000E-03 0. -1.
         11   -1    0    0    0    0 -0.00000000000E+00 -0.00000000000E+00 -0.45593999997E+02  0.45594000000E+02  0.51100000000E-03 0.  1.
         23    2    1    2    0    0  0.00000000000E+00 -0.35527136788E-14  0.00000000000E+00  0.91188000000E+02  0.91188000000E+02 0.  0.
    9900012    2    3    3    0    0  0.18660549616E+02 -0.21664176469E+02 -0.23199722691E+02  0.54367084924E+02  0.40000001702E+02 0.  0.
         12    1    3    3    0    0 -0.18660549616E+02  0.21664176469E+02  0.23199722691E+02  0.36820915076E+02  0.00000000000E+00 0. -1.
         11    1    4    4    0    0  0.11109674251E+02  0.99708012694E+01 -0.37049071832E+01  0.15380769728E+02  0.51100000000E-03 0. -1.
        -11    1    4    4    0    0  0.91941235990E+01 -0.20053141230E+02 -0.13023404661E+02  0.25617756560E+02  0.51100000000E-03 0.  1.
         12    1    4    4    0    0 -0.16432482343E+01 -0.11581836509E+02 -0.64714108473E+01  0.13368558637E+02  0.00000000000E+00 0. -1.
</event>
<event>
 8    1  0.2511738E-006  0.9118800E+02  0.7816164E-02  0.1184000E+00
        -11   -1    0    0    0    0  0.00000000000E+00  0.00000000000E+00  0.45593999997E+02  0.45594000000E+02  0.51100000000E-03 0.  1.
         11   -1    0    0    0    0 -0.00000000000E+00 -0.00000000000E+00 -0.45593999997E+02  0.45594000000E+02  0.51100000000E-03 0. -1.
         23    2    1    2    0    0 -0.71054273576E-14  0.17763568394E-14 -0.17763568394E-14  0.91188000000E+02  0.91188000000E+02 0.  0.
    9900012    2    3    3    0    0 -0.33774539225E+02 -0.43293858878E+01  0.14011274358E+02  0.54367097089E+02  0.40000029434E+02 0.  0.
         12    1    3    3    0    0  0.33774539225E+02  0.43293858878E+01 -0.14011274358E+02  0.36820902911E+02  0.00000000000E+00 0. -1.
         11    1    4    4    0    0  0.41614806069E+01  0.41498043069E+01  0.11144697561E+01  0.59817087630E+01  0.51100000000E-03 0. -1.
        -11    1    4    4    0    0 -0.21194535503E+02 -0.10808321653E+02  0.18966139171E+02  0.30426018265E+02  0.51100000000E-03 0.  1.
         12    1    4    4    0    0 -0.16741484329E+02  0.23291314581E+01 -0.60693345695E+01  0.17959370061E+02  0.00000000000E+00 0. -1.
</event>
<event>
 8    1  0.2511738E-006  0.9118800E+02  0.7816164E-02  0.1184000E+00
        -11   -1    0    0    0    0  0.00000000000E+00  0.00000000000E+00  0.45593999997E+02  0.45594000000E+02  0.51100000000E-03 0.  1.
         11   -1    0    0    0    0 -0.00000000000E+00 -0.00000000000E+00 -0.45593999997E+02  0.45594000000E+02  0.51100000000E-03 0. -1.
         23    2    1    2    0    0  0.00000000000E+00  0.88817841970E-15  0.00000000000E+00  0.91188000000E+02  0.91188000000E+02 0.  0.
    9900012    2    3    3    0    0 -0.19175719222E+02  0.52160267738E+01  0.30997818921E+02  0.54367083107E+02  0.39999997559E+02 0.  0.
         12    1    3    3    0    0  0.19175719222E+02 -0.52160267738E+01 -0.30997818921E+02  0.36820916893E+02  0.00000000000E+00 0. -1.
         11    1    4    4    0    0  0.35198042906E+01 -0.12906654089E+02  0.10031128095E+02  0.16721072727E+02  0.51100000000E-03 0. -1.
        -11    1    4    4    0    0 -0.16932531892E+02  0.14918436771E+02  0.21316401550E+02  0.31042863387E+02  0.51100000000E-03 0.  1.
         12    1    4    4    0    0 -0.57629916207E+01  0.32042440920E+01 -0.34971072438E+00  0.66031469931E+01  0.00000000000E+00 0. -1.
</event>
<event>
 8    1  0.2511738E-006  0.9118800E+02  0.7816164E-02  0.1184000E+00
        -11   -1    0    0    0    0  0.00000000000E+00  0.00000000000E+00  0.45593999997E+02  0.45594000000E+02  0.51100000000E-03 0. -1.
         11   -1    0    0    0    0 -0.00000000000E+00 -0.00000000000E+00 -0.45593999997E+02  0.45594000000E+02  0.51100000000E-03 0.  1.
         23    2    1    2    0    0  0.00000000000E+00  0.88817841970E-15  0.00000000000E+00  0.91188000000E+02  0.91188000000E+02 0.  0.
    9900012    2    3    3    0    0  0.36296413939E+02  0.45850443348E+01 -0.41625450403E+01  0.54367094558E+02  0.40000023663E+02 0.  0.
        -12    1    3    3    0    0 -0.36296413939E+02 -0.45850443348E+01  0.41625450403E+01  0.36820905442E+02  0.00000000000E+00 0.  1.
         11    1    4    4    0    0  0.88684436958E+01  0.84762814742E+01 -0.11940296656E+02  0.17119209261E+02  0.51100000000E-03 0. -1.
        -11    1    4    4    0    0  0.20520797657E+02 -0.17325172861E+01 -0.62009028070E+01  0.21507113905E+02  0.51100000000E-03 0.  1.
         12    1    4    4    0    0  0.69071725859E+01 -0.21587198533E+01  0.13978654423E+02  0.15740771392E+02  0.00000000000E+00 0. -1.
</event>
<event>
 8    1  0.2511738E-006  0.9118800E+02  0.7816164E-02  0.1184000E+00
        -11   -1    0    0    0    0  0.00000000000E+00  0.00000000000E+00  0.45593999997E+02  0.45594000000E+02  0.51100000000E-03 0. -1.
         11   -1    0    0    0    0 -0.00000000000E+00 -0.00000000000E+00 -0.45593999997E+02  0.45594000000E+02  0.51100000000E-03 0.  1.
         23    2    1    2    0    0  0.00000000000E+00 -0.17763568394E-14  0.00000000000E+00  0.91188000000E+02  0.91188000000E+02 0.  0.
    9900012    2    3    3    0    0  0.33466147526E+02 -0.14303705663E+02 -0.55851380981E+01  0.54367179891E+02  0.40000218196E+02 0.  0.
         12    1    3    3    0    0 -0.33466147526E+02  0.14303705663E+02  0.55851380981E+01  0.36820820109E+02  0.00000000000E+00 0. -1.
         11    1    4    4    0    0  0.53714576071E+01  0.34714990283E+01 -0.43708501437E+00  0.64105308594E+01  0.51100000000E-03 0. -1.
        -11    1    4    4    0    0  0.30699250221E+02 -0.16134861339E+01 -0.68581512723E+01  0.31497325931E+02  0.51100000000E-03 0.  1.
         12    1    4    4    0    0 -0.26045603022E+01 -0.16161718558E+02  0.17100981886E+01  0.16459323100E+02  0.00000000000E+00 0. -1.
</event>
<event>
 8    1  0.2511738E-006  0.9118800E+02  0.7816164E-02  0.1184000E+00
        -11   -1    0    0    0    0  0.00000000000E+00  0.00000000000E+00  0.45593999997E+02  0.45594000000E+02  0.51100000000E-03 0.  1.
         11   -1    0    0    0    0 -0.00000000000E+00 -0.00000000000E+00 -0.45593999997E+02  0.45594000000E+02  0.51100000000E-03 0. -1.
         23    2    1    2    0    0  0.00000000000E+00  0.00000000000E+00  0.00000000000E+00  0.91188000000E+02  0.91188000000E+02 0.  0.
    9900012    2    3    3    0    0 -0.80678433857E+01  0.22392370481E+02 -0.28093939674E+02  0.54367111919E+02  0.40000063242E+02 0.  0.
        -12    1    3    3    0    0  0.80678433857E+01 -0.22392370481E+02  0.28093939674E+02  0.36820888081E+02  0.00000000000E+00 0.  1.
         11    1    4    4    0    0  0.30573111097E+01  0.21340284516E+02 -0.19861733130E+02  0.29312852772E+02  0.51100000000E-03 0. -1.
        -11    1    4    4    0    0 -0.13590245266E+02  0.83394430560E+01 -0.50076817382E+01  0.16712808068E+02  0.51100000000E-03 0.  1.
         12    1    4    4    0    0  0.24650907706E+01 -0.72873570912E+01 -0.32245248062E+01  0.83414510793E+01  0.00000000000E+00 0. -1.
</event>
<event>
 8    1  0.2511738E-006  0.9118800E+02  0.7816164E-02  0.1184000E+00
        -11   -1    0    0    0    0  0.00000000000E+00  0.00000000000E+00  0.45593999997E+02  0.45594000000E+02  0.51100000000E-03 0. -1.
         11   -1    0    0    0    0 -0.00000000000E+00 -0.00000000000E+00 -0.45593999997E+02  0.45594000000E+02  0.51100000000E-03 0.  1.
         23    2    1    2    0    0  0.22204460493E-15  0.00000000000E+00  0.00000000000E+00  0.91188000000E+02  0.91188000000E+02 0.  0.
    9900012    2    3    3    0    0 -0.17516356791E+01  0.19134868902E+02  0.31409660516E+02  0.54367106350E+02  0.40000050546E+02 0.  0.
        -12    1    3    3    0    0  0.17516356791E+01 -0.19134868902E+02 -0.31409660516E+02  0.36820893650E+02  0.00000000000E+00 0.  1.
         11    1    4    4    0    0  0.11392954235E+02  0.10313641612E+02  0.31587729518E+01  0.15689119042E+02  0.51100000000E-03 0. -1.
        -11    1    4    4    0    0 -0.87664816681E+01  0.36124413255E+01 -0.14045628431E+00  0.94826505470E+01  0.51100000000E-03 0.  1.
         12    1    4    4    0    0 -0.43781082457E+01  0.52087859645E+01  0.28391343849E+02  0.29195336761E+02  0.00000000000E+00 0. -1.
</event>
<event>
 8    1  0.2511738E-006  0.9118800E+02  0.7816164E-02  0.1184000E+00
        -11   -1    0    0    0    0  0.00000000000E+00  0.00000000000E+00  0.45593999997E+02  0.45594000000E+02  0.51100000000E-03 0. -1.
         11   -1    0    0    0    0 -0.00000000000E+00 -0.00000000000E+00 -0.45593999997E+02  0.45594000000E+02  0.51100000000E-03 0.  1.
         23    2    1    2    0    0  0.00000000000E+00 -0.71054273576E-14  0.17763568394E-14  0.91188000000E+02  0.91188000000E+02 0.  0.
    9900012    2    3    3    0    0 -0.28222013644E+01  0.33717828649E+02 -0.14523199598E+02  0.54367080459E+02  0.39999991521E+02 0.  0.
        -12    1    3    3    0    0  0.28222013644E+01 -0.33717828649E+02  0.14523199598E+02  0.36820919541E+02  0.00000000000E+00 0.  1.
         11    1    4    4    0    0 -0.48577758046E+01  0.25244657330E+02 -0.64756079585E+01  0.26510831903E+02  0.51100000000E-03 0. -1.
        -11    1    4    4    0    0 -0.33363300936E+01  0.12561023451E+02  0.43790733362E+01  0.13714470174E+02  0.51100000000E-03 0.  1.
        -12    1    4    4    0    0  0.53719045338E+01 -0.40878521322E+01 -0.12426664975E+02  0.14141778381E+02  0.00000000000E+00 0.  1.
</event>
<event>
 8    1  0.2511738E-006  0.9118800E+02  0.7816164E-02  0.1184000E+00
        -11   -1    0    0    0    0  0.00000000000E+00  0.00000000000E+00  0.45593999997E+02  0.45594000000E+02  0.51100000000E-03 0.  1.
         11   -1    0    0    0    0 -0.00000000000E+00 -0.00000000000E+00 -0.45593999997E+02  0.45594000000E+02  0.51100000000E-03 0. -1.
         23    2    1    2    0    0  0.00000000000E+00  0.00000000000E+00  0.00000000000E+00  0.91188000000E+02  0.91188000000E+02 0.  0.
    9900012    2    3    3    0    0 -0.23812504098E+02 -0.22089494472E+02 -0.17343553946E+02  0.54367082291E+02  0.39999995698E+02 0.  0.
        -12    1    3    3    0    0  0.23812504098E+02  0.22089494472E+02  0.17343553946E+02  0.36820917709E+02  0.00000000000E+00 0.  1.
         11    1    4    4    0    0 -0.22878773456E+01 -0.13390475297E+02 -0.12436655832E+02  0.18417644257E+02  0.51100000000E-03 0. -1.
        -11    1    4    4    0    0 -0.20482913034E+02 -0.17380475963E+02 -0.34159586537E+01  0.27079502301E+02  0.51100000000E-03 0.  1.
         12    1    4    4    0    0 -0.10417137183E+01  0.86814567880E+01 -0.14909394603E+01  0.88699357329E+01  0.00000000000E+00 0. -1.
</event>
<event>
 8    1  0.2511738E-006  0.9118800E+02  0.7816164E-02  0.1184000E+00
        -11   -1    0    0    0    0  0.00000000000E+00  0.00000000000E+00  0.45593999997E+02  0.45594000000E+02  0.51100000000E-03 0.  1.
         11   -1    0    0    0    0 -0.00000000000E+00 -0.00000000000E+00 -0.45593999997E+02  0.45594000000E+02  0.51100000000E-03 0. -1.
         23    2    1    2    0    0  0.00000000000E+00  0.00000000000E+00  0.00000000000E+00  0.91188000000E+02  0.91188000000E+02 0.  0.
    9900012    2    3    3    0    0  0.18892831722E+02 -0.19046987610E+02  0.25220102103E+02  0.54367076905E+02  0.39999983421E+02 0.  0.
         12    1    3    3    0    0 -0.18892831722E+02  0.19046987610E+02 -0.25220102103E+02  0.36820923095E+02  0.00000000000E+00 0. -1.
         11    1    4    4    0    0  0.16928606984E+02 -0.29928451851E+02  0.19070897894E+02  0.39319068038E+02  0.51100000000E-03 0. -1.
        -11    1    4    4    0    0  0.26761733287E+01  0.61621855665E+01  0.75185148957E+01  0.10082782411E+02  0.51100000000E-03 0.  1.
         12    1    4    4    0    0 -0.71194859105E+00  0.47192786747E+01 -0.13693106869E+01  0.49652264564E+01  0.00000000000E+00 0. -1.
</event>
<event>
 8    1  0.2511738E-006  0.9118800E+02  0.7816164E-02  0.1184000E+00
        -11   -1    0    0    0    0  0.00000000000E+00  0.00000000000E+00  0.45593999997E+02  0.45594000000E+02  0.51100000000E-03 0.  1.
         11   -1    0    0    0    0 -0.00000000000E+00 -0.00000000000E+00 -0.45593999997E+02  0.45594000000E+02  0.51100000000E-03 0. -1.
         23    2    1    2    0    0  0.00000000000E+00  0.00000000000E+00  0.71054273576E-14  0.91188000000E+02  0.91188000000E+02 0.  0.
    9900012    2    3    3    0    0 -0.14559703144E+02  0.45614393066E+01  0.33510995980E+02  0.54367101915E+02  0.40000040437E+02 0.  0.
         12    1    3    3    0    0  0.14559703144E+02 -0.45614393066E+01 -0.33510995980E+02  0.36820898085E+02  0.00000000000E+00 0. -1.
         11    1    4    4    0    0  0.54322552786E+01 -0.66933583678E+01 -0.86271928962E+00  0.86634132122E+01  0.51100000000E-03 0. -1.
        -11    1    4    4    0    0 -0.11027904711E+02 -0.43538950974E+01  0.10750584892E+02  0.16004566867E+02  0.51100000000E-03 0.  1.
        -12    1    4    4    0    0 -0.89640537114E+01  0.15608692772E+02  0.23623130378E+02  0.29699121836E+02  0.00000000000E+00 0.  1.
</event>
<event>
 8    1  0.2511738E-006  0.9118800E+02  0.7816164E-02  0.1184000E+00
        -11   -1    0    0    0    0  0.00000000000E+00  0.00000000000E+00  0.45593999997E+02  0.45594000000E+02  0.51100000000E-03 0.  1.
         11   -1    0    0    0    0 -0.00000000000E+00 -0.00000000000E+00 -0.45593999997E+02  0.45594000000E+02  0.51100000000E-03 0. -1.
         23    2    1    2    0    0  0.71054273576E-14 -0.26645352591E-14 -0.17763568394E-14  0.91188000000E+02  0.91188000000E+02 0.  0.
    9900012    2    3    3    0    0  0.32849607660E+02 -0.65043694690E+01  0.15308889737E+02  0.54367276887E+02  0.40000439316E+02 0.  0.
         12    1    3    3    0    0 -0.32849607660E+02  0.65043694690E+01 -0.15308889737E+02  0.36820723113E+02  0.00000000000E+00 0. -1.
         11    1    4    4    0    0  0.73147601643E+01  0.90539834038E+01 -0.77586950909E+01  0.13988483889E+02  0.51100000000E-03 0. -1.
        -11    1    4    4    0    0  0.11623256964E+02 -0.38269176244E+01  0.17489220031E+02  0.21345215354E+02  0.51100000000E-03 0.  1.
         12    1    4    4    0    0  0.13911590531E+02 -0.11731435248E+02  0.55783647973E+01  0.19033577643E+02  0.00000000000E+00 0. -1.
</event>
<event>
 8    1  0.2511738E-006  0.9118800E+02  0.7816164E-02  0.1184000E+00
        -11   -1    0    0    0    0  0.00000000000E+00  0.00000000000E+00  0.45593999997E+02  0.45594000000E+02  0.51100000000E-03 0. -1.
         11   -1    0    0    0    0 -0.00000000000E+00 -0.00000000000E+00 -0.45593999997E+02  0.45594000000E+02  0.51100000000E-03 0.  1.
         23    2    1    2    0    0  0.00000000000E+00  0.17763568394E-14 -0.17763568394E-14  0.91188000000E+02  0.91188000000E+02 0.  0.
    9900012    2    3    3    0    0 -0.34966807217E+02  0.93789463153E+01  0.67183278738E+01  0.54367106878E+02  0.40000051749E+02 0.  0.
        -12    1    3    3    0    0  0.34966807217E+02 -0.93789463153E+01 -0.67183278738E+01  0.36820893122E+02  0.00000000000E+00 0.  1.
         11    1    4    4    0    0 -0.84996041714E+01 -0.72879133362E+01 -0.49435215727E+01  0.12239091374E+02  0.51100000000E-03 0. -1.
        -11    1    4    4    0    0 -0.21131249382E+02  0.10582590072E+02 -0.44959490559E+01  0.24056900699E+02  0.51100000000E-03 0.  1.
        -12    1    4    4    0    0 -0.53359536630E+01  0.60842695797E+01  0.16157798502E+02  0.18071114804E+02  0.00000000000E+00 0.  1.
</event>
<event>
 8    1  0.2511738E-006  0.9118800E+02  0.7816164E-02  0.1184000E+00
        -11   -1    0    0    0    0  0.00000000000E+00  0.00000000000E+00  0.45593999997E+02  0.45594000000E+02  0.51100000000E-03 0. -1.
         11   -1    0    0    0    0 -0.00000000000E+00 -0.00000000000E+00 -0.45593999997E+02  0.45594000000E+02  0.51100000000E-03 0.  1.
         23    2    1    2    0    0 -0.35527136788E-14  0.22204460493E-15 -0.35527136788E-14  0.91188000000E+02  0.91188000000E+02 0.  0.
    9900012    2    3    3    0    0  0.30845113538E+02 -0.11339542953E+01  0.20076784693E+02  0.54367025473E+02  0.39999866170E+02 0.  0.
        -12    1    3    3    0    0 -0.30845113538E+02  0.11339542953E+01 -0.20076784693E+02  0.36820974527E+02  0.00000000000E+00 0.  1.
         11    1    4    4    0    0  0.34187185815E+02 -0.79102991248E+01  0.26095727851E+02  0.43730121411E+02  0.51100000000E-03 0. -1.
        -11    1    4    4    0    0 -0.43549498764E+00  0.55067093480E+01 -0.31433337733E+01  0.63556314556E+01  0.51100000000E-03 0.  1.
         12    1    4    4    0    0 -0.29065772894E+01  0.12696354815E+01 -0.28756093852E+01  0.42812726066E+01  0.00000000000E+00 0. -1.
</event>
<event>
 8    1  0.2511738E-006  0.9118800E+02  0.7816164E-02  0.1184000E+00
        -11   -1    0    0    0    0  0.00000000000E+00  0.00000000000E+00  0.45593999997E+02  0.45594000000E+02  0.51100000000E-03 0.  1.
         11   -1    0    0    0    0 -0.00000000000E+00 -0.00000000000E+00 -0.45593999997E+02  0.45594000000E+02  0.51100000000E-03 0. -1.
         23    2    1    2    0    0  0.00000000000E+00  0.00000000000E+00 -0.88817841970E-15  0.91188000000E+02  0.91188000000E+02 0.  0.
    9900012    2    3    3    0    0  0.20910299371E+02  0.29960126168E+02 -0.45749442582E+01  0.54367083461E+02  0.39999998367E+02 0.  0.
        -12    1    3    3    0    0 -0.20910299371E+02 -0.29960126168E+02  0.45749442582E+01  0.36820916539E+02  0.00000000000E+00 0.  1.
         11    1    4    4    0    0  0.12342659347E+02  0.54462844509E+01 -0.16564942824E+02  0.21363534003E+02  0.51100000000E-03 0. -1.
        -11    1    4    4    0    0  0.80996900125E+00  0.17124625458E+02  0.29950417618E+00  0.17146385913E+02  0.51100000000E-03 0.  1.
         12    1    4    4    0    0  0.77576710224E+01  0.73892162595E+01  0.11690494390E+02  0.15857163545E+02  0.00000000000E+00 0. -1.
</event>
<event>
 8    1  0.2511738E-006  0.9118800E+02  0.7816164E-02  0.1184000E+00
        -11   -1    0    0    0    0  0.00000000000E+00  0.00000000000E+00  0.45593999997E+02  0.45594000000E+02  0.51100000000E-03 0.  1.
         11   -1    0    0    0    0 -0.00000000000E+00 -0.00000000000E+00 -0.45593999997E+02  0.45594000000E+02  0.51100000000E-03 0. -1.
         23    2    1    2    0    0  0.71054273576E-14  0.22204460493E-15  0.17763568394E-14  0.91188000000E+02  0.91188000000E+02 0.  0.
    9900012    2    3    3    0    0 -0.36627513102E+02 -0.89304291928E+00  0.36623352347E+01  0.54367014936E+02  0.39999842150E+02 0.  0.
        -12    1    3    3    0    0  0.36627513102E+02  0.89304291928E+00 -0.36623352347E+01  0.36820985064E+02  0.00000000000E+00 0.  1.
         11    1    4    4    0    0 -0.53139312240E+01 -0.58604726342E+01 -0.13507903853E+02  0.15653960244E+02  0.51100000000E-03 0. -1.
        -11    1    4    4    0    0 -0.15829379761E+02  0.28908413755E+01  0.16542373564E+02  0.23077615797E+02  0.51100000000E-03 0.  1.
        -12    1    4    4    0    0 -0.15484202117E+02  0.20765883395E+01  0.62786552336E+00  0.15635438895E+02  0.00000000000E+00 0.  1.
</event>
<event>
 8    1  0.2511738E-006  0.9118800E+02  0.7816164E-02  0.1184000E+00
        -11   -1    0    0    0    0  0.00000000000E+00  0.00000000000E+00  0.45593999997E+02  0.45594000000E+02  0.51100000000E-03 0. -1.
         11   -1    0    0    0    0 -0.00000000000E+00 -0.00000000000E+00 -0.45593999997E+02  0.45594000000E+02  0.51100000000E-03 0.  1.
         23    2    1    2    0    0  0.35527136788E-14  0.00000000000E+00  0.00000000000E+00  0.91188000000E+02  0.91188000000E+02 0.  0.
    9900012    2    3    3    0    0  0.28024885116E+02 -0.86140443196E+01 -0.22275193139E+02  0.54367079660E+02  0.39999989701E+02 0.  0.
         12    1    3    3    0    0 -0.28024885116E+02  0.86140443196E+01  0.22275193139E+02  0.36820920340E+02  0.00000000000E+00 0. -1.
         11    1    4    4    0    0  0.10561007261E+02 -0.11530925139E+02 -0.15783399995E+02  0.22217399141E+02  0.51100000000E-03 0. -1.
        -11    1    4    4    0    0 -0.47229525694E+01  0.45686561997E+01 -0.73828769766E+01  0.98836113419E+01  0.51100000000E-03 0.  1.
         12    1    4    4    0    0  0.22186830425E+02 -0.16517753804E+01  0.89108383253E+00  0.22266069177E+02  0.00000000000E+00 0. -1.
</event>
<event>
 8    1  0.2511738E-006  0.9118800E+02  0.7816164E-02  0.1184000E+00
        -11   -1    0    0    0    0  0.00000000000E+00  0.00000000000E+00  0.45593999997E+02  0.45594000000E+02  0.51100000000E-03 0.  1.
         11   -1    0    0    0    0 -0.00000000000E+00 -0.00000000000E+00 -0.45593999997E+02  0.45594000000E+02  0.51100000000E-03 0. -1.
         23    2    1    2    0    0 -0.17763568394E-14  0.35527136788E-14  0.35527136788E-14  0.91188000000E+02  0.91188000000E+02 0.  0.
    9900012    2    3    3    0    0 -0.15154254724E+02  0.12074452968E+02 -0.31310308851E+02  0.54367091659E+02  0.40000017056E+02 0.  0.
        -12    1    3    3    0    0  0.15154254724E+02 -0.12074452968E+02  0.31310308851E+02  0.36820908341E+02  0.00000000000E+00 0.  1.
         11    1    4    4    0    0 -0.78366343848E+01 -0.41108837073E+01 -0.30254120632E+00  0.88545883461E+01  0.51100000000E-03 0. -1.
        -11    1    4    4    0    0 -0.95671978727E+00  0.26418718935E+01  0.54345707878E+01  0.61179538869E+01  0.51100000000E-03 0.  1.
         12    1    4    4    0    0 -0.63609005519E+01  0.13543464781E+02 -0.36442338432E+02  0.39394549426E+02  0.00000000000E+00 0. -1.
</event>
<event>
 8    1  0.2511738E-006  0.9118800E+02  0.7816164E-02  0.1184000E+00
        -11   -1    0    0    0    0  0.00000000000E+00  0.00000000000E+00  0.45593999997E+02  0.45594000000E+02  0.51100000000E-03 0.  1.
         11   -1    0    0    0    0 -0.00000000000E+00 -0.00000000000E+00 -0.45593999997E+02  0.45594000000E+02  0.51100000000E-03 0. -1.
         23    2    1    2    0    0  0.00000000000E+00  0.00000000000E+00 -0.35527136788E-14  0.91188000000E+02  0.91188000000E+02 0.  0.
    9900012    2    3    3    0    0 -0.26087419185E+02  0.23721821117E+02 -0.10606694017E+02  0.54367079386E+02  0.39999989077E+02 0.  0.
        -12    1    3    3    0    0  0.26087419185E+02 -0.23721821117E+02  0.10606694017E+02  0.36820920614E+02  0.00000000000E+00 0.  1.
         11    1    4    4    0    0 -0.52669932947E+01 -0.63782972188E+01  0.81998560544E+01  0.11647383112E+02  0.51100000000E-03 0. -1.
        -11    1    4    4    0    0 -0.89818271935E-02  0.78782387431E+01 -0.31529020839E+01  0.84857243756E+01  0.51100000000E-03 0.  1.
         12    1    4    4    0    0 -0.20811444063E+02  0.22221879593E+02 -0.15653647988E+02  0.34233971899E+02  0.00000000000E+00 0. -1.
</event>
<event>
 8    1  0.2511738E-006  0.9118800E+02  0.7816164E-02  0.1184000E+00
        -11   -1    0    0    0    0  0.00000000000E+00  0.00000000000E+00  0.45593999997E+02  0.45594000000E+02  0.51100000000E-03 0.  1.
         11   -1    0    0    0    0 -0.00000000000E+00 -0.00000000000E+00 -0.45593999997E+02  0.45594000000E+02  0.51100000000E-03 0. -1.
         23    2    1    2    0    0  0.00000000000E+00  0.35527136788E-14  0.00000000000E+00  0.91188000000E+02  0.91188000000E+02 0.  0.
    9900012    2    3    3    0    0 -0.15091931737E+02 -0.21970258243E+02  0.25402950893E+02  0.54367237313E+02  0.40000349101E+02 0.  0.
         12    1    3    3    0    0  0.15091931737E+02  0.21970258243E+02 -0.25402950893E+02  0.36820762687E+02  0.00000000000E+00 0. -1.
         11    1    4    4    0    0  0.15363578246E+01  0.43252767958E+01 -0.54091572685E+01  0.70941805264E+01  0.51100000000E-03 0. -1.
        -11    1    4    4    0    0  0.18524927182E+01 -0.51393285974E+01  0.12762961192E+02  0.13882997024E+02  0.51100000000E-03 0.  1.
         12    1    4    4    0    0 -0.18480782279E+02 -0.21156206442E+02  0.18049146969E+02  0.33390059763E+02  0.00000000000E+00 0. -1.
</event>
<event>
 8    1  0.2511738E-006  0.9118800E+02  0.7816164E-02  0.1184000E+00
        -11   -1    0    0    0    0  0.00000000000E+00  0.00000000000E+00  0.45593999997E+02  0.45594000000E+02  0.51100000000E-03 0.  1.
         11   -1    0    0    0    0 -0.00000000000E+00 -0.00000000000E+00 -0.45593999997E+02  0.45594000000E+02  0.51100000000E-03 0. -1.
         23    2    1    2    0    0 -0.71054273576E-14  0.00000000000E+00  0.00000000000E+00  0.91188000000E+02  0.91188000000E+02 0.  0.
    9900012    2    3    3    0    0  0.33332474857E+02 -0.15112246654E+02  0.40430537663E+01  0.54367079822E+02  0.39999990070E+02 0.  0.
         12    1    3    3    0    0 -0.33332474857E+02  0.15112246654E+02 -0.40430537663E+01  0.36820920178E+02  0.00000000000E+00 0. -1.
         11    1    4    4    0    0 -0.51396733062E+01 -0.83906727761E+01  0.50967121797E-01  0.98398287200E+01  0.51100000000E-03 0. -1.
        -11    1    4    4    0    0  0.77738717642E+01  0.57979667384E+01 -0.38918675084E+01  0.10449695377E+02  0.51100000000E-03 0.  1.
        -12    1    4    4    0    0  0.30698276399E+02 -0.12519540616E+02  0.78839541529E+01  0.34077555725E+02  0.00000000000E+00 0.  1.
</event>
<event>
 8    1  0.2511738E-006  0.9118800E+02  0.7816164E-02  0.1184000E+00
        -11   -1    0    0    0    0  0.00000000000E+00  0.00000000000E+00  0.45593999997E+02  0.45594000000E+02  0.51100000000E-03 0. -1.
         11   -1    0    0    0    0 -0.00000000000E+00 -0.00000000000E+00 -0.45593999997E+02  0.45594000000E+02  0.51100000000E-03 0.  1.
         23    2    1    2    0    0  0.35527136788E-14  0.00000000000E+00  0.00000000000E+00  0.91188000000E+02  0.91188000000E+02 0.  0.
    9900012    2    3    3    0    0  0.29818061581E+02 -0.16244298088E+02  0.14240275808E+02  0.54367089204E+02  0.40000011457E+02 0.  0.
         12    1    3    3    0    0 -0.29818061581E+02  0.16244298088E+02 -0.14240275808E+02  0.36820910796E+02  0.00000000000E+00 0. -1.
         11    1    4    4    0    0  0.47758387746E+01 -0.26404399942E+01 -0.93631647985E+01  0.10837408116E+02  0.51100000000E-03 0.  1.
        -11    1    4    4    0    0  0.16030036090E+02 -0.33933483432E+01  0.12323163917E+00  0.16385727214E+02  0.51100000000E-03 0. -1.
         12    1    4    4    0    0  0.90121867159E+01 -0.10210509751E+02  0.23480208967E+02  0.27143953874E+02  0.00000000000E+00 0. -1.
</event>
<event>
 8    1  0.2511738E-006  0.9118800E+02  0.7816164E-02  0.1184000E+00
        -11   -1    0    0    0    0  0.00000000000E+00  0.00000000000E+00  0.45593999997E+02  0.45594000000E+02  0.51100000000E-03 0. -1.
         11   -1    0    0    0    0 -0.00000000000E+00 -0.00000000000E+00 -0.45593999997E+02  0.45594000000E+02  0.51100000000E-03 0.  1.
         23    2    1    2    0    0  0.00000000000E+00  0.00000000000E+00 -0.88817841970E-15  0.91188000000E+02  0.91188000000E+02 0.  0.
    9900012    2    3    3    0    0  0.34611617279E+02 -0.10400010865E+02  0.70466420789E+01  0.54367089620E+02  0.40000012407E+02 0.  0.
         12    1    3    3    0    0 -0.34611617279E+02  0.10400010865E+02 -0.70466420789E+01  0.36820910380E+02  0.00000000000E+00 0. -1.
         11    1    4    4    0    0  0.81603898450E+01 -0.43995764261E+01  0.14855345534E+01  0.93890919860E+01  0.51100000000E-03 0. -1.
        -11    1    4    4    0    0  0.18841253373E+02 -0.87716625946E+00  0.20241245291E+02  0.27667133218E+02  0.51100000000E-03 0.  1.
        -12    1    4    4    0    0  0.76099740608E+01 -0.51232681791E+01 -0.14680137765E+02  0.17310864416E+02  0.00000000000E+00 0.  1.
</event>
<event>
 8    1  0.2511738E-006  0.9118800E+02  0.7816164E-02  0.1184000E+00
        -11   -1    0    0    0    0  0.00000000000E+00  0.00000000000E+00  0.45593999997E+02  0.45594000000E+02  0.51100000000E-03 0.  1.
         11   -1    0    0    0    0 -0.00000000000E+00 -0.00000000000E+00 -0.45593999997E+02  0.45594000000E+02  0.51100000000E-03 0. -1.
         23    2    1    2    0    0  0.00000000000E+00  0.00000000000E+00  0.00000000000E+00  0.91188000000E+02  0.91188000000E+02 0.  0.
    9900012    2    3    3    0    0  0.19314412013E+02 -0.53477176391E+01 -0.30889079094E+02  0.54367084712E+02  0.40000001218E+02 0.  0.
        -12    1    3    3    0    0 -0.19314412013E+02  0.53477176391E+01  0.30889079094E+02  0.36820915288E+02  0.00000000000E+00 0.  1.
         11    1    4    4    0    0  0.81004868447E+00 -0.44129610312E+00 -0.29448529063E+02  0.29462973125E+02  0.51100000000E-03 0. -1.
        -11    1    4    4    0    0  0.41004552782E+01 -0.38286382339E+01  0.63661276445E+01  0.84852687443E+01  0.51100000000E-03 0.  1.
         12    1    4    4    0    0  0.14403908050E+02 -0.10777833021E+01 -0.78066776763E+01  0.16418842843E+02  0.00000000000E+00 0. -1.
</event>
<event>
 8    1  0.2511738E-006  0.9118800E+02  0.7816164E-02  0.1184000E+00
        -11   -1    0    0    0    0  0.00000000000E+00  0.00000000000E+00  0.45593999997E+02  0.45594000000E+02  0.51100000000E-03 0.  1.
         11   -1    0    0    0    0 -0.00000000000E+00 -0.00000000000E+00 -0.45593999997E+02  0.45594000000E+02  0.51100000000E-03 0. -1.
         23    2    1    2    0    0  0.00000000000E+00 -0.35527136788E-14  0.00000000000E+00  0.91188000000E+02  0.91188000000E+02 0.  0.
    9900012    2    3    3    0    0 -0.14736844426E+02 -0.30072654394E+02  0.15304949283E+02  0.54367073905E+02  0.39999976581E+02 0.  0.
        -12    1    3    3    0    0  0.14736844426E+02  0.30072654394E+02 -0.15304949283E+02  0.36820926095E+02  0.00000000000E+00 0.  1.
         11    1    4    4    0    0  0.32164599469E+01 -0.22623678921E+01  0.14216663249E+00  0.39349885237E+01  0.51100000000E-03 0. -1.
        -11    1    4    4    0    0 -0.14159793270E+02  0.45163040676E+01  0.87847232138E+01  0.17264649145E+02  0.51100000000E-03 0.  1.
        -12    1    4    4    0    0 -0.37935111025E+01 -0.32326590570E+02  0.63780594367E+01  0.33167436237E+02  0.00000000000E+00 0.  1.
</event>
<event>
 8    1  0.2511738E-006  0.9118800E+02  0.7816164E-02  0.1184000E+00
        -11   -1    0    0    0    0  0.00000000000E+00  0.00000000000E+00  0.45593999997E+02  0.45594000000E+02  0.51100000000E-03 0.  1.
         11   -1    0    0    0    0 -0.00000000000E+00 -0.00000000000E+00 -0.45593999997E+02  0.45594000000E+02  0.51100000000E-03 0. -1.
         23    2    1    2    0    0  0.00000000000E+00  0.00000000000E+00  0.00000000000E+00  0.91188000000E+02  0.91188000000E+02 0.  0.
    9900012    2    3    3    0    0  0.17710978618E+02  0.23391661756E+02  0.22247055879E+02  0.54367080694E+02  0.39999992057E+02 0.  0.
         12    1    3    3    0    0 -0.17710978618E+02 -0.23391661756E+02 -0.22247055879E+02  0.36820919306E+02  0.00000000000E+00 0. -1.
         11    1    4    4    0    0 -0.38050475929E+01 -0.33029473584E+01 -0.35514008036E+00  0.50511358302E+01  0.51100000000E-03 0. -1.
        -11    1    4    4    0    0  0.80181780110E+01 -0.41624003474E+01  0.96831581132E+01  0.13243122992E+02  0.51100000000E-03 0.  1.
        -12    1    4    4    0    0  0.13497848200E+02  0.30857009461E+02  0.12919037846E+02  0.36072821872E+02  0.00000000000E+00 0.  1.
</event>
<event>
 8    1  0.2511738E-006  0.9118800E+02  0.7816164E-02  0.1184000E+00
        -11   -1    0    0    0    0  0.00000000000E+00  0.00000000000E+00  0.45593999997E+02  0.45594000000E+02  0.51100000000E-03 0. -1.
         11   -1    0    0    0    0 -0.00000000000E+00 -0.00000000000E+00 -0.45593999997E+02  0.45594000000E+02  0.51100000000E-03 0.  1.
         23    2    1    2    0    0  0.17763568394E-14 -0.35527136788E-14 -0.17763568394E-14  0.91188000000E+02  0.91188000000E+02 0.  0.
    9900012    2    3    3    0    0  0.14059700794E+02 -0.31509241306E+02 -0.12855824081E+02  0.54367086284E+02  0.40000004801E+02 0.  0.
         12    1    3    3    0    0 -0.14059700794E+02  0.31509241306E+02  0.12855824081E+02  0.36820913716E+02  0.00000000000E+00 0. -1.
         11    1    4    4    0    0 -0.22007280584E+01  0.52847282155E+01 -0.55603351167E+01  0.79805315092E+01  0.51100000000E-03 0. -1.
        -11    1    4    4    0    0  0.11975627195E+02 -0.17792650115E+02 -0.14198133238E+02  0.25721217555E+02  0.51100000000E-03 0.  1.
        -12    1    4    4    0    0  0.42848016582E+01 -0.19001319406E+02  0.69026442733E+01  0.20665337220E+02  0.00000000000E+00 0.  1.
</event>
<event>
 8    1  0.2511738E-006  0.9118800E+02  0.7816164E-02  0.1184000E+00
        -11   -1    0    0    0    0  0.00000000000E+00  0.00000000000E+00  0.45593999997E+02  0.45594000000E+02  0.51100000000E-03 0.  1.
         11   -1    0    0    0    0 -0.00000000000E+00 -0.00000000000E+00 -0.45593999997E+02  0.45594000000E+02  0.51100000000E-03 0. -1.
         23    2    1    2    0    0  0.00000000000E+00  0.00000000000E+00  0.11657341759E-14  0.91188000000E+02  0.91188000000E+02 0.  0.
    9900012    2    3    3    0    0 -0.32485414729E+02  0.17327360254E+02  0.49072708628E+00  0.54367076647E+02  0.39999982833E+02 0.  0.
        -12    1    3    3    0    0  0.32485414729E+02 -0.17327360254E+02 -0.49072708628E+00  0.36820923353E+02  0.00000000000E+00 0.  1.
         11    1    4    4    0    0 -0.24469961184E+02  0.81981712681E+01 -0.82491091526E+01  0.27093113785E+02  0.51100000000E-03 0. -1.
        -11    1    4    4    0    0  0.46430053180E+01  0.10633719791E+02 -0.36477808590E+00  0.11608899961E+02  0.51100000000E-03 0.  1.
        -12    1    4    4    0    0 -0.12658458862E+02 -0.15045308054E+01  0.91046143248E+01  0.15665062902E+02  0.00000000000E+00 0.  1.
</event>
<event>
 8    1  0.2511738E-006  0.9118800E+02  0.7816164E-02  0.1184000E+00
        -11   -1    0    0    0    0  0.00000000000E+00  0.00000000000E+00  0.45593999997E+02  0.45594000000E+02  0.51100000000E-03 0.  1.
         11   -1    0    0    0    0 -0.00000000000E+00 -0.00000000000E+00 -0.45593999997E+02  0.45594000000E+02  0.51100000000E-03 0. -1.
         23    2    1    2    0    0 -0.88817841970E-15 -0.44408920985E-15  0.00000000000E+00  0.91188000000E+02  0.91188000000E+02 0.  0.
    9900012    2    3    3    0    0 -0.61180484274E+01 -0.36242270122E+01  0.36127753829E+02  0.54367080202E+02  0.39999990937E+02 0.  0.
         12    1    3    3    0    0  0.61180484274E+01  0.36242270122E+01 -0.36127753829E+02  0.36820919798E+02  0.00000000000E+00 0. -1.
         11    1    4    4    0    0 -0.12632443234E+02  0.24379529661E+01  0.37919227461E+01  0.13412714680E+02  0.51100000000E-03 0. -1.
        -11    1    4    4    0    0 -0.53827435803E+01 -0.10954291080E+02  0.14289081984E+02  0.18792240040E+02  0.51100000000E-03 0.  1.
         12    1    4    4    0    0  0.11897138387E+02  0.48921111017E+01  0.18046749099E+02  0.22162125482E+02  0.00000000000E+00 0. -1.
</event>
<event>
 8    1  0.2511738E-006  0.9118800E+02  0.7816164E-02  0.1184000E+00
        -11   -1    0    0    0    0  0.00000000000E+00  0.00000000000E+00  0.45593999997E+02  0.45594000000E+02  0.51100000000E-03 0.  1.
         11   -1    0    0    0    0 -0.00000000000E+00 -0.00000000000E+00 -0.45593999997E+02  0.45594000000E+02  0.51100000000E-03 0. -1.
         23    2    1    2    0    0  0.00000000000E+00  0.00000000000E+00  0.71054273576E-14  0.91188000000E+02  0.91188000000E+02 0.  0.
    9900012    2    3    3    0    0 -0.16322573085E+02 -0.19551423631E+01  0.32947404644E+02  0.54367075969E+02  0.39999981286E+02 0.  0.
         12    1    3    3    0    0  0.16322573085E+02  0.19551423631E+01 -0.32947404644E+02  0.36820924031E+02  0.00000000000E+00 0. -1.
         11    1    4    4    0    0  0.35734426304E+01  0.10058490761E+01 -0.15957967966E+01  0.40407662978E+01  0.51100000000E-03 0. -1.
        -11    1    4    4    0    0 -0.77702108084E+00  0.21293342072E+01 -0.53423003736E+01  0.58032748917E+01  0.51100000000E-03 0.  1.
        -12    1    4    4    0    0 -0.19118994634E+02 -0.50903256464E+01  0.39885501814E+02  0.44523034779E+02  0.00000000000E+00 0.  1.
</event>
<event>
 8    1  0.2511738E-006  0.9118800E+02  0.7816164E-02  0.1184000E+00
        -11   -1    0    0    0    0  0.00000000000E+00  0.00000000000E+00  0.45593999997E+02  0.45594000000E+02  0.51100000000E-03 0.  1.
         11   -1    0    0    0    0 -0.00000000000E+00 -0.00000000000E+00 -0.45593999997E+02  0.45594000000E+02  0.51100000000E-03 0. -1.
         23    2    1    2    0    0  0.35527136788E-14  0.00000000000E+00  0.00000000000E+00  0.91188000000E+02  0.91188000000E+02 0.  0.
    9900012    2    3    3    0    0 -0.29047355734E+02 -0.22567803482E+02 -0.16514792648E+01  0.54367054699E+02  0.39999932796E+02 0.  0.
        -12    1    3    3    0    0  0.29047355734E+02  0.22567803482E+02  0.16514792648E+01  0.36820945301E+02  0.00000000000E+00 0.  1.
         11    1    4    4    0    0  0.79573131921E+01 -0.46780931493E+01 -0.80239128345E+01  0.12230558703E+02  0.51100000000E-03 0. -1.
        -11    1    4    4    0    0 -0.12923942847E+02 -0.29576989570E+01  0.30816472657E+01  0.13611496316E+02  0.51100000000E-03 0.  1.
         12    1    4    4    0    0 -0.24080726079E+02 -0.14932011375E+02  0.32907863040E+01  0.28524999679E+02  0.00000000000E+00 0. -1.
</event>
<event>
 8    1  0.2511738E-006  0.9118800E+02  0.7816164E-02  0.1184000E+00
        -11   -1    0    0    0    0  0.00000000000E+00  0.00000000000E+00  0.45593999997E+02  0.45594000000E+02  0.51100000000E-03 0. -1.
         11   -1    0    0    0    0 -0.00000000000E+00 -0.00000000000E+00 -0.45593999997E+02  0.45594000000E+02  0.51100000000E-03 0.  1.
         23    2    1    2    0    0  0.17763568394E-14  0.00000000000E+00 -0.35527136788E-14  0.91188000000E+02  0.91188000000E+02 0.  0.
    9900012    2    3    3    0    0  0.23676265796E+01  0.18334378081E+02  0.31843769130E+02  0.54367072423E+02  0.39999973202E+02 0.  0.
        -12    1    3    3    0    0 -0.23676265796E+01 -0.18334378081E+02 -0.31843769130E+02  0.36820927577E+02  0.00000000000E+00 0.  1.
         11    1    4    4    0    0 -0.13176271864E+02  0.30578013625E+01  0.79893615446E+01  0.15709684515E+02  0.51100000000E-03 0. -1.
        -11    1    4    4    0    0  0.16340713996E+02  0.15118239313E+01  0.10628716067E+02  0.19551832421E+02  0.51100000000E-03 0.  1.
        -12    1    4    4    0    0 -0.79681555239E+00  0.13764752788E+02  0.13225691518E+02  0.19105555487E+02  0.00000000000E+00 0.  1.
</event>
<event>
 8    1  0.2511738E-006  0.9118800E+02  0.7816164E-02  0.1184000E+00
        -11   -1    0    0    0    0  0.00000000000E+00  0.00000000000E+00  0.45593999997E+02  0.45594000000E+02  0.51100000000E-03 0.  1.
         11   -1    0    0    0    0 -0.00000000000E+00 -0.00000000000E+00 -0.45593999997E+02  0.45594000000E+02  0.51100000000E-03 0. -1.
         23    2    1    2    0    0  0.35527136788E-14  0.00000000000E+00 -0.35527136788E-14  0.91188000000E+02  0.91188000000E+02 0.  0.
    9900012    2    3    3    0    0 -0.16470260861E+02  0.18377954248E+02  0.27326848688E+02  0.54367145116E+02  0.40000138920E+02 0.  0.
         12    1    3    3    0    0  0.16470260861E+02 -0.18377954248E+02 -0.27326848688E+02  0.36820854884E+02  0.00000000000E+00 0. -1.
         11    1    4    4    0    0 -0.57113872822E+01 -0.12097909422E+02  0.96873732810E+01  0.16517401685E+02  0.51100000000E-03 0. -1.
        -11    1    4    4    0    0  0.36004853894E+00  0.87862163135E+01  0.70693898627E+01  0.11282885506E+02  0.51100000000E-03 0.  1.
         12    1    4    4    0    0 -0.11118922118E+02  0.21689647357E+02  0.10570085545E+02  0.26566857924E+02  0.00000000000E+00 0. -1.
</event>
<event>
 8    1  0.2511738E-006  0.9118800E+02  0.7816164E-02  0.1184000E+00
        -11   -1    0    0    0    0  0.00000000000E+00  0.00000000000E+00  0.45593999997E+02  0.45594000000E+02  0.51100000000E-03 0. -1.
         11   -1    0    0    0    0 -0.00000000000E+00 -0.00000000000E+00 -0.45593999997E+02  0.45594000000E+02  0.51100000000E-03 0.  1.
         23    2    1    2    0    0  0.71054273576E-14  0.17763568394E-14 -0.44408920985E-15  0.91188000000E+02  0.91188000000E+02 0.  0.
    9900012    2    3    3    0    0 -0.35420290322E+02  0.97893639391E+01 -0.23148232435E+01  0.54366986713E+02  0.39999777810E+02 0.  0.
        -12    1    3    3    0    0  0.35420290322E+02 -0.97893639391E+01  0.23148232435E+01  0.36821013287E+02  0.00000000000E+00 0.  1.
         11    1    4    4    0    0 -0.33812448169E+02  0.82521167241E+01 -0.12635376957E+02  0.37027447019E+02  0.51100000000E-03 0. -1.
        -11    1    4    4    0    0 -0.49659990201E+01 -0.21026325582E+01 -0.52351168539E+00  0.54181431033E+01  0.51100000000E-03 0.  1.
        -12    1    4    4    0    0  0.33581568676E+01  0.36398797732E+01  0.10844065399E+02  0.11921396591E+02  0.00000000000E+00 0.  1.
</event>
<event>
 8    1  0.2511738E-006  0.9118800E+02  0.7816164E-02  0.1184000E+00
        -11   -1    0    0    0    0  0.00000000000E+00  0.00000000000E+00  0.45593999997E+02  0.45594000000E+02  0.51100000000E-03 0.  1.
         11   -1    0    0    0    0 -0.00000000000E+00 -0.00000000000E+00 -0.45593999997E+02  0.45594000000E+02  0.51100000000E-03 0. -1.
         23    2    1    2    0    0 -0.35527136788E-14  0.94368957093E-15  0.35527136788E-14  0.91188000000E+02  0.91188000000E+02 0.  0.
    9900012    2    3    3    0    0  0.26519913748E+02 -0.39336843440E+00 -0.25540537665E+02  0.54367087081E+02  0.40000006619E+02 0.  0.
        -12    1    3    3    0    0 -0.26519913748E+02  0.39336843440E+00  0.25540537665E+02  0.36820912919E+02  0.00000000000E+00 0.  1.
         11    1    4    4    0    0  0.14725559370E+02 -0.13721507571E+02 -0.13737185160E+02  0.24368670977E+02  0.51100000000E-03 0. -1.
        -11    1    4    4    0    0  0.11158195459E+02  0.73253972640E+00 -0.13211327320E+02  0.17308411543E+02  0.51100000000E-03 0.  1.
        -12    1    4    4    0    0  0.63615891918E+00  0.12595599410E+02  0.14079748148E+01  0.12690004561E+02  0.00000000000E+00 0.  1.
</event>
<event>
 8    1  0.2511738E-006  0.9118800E+02  0.7816164E-02  0.1184000E+00
        -11   -1    0    0    0    0  0.00000000000E+00  0.00000000000E+00  0.45593999997E+02  0.45594000000E+02  0.51100000000E-03 0. -1.
         11   -1    0    0    0    0 -0.00000000000E+00 -0.00000000000E+00 -0.45593999997E+02  0.45594000000E+02  0.51100000000E-03 0.  1.
         23    2    1    2    0    0  0.00000000000E+00  0.00000000000E+00 -0.35527136788E-14  0.91188000000E+02  0.91188000000E+02 0.  0.
    9900012    2    3    3    0    0  0.25098473864E+02 -0.96312957895E+01  0.25161113650E+02  0.54367124277E+02  0.40000091415E+02 0.  0.
        -12    1    3    3    0    0 -0.25098473864E+02  0.96312957895E+01 -0.25161113650E+02  0.36820875723E+02  0.00000000000E+00 0.  1.
         11    1    4    4    0    0 -0.75131212167E+00  0.67254411355E+01  0.38082216970E+01  0.77652161030E+01  0.51100000000E-03 0.  1.
        -11    1    4    4    0    0  0.90369898489E+00 -0.79080839263E+01 -0.49548644088E+01  0.93757743579E+01  0.51100000000E-03 0. -1.
         12    1    4    4    0    0  0.24946087001E+02 -0.84486529987E+01  0.26307756362E+02  0.37226133816E+02  0.00000000000E+00 0. -1.
</event>
<event>
 8    1  0.2511738E-006  0.9118800E+02  0.7816164E-02  0.1184000E+00
        -11   -1    0    0    0    0  0.00000000000E+00  0.00000000000E+00  0.45593999997E+02  0.45594000000E+02  0.51100000000E-03 0.  1.
         11   -1    0    0    0    0 -0.00000000000E+00 -0.00000000000E+00 -0.45593999997E+02  0.45594000000E+02  0.51100000000E-03 0. -1.
         23    2    1    2    0    0 -0.71054273576E-14 -0.88817841970E-15 -0.35527136788E-14  0.91188000000E+02  0.91188000000E+02 0.  0.
    9900012    2    3    3    0    0 -0.27871138867E+02 -0.67312059655E+01 -0.23101340898E+02  0.54367062115E+02  0.39999949703E+02 0.  0.
        -12    1    3    3    0    0  0.27871138867E+02  0.67312059655E+01  0.23101340898E+02  0.36820937885E+02  0.00000000000E+00 0.  1.
         11    1    4    4    0    0 -0.78459705780E+01 -0.72905584279E+01 -0.27894660451E+01  0.11067638302E+02  0.51100000000E-03 0. -1.
        -11    1    4    4    0    0  0.36679464263E+01 -0.11106660584E+02 -0.45937416611E+01  0.12566391806E+02  0.51100000000E-03 0.  1.
        -12    1    4    4    0    0 -0.23693114715E+02  0.11666013046E+02 -0.15718133192E+02  0.30733032007E+02  0.00000000000E+00 0.  1.
</event>
<event>
 8    1  0.2511738E-006  0.9118800E+02  0.7816164E-02  0.1184000E+00
        -11   -1    0    0    0    0  0.00000000000E+00  0.00000000000E+00  0.45593999997E+02  0.45594000000E+02  0.51100000000E-03 0.  1.
         11   -1    0    0    0    0 -0.00000000000E+00 -0.00000000000E+00 -0.45593999997E+02  0.45594000000E+02  0.51100000000E-03 0. -1.
         23    2    1    2    0    0  0.10658141036E-13  0.35527136788E-14 -0.17763568394E-14  0.91188000000E+02  0.91188000000E+02 0.  0.
    9900012    2    3    3    0    0  0.29358421102E+02  0.18291132727E+02 -0.12621301278E+02  0.54367086486E+02  0.40000005262E+02 0.  0.
        -12    1    3    3    0    0 -0.29358421102E+02 -0.18291132727E+02  0.12621301278E+02  0.36820913514E+02  0.00000000000E+00 0.  1.
         11    1    4    4    0    0  0.12992996328E+00 -0.23155654543E+01  0.37144148054E-01  0.23195053605E+01  0.51100000000E-03 0. -1.
        -11    1    4    4    0    0 -0.54579252031E+01  0.31232340243E+01  0.62327692308E+01  0.88538664344E+01  0.51100000000E-03 0.  1.
         12    1    4    4    0    0  0.34686416342E+02  0.17483464157E+02 -0.18891214657E+02  0.43193714691E+02  0.00000000000E+00 0. -1.
</event>
<event>
 8    1  0.2511738E-006  0.9118800E+02  0.7816164E-02  0.1184000E+00
        -11   -1    0    0    0    0  0.00000000000E+00  0.00000000000E+00  0.45593999997E+02  0.45594000000E+02  0.51100000000E-03 0.  1.
         11   -1    0    0    0    0 -0.00000000000E+00 -0.00000000000E+00 -0.45593999997E+02  0.45594000000E+02  0.51100000000E-03 0. -1.
         23    2    1    2    0    0  0.00000000000E+00  0.17763568394E-14  0.35527136788E-14  0.91188000000E+02  0.91188000000E+02 0.  0.
    9900012    2    3    3    0    0 -0.13085894722E+02  0.12990448921E+02 -0.31871413314E+02  0.54367090308E+02  0.40000013976E+02 0.  0.
        -12    1    3    3    0    0  0.13085894722E+02 -0.12990448921E+02  0.31871413314E+02  0.36820909692E+02  0.00000000000E+00 0.  1.
         11    1    4    4    0    0 -0.70907121439E+01  0.42383770614E+01 -0.16896993849E+02  0.18808254576E+02  0.51100000000E-03 0. -1.
        -11    1    4    4    0    0 -0.63731129631E+01  0.11763827799E+02  0.57866680893E+01  0.14577027858E+02  0.51100000000E-03 0.  1.
         12    1    4    4    0    0  0.37793038489E+00 -0.30117559390E+01 -0.20761087555E+02  0.20981807875E+02  0.00000000000E+00 0. -1.
</event>
<event>
 8    1  0.2511738E-006  0.9118800E+02  0.7816164E-02  0.1184000E+00
        -11   -1    0    0    0    0  0.00000000000E+00  0.00000000000E+00  0.45593999997E+02  0.45594000000E+02  0.51100000000E-03 0.  1.
         11   -1    0    0    0    0 -0.00000000000E+00 -0.00000000000E+00 -0.45593999997E+02  0.45594000000E+02  0.51100000000E-03 0. -1.
         23    2    1    2    0    0  0.00000000000E+00  0.35527136788E-14 -0.17763568394E-14  0.91188000000E+02  0.91188000000E+02 0.  0.
    9900012    2    3    3    0    0  0.20250219622E+02  0.26769727731E+02 -0.15135732857E+02  0.54367080312E+02  0.39999991188E+02 0.  0.
         12    1    3    3    0    0 -0.20250219622E+02 -0.26769727731E+02  0.15135732857E+02  0.36820919688E+02  0.00000000000E+00 0. -1.
         11    1    4    4    0    0  0.30323397455E+01 -0.22485017588E+01 -0.24559404845E+00  0.37830095413E+01  0.51100000000E-03 0. -1.
        -11    1    4    4    0    0 -0.50380219043E+01  0.17090336318E+02 -0.17776702061E+02  0.25168877539E+02  0.51100000000E-03 0.  1.
        -12    1    4    4    0    0  0.22255901780E+02  0.11927893172E+02  0.28865632530E+01  0.25415193232E+02  0.00000000000E+00 0.  1.
</event>
<event>
 8    1  0.2511738E-006  0.9118800E+02  0.7816164E-02  0.1184000E+00
        -11   -1    0    0    0    0  0.00000000000E+00  0.00000000000E+00  0.45593999997E+02  0.45594000000E+02  0.51100000000E-03 0.  1.
         11   -1    0    0    0    0 -0.00000000000E+00 -0.00000000000E+00 -0.45593999997E+02  0.45594000000E+02  0.51100000000E-03 0. -1.
         23    2    1    2    0    0  0.88817841970E-15  0.00000000000E+00  0.35527136788E-14  0.91188000000E+02  0.91188000000E+02 0.  0.
    9900012    2    3    3    0    0 -0.56224757965E+01 -0.17663213608E+02 -0.31814712543E+02  0.54367118924E+02  0.40000079211E+02 0.  0.
        -12    1    3    3    0    0  0.56224757965E+01  0.17663213608E+02  0.31814712543E+02  0.36820881076E+02  0.00000000000E+00 0.  1.
         11    1    4    4    0    0  0.79009590657E+01 -0.33175990473E+01 -0.29564194930E+02  0.30781053259E+02  0.51100000000E-03 0. -1.
        -11    1    4    4    0    0  0.98552689027E-01 -0.78442794857E+01  0.16052792781E+01  0.80074562193E+01  0.51100000000E-03 0.  1.
         12    1    4    4    0    0 -0.13621987551E+02 -0.65013350750E+01 -0.38557968906E+01  0.15578609446E+02  0.00000000000E+00 0. -1.
</event>
<event>
 8    1  0.2511738E-006  0.9118800E+02  0.7816164E-02  0.1184000E+00
        -11   -1    0    0    0    0  0.00000000000E+00  0.00000000000E+00  0.45593999997E+02  0.45594000000E+02  0.51100000000E-03 0.  1.
         11   -1    0    0    0    0 -0.00000000000E+00 -0.00000000000E+00 -0.45593999997E+02  0.45594000000E+02  0.51100000000E-03 0. -1.
         23    2    1    2    0    0 -0.88817841970E-15  0.00000000000E+00  0.00000000000E+00  0.91188000000E+02  0.91188000000E+02 0.  0.
    9900012    2    3    3    0    0 -0.48326529685E+01 -0.58114012139E+01 -0.36036783988E+02  0.54367126586E+02  0.40000096677E+02 0.  0.
        -12    1    3    3    0    0  0.48326529685E+01  0.58114012139E+01  0.36036783988E+02  0.36820873414E+02  0.00000000000E+00 0.  1.
         11    1    4    4    0    0 -0.63223630302E+01 -0.78592292122E+01 -0.33935303210E+02  0.35402606716E+02  0.51100000000E-03 0. -1.
        -11    1    4    4    0    0 -0.70635198330E+01  0.56077110873E+01  0.12654514813E+01  0.91072006557E+01  0.51100000000E-03 0.  1.
        -12    1    4    4    0    0  0.85532298947E+01 -0.35598830890E+01 -0.33669322593E+01  0.98573192136E+01  0.00000000000E+00 0.  1.
</event>
<event>
 8    1  0.2511738E-006  0.9118800E+02  0.7816164E-02  0.1184000E+00
        -11   -1    0    0    0    0  0.00000000000E+00  0.00000000000E+00  0.45593999997E+02  0.45594000000E+02  0.51100000000E-03 0.  1.
         11   -1    0    0    0    0 -0.00000000000E+00 -0.00000000000E+00 -0.45593999997E+02  0.45594000000E+02  0.51100000000E-03 0. -1.
         23    2    1    2    0    0 -0.35527136788E-14  0.00000000000E+00  0.00000000000E+00  0.91188000000E+02  0.91188000000E+02 0.  0.
    9900012    2    3    3    0    0  0.31301272426E+02  0.16584302312E+02 -0.10048446622E+02  0.54367081785E+02  0.39999994546E+02 0.  0.
        -12    1    3    3    0    0 -0.31301272426E+02 -0.16584302312E+02  0.10048446622E+02  0.36820918215E+02  0.00000000000E+00 0.  1.
         11    1    4    4    0    0  0.80382081550E+01 -0.18064873516E+01 -0.12786140133E+02  0.15210574172E+02  0.51100000000E-03 0. -1.
        -11    1    4    4    0    0 -0.23102046620E+01 -0.42187291793E+01 -0.65200699739E+00  0.48538474280E+01  0.51100000000E-03 0.  1.
         12    1    4    4    0    0  0.25573268933E+02  0.22609518842E+02  0.33897005080E+01  0.34302660185E+02  0.00000000000E+00 0. -1.
</event>
<event>
 8    1  0.2511738E-006  0.9118800E+02  0.7816164E-02  0.1184000E+00
        -11   -1    0    0    0    0  0.00000000000E+00  0.00000000000E+00  0.45593999997E+02  0.45594000000E+02  0.51100000000E-03 0.  1.
         11   -1    0    0    0    0 -0.00000000000E+00 -0.00000000000E+00 -0.45593999997E+02  0.45594000000E+02  0.51100000000E-03 0. -1.
         23    2    1    2    0    0  0.00000000000E+00  0.00000000000E+00 -0.88817841970E-15  0.91188000000E+02  0.91188000000E+02 0.  0.
    9900012    2    3    3    0    0  0.34447133979E+02 -0.12191051193E+02 -0.45335076046E+01  0.54367089369E+02  0.40000011834E+02 0.  0.
         12    1    3    3    0    0 -0.34447133979E+02  0.12191051193E+02  0.45335076046E+01  0.36820910631E+02  0.00000000000E+00 0. -1.
         11    1    4    4    0    0  0.88724547160E+01 -0.87276382499E+01  0.13424746792E+02  0.18306172424E+02  0.51100000000E-03 0. -1.
        -11    1    4    4    0    0  0.17370637194E+02  0.32303456442E-02 -0.16113778247E+01  0.17445216700E+02  0.51100000000E-03 0.  1.
         12    1    4    4    0    0  0.82040420686E+01 -0.34666432882E+01 -0.16346876572E+02  0.18615700245E+02  0.00000000000E+00 0. -1.
</event>
<event>
 8    1  0.2511738E-006  0.9118800E+02  0.7816164E-02  0.1184000E+00
        -11   -1    0    0    0    0  0.00000000000E+00  0.00000000000E+00  0.45593999997E+02  0.45594000000E+02  0.51100000000E-03 0. -1.
         11   -1    0    0    0    0 -0.00000000000E+00 -0.00000000000E+00 -0.45593999997E+02  0.45594000000E+02  0.51100000000E-03 0.  1.
         23    2    1    2    0    0  0.00000000000E+00  0.00000000000E+00  0.00000000000E+00  0.91188000000E+02  0.91188000000E+02 0.  0.
    9900012    2    3    3    0    0 -0.30159599430E+02 -0.17737942648E+02  0.11469257736E+02  0.54367083116E+02  0.39999997581E+02 0.  0.
         12    1    3    3    0    0  0.30159599430E+02  0.17737942648E+02 -0.11469257736E+02  0.36820916884E+02  0.00000000000E+00 0. -1.
         11    1    4    4    0    0 -0.10570886867E+02 -0.41658665910E+01  0.10530140501E+02  0.15491350904E+02  0.51100000000E-03 0. -1.
        -11    1    4    4    0    0  0.39091768638E+01 -0.14769112314E+02  0.14102353965E+01  0.15342656433E+02  0.51100000000E-03 0.  1.
        -12    1    4    4    0    0 -0.23497889426E+02  0.11970362569E+01 -0.47111816171E+00  0.23533075779E+02  0.00000000000E+00 0.  1.
</event>
<event>
 8    1  0.2511738E-006  0.9118800E+02  0.7816164E-02  0.1184000E+00
        -11   -1    0    0    0    0  0.00000000000E+00  0.00000000000E+00  0.45593999997E+02  0.45594000000E+02  0.51100000000E-03 0. -1.
         11   -1    0    0    0    0 -0.00000000000E+00 -0.00000000000E+00 -0.45593999997E+02  0.45594000000E+02  0.51100000000E-03 0.  1.
         23    2    1    2    0    0  0.00000000000E+00  0.17763568394E-14 -0.35527136788E-14  0.91188000000E+02  0.91188000000E+02 0.  0.
    9900012    2    3    3    0    0 -0.18682258556E+02 -0.13927509532E+02 -0.28509252454E+02  0.54367084992E+02  0.40000001857E+02 0.  0.
         12    1    3    3    0    0  0.18682258556E+02  0.13927509532E+02  0.28509252454E+02  0.36820915008E+02  0.00000000000E+00 0. -1.
         11    1    4    4    0    0 -0.37620339095E+01 -0.90182004520E+01 -0.13962779519E+02  0.17042301801E+02  0.51100000000E-03 0.  1.
        -11    1    4    4    0    0  0.87363215629E+01  0.30004382070E+01 -0.22142058491E+01  0.94988763382E+01  0.51100000000E-03 0. -1.
         12    1    4    4    0    0 -0.23656546210E+02 -0.79097472866E+01 -0.12332267086E+02  0.27825906853E+02  0.00000000000E+00 0. -1.
</event>
<event>
 8    1  0.2511738E-006  0.9118800E+02  0.7816164E-02  0.1184000E+00
        -11   -1    0    0    0    0  0.00000000000E+00  0.00000000000E+00  0.45593999997E+02  0.45594000000E+02  0.51100000000E-03 0.  1.
         11   -1    0    0    0    0 -0.00000000000E+00 -0.00000000000E+00 -0.45593999997E+02  0.45594000000E+02  0.51100000000E-03 0. -1.
         23    2    1    2    0    0  0.44408920985E-15 -0.71054273576E-14  0.00000000000E+00  0.91188000000E+02  0.91188000000E+02 0.  0.
    9900012    2    3    3    0    0  0.10873658491E+01 -0.35778369484E+02 -0.86316346630E+01  0.54367092836E+02  0.40000019738E+02 0.  0.
        -12    1    3    3    0    0 -0.10873658491E+01  0.35778369484E+02  0.86316346630E+01  0.36820907164E+02  0.00000000000E+00 0.  1.
         11    1    4    4    0    0  0.32078352616E+01 -0.19586492546E+02 -0.78201756406E+01  0.21332511447E+02  0.51100000000E-03 0.  1.
        -11    1    4    4    0    0 -0.64623669842E+01 -0.20835078439E+02 -0.81847869434E+01  0.23299214969E+02  0.51100000000E-03 0. -1.
        -12    1    4    4    0    0  0.43418975716E+01  0.46432015012E+01  0.73733279210E+01  0.97353664201E+01  0.00000000000E+00 0.  1.
</event>
<event>
 8    1  0.2511738E-006  0.9118800E+02  0.7816164E-02  0.1184000E+00
        -11   -1    0    0    0    0  0.00000000000E+00  0.00000000000E+00  0.45593999997E+02  0.45594000000E+02  0.51100000000E-03 0. -1.
         11   -1    0    0    0    0 -0.00000000000E+00 -0.00000000000E+00 -0.45593999997E+02  0.45594000000E+02  0.51100000000E-03 0.  1.
         23    2    1    2    0    0 -0.88817841970E-15  0.00000000000E+00  0.00000000000E+00  0.91188000000E+02  0.91188000000E+02 0.  0.
    9900012    2    3    3    0    0 -0.74657377199E+01  0.21645107235E+01  0.35991062882E+02  0.54367096239E+02  0.40000027496E+02 0.  0.
        -12    1    3    3    0    0  0.74657377199E+01 -0.21645107235E+01 -0.35991062882E+02  0.36820903761E+02  0.00000000000E+00 0.  1.
         11    1    4    4    0    0 -0.14701754591E+02 -0.78530395604E+00  0.41091158879E+00  0.14728446590E+02  0.51100000000E-03 0.  1.
        -11    1    4    4    0    0  0.91014639406E+01  0.77892932841E+01  0.21182993559E+02  0.24335754603E+02  0.51100000000E-03 0. -1.
         12    1    4    4    0    0 -0.18654470691E+01 -0.48394786045E+01  0.14397157734E+02  0.15302895045E+02  0.00000000000E+00 0. -1.
</event>
<event>
 8    1  0.2511738E-006  0.9118800E+02  0.7816164E-02  0.1184000E+00
        -11   -1    0    0    0    0  0.00000000000E+00  0.00000000000E+00  0.45593999997E+02  0.45594000000E+02  0.51100000000E-03 0. -1.
         11   -1    0    0    0    0 -0.00000000000E+00 -0.00000000000E+00 -0.45593999997E+02  0.45594000000E+02  0.51100000000E-03 0.  1.
         23    2    1    2    0    0  0.00000000000E+00  0.17763568394E-14 -0.71054273576E-14  0.91188000000E+02  0.91188000000E+02 0.  0.
    9900012    2    3    3    0    0  0.11470438639E+02  0.14042211770E+02 -0.32047274270E+02  0.54367048599E+02  0.39999918891E+02 0.  0.
         12    1    3    3    0    0 -0.11470438639E+02 -0.14042211770E+02  0.32047274270E+02  0.36820951401E+02  0.00000000000E+00 0. -1.
         11    1    4    4    0    0  0.60254247755E+01 -0.11253068355E+02 -0.13062451405E+02  0.18263759966E+02  0.51100000000E-03 0. -1.
        -11    1    4    4    0    0  0.71063272012E+00  0.10673684735E+01  0.28633838380E+01  0.31373940756E+01  0.51100000000E-03 0.  1.
        -12    1    4    4    0    0  0.47343811436E+01  0.24227911652E+02 -0.21848206703E+02  0.32965894557E+02  0.00000000000E+00 0.  1.
</event>
<event>
 8    1  0.2511738E-006  0.9118800E+02  0.7816164E-02  0.1184000E+00
        -11   -1    0    0    0    0  0.00000000000E+00  0.00000000000E+00  0.45593999997E+02  0.45594000000E+02  0.51100000000E-03 0. -1.
         11   -1    0    0    0    0 -0.00000000000E+00 -0.00000000000E+00 -0.45593999997E+02  0.45594000000E+02  0.51100000000E-03 0.  1.
         23    2    1    2    0    0  0.35527136788E-14  0.00000000000E+00  0.17763568394E-14  0.91188000000E+02  0.91188000000E+02 0.  0.
    9900012    2    3    3    0    0 -0.27895087815E+02  0.20555268143E+02  0.12454827448E+02  0.54367113273E+02  0.40000066328E+02 0.  0.
         12    1    3    3    0    0  0.27895087815E+02 -0.20555268143E+02 -0.12454827448E+02  0.36820886727E+02  0.00000000000E+00 0. -1.
         11    1    4    4    0    0  0.17177960555E+01  0.15096159495E+02  0.19205802122E+01  0.15314486064E+02  0.51100000000E-03 0. -1.
        -11    1    4    4    0    0 -0.58186232186E+01  0.11086009055E+02  0.70109431428E+01  0.14349539955E+02  0.51100000000E-03 0.  1.
         12    1    4    4    0    0 -0.23794260652E+02 -0.56269004067E+01  0.35233040928E+01  0.24703087254E+02  0.00000000000E+00 0. -1.
</event>
<event>
 8    1  0.2511738E-006  0.9118800E+02  0.7816164E-02  0.1184000E+00
        -11   -1    0    0    0    0  0.00000000000E+00  0.00000000000E+00  0.45593999997E+02  0.45594000000E+02  0.51100000000E-03 0.  1.
         11   -1    0    0    0    0 -0.00000000000E+00 -0.00000000000E+00 -0.45593999997E+02  0.45594000000E+02  0.51100000000E-03 0. -1.
         23    2    1    2    0    0  0.00000000000E+00  0.00000000000E+00  0.00000000000E+00  0.91188000000E+02  0.91188000000E+02 0.  0.
    9900012    2    3    3    0    0  0.23697645861E+02 -0.25900349287E+02  0.11107336667E+02  0.54367089632E+02  0.40000012433E+02 0.  0.
         12    1    3    3    0    0 -0.23697645861E+02  0.25900349287E+02 -0.11107336667E+02  0.36820910368E+02  0.00000000000E+00 0. -1.
         11    1    4    4    0    0  0.13597235143E+02  0.13090348308E+01 -0.26626708593E+01  0.13917190524E+02  0.51100000000E-03 0. -1.
        -11    1    4    4    0    0 -0.59844488703E+01 -0.18861851750E+02  0.88131341240E+01  0.21662280883E+02  0.51100000000E-03 0.  1.
         12    1    4    4    0    0  0.16084859589E+02 -0.83475323672E+01  0.49568734021E+01  0.18787618224E+02  0.00000000000E+00 0. -1.
</event>
<event>
 8    1  0.2511738E-006  0.9118800E+02  0.7816164E-02  0.1184000E+00
        -11   -1    0    0    0    0  0.00000000000E+00  0.00000000000E+00  0.45593999997E+02  0.45594000000E+02  0.51100000000E-03 0. -1.
         11   -1    0    0    0    0 -0.00000000000E+00 -0.00000000000E+00 -0.45593999997E+02  0.45594000000E+02  0.51100000000E-03 0.  1.
         23    2    1    2    0    0  0.88817841970E-15  0.00000000000E+00  0.00000000000E+00  0.91188000000E+02  0.91188000000E+02 0.  0.
    9900012    2    3    3    0    0  0.21252595381E+01 -0.17152094669E+02 -0.32512590090E+02  0.54367087546E+02  0.40000007678E+02 0.  0.
         12    1    3    3    0    0 -0.21252595381E+01  0.17152094669E+02  0.32512590090E+02  0.36820912454E+02  0.00000000000E+00 0. -1.
         11    1    4    4    0    0  0.18380052862E+02 -0.11440755530E+02 -0.28988477287E+02  0.36180782827E+02  0.51100000000E-03 0. -1.
        -11    1    4    4    0    0 -0.12299593222E+02 -0.24049875292E+01 -0.13991676382E+01  0.12610377821E+02  0.51100000000E-03 0.  1.
         12    1    4    4    0    0 -0.39552001021E+01 -0.33063516095E+01 -0.21249451645E+01  0.55759268975E+01  0.00000000000E+00 0. -1.
</event>
<event>
 8    1  0.2511738E-006  0.9118800E+02  0.7816164E-02  0.1184000E+00
        -11   -1    0    0    0    0  0.00000000000E+00  0.00000000000E+00  0.45593999997E+02  0.45594000000E+02  0.51100000000E-03 0.  1.
         11   -1    0    0    0    0 -0.00000000000E+00 -0.00000000000E+00 -0.45593999997E+02  0.45594000000E+02  0.51100000000E-03 0. -1.
         23    2    1    2    0    0  0.00000000000E+00  0.44408920985E-15  0.00000000000E+00  0.91188000000E+02  0.91188000000E+02 0.  0.
    9900012    2    3    3    0    0 -0.62608394926E+01  0.30136991055E+01 -0.36159384709E+02  0.54367060360E+02  0.39999945703E+02 0.  0.
        -12    1    3    3    0    0  0.62608394926E+01 -0.30136991055E+01  0.36159384709E+02  0.36820939640E+02  0.00000000000E+00 0.  1.
         11    1    4    4    0    0 -0.75334120018E+01  0.11430676716E+02 -0.31419772871E+01  0.14045806780E+02  0.51100000000E-03 0.  1.
        -11    1    4    4    0    0 -0.30293342655E+01  0.60106206518E+01 -0.45702886824E+01  0.81358444930E+01  0.51100000000E-03 0. -1.
        -12    1    4    4    0    0  0.43019067748E+01 -0.14427598262E+02 -0.28447118739E+02  0.32185409087E+02  0.00000000000E+00 0.  1.
</event>
<event>
 8    1  0.2511738E-006  0.9118800E+02  0.7816164E-02  0.1184000E+00
        -11   -1    0    0    0    0  0.00000000000E+00  0.00000000000E+00  0.45593999997E+02  0.45594000000E+02  0.51100000000E-03 0. -1.
         11   -1    0    0    0    0 -0.00000000000E+00 -0.00000000000E+00 -0.45593999997E+02  0.45594000000E+02  0.51100000000E-03 0.  1.
         23    2    1    2    0    0  0.00000000000E+00 -0.35527136788E-14  0.35527136788E-14  0.91188000000E+02  0.91188000000E+02 0.  0.
    9900012    2    3    3    0    0 -0.20327162036E+02  0.21640426154E+02 -0.21777971668E+02  0.54367060162E+02  0.39999945252E+02 0.  0.
         12    1    3    3    0    0  0.20327162036E+02 -0.21640426154E+02  0.21777971668E+02  0.36820939838E+02  0.00000000000E+00 0. -1.
         11    1    4    4    0    0 -0.18425187356E+02  0.10827036618E+02  0.39483571256E+01  0.21732505039E+02  0.51100000000E-03 0. -1.
        -11    1    4    4    0    0 -0.91336777384E+01  0.45186420812E+01 -0.10428921735E+02  0.14580967187E+02  0.51100000000E-03 0.  1.
         12    1    4    4    0    0  0.72317030584E+01  0.62947474548E+01 -0.15297407059E+02  0.18053587936E+02  0.00000000000E+00 0. -1.
</event>
<event>
 8    1  0.2511738E-006  0.9118800E+02  0.7816164E-02  0.1184000E+00
        -11   -1    0    0    0    0  0.00000000000E+00  0.00000000000E+00  0.45593999997E+02  0.45594000000E+02  0.51100000000E-03 0. -1.
         11   -1    0    0    0    0 -0.00000000000E+00 -0.00000000000E+00 -0.45593999997E+02  0.45594000000E+02  0.51100000000E-03 0.  1.
         23    2    1    2    0    0  0.00000000000E+00  0.26645352591E-14 -0.35527136788E-14  0.91188000000E+02  0.91188000000E+02 0.  0.
    9900012    2    3    3    0    0  0.24946160515E+02  0.48577809855E+01 -0.26643402697E+02  0.54367083827E+02  0.39999999201E+02 0.  0.
         12    1    3    3    0    0 -0.24946160515E+02 -0.48577809855E+01  0.26643402697E+02  0.36820916173E+02  0.00000000000E+00 0. -1.
         11    1    4    4    0    0  0.87490700930E+01  0.20504671319E+00  0.48788551822E+01  0.10019555868E+02  0.51100000000E-03 0. -1.
        -11    1    4    4    0    0 -0.15831875133E+01 -0.84433061531E+01 -0.54203806858E+01  0.10157579856E+02  0.51100000000E-03 0.  1.
         12    1    4    4    0    0  0.17780277935E+02  0.13096040425E+02 -0.26101877193E+02  0.34189948103E+02  0.00000000000E+00 0. -1.
</event>
<event>
 8    1  0.2511738E-006  0.9118800E+02  0.7816164E-02  0.1184000E+00
        -11   -1    0    0    0    0  0.00000000000E+00  0.00000000000E+00  0.45593999997E+02  0.45594000000E+02  0.51100000000E-03 0.  1.
         11   -1    0    0    0    0 -0.00000000000E+00 -0.00000000000E+00 -0.45593999997E+02  0.45594000000E+02  0.51100000000E-03 0. -1.
         23    2    1    2    0    0  0.00000000000E+00  0.00000000000E+00  0.17763568394E-14  0.91188000000E+02  0.91188000000E+02 0.  0.
    9900012    2    3    3    0    0  0.21156791708E+02  0.29284766250E+02  0.71113994157E+01  0.54367090569E+02  0.40000014570E+02 0.  0.
         12    1    3    3    0    0 -0.21156791708E+02 -0.29284766250E+02 -0.71113994157E+01  0.36820909431E+02  0.00000000000E+00 0. -1.
         11    1    4    4    0    0  0.10920061881E+02  0.16668279250E+02 -0.11282687663E+02  0.22899308413E+02  0.51100000000E-03 0. -1.
        -11    1    4    4    0    0  0.11874381988E+02  0.23678214949E+01  0.23111129614E+01  0.12326750165E+02  0.51100000000E-03 0.  1.
        -12    1    4    4    0    0 -0.16376521614E+01  0.10248665505E+02  0.16082974117E+02  0.19141031991E+02  0.00000000000E+00 0.  1.
</event>
<event>
 8    1  0.2511738E-006  0.9118800E+02  0.7816164E-02  0.1184000E+00
        -11   -1    0    0    0    0  0.00000000000E+00  0.00000000000E+00  0.45593999997E+02  0.45594000000E+02  0.51100000000E-03 0.  1.
         11   -1    0    0    0    0 -0.00000000000E+00 -0.00000000000E+00 -0.45593999997E+02  0.45594000000E+02  0.51100000000E-03 0. -1.
         23    2    1    2    0    0  0.71054273576E-14  0.22204460493E-15  0.13322676296E-14  0.91188000000E+02  0.91188000000E+02 0.  0.
    9900012    2    3    3    0    0  0.36600424536E+02  0.10743624922E+01  0.38776206662E+01  0.54367064745E+02  0.39999955700E+02 0.  0.
         12    1    3    3    0    0 -0.36600424536E+02 -0.10743624922E+01 -0.38776206662E+01  0.36820935255E+02  0.00000000000E+00 0. -1.
         11    1    4    4    0    0 -0.12660911968E+01 -0.33504974374E+01 -0.89174059763E+01  0.96098360862E+01  0.51100000000E-03 0.  1.
        -11    1    4    4    0    0  0.14579510478E+02 -0.97524325972E+00 -0.44574338149E+01  0.15276843315E+02  0.51100000000E-03 0. -1.
        -12    1    4    4    0    0  0.23287005255E+02  0.54001031893E+01  0.17252460457E+02  0.29480385344E+02  0.00000000000E+00 0.  1.
</event>
<event>
 8    1  0.2511738E-006  0.9118800E+02  0.7816164E-02  0.1184000E+00
        -11   -1    0    0    0    0  0.00000000000E+00  0.00000000000E+00  0.45593999997E+02  0.45594000000E+02  0.51100000000E-03 0. -1.
         11   -1    0    0    0    0 -0.00000000000E+00 -0.00000000000E+00 -0.45593999997E+02  0.45594000000E+02  0.51100000000E-03 0.  1.
         23    2    1    2    0    0  0.00000000000E+00  0.00000000000E+00  0.00000000000E+00  0.91188000000E+02  0.91188000000E+02 0.  0.
    9900012    2    3    3    0    0  0.18807522476E+02  0.30006228406E+02 -0.10083794664E+02  0.54367088012E+02  0.40000008740E+02 0.  0.
         12    1    3    3    0    0 -0.18807522476E+02 -0.30006228406E+02  0.10083794664E+02  0.36820911988E+02  0.00000000000E+00 0. -1.
         11    1    4    4    0    0 -0.47096455895E+01 -0.62074375437E+01 -0.86065500679E+00  0.78392454828E+01  0.51100000000E-03 0. -1.
        -11    1    4    4    0    0  0.15382417983E+02  0.33770659340E+02 -0.76699329090E+01  0.37893325090E+02  0.51100000000E-03 0.  1.
        -12    1    4    4    0    0  0.81347500826E+01  0.24430066092E+01 -0.15532067477E+01  0.86345174387E+01  0.00000000000E+00 0.  1.
</event>
<event>
 8    1  0.2511738E-006  0.9118800E+02  0.7816164E-02  0.1184000E+00
        -11   -1    0    0    0    0  0.00000000000E+00  0.00000000000E+00  0.45593999997E+02  0.45594000000E+02  0.51100000000E-03 0.  1.
         11   -1    0    0    0    0 -0.00000000000E+00 -0.00000000000E+00 -0.45593999997E+02  0.45594000000E+02  0.51100000000E-03 0. -1.
         23    2    1    2    0    0  0.00000000000E+00  0.00000000000E+00  0.00000000000E+00  0.91188000000E+02  0.91188000000E+02 0.  0.
    9900012    2    3    3    0    0  0.28927338503E+02 -0.20899416265E+02  0.90665965295E+01  0.54367086300E+02  0.40000004838E+02 0.  0.
         12    1    3    3    0    0 -0.28927338503E+02  0.20899416265E+02 -0.90665965295E+01  0.36820913700E+02  0.00000000000E+00 0. -1.
         11    1    4    4    0    0  0.15805293169E+02  0.99213860024E+01  0.54632946195E+01  0.19444505155E+02  0.51100000000E-03 0. -1.
        -11    1    4    4    0    0  0.74308895282E+01 -0.11079799373E+02  0.51934613642E+01  0.14316148733E+02  0.51100000000E-03 0.  1.
        -12    1    4    4    0    0  0.56911558063E+01 -0.19741002894E+02 -0.15901594542E+01  0.20606432412E+02  0.00000000000E+00 0.  1.
</event>
<event>
 8    1  0.2511738E-006  0.9118800E+02  0.7816164E-02  0.1184000E+00
        -11   -1    0    0    0    0  0.00000000000E+00  0.00000000000E+00  0.45593999997E+02  0.45594000000E+02  0.51100000000E-03 0. -1.
         11   -1    0    0    0    0 -0.00000000000E+00 -0.00000000000E+00 -0.45593999997E+02  0.45594000000E+02  0.51100000000E-03 0.  1.
         23    2    1    2    0    0 -0.35527136788E-14 -0.35527136788E-14 -0.35527136788E-14  0.91188000000E+02  0.91188000000E+02 0.  0.
    9900012    2    3    3    0    0  0.20095890480E+02  0.22921474325E+02  0.20652877966E+02  0.54367079755E+02  0.39999989917E+02 0.  0.
        -12    1    3    3    0    0 -0.20095890480E+02 -0.22921474325E+02 -0.20652877966E+02  0.36820920245E+02  0.00000000000E+00 0.  1.
         11    1    4    4    0    0  0.30665790287E+01  0.14208220907E+01 -0.46052544089E+01  0.57123559749E+01  0.51100000000E-03 0.  1.
        -11    1    4    4    0    0  0.22681521928E+01 -0.81447672388E+01  0.46487820327E+01  0.96484673598E+01  0.51100000000E-03 0. -1.
         12    1    4    4    0    0  0.14761159259E+02  0.29645419473E+02  0.20609350342E+02  0.39006256420E+02  0.00000000000E+00 0. -1.
</event>
<event>
 8    1  0.2511738E-006  0.9118800E+02  0.7816164E-02  0.1184000E+00
        -11   -1    0    0    0    0  0.00000000000E+00  0.00000000000E+00  0.45593999997E+02  0.45594000000E+02  0.51100000000E-03 0.  1.
         11   -1    0    0    0    0 -0.00000000000E+00 -0.00000000000E+00 -0.45593999997E+02  0.45594000000E+02  0.51100000000E-03 0. -1.
         23    2    1    2    0    0  0.00000000000E+00  0.00000000000E+00 -0.35527136788E-14  0.91188000000E+02  0.91188000000E+02 0.  0.
    9900012    2    3    3    0    0  0.18700441540E+02  0.23624847770E+02 -0.21164601358E+02  0.54367078004E+02  0.39999985926E+02 0.  0.
        -12    1    3    3    0    0 -0.18700441540E+02 -0.23624847770E+02  0.21164601358E+02  0.36820921996E+02  0.00000000000E+00 0.  1.
         11    1    4    4    0    0  0.14185887378E+01  0.10452130364E+02 -0.16526705868E+02  0.19605902944E+02  0.51100000000E-03 0. -1.
        -11    1    4    4    0    0  0.49305854161E+01  0.19590031837E+02 -0.50992115131E+01  0.20834634103E+02  0.51100000000E-03 0.  1.
        -12    1    4    4    0    0  0.12351267386E+02 -0.64173144302E+01  0.46131602250E+00  0.13926540957E+02  0.00000000000E+00 0.  1.
</event>
<event>
 8    1  0.2511738E-006  0.9118800E+02  0.7816164E-02  0.1184000E+00
        -11   -1    0    0    0    0  0.00000000000E+00  0.00000000000E+00  0.45593999997E+02  0.45594000000E+02  0.51100000000E-03 0.  1.
         11   -1    0    0    0    0 -0.00000000000E+00 -0.00000000000E+00 -0.45593999997E+02  0.45594000000E+02  0.51100000000E-03 0. -1.
         23    2    1    2    0    0  0.00000000000E+00 -0.17763568394E-14  0.00000000000E+00  0.91188000000E+02  0.91188000000E+02 0.  0.
    9900012    2    3    3    0    0  0.57774016107E+01 -0.13778472363E+02  0.33653436816E+02  0.54367102678E+02  0.40000042175E+02 0.  0.
         12    1    3    3    0    0 -0.57774016107E+01  0.13778472363E+02 -0.33653436816E+02  0.36820897322E+02  0.00000000000E+00 0. -1.
         11    1    4    4    0    0  0.30245273285E+01  0.10766183859E+01 -0.20474305730E+01  0.38077348808E+01  0.51100000000E-03 0. -1.
        -11    1    4    4    0    0  0.53913495410E+01 -0.21478222944E+02  0.10761402319E+02  0.24620895411E+02  0.51100000000E-03 0.  1.
        -12    1    4    4    0    0 -0.26384752588E+01  0.66231321946E+01  0.24939465070E+02  0.25938472386E+02  0.00000000000E+00 0.  1.
</event>
<event>
 8    1  0.2511738E-006  0.9118800E+02  0.7816164E-02  0.1184000E+00
        -11   -1    0    0    0    0  0.00000000000E+00  0.00000000000E+00  0.45593999997E+02  0.45594000000E+02  0.51100000000E-03 0.  1.
         11   -1    0    0    0    0 -0.00000000000E+00 -0.00000000000E+00 -0.45593999997E+02  0.45594000000E+02  0.51100000000E-03 0. -1.
         23    2    1    2    0    0  0.35527136788E-14  0.00000000000E+00  0.35527136788E-14  0.91188000000E+02  0.91188000000E+02 0.  0.
    9900012    2    3    3    0    0  0.31002714585E+02  0.93718505955E+01  0.17515167374E+02  0.54367068678E+02  0.39999964666E+02 0.  0.
         12    1    3    3    0    0 -0.31002714585E+02 -0.93718505955E+01 -0.17515167374E+02  0.36820931322E+02  0.00000000000E+00 0. -1.
         11    1    4    4    0    0  0.22558792252E+02  0.42396745816E+01  0.32493452692E+01  0.23182583837E+02  0.51100000000E-03 0. -1.
        -11    1    4    4    0    0 -0.38117892670E+01  0.12122951538E+02  0.28220542640E+01  0.13017668068E+02  0.51100000000E-03 0.  1.
        -12    1    4    4    0    0  0.12255711601E+02 -0.69907755241E+01  0.11443767841E+02  0.18166816773E+02  0.00000000000E+00 0.  1.
</event>
<event>
 8    1  0.2511738E-006  0.9118800E+02  0.7816164E-02  0.1184000E+00
        -11   -1    0    0    0    0  0.00000000000E+00  0.00000000000E+00  0.45593999997E+02  0.45594000000E+02  0.51100000000E-03 0. -1.
         11   -1    0    0    0    0 -0.00000000000E+00 -0.00000000000E+00 -0.45593999997E+02  0.45594000000E+02  0.51100000000E-03 0.  1.
         23    2    1    2    0    0  0.00000000000E+00  0.35527136788E-14 -0.35527136788E-14  0.91188000000E+02  0.91188000000E+02 0.  0.
    9900012    2    3    3    0    0  0.11365119271E+02  0.30376356375E+02 -0.17432014793E+02  0.54367297910E+02  0.40000487241E+02 0.  0.
        -12    1    3    3    0    0 -0.11365119271E+02 -0.30376356375E+02  0.17432014793E+02  0.36820702090E+02  0.00000000000E+00 0.  1.
         11    1    4    4    0    0  0.88393572142E+01  0.31397658565E+02  0.87969332599E+00  0.32630063744E+02  0.51100000000E-03 0. -1.
        -11    1    4    4    0    0  0.68663374451E+01  0.41218429424E+00 -0.13164137413E+02  0.14852979495E+02  0.51100000000E-03 0.  1.
        -12    1    4    4    0    0 -0.43405753881E+01 -0.14334864834E+01 -0.51475707057E+01  0.68842546705E+01  0.00000000000E+00 0.  1.
</event>
<event>
 8    1  0.2511738E-006  0.9118800E+02  0.7816164E-02  0.1184000E+00
        -11   -1    0    0    0    0  0.00000000000E+00  0.00000000000E+00  0.45593999997E+02  0.45594000000E+02  0.51100000000E-03 0.  1.
         11   -1    0    0    0    0 -0.00000000000E+00 -0.00000000000E+00 -0.45593999997E+02  0.45594000000E+02  0.51100000000E-03 0. -1.
         23    2    1    2    0    0  0.35527136788E-14  0.00000000000E+00  0.00000000000E+00  0.91188000000E+02  0.91188000000E+02 0.  0.
    9900012    2    3    3    0    0 -0.17853257451E+02  0.20361654014E+02 -0.24948838333E+02  0.54367078094E+02  0.39999986132E+02 0.  0.
        -12    1    3    3    0    0  0.17853257451E+02 -0.20361654014E+02  0.24948838333E+02  0.36820921906E+02  0.00000000000E+00 0.  1.
         11    1    4    4    0    0 -0.12603601821E+02  0.23717037322E+02 -0.26016209282E+02  0.37392402755E+02  0.51100000000E-03 0. -1.
        -11    1    4    4    0    0  0.19109631245E+01  0.83850972453E+00  0.66523014404E+01  0.69719432970E+01  0.51100000000E-03 0.  1.
         12    1    4    4    0    0 -0.71606187546E+01 -0.41938930317E+01 -0.55849304919E+01  0.10002732042E+02  0.00000000000E+00 0. -1.
</event>
<event>
 8    1  0.2511738E-006  0.9118800E+02  0.7816164E-02  0.1184000E+00
        -11   -1    0    0    0    0  0.00000000000E+00  0.00000000000E+00  0.45593999997E+02  0.45594000000E+02  0.51100000000E-03 0.  1.
         11   -1    0    0    0    0 -0.00000000000E+00 -0.00000000000E+00 -0.45593999997E+02  0.45594000000E+02  0.51100000000E-03 0. -1.
         23    2    1    2    0    0  0.00000000000E+00 -0.88817841970E-15 -0.35527136788E-14  0.91188000000E+02  0.91188000000E+02 0.  0.
    9900012    2    3    3    0    0  0.30894788514E+02  0.20426900958E+01  0.19927852567E+02  0.54367084095E+02  0.39999999810E+02 0.  0.
         12    1    3    3    0    0 -0.30894788514E+02 -0.20426900958E+01 -0.19927852567E+02  0.36820915905E+02  0.00000000000E+00 0. -1.
         11    1    4    4    0    0  0.15289074531E+02 -0.48025823264E+00 -0.72900989586E+01  0.16944969492E+02  0.51100000000E-03 0. -1.
        -11    1    4    4    0    0 -0.95560878320E+00 -0.66718443726E+01  0.71922475908E+01  0.98567297390E+01  0.51100000000E-03 0.  1.
         12    1    4    4    0    0  0.16561322766E+02  0.91947927011E+01  0.20025703935E+02  0.27565384864E+02  0.00000000000E+00 0. -1.
</event>
<event>
 8    1  0.2511738E-006  0.9118800E+02  0.7816164E-02  0.1184000E+00
        -11   -1    0    0    0    0  0.00000000000E+00  0.00000000000E+00  0.45593999997E+02  0.45594000000E+02  0.51100000000E-03 0.  1.
         11   -1    0    0    0    0 -0.00000000000E+00 -0.00000000000E+00 -0.45593999997E+02  0.45594000000E+02  0.51100000000E-03 0. -1.
         23    2    1    2    0    0 -0.88817841970E-15  0.88817841970E-15  0.00000000000E+00  0.91188000000E+02  0.91188000000E+02 0.  0.
    9900012    2    3    3    0    0 -0.37973751677E+01  0.31300344421E+01 -0.36490589570E+02  0.54367077946E+02  0.39999985793E+02 0.  0.
        -12    1    3    3    0    0  0.37973751677E+01 -0.31300344421E+01  0.36490589570E+02  0.36820922054E+02  0.00000000000E+00 0.  1.
         11    1    4    4    0    0  0.20887505596E+01  0.14273151144E+02 -0.14889690309E+02  0.20731343426E+02  0.51100000000E-03 0. -1.
        -11    1    4    4    0    0 -0.55613420904E+01  0.35159065435E+01  0.10404130097E+01  0.66612749651E+01  0.51100000000E-03 0.  1.
         12    1    4    4    0    0 -0.32478363691E+00 -0.14659023246E+02 -0.22641312271E+02  0.26974459555E+02  0.00000000000E+00 0. -1.
</event>
<event>
 8    1  0.2511738E-006  0.9118800E+02  0.7816164E-02  0.1184000E+00
        -11   -1    0    0    0    0  0.00000000000E+00  0.00000000000E+00  0.45593999997E+02  0.45594000000E+02  0.51100000000E-03 0.  1.
         11   -1    0    0    0    0 -0.00000000000E+00 -0.00000000000E+00 -0.45593999997E+02  0.45594000000E+02  0.51100000000E-03 0. -1.
         23    2    1    2    0    0 -0.35527136788E-14  0.00000000000E+00 -0.88817841970E-15  0.91188000000E+02  0.91188000000E+02 0.  0.
    9900012    2    3    3    0    0 -0.17469601221E+02 -0.32042451833E+02  0.48860259305E+01  0.54367096485E+02  0.40000028057E+02 0.  0.
         12    1    3    3    0    0  0.17469601221E+02  0.32042451833E+02 -0.48860259305E+01  0.36820903515E+02  0.00000000000E+00 0. -1.
         11    1    4    4    0    0  0.12944094361E+01 -0.13783512888E+02 -0.12157319292E+02  0.18424471118E+02  0.51100000000E-03 0. -1.
        -11    1    4    4    0    0 -0.25252952156E+00 -0.36883111796E+01 -0.31941333658E+01  0.48856830369E+01  0.51100000000E-03 0.  1.
        -12    1    4    4    0    0 -0.18511481136E+02 -0.14570627765E+02  0.20237478589E+02  0.31056942331E+02  0.00000000000E+00 0.  1.
</event>
<event>
 8    1  0.2511738E-006  0.9118800E+02  0.7816164E-02  0.1184000E+00
        -11   -1    0    0    0    0  0.00000000000E+00  0.00000000000E+00  0.45593999997E+02  0.45594000000E+02  0.51100000000E-03 0. -1.
         11   -1    0    0    0    0 -0.00000000000E+00 -0.00000000000E+00 -0.45593999997E+02  0.45594000000E+02  0.51100000000E-03 0.  1.
         23    2    1    2    0    0  0.00000000000E+00  0.00000000000E+00  0.00000000000E+00  0.91188000000E+02  0.91188000000E+02 0.  0.
    9900012    2    3    3    0    0  0.67370483163E+01 -0.43733822320E+01 -0.35934183529E+02  0.54367084231E+02  0.40000000122E+02 0.  0.
         12    1    3    3    0    0 -0.67370483163E+01  0.43733822320E+01  0.35934183529E+02  0.36820915769E+02  0.00000000000E+00 0. -1.
         11    1    4    4    0    0  0.69307963441E+01  0.36955816364E+01  0.50459253296E+01  0.93356641053E+01  0.51100000000E-03 0. -1.
        -11    1    4    4    0    0  0.64807917104E+01 -0.18703807972E+01 -0.30076721906E+02  0.30823824980E+02  0.51100000000E-03 0.  1.
        -12    1    4    4    0    0 -0.66745397382E+01 -0.61985830712E+01 -0.10903386952E+02  0.14207595146E+02  0.00000000000E+00 0.  1.
</event>
<event>
 8    1  0.2511738E-006  0.9118800E+02  0.7816164E-02  0.1184000E+00
        -11   -1    0    0    0    0  0.00000000000E+00  0.00000000000E+00  0.45593999997E+02  0.45594000000E+02  0.51100000000E-03 0.  1.
         11   -1    0    0    0    0 -0.00000000000E+00 -0.00000000000E+00 -0.45593999997E+02  0.45594000000E+02  0.51100000000E-03 0. -1.
         23    2    1    2    0    0  0.35527136788E-14  0.00000000000E+00  0.35527136788E-14  0.91188000000E+02  0.91188000000E+02 0.  0.
    9900012    2    3    3    0    0  0.18677816700E+02 -0.18331503044E+02  0.25901241983E+02  0.54367093211E+02  0.40000020592E+02 0.  0.
         12    1    3    3    0    0 -0.18677816700E+02  0.18331503044E+02 -0.25901241983E+02  0.36820906789E+02  0.00000000000E+00 0. -1.
         11    1    4    4    0    0 -0.64723557889E+01 -0.79005027549E+01  0.57932467845E+01  0.11741850016E+02  0.51100000000E-03 0. -1.
        -11    1    4    4    0    0 -0.58332795589E+00 -0.44965527766E+01 -0.46007745129E+01  0.64595963308E+01  0.51100000000E-03 0.  1.
        -12    1    4    4    0    0  0.25733500445E+02 -0.59344475123E+01  0.24708769711E+02  0.36165646864E+02  0.00000000000E+00 0.  1.
</event>
<event>
 8    1  0.2511738E-006  0.9118800E+02  0.7816164E-02  0.1184000E+00
        -11   -1    0    0    0    0  0.00000000000E+00  0.00000000000E+00  0.45593999997E+02  0.45594000000E+02  0.51100000000E-03 0. -1.
         11   -1    0    0    0    0 -0.00000000000E+00 -0.00000000000E+00 -0.45593999997E+02  0.45594000000E+02  0.51100000000E-03 0.  1.
         23    2    1    2    0    0 -0.88817841970E-15  0.00000000000E+00  0.00000000000E+00  0.91188000000E+02  0.91188000000E+02 0.  0.
    9900012    2    3    3    0    0 -0.65526524845E+01  0.63851855006E+01 -0.35666127480E+02  0.54367075271E+02  0.39999979695E+02 0.  0.
         12    1    3    3    0    0  0.65526524845E+01 -0.63851855006E+01  0.35666127480E+02  0.36820924729E+02  0.00000000000E+00 0. -1.
         11    1    4    4    0    0  0.58494015956E+01  0.11772419949E+02 -0.14375240457E+01  0.13223911907E+02  0.51100000000E-03 0. -1.
        -11    1    4    4    0    0 -0.73261169024E+01  0.64874952431E+01 -0.16947083317E+02  0.19569445996E+02  0.51100000000E-03 0.  1.
         12    1    4    4    0    0 -0.50759371777E+01 -0.11874729691E+02 -0.17281520118E+02  0.21573717368E+02  0.00000000000E+00 0. -1.
</event>
<event>
 8    1  0.2511738E-006  0.9118800E+02  0.7816164E-02  0.1184000E+00
        -11   -1    0    0    0    0  0.00000000000E+00  0.00000000000E+00  0.45593999997E+02  0.45594000000E+02  0.51100000000E-03 0.  1.
         11   -1    0    0    0    0 -0.00000000000E+00 -0.00000000000E+00 -0.45593999997E+02  0.45594000000E+02  0.51100000000E-03 0. -1.
         23    2    1    2    0    0  0.00000000000E+00  0.00000000000E+00  0.00000000000E+00  0.91188000000E+02  0.91188000000E+02 0.  0.
    9900012    2    3    3    0    0  0.25781954746E+02  0.23444754450E+02 -0.11891725956E+02  0.54367097676E+02  0.40000030772E+02 0.  0.
         12    1    3    3    0    0 -0.25781954746E+02 -0.23444754450E+02  0.11891725956E+02  0.36820902324E+02  0.00000000000E+00 0. -1.
         11    1    4    4    0    0  0.52557200973E+01 -0.20334996209E+01  0.45118304515E+01  0.72190254698E+01  0.51100000000E-03 0. -1.
        -11    1    4    4    0    0  0.13309656617E+02  0.30554944168E+02 -0.66301692319E+01  0.33981034661E+02  0.51100000000E-03 0.  1.
        -12    1    4    4    0    0  0.72165780315E+01 -0.50766900971E+01 -0.97733871754E+01  0.13167037545E+02  0.00000000000E+00 0.  1.
</event>
<event>
 8    1  0.2511738E-006  0.9118800E+02  0.7816164E-02  0.1184000E+00
        -11   -1    0    0    0    0  0.00000000000E+00  0.00000000000E+00  0.45593999997E+02  0.45594000000E+02  0.51100000000E-03 0. -1.
         11   -1    0    0    0    0 -0.00000000000E+00 -0.00000000000E+00 -0.45593999997E+02  0.45594000000E+02  0.51100000000E-03 0.  1.
         23    2    1    2    0    0  0.00000000000E+00  0.53290705182E-14 -0.35527136788E-14  0.91188000000E+02  0.91188000000E+02 0.  0.
    9900012    2    3    3    0    0 -0.15849020670E+02  0.11287416891E+02 -0.31259891248E+02  0.54367108686E+02  0.40000055872E+02 0.  0.
         12    1    3    3    0    0  0.15849020670E+02 -0.11287416891E+02  0.31259891248E+02  0.36820891314E+02  0.00000000000E+00 0. -1.
         11    1    4    4    0    0 -0.95225177401E+00 -0.26488884088E+01 -0.33891948007E+00  0.28351825194E+01  0.51100000000E-03 0. -1.
        -11    1    4    4    0    0  0.21428321143E+01 -0.10518536313E+02 -0.12569955590E+02  0.16529825148E+02  0.51100000000E-03 0.  1.
        -12    1    4    4    0    0 -0.17039601010E+02  0.24454841614E+02 -0.18351016178E+02  0.35002101019E+02  0.00000000000E+00 0.  1.
</event>
<event>
 8    1  0.2511738E-006  0.9118800E+02  0.7816164E-02  0.1184000E+00
        -11   -1    0    0    0    0  0.00000000000E+00  0.00000000000E+00  0.45593999997E+02  0.45594000000E+02  0.51100000000E-03 0. -1.
         11   -1    0    0    0    0 -0.00000000000E+00 -0.00000000000E+00 -0.45593999997E+02  0.45594000000E+02  0.51100000000E-03 0.  1.
         23    2    1    2    0    0  0.17763568394E-14  0.00000000000E+00  0.00000000000E+00  0.91188000000E+02  0.91188000000E+02 0.  0.
    9900012    2    3    3    0    0 -0.12531094340E+02  0.32744013942E+02 -0.11250864954E+02  0.54367072030E+02  0.39999972307E+02 0.  0.
         12    1    3    3    0    0  0.12531094340E+02 -0.32744013942E+02  0.11250864954E+02  0.36820927970E+02  0.00000000000E+00 0. -1.
         11    1    4    4    0    0 -0.18666857779E+02  0.35580008742E+02  0.85778533340E+00  0.40188610294E+02  0.51100000000E-03 0. -1.
        -11    1    4    4    0    0  0.25968894689E+01 -0.11435542142E+01 -0.80432131952E+01  0.85290579737E+01  0.51100000000E-03 0.  1.
         12    1    4    4    0    0  0.35388739705E+01 -0.16924405864E+01 -0.40654370918E+01  0.56494037619E+01  0.00000000000E+00 0. -1.
</event>
<event>
 8    1  0.2511738E-006  0.9118800E+02  0.7816164E-02  0.1184000E+00
        -11   -1    0    0    0    0  0.00000000000E+00  0.00000000000E+00  0.45593999997E+02  0.45594000000E+02  0.51100000000E-03 0.  1.
         11   -1    0    0    0    0 -0.00000000000E+00 -0.00000000000E+00 -0.45593999997E+02  0.45594000000E+02  0.51100000000E-03 0. -1.
         23    2    1    2    0    0 -0.17763568394E-14  0.00000000000E+00  0.00000000000E+00  0.91188000000E+02  0.91188000000E+02 0.  0.
    9900012    2    3    3    0    0  0.10175312125E+02  0.30212981076E+02  0.18423308419E+02  0.54367088884E+02  0.40000010728E+02 0.  0.
         12    1    3    3    0    0 -0.10175312125E+02 -0.30212981076E+02 -0.18423308419E+02  0.36820911116E+02  0.00000000000E+00 0. -1.
         11    1    4    4    0    0 -0.10210541642E+02  0.47235841301E+01  0.81239091200E+01  0.13876790238E+02  0.51100000000E-03 0. -1.
        -11    1    4    4    0    0  0.46338084927E+01  0.21814862216E+02  0.96568840797E+01  0.24302588443E+02  0.51100000000E-03 0.  1.
         12    1    4    4    0    0  0.15752045274E+02  0.36745347296E+01  0.64251521970E+00  0.16187710203E+02  0.00000000000E+00 0. -1.
</event>
<event>
 8    1  0.2511738E-006  0.9118800E+02  0.7816164E-02  0.1184000E+00
        -11   -1    0    0    0    0  0.00000000000E+00  0.00000000000E+00  0.45593999997E+02  0.45594000000E+02  0.51100000000E-03 0. -1.
         11   -1    0    0    0    0 -0.00000000000E+00 -0.00000000000E+00 -0.45593999997E+02  0.45594000000E+02  0.51100000000E-03 0.  1.
         23    2    1    2    0    0  0.00000000000E+00  0.00000000000E+00  0.00000000000E+00  0.91188000000E+02  0.91188000000E+02 0.  0.
    9900012    2    3    3    0    0 -0.14514566342E+02  0.83734384127E+01 -0.32787071128E+02  0.54367093709E+02  0.40000021728E+02 0.  0.
         12    1    3    3    0    0  0.14514566342E+02 -0.83734384127E+01  0.32787071128E+02  0.36820906291E+02  0.00000000000E+00 0. -1.
         11    1    4    4    0    0 -0.14831658171E+02  0.96877384653E-01 -0.39421242848E+00  0.14837212441E+02  0.51100000000E-03 0. -1.
        -11    1    4    4    0    0 -0.69225590694E+01  0.52969250180E+01 -0.30151986614E+02  0.31386645818E+02  0.51100000000E-03 0.  1.
        -12    1    4    4    0    0  0.72396508983E+01  0.29796360100E+01 -0.22408720863E+01  0.81432354496E+01  0.00000000000E+00 0.  1.
</event>
<event>
 8    1  0.2511738E-006  0.9118800E+02  0.7816164E-02  0.1184000E+00
        -11   -1    0    0    0    0  0.00000000000E+00  0.00000000000E+00  0.45593999997E+02  0.45594000000E+02  0.51100000000E-03 0.  1.
         11   -1    0    0    0    0 -0.00000000000E+00 -0.00000000000E+00 -0.45593999997E+02  0.45594000000E+02  0.51100000000E-03 0. -1.
         23    2    1    2    0    0 -0.17763568394E-14  0.00000000000E+00 -0.35527136788E-14  0.91188000000E+02  0.91188000000E+02 0.  0.
    9900012    2    3    3    0    0  0.64544542073E+01  0.21594965779E+02  0.29116453932E+02  0.54367212180E+02  0.40000291806E+02 0.  0.
         12    1    3    3    0    0 -0.64544542073E+01 -0.21594965779E+02 -0.29116453932E+02  0.36820787820E+02  0.00000000000E+00 0. -1.
         11    1    4    4    0    0  0.69599537318E+01  0.12687501586E+01  0.19100215356E+02  0.20368331051E+02  0.51100000000E-03 0. -1.
        -11    1    4    4    0    0 -0.27101989793E+01 -0.17477625562E+01 -0.58809317117E+01  0.67071014991E+01  0.51100000000E-03 0.  1.
        -12    1    4    4    0    0  0.22046994548E+01  0.22073978176E+02  0.15897170288E+02  0.27291779630E+02  0.00000000000E+00 0.  1.
</event>
<event>
 8    1  0.2511738E-006  0.9118800E+02  0.7816164E-02  0.1184000E+00
        -11   -1    0    0    0    0  0.00000000000E+00  0.00000000000E+00  0.45593999997E+02  0.45594000000E+02  0.51100000000E-03 0. -1.
         11   -1    0    0    0    0 -0.00000000000E+00 -0.00000000000E+00 -0.45593999997E+02  0.45594000000E+02  0.51100000000E-03 0.  1.
         23    2    1    2    0    0  0.88817841970E-15  0.71054273576E-14  0.00000000000E+00  0.91188000000E+02  0.91188000000E+02 0.  0.
    9900012    2    3    3    0    0 -0.68482156953E+01 -0.32267787568E+02  0.16360650092E+02  0.54367095012E+02  0.40000024698E+02 0.  0.
        -12    1    3    3    0    0  0.68482156953E+01  0.32267787568E+02 -0.16360650092E+02  0.36820904988E+02  0.00000000000E+00 0.  1.
         11    1    4    4    0    0  0.58794171219E+00 -0.30953179437E+01  0.10395354373E+02  0.10862323022E+02  0.51100000000E-03 0. -1.
        -11    1    4    4    0    0 -0.53468719777E+01  0.49571363711E+01 -0.34100639931E+01  0.80492718705E+01  0.51100000000E-03 0.  1.
         12    1    4    4    0    0 -0.20892854298E+01 -0.34129605995E+02  0.93753597120E+01  0.35455500120E+02  0.00000000000E+00 0. -1.
</event>
<event>
 8    1  0.2511738E-006  0.9118800E+02  0.7816164E-02  0.1184000E+00
        -11   -1    0    0    0    0  0.00000000000E+00  0.00000000000E+00  0.45593999997E+02  0.45594000000E+02  0.51100000000E-03 0. -1.
         11   -1    0    0    0    0 -0.00000000000E+00 -0.00000000000E+00 -0.45593999997E+02  0.45594000000E+02  0.51100000000E-03 0.  1.
         23    2    1    2    0    0  0.00000000000E+00  0.88817841970E-15  0.00000000000E+00  0.91188000000E+02  0.91188000000E+02 0.  0.
    9900012    2    3    3    0    0  0.17973417987E+01  0.19675641848E+01  0.36724349010E+02  0.54367088054E+02  0.40000008837E+02 0.  0.
        -12    1    3    3    0    0 -0.17973417987E+01 -0.19675641848E+01 -0.36724349010E+02  0.36820911946E+02  0.00000000000E+00 0.  1.
         11    1    4    4    0    0 -0.65230633868E+01  0.15835177914E+02  0.16527495613E+02  0.23800448042E+02  0.51100000000E-03 0.  1.
        -11    1    4    4    0    0  0.53236417571E+01 -0.14316142789E+02  0.22190816176E+02  0.26939291541E+02  0.51100000000E-03 0. -1.
        -12    1    4    4    0    0  0.29967634283E+01  0.44852906051E+00 -0.19939627792E+01  0.36273484707E+01  0.00000000000E+00 0.  1.
</event>
<event>
 8    1  0.2511738E-006  0.9118800E+02  0.7816164E-02  0.1184000E+00
        -11   -1    0    0    0    0  0.00000000000E+00  0.00000000000E+00  0.45593999997E+02  0.45594000000E+02  0.51100000000E-03 0.  1.
         11   -1    0    0    0    0 -0.00000000000E+00 -0.00000000000E+00 -0.45593999997E+02  0.45594000000E+02  0.51100000000E-03 0. -1.
         23    2    1    2    0    0  0.00000000000E+00 -0.88817841970E-15  0.00000000000E+00  0.91188000000E+02  0.91188000000E+02 0.  0.
    9900012    2    3    3    0    0  0.36664705935E+02 -0.19909923450E+01  0.27413632717E+01  0.54367084960E+02  0.40000001782E+02 0.  0.
         12    1    3    3    0    0 -0.36664705935E+02  0.19909923450E+01 -0.27413632717E+01  0.36820915040E+02  0.00000000000E+00 0. -1.
         11    1    4    4    0    0 -0.37672333863E+01  0.47148120152E+01  0.53588565374E+00  0.60587683089E+01  0.51100000000E-03 0. -1.
        -11    1    4    4    0    0  0.16148640589E+02  0.45621858067E+00  0.13048570462E+02  0.20766605877E+02  0.51100000000E-03 0.  1.
         12    1    4    4    0    0  0.24283298732E+02 -0.71620229409E+01 -0.10843092844E+02  0.27541710774E+02  0.00000000000E+00 0. -1.
</event>
<event>
 8    1  0.2511738E-006  0.9118800E+02  0.7816164E-02  0.1184000E+00
        -11   -1    0    0    0    0  0.00000000000E+00  0.00000000000E+00  0.45593999997E+02  0.45594000000E+02  0.51100000000E-03 0.  1.
         11   -1    0    0    0    0 -0.00000000000E+00 -0.00000000000E+00 -0.45593999997E+02  0.45594000000E+02  0.51100000000E-03 0. -1.
         23    2    1    2    0    0  0.00000000000E+00  0.00000000000E+00  0.35527136788E-14  0.91188000000E+02  0.91188000000E+02 0.  0.
    9900012    2    3    3    0    0 -0.20679090211E+02  0.13555044366E+02  0.27283936173E+02  0.54367120423E+02  0.40000082629E+02 0.  0.
         12    1    3    3    0    0  0.20679090211E+02 -0.13555044366E+02 -0.27283936173E+02  0.36820879577E+02  0.00000000000E+00 0. -1.
         11    1    4    4    0    0 -0.35611348629E+00 -0.57450969876E+01 -0.64133428829E+01  0.86176518500E+01  0.51100000000E-03 0. -1.
        -11    1    4    4    0    0 -0.18557357228E+02  0.12978504393E+02  0.18663110786E+02  0.29344995962E+02  0.51100000000E-03 0.  1.
        -12    1    4    4    0    0 -0.17656194968E+01  0.63216369612E+01  0.15034168270E+02  0.16404472611E+02  0.00000000000E+00 0.  1.
</event>
<event>
 8    1  0.2511738E-006  0.9118800E+02  0.7816164E-02  0.1184000E+00
        -11   -1    0    0    0    0  0.00000000000E+00  0.00000000000E+00  0.45593999997E+02  0.45594000000E+02  0.51100000000E-03 0.  1.
         11   -1    0    0    0    0 -0.00000000000E+00 -0.00000000000E+00 -0.45593999997E+02  0.45594000000E+02  0.51100000000E-03 0. -1.
         23    2    1    2    0    0  0.00000000000E+00 -0.71054273576E-14  0.11102230246E-14  0.91188000000E+02  0.91188000000E+02 0.  0.
    9900012    2    3    3    0    0 -0.22696221095E+02  0.28939815366E+02 -0.17745111703E+01  0.54367078565E+02  0.39999987205E+02 0.  0.
        -12    1    3    3    0    0  0.22696221095E+02 -0.28939815366E+02  0.17745111703E+01  0.36820921435E+02  0.00000000000E+00 0.  1.
         11    1    4    4    0    0 -0.17813277344E+02  0.89461193289E+01  0.48576758230E+01  0.20516893416E+02  0.51100000000E-03 0. -1.
        -11    1    4    4    0    0 -0.50758543933E+00 -0.39805549316E+01  0.53547578226E+01  0.66914790698E+01  0.51100000000E-03 0.  1.
         12    1    4    4    0    0 -0.43753583109E+01  0.23974250969E+02 -0.11986944816E+02  0.27158706079E+02  0.00000000000E+00 0. -1.
</event>
<event>
 8    1  0.2511738E-006  0.9118800E+02  0.7816164E-02  0.1184000E+00
        -11   -1    0    0    0    0  0.00000000000E+00  0.00000000000E+00  0.45593999997E+02  0.45594000000E+02  0.51100000000E-03 0.  1.
         11   -1    0    0    0    0 -0.00000000000E+00 -0.00000000000E+00 -0.45593999997E+02  0.45594000000E+02  0.51100000000E-03 0. -1.
         23    2    1    2    0    0  0.00000000000E+00  0.00000000000E+00  0.35527136788E-14  0.91188000000E+02  0.91188000000E+02 0.  0.
    9900012    2    3    3    0    0  0.26077466284E+02  0.18335402399E+02  0.18427103711E+02  0.54367090450E+02  0.40000014299E+02 0.  0.
         12    1    3    3    0    0 -0.26077466284E+02 -0.18335402399E+02 -0.18427103711E+02  0.36820909550E+02  0.00000000000E+00 0. -1.
         11    1    4    4    0    0 -0.60613674561E+00 -0.65562079041E+01  0.82163731877E+01  0.10529010042E+02  0.51100000000E-03 0. -1.
        -11    1    4    4    0    0  0.78149497393E+00  0.14269016490E+01 -0.53415882102E+01  0.55838470232E+01  0.51100000000E-03 0.  1.
        -12    1    4    4    0    0  0.25902108056E+02  0.23464708654E+02  0.15552318733E+02  0.38254233385E+02  0.00000000000E+00 0.  1.
</event>
<event>
 8    1  0.2511738E-006  0.9118800E+02  0.7816164E-02  0.1184000E+00
        -11   -1    0    0    0    0  0.00000000000E+00  0.00000000000E+00  0.45593999997E+02  0.45594000000E+02  0.51100000000E-03 0. -1.
         11   -1    0    0    0    0 -0.00000000000E+00 -0.00000000000E+00 -0.45593999997E+02  0.45594000000E+02  0.51100000000E-03 0.  1.
         23    2    1    2    0    0 -0.44408920985E-15  0.00000000000E+00  0.00000000000E+00  0.91188000000E+02  0.91188000000E+02 0.  0.
    9900012    2    3    3    0    0  0.33230653322E+01 -0.94036774384E+01 -0.35444381984E+02  0.54367134628E+02  0.40000115011E+02 0.  0.
         12    1    3    3    0    0 -0.33230653322E+01  0.94036774384E+01  0.35444381984E+02  0.36820865372E+02  0.00000000000E+00 0. -1.
         11    1    4    4    0    0 -0.91982934210E+00 -0.12826113152E+01  0.32838579180E+01  0.36434737396E+01  0.51100000000E-03 0. -1.
        -11    1    4    4    0    0 -0.10032372785E+02  0.32202677816E+01 -0.27157577567E+02  0.29129927014E+02  0.51100000000E-03 0.  1.
        -12    1    4    4    0    0  0.14275267459E+02 -0.11341333905E+02 -0.11570662335E+02  0.21593733874E+02  0.00000000000E+00 0.  1.
</event>
<event>
 8    1  0.2511738E-006  0.9118800E+02  0.7816164E-02  0.1184000E+00
        -11   -1    0    0    0    0  0.00000000000E+00  0.00000000000E+00  0.45593999997E+02  0.45594000000E+02  0.51100000000E-03 0. -1.
         11   -1    0    0    0    0 -0.00000000000E+00 -0.00000000000E+00 -0.45593999997E+02  0.45594000000E+02  0.51100000000E-03 0.  1.
         23    2    1    2    0    0  0.00000000000E+00  0.71054273576E-14 -0.88817841970E-15  0.91188000000E+02  0.91188000000E+02 0.  0.
    9900012    2    3    3    0    0 -0.97324141349E+01  0.34641874344E+02 -0.78102600390E+01  0.54367088756E+02  0.40000010437E+02 0.  0.
        -12    1    3    3    0    0  0.97324141349E+01 -0.34641874344E+02  0.78102600390E+01  0.36820911244E+02  0.00000000000E+00 0.  1.
         11    1    4    4    0    0 -0.67572499575E+01  0.19038434811E+02  0.72263705851E+01  0.21455602045E+02  0.51100000000E-03 0. -1.
        -11    1    4    4    0    0 -0.69937640886E+01 -0.47665786724E+01 -0.52325078704E+01  0.99504847742E+01  0.51100000000E-03 0.  1.
        -12    1    4    4    0    0  0.40185999112E+01  0.20370018206E+02 -0.98041227536E+01  0.22961001937E+02  0.00000000000E+00 0.  1.
</event>
<event>
 8    1  0.2511738E-006  0.9118800E+02  0.7816164E-02  0.1184000E+00
        -11   -1    0    0    0    0  0.00000000000E+00  0.00000000000E+00  0.45593999997E+02  0.45594000000E+02  0.51100000000E-03 0. -1.
         11   -1    0    0    0    0 -0.00000000000E+00 -0.00000000000E+00 -0.45593999997E+02  0.45594000000E+02  0.51100000000E-03 0.  1.
         23    2    1    2    0    0  0.00000000000E+00  0.13877787808E-14  0.00000000000E+00  0.91188000000E+02  0.91188000000E+02 0.  0.
    9900012    2    3    3    0    0 -0.22358232740E+02  0.46077857766E+00  0.29251954778E+02  0.54367085474E+02  0.40000002956E+02 0.  0.
        -12    1    3    3    0    0  0.22358232740E+02 -0.46077857766E+00 -0.29251954778E+02  0.36820914526E+02  0.00000000000E+00 0.  1.
         11    1    4    4    0    0 -0.14388482803E+02 -0.13240118322E+02  0.93767000796E+01  0.21685287067E+02  0.51100000000E-03 0. -1.
        -11    1    4    4    0    0 -0.88396617505E+01  0.18367082695E+02  0.18979197812E+02  0.27851378717E+02  0.51100000000E-03 0.  1.
        -12    1    4    4    0    0  0.86991181355E+00 -0.46661857954E+01  0.89605688635E+00  0.48304196903E+01  0.00000000000E+00 0.  1.
</event>
<event>
 8    1  0.2511738E-006  0.9118800E+02  0.7816164E-02  0.1184000E+00
        -11   -1    0    0    0    0  0.00000000000E+00  0.00000000000E+00  0.45593999997E+02  0.45594000000E+02  0.51100000000E-03 0.  1.
         11   -1    0    0    0    0 -0.00000000000E+00 -0.00000000000E+00 -0.45593999997E+02  0.45594000000E+02  0.51100000000E-03 0. -1.
         23    2    1    2    0    0 -0.17763568394E-14  0.00000000000E+00 -0.35527136788E-14  0.91188000000E+02  0.91188000000E+02 0.  0.
    9900012    2    3    3    0    0  0.14588772803E+02 -0.24826683459E+02  0.22947376528E+02  0.54367101139E+02  0.40000038666E+02 0.  0.
         12    1    3    3    0    0 -0.14588772803E+02  0.24826683459E+02 -0.22947376528E+02  0.36820898861E+02  0.00000000000E+00 0. -1.
         11    1    4    4    0    0 -0.42176367704E+01 -0.48181894308E+01 -0.83766645485E+01  0.10543809489E+02  0.51100000000E-03 0. -1.
        -11    1    4    4    0    0  0.15886485436E+02 -0.14416991852E+02  0.14601596692E+02  0.25950658947E+02  0.51100000000E-03 0.  1.
        -12    1    4    4    0    0  0.29199241374E+01 -0.55915021760E+01  0.16722444384E+02  0.17872632703E+02  0.00000000000E+00 0.  1.
</event>
<event>
 8    1  0.2511738E-006  0.9118800E+02  0.7816164E-02  0.1184000E+00
        -11   -1    0    0    0    0  0.00000000000E+00  0.00000000000E+00  0.45593999997E+02  0.45594000000E+02  0.51100000000E-03 0.  1.
         11   -1    0    0    0    0 -0.00000000000E+00 -0.00000000000E+00 -0.45593999997E+02  0.45594000000E+02  0.51100000000E-03 0. -1.
         23    2    1    2    0    0  0.00000000000E+00  0.71054273576E-14  0.11102230246E-14  0.91188000000E+02  0.91188000000E+02 0.  0.
    9900012    2    3    3    0    0  0.17625138293E+02  0.32317704456E+02 -0.83684294762E+00  0.54367084377E+02  0.40000000455E+02 0.  0.
        -12    1    3    3    0    0 -0.17625138293E+02 -0.32317704456E+02  0.83684294762E+00  0.36820915623E+02  0.00000000000E+00 0.  1.
         11    1    4    4    0    0  0.77403860379E+01  0.20505826502E+02 -0.25339652827E+01  0.22064076615E+02  0.51100000000E-03 0. -1.
        -11    1    4    4    0    0  0.55416892227E+01 -0.67603210456E+01  0.83638634296E+01  0.12098201181E+02  0.51100000000E-03 0.  1.
        -12    1    4    4    0    0  0.43430630327E+01  0.18572198999E+02 -0.66667410946E+01  0.20204806582E+02  0.00000000000E+00 0.  1.
</event>
<event>
 8    1  0.2511738E-006  0.9118800E+02  0.7816164E-02  0.1184000E+00
        -11   -1    0    0    0    0  0.00000000000E+00  0.00000000000E+00  0.45593999997E+02  0.45594000000E+02  0.51100000000E-03 0. -1.
         11   -1    0    0    0    0 -0.00000000000E+00 -0.00000000000E+00 -0.45593999997E+02  0.45594000000E+02  0.51100000000E-03 0.  1.
         23    2    1    2    0    0  0.71054273576E-14  0.00000000000E+00  0.33306690739E-15  0.91188000000E+02  0.91188000000E+02 0.  0.
    9900012    2    3    3    0    0 -0.33198367672E+02 -0.15896861631E+02 -0.97108998356E+00  0.54367016287E+02  0.39999845230E+02 0.  0.
         12    1    3    3    0    0  0.33198367672E+02  0.15896861631E+02  0.97108998356E+00  0.36820983713E+02  0.00000000000E+00 0. -1.
         11    1    4    4    0    0 -0.25763743401E+02 -0.11973261337E+02  0.51583986844E+01  0.28874530963E+02  0.51100000000E-03 0. -1.
        -11    1    4    4    0    0 -0.11835439647E+02 -0.51768919082E+01 -0.12282056052E+02  0.17824891096E+02  0.51100000000E-03 0.  1.
        -12    1    4    4    0    0  0.44008153757E+01  0.12532916138E+01  0.61525673838E+01  0.76675942285E+01  0.00000000000E+00 0.  1.
</event>
<event>
 8    1  0.2511738E-006  0.9118800E+02  0.7816164E-02  0.1184000E+00
        -11   -1    0    0    0    0  0.00000000000E+00  0.00000000000E+00  0.45593999997E+02  0.45594000000E+02  0.51100000000E-03 0.  1.
         11   -1    0    0    0    0 -0.00000000000E+00 -0.00000000000E+00 -0.45593999997E+02  0.45594000000E+02  0.51100000000E-03 0. -1.
         23    2    1    2    0    0  0.35527136788E-14  0.00000000000E+00 -0.35527136788E-14  0.91188000000E+02  0.91188000000E+02 0.  0.
    9900012    2    3    3    0    0 -0.15662761860E+02 -0.18847957747E+02  0.27481087774E+02  0.54367111831E+02  0.40000063040E+02 0.  0.
         12    1    3    3    0    0  0.15662761860E+02  0.18847957747E+02 -0.27481087774E+02  0.36820888169E+02  0.00000000000E+00 0. -1.
         11    1    4    4    0    0  0.20513928865E+01 -0.11969859901E+02  0.48290660543E+01  0.13069263102E+02  0.51100000000E-03 0. -1.
        -11    1    4    4    0    0  0.19670709302E+01 -0.13235331224E+02  0.12274742185E+02  0.18157991536E+02  0.51100000000E-03 0.  1.
         12    1    4    4    0    0 -0.19681225677E+02  0.63572333774E+01  0.10377279535E+02  0.23139857193E+02  0.00000000000E+00 0. -1.
</event>
<event>
 8    1  0.2511738E-006  0.9118800E+02  0.7816164E-02  0.1184000E+00
        -11   -1    0    0    0    0  0.00000000000E+00  0.00000000000E+00  0.45593999997E+02  0.45594000000E+02  0.51100000000E-03 0.  1.
         11   -1    0    0    0    0 -0.00000000000E+00 -0.00000000000E+00 -0.45593999997E+02  0.45594000000E+02  0.51100000000E-03 0. -1.
         23    2    1    2    0    0  0.00000000000E+00  0.35527136788E-14  0.35527136788E-14  0.91188000000E+02  0.91188000000E+02 0.  0.
    9900012    2    3    3    0    0 -0.65630046059E+01 -0.25260279837E+02 -0.25973526364E+02  0.54367097802E+02  0.40000031060E+02 0.  0.
        -12    1    3    3    0    0  0.65630046059E+01  0.25260279837E+02  0.25973526364E+02  0.36820902198E+02  0.00000000000E+00 0.  1.
         11    1    4    4    0    0  0.37406923967E+01 -0.51275476951E+01 -0.54776646764E+01  0.83838735403E+01  0.51100000000E-03 0. -1.
        -11    1    4    4    0    0  0.17199985582E+01  0.41136965843E-02  0.85097982210E+01  0.86818821684E+01  0.51100000000E-03 0.  1.
         12    1    4    4    0    0 -0.12023695561E+02 -0.20136845838E+02 -0.29005659908E+02  0.37301342094E+02  0.00000000000E+00 0. -1.
</event>
<event>
 8    1  0.2511738E-006  0.9118800E+02  0.7816164E-02  0.1184000E+00
        -11   -1    0    0    0    0  0.00000000000E+00  0.00000000000E+00  0.45593999997E+02  0.45594000000E+02  0.51100000000E-03 0. -1.
         11   -1    0    0    0    0 -0.00000000000E+00 -0.00000000000E+00 -0.45593999997E+02  0.45594000000E+02  0.51100000000E-03 0.  1.
         23    2    1    2    0    0  0.00000000000E+00  0.77715611724E-15  0.00000000000E+00  0.91188000000E+02  0.91188000000E+02 0.  0.
    9900012    2    3    3    0    0 -0.26226975617E+02  0.89795756386E+00  0.25828653800E+02  0.54367082916E+02  0.39999997124E+02 0.  0.
        -12    1    3    3    0    0  0.26226975617E+02 -0.89795756386E+00 -0.25828653800E+02  0.36820917084E+02  0.00000000000E+00 0.  1.
         11    1    4    4    0    0 -0.30644938269E+02 -0.49552494508E+01  0.23863306942E+02  0.39155129384E+02  0.51100000000E-03 0. -1.
        -11    1    4    4    0    0 -0.23061328429E+01 -0.26022172472E+01  0.26728955420E+01  0.43856760175E+01  0.51100000000E-03 0.  1.
         12    1    4    4    0    0  0.67240954954E+01  0.84554242619E+01 -0.70754868425E+00  0.10826277514E+02  0.00000000000E+00 0. -1.
</event>
<event>
 8    1  0.2511738E-006  0.9118800E+02  0.7816164E-02  0.1184000E+00
        -11   -1    0    0    0    0  0.00000000000E+00  0.00000000000E+00  0.45593999997E+02  0.45594000000E+02  0.51100000000E-03 0.  1.
         11   -1    0    0    0    0 -0.00000000000E+00 -0.00000000000E+00 -0.45593999997E+02  0.45594000000E+02  0.51100000000E-03 0. -1.
         23    2    1    2    0    0  0.00000000000E+00  0.00000000000E+00  0.35527136788E-14  0.91188000000E+02  0.91188000000E+02 0.  0.
    9900012    2    3    3    0    0  0.13409443078E+02 -0.18671122295E+02  0.28763812169E+02  0.54367070328E+02  0.39999968427E+02 0.  0.
         12    1    3    3    0    0 -0.13409443078E+02  0.18671122295E+02 -0.28763812169E+02  0.36820929672E+02  0.00000000000E+00 0. -1.
         11    1    4    4    0    0  0.14300962140E+02  0.38484097305E+01  0.22456469113E+02  0.26900200387E+02  0.51100000000E-03 0. -1.
        -11    1    4    4    0    0  0.16233145647E+01 -0.17756384008E+02  0.10454221360E+02  0.20669181593E+02  0.51100000000E-03 0.  1.
         12    1    4    4    0    0 -0.25148336275E+01 -0.47631480178E+01 -0.41468783035E+01  0.67976883481E+01  0.00000000000E+00 0. -1.
</event>
<event>
 8    1  0.2511738E-006  0.9118800E+02  0.7816164E-02  0.1184000E+00
        -11   -1    0    0    0    0  0.00000000000E+00  0.00000000000E+00  0.45593999997E+02  0.45594000000E+02  0.51100000000E-03 0. -1.
         11   -1    0    0    0    0 -0.00000000000E+00 -0.00000000000E+00 -0.45593999997E+02  0.45594000000E+02  0.51100000000E-03 0.  1.
         23    2    1    2    0    0  0.00000000000E+00 -0.17763568394E-14  0.35527136788E-14  0.91188000000E+02  0.91188000000E+02 0.  0.
    9900012    2    3    3    0    0  0.32685988320E+02 -0.14961841192E+02 -0.79714834313E+01  0.54367148945E+02  0.40000147650E+02 0.  0.
        -12    1    3    3    0    0 -0.32685988320E+02  0.14961841192E+02  0.79714834313E+01  0.36820851055E+02  0.00000000000E+00 0.  1.
         11    1    4    4    0    0  0.12512170234E+02 -0.12532750651E+02  0.64810575037E+01  0.18858110973E+02  0.51100000000E-03 0. -1.
        -11    1    4    4    0    0  0.69724509755E+01 -0.78055372942E+00  0.72273094433E+01  0.10072653016E+02  0.51100000000E-03 0.  1.
        -12    1    4    4    0    0  0.13201367110E+02 -0.16485368116E+01 -0.21679850378E+02  0.25436384956E+02  0.00000000000E+00 0.  1.
</event>
<event>
 8    1  0.2511738E-006  0.9118800E+02  0.7816164E-02  0.1184000E+00
        -11   -1    0    0    0    0  0.00000000000E+00  0.00000000000E+00  0.45593999997E+02  0.45594000000E+02  0.51100000000E-03 0. -1.
         11   -1    0    0    0    0 -0.00000000000E+00 -0.00000000000E+00 -0.45593999997E+02  0.45594000000E+02  0.51100000000E-03 0.  1.
         23    2    1    2    0    0  0.00000000000E+00  0.00000000000E+00  0.17763568394E-14  0.91188000000E+02  0.91188000000E+02 0.  0.
    9900012    2    3    3    0    0 -0.34753165600E+02 -0.31304472775E+01 -0.11755722967E+02  0.54367092327E+02  0.40000018578E+02 0.  0.
         12    1    3    3    0    0  0.34753165600E+02  0.31304472775E+01  0.11755722967E+02  0.36820907673E+02  0.00000000000E+00 0. -1.
         11    1    4    4    0    0 -0.14092741263E+02  0.11127281451E+02  0.29829361375E+01  0.18202188249E+02  0.51100000000E-03 0.  1.
        -11    1    4    4    0    0  0.18628231603E+01  0.26007410967E+01 -0.58376320586E+01  0.66567193641E+01  0.51100000000E-03 0. -1.
         12    1    4    4    0    0 -0.22523247497E+02 -0.16858469825E+02 -0.89010270456E+01  0.29508184714E+02  0.00000000000E+00 0. -1.
</event>
<event>
 8    1  0.2511738E-006  0.9118800E+02  0.7816164E-02  0.1184000E+00
        -11   -1    0    0    0    0  0.00000000000E+00  0.00000000000E+00  0.45593999997E+02  0.45594000000E+02  0.51100000000E-03 0.  1.
         11   -1    0    0    0    0 -0.00000000000E+00 -0.00000000000E+00 -0.45593999997E+02  0.45594000000E+02  0.51100000000E-03 0. -1.
         23    2    1    2    0    0  0.35527136788E-14 -0.35527136788E-14  0.26645352591E-14  0.91188000000E+02  0.91188000000E+02 0.  0.
    9900012    2    3    3    0    0  0.25174893336E+02 -0.26289761869E+02  0.55545197296E+01  0.54367088509E+02  0.40000009874E+02 0.  0.
         12    1    3    3    0    0 -0.25174893336E+02  0.26289761869E+02 -0.55545197296E+01  0.36820911491E+02  0.00000000000E+00 0. -1.
         11    1    4    4    0    0  0.10930302311E+02 -0.78894707721E+01 -0.79295371947E+01  0.15639463484E+02  0.51100000000E-03 0. -1.
        -11    1    4    4    0    0  0.85404840619E+01 -0.20448933059E+02  0.19983875703E+02  0.29840476197E+02  0.51100000000E-03 0.  1.
        -12    1    4    4    0    0  0.57041069635E+01  0.20486419628E+01 -0.64998187789E+01  0.88871488286E+01  0.00000000000E+00 0.  1.
</event>
<event>
 8    1  0.2511738E-006  0.9118800E+02  0.7816164E-02  0.1184000E+00
        -11   -1    0    0    0    0  0.00000000000E+00  0.00000000000E+00  0.45593999997E+02  0.45594000000E+02  0.51100000000E-03 0. -1.
         11   -1    0    0    0    0 -0.00000000000E+00 -0.00000000000E+00 -0.45593999997E+02  0.45594000000E+02  0.51100000000E-03 0.  1.
         23    2    1    2    0    0  0.17763568394E-14  0.00000000000E+00  0.88817841970E-15  0.91188000000E+02  0.91188000000E+02 0.  0.
    9900012    2    3    3    0    0  0.13973621399E+02 -0.33325162006E+02 -0.70676233375E+01  0.54367084512E+02  0.40000000763E+02 0.  0.
         12    1    3    3    0    0 -0.13973621399E+02  0.33325162006E+02  0.70676233375E+01  0.36820915488E+02  0.00000000000E+00 0. -1.
         11    1    4    4    0    0  0.96291221101E+01 -0.76022279213E+01 -0.19052605014E+02  0.22660883038E+02  0.51100000000E-03 0. -1.
        -11    1    4    4    0    0  0.32092268773E+01 -0.12681521127E+02 -0.11876704001E+01  0.13135093318E+02  0.51100000000E-03 0.  1.
        -12    1    4    4    0    0  0.11352724118E+01 -0.13041412958E+02  0.13172652077E+02  0.18571108155E+02  0.00000000000E+00 0.  1.
</event>
<event>
 8    1  0.2511738E-006  0.9118800E+02  0.7816164E-02  0.1184000E+00
        -11   -1    0    0    0    0  0.00000000000E+00  0.00000000000E+00  0.45593999997E+02  0.45594000000E+02  0.51100000000E-03 0. -1.
         11   -1    0    0    0    0 -0.00000000000E+00 -0.00000000000E+00 -0.45593999997E+02  0.45594000000E+02  0.51100000000E-03 0.  1.
         23    2    1    2    0    0  0.00000000000E+00  0.00000000000E+00  0.00000000000E+00  0.91188000000E+02  0.91188000000E+02 0.  0.
    9900012    2    3    3    0    0  0.17239520889E+02 -0.14815474155E+02  0.28966763575E+02  0.54367180524E+02  0.40000219639E+02 0.  0.
        -12    1    3    3    0    0 -0.17239520889E+02  0.14815474155E+02 -0.28966763575E+02  0.36820819476E+02  0.00000000000E+00 0.  1.
         11    1    4    4    0    0  0.63540916441E+01 -0.61520416482E+01 -0.86004090831E+01  0.12336496007E+02  0.51100000000E-03 0.  1.
        -11    1    4    4    0    0  0.12066623186E+02 -0.49739824010E+01  0.35074444312E+02  0.37424063650E+02  0.51100000000E-03 0. -1.
        -12    1    4    4    0    0 -0.11811939408E+01 -0.36894501055E+01  0.24927283455E+01  0.46066208669E+01  0.00000000000E+00 0.  1.
</event>
<event>
 8    1  0.2511738E-006  0.9118800E+02  0.7816164E-02  0.1184000E+00
        -11   -1    0    0    0    0  0.00000000000E+00  0.00000000000E+00  0.45593999997E+02  0.45594000000E+02  0.51100000000E-03 0. -1.
         11   -1    0    0    0    0 -0.00000000000E+00 -0.00000000000E+00 -0.45593999997E+02  0.45594000000E+02  0.51100000000E-03 0.  1.
         23    2    1    2    0    0 -0.17763568394E-14 -0.88817841970E-15  0.00000000000E+00  0.91188000000E+02  0.91188000000E+02 0.  0.
    9900012    2    3    3    0    0  0.10929862311E+02 -0.31676773931E+01 -0.35018352286E+02  0.54367067543E+02  0.39999962077E+02 0.  0.
         12    1    3    3    0    0 -0.10929862311E+02  0.31676773931E+01  0.35018352286E+02  0.36820932457E+02  0.00000000000E+00 0. -1.
         11    1    4    4    0    0  0.93482956159E+01  0.16216501164E+02 -0.74514928094E+01  0.20146718995E+02  0.51100000000E-03 0. -1.
        -11    1    4    4    0    0  0.26289654460E+01 -0.36100683823E+01 -0.59397725540E+01  0.74313492245E+01  0.51100000000E-03 0.  1.
        -12    1    4    4    0    0 -0.10473987514E+01 -0.15774110175E+02 -0.21627086923E+02  0.26788999323E+02  0.00000000000E+00 0.  1.
</event>
<event>
 8    1  0.2511738E-006  0.9118800E+02  0.7816164E-02  0.1184000E+00
        -11   -1    0    0    0    0  0.00000000000E+00  0.00000000000E+00  0.45593999997E+02  0.45594000000E+02  0.51100000000E-03 0.  1.
         11   -1    0    0    0    0 -0.00000000000E+00 -0.00000000000E+00 -0.45593999997E+02  0.45594000000E+02  0.51100000000E-03 0. -1.
         23    2    1    2    0    0  0.00000000000E+00 -0.71054273576E-14 -0.35527136788E-14  0.91188000000E+02  0.91188000000E+02 0.  0.
    9900012    2    3    3    0    0 -0.88843428443E+01  0.30208432859E+02  0.19086673247E+02  0.54367054069E+02  0.39999931361E+02 0.  0.
         12    1    3    3    0    0  0.88843428443E+01 -0.30208432859E+02 -0.19086673247E+02  0.36820945931E+02  0.00000000000E+00 0. -1.
         11    1    4    4    0    0 -0.16581725698E+02  0.73624494528E+01  0.60504439358E+01  0.19125040160E+02  0.51100000000E-03 0. -1.
        -11    1    4    4    0    0  0.25054593829E+01  0.27367223331E+01  0.13968028689E+02  0.14452432375E+02  0.51100000000E-03 0.  1.
         12    1    4    4    0    0  0.51919234704E+01  0.20109261074E+02 -0.93179937712E+00  0.20789581533E+02  0.00000000000E+00 0. -1.
</event>
<event>
 8    1  0.2511738E-006  0.9118800E+02  0.7816164E-02  0.1184000E+00
        -11   -1    0    0    0    0  0.00000000000E+00  0.00000000000E+00  0.45593999997E+02  0.45594000000E+02  0.51100000000E-03 0. -1.
         11   -1    0    0    0    0 -0.00000000000E+00 -0.00000000000E+00 -0.45593999997E+02  0.45594000000E+02  0.51100000000E-03 0.  1.
         23    2    1    2    0    0  0.00000000000E+00  0.00000000000E+00  0.22204460493E-15  0.91188000000E+02  0.91188000000E+02 0.  0.
    9900012    2    3    3    0    0 -0.31783894855E+02 -0.18521271265E+02 -0.15896557020E+01  0.54367075695E+02  0.39999980661E+02 0.  0.
        -12    1    3    3    0    0  0.31783894855E+02  0.18521271265E+02  0.15896557020E+01  0.36820924305E+02  0.00000000000E+00 0.  1.
         11    1    4    4    0    0 -0.32041362220E+02 -0.11395455862E+02 -0.11287940475E+01  0.34026158812E+02  0.51100000000E-03 0. -1.
        -11    1    4    4    0    0 -0.91836269366E+01 -0.56205986277E+01 -0.53375626386E+00  0.10780307447E+02  0.51100000000E-03 0.  1.
         12    1    4    4    0    0  0.94410943017E+01 -0.15052167756E+01  0.72894609379E-01  0.95606094355E+01  0.00000000000E+00 0. -1.
</event>
<event>
 8    1  0.2511738E-006  0.9118800E+02  0.7816164E-02  0.1184000E+00
        -11   -1    0    0    0    0  0.00000000000E+00  0.00000000000E+00  0.45593999997E+02  0.45594000000E+02  0.51100000000E-03 0.  1.
         11   -1    0    0    0    0 -0.00000000000E+00 -0.00000000000E+00 -0.45593999997E+02  0.45594000000E+02  0.51100000000E-03 0. -1.
         23    2    1    2    0    0  0.88817841970E-15  0.00000000000E+00 -0.71054273576E-14  0.91188000000E+02  0.91188000000E+02 0.  0.
    9900012    2    3    3    0    0 -0.29560784164E+01 -0.10690161868E+02 -0.35110712835E+02  0.54367080454E+02  0.39999991512E+02 0.  0.
        -12    1    3    3    0    0  0.29560784164E+01  0.10690161868E+02  0.35110712835E+02  0.36820919546E+02  0.00000000000E+00 0.  1.
         11    1    4    4    0    0 -0.10440647891E+01  0.49756541866E+01 -0.19529675668E+02  0.20180570801E+02  0.51100000000E-03 0. -1.
        -11    1    4    4    0    0 -0.11015010878E+02 -0.28629750280E+01 -0.14509976388E+02  0.18440892216E+02  0.51100000000E-03 0.  1.
        -12    1    4    4    0    0  0.91029972512E+01 -0.12802841027E+02 -0.10710607787E+01  0.15745617438E+02  0.00000000000E+00 0.  1.
</event>
<event>
 8    1  0.2511738E-006  0.9118800E+02  0.7816164E-02  0.1184000E+00
        -11   -1    0    0    0    0  0.00000000000E+00  0.00000000000E+00  0.45593999997E+02  0.45594000000E+02  0.51100000000E-03 0.  1.
         11   -1    0    0    0    0 -0.00000000000E+00 -0.00000000000E+00 -0.45593999997E+02  0.45594000000E+02  0.51100000000E-03 0. -1.
         23    2    1    2    0    0  0.00000000000E+00  0.17763568394E-14 -0.88817841970E-15  0.91188000000E+02  0.91188000000E+02 0.  0.
    9900012    2    3    3    0    0  0.35387559289E+02 -0.90683675153E+01  0.46116013417E+01  0.54367061544E+02  0.39999948403E+02 0.  0.
         12    1    3    3    0    0 -0.35387559289E+02  0.90683675153E+01 -0.46116013417E+01  0.36820938456E+02  0.00000000000E+00 0. -1.
         11    1    4    4    0    0  0.32666922384E+01  0.27073639978E+00 -0.88588062075E+01  0.94457939879E+01  0.51100000000E-03 0. -1.
        -11    1    4    4    0    0  0.12498639094E+02  0.44364220633E+01  0.16035522051E+02  0.20809511951E+02  0.51100000000E-03 0.  1.
         12    1    4    4    0    0  0.19622227957E+02 -0.13775525978E+02 -0.25651145022E+01  0.24111755606E+02  0.00000000000E+00 0. -1.
</event>
<event>
 8    1  0.2511738E-006  0.9118800E+02  0.7816164E-02  0.1184000E+00
        -11   -1    0    0    0    0  0.00000000000E+00  0.00000000000E+00  0.45593999997E+02  0.45594000000E+02  0.51100000000E-03 0. -1.
         11   -1    0    0    0    0 -0.00000000000E+00 -0.00000000000E+00 -0.45593999997E+02  0.45594000000E+02  0.51100000000E-03 0.  1.
         23    2    1    2    0    0  0.00000000000E+00  0.00000000000E+00 -0.35527136788E-14  0.91188000000E+02  0.91188000000E+02 0.  0.
    9900012    2    3    3    0    0  0.30984258709E+02 -0.15643687078E+02 -0.12289441154E+02  0.54367087504E+02  0.40000007583E+02 0.  0.
         12    1    3    3    0    0 -0.30984258709E+02  0.15643687078E+02  0.12289441154E+02  0.36820912496E+02  0.00000000000E+00 0. -1.
         11    1    4    4    0    0  0.14443495301E+02 -0.91743781125E-01 -0.23493952697E+01  0.14633613082E+02  0.51100000000E-03 0. -1.
        -11    1    4    4    0    0  0.21013920382E+02  0.97798122161E+00 -0.79709542364E+01  0.22496164313E+02  0.51100000000E-03 0.  1.
         12    1    4    4    0    0 -0.44731569735E+01 -0.16529924519E+02 -0.19690916476E+01  0.17237310110E+02  0.00000000000E+00 0. -1.
</event>
<event>
 8    1  0.2511738E-006  0.9118800E+02  0.7816164E-02  0.1184000E+00
        -11   -1    0    0    0    0  0.00000000000E+00  0.00000000000E+00  0.45593999997E+02  0.45594000000E+02  0.51100000000E-03 0. -1.
         11   -1    0    0    0    0 -0.00000000000E+00 -0.00000000000E+00 -0.45593999997E+02  0.45594000000E+02  0.51100000000E-03 0.  1.
         23    2    1    2    0    0 -0.44408920985E-15 -0.35527136788E-14 -0.35527136788E-14  0.91188000000E+02  0.91188000000E+02 0.  0.
    9900012    2    3    3    0    0  0.30932389874E+01  0.28506225505E+02 -0.23099954317E+02  0.54367069683E+02  0.39999966955E+02 0.  0.
        -12    1    3    3    0    0 -0.30932389874E+01 -0.28506225505E+02  0.23099954317E+02  0.36820930317E+02  0.00000000000E+00 0.  1.
         11    1    4    4    0    0 -0.25949732136E+01  0.29404668720E+02 -0.57229213863E+01  0.30068592551E+02  0.51100000000E-03 0. -1.
        -11    1    4    4    0    0  0.10349250168E+02  0.11384222925E+01 -0.15893013225E+02  0.18999759314E+02  0.51100000000E-03 0.  1.
         12    1    4    4    0    0 -0.46610379670E+01 -0.20368655078E+01 -0.14840197064E+01  0.52987178181E+01  0.00000000000E+00 0. -1.
</event>
<event>
 8    1  0.2511738E-006  0.9118800E+02  0.7816164E-02  0.1184000E+00
        -11   -1    0    0    0    0  0.00000000000E+00  0.00000000000E+00  0.45593999997E+02  0.45594000000E+02  0.51100000000E-03 0.  1.
         11   -1    0    0    0    0 -0.00000000000E+00 -0.00000000000E+00 -0.45593999997E+02  0.45594000000E+02  0.51100000000E-03 0. -1.
         23    2    1    2    0    0  0.00000000000E+00  0.00000000000E+00  0.00000000000E+00  0.91188000000E+02  0.91188000000E+02 0.  0.
    9900012    2    3    3    0    0  0.97356921857E+01 -0.29050269167E+02 -0.20422494665E+02  0.54367080275E+02  0.39999991103E+02 0.  0.
        -12    1    3    3    0    0 -0.97356921857E+01  0.29050269167E+02  0.20422494665E+02  0.36820919725E+02  0.00000000000E+00 0.  1.
         11    1    4    4    0    0  0.37221978376E+01 -0.17870686407E+02 -0.11389058654E+02  0.21515734863E+02  0.51100000000E-03 0. -1.
        -11    1    4    4    0    0  0.51088719030E+01 -0.19103945038E+02  0.12765216789E+01  0.19816427428E+02  0.51100000000E-03 0.  1.
        -12    1    4    4    0    0  0.90462244519E+00  0.79243622779E+01 -0.10309957691E+02  0.13034917984E+02  0.00000000000E+00 0.  1.
</event>
<event>
 8    1  0.2511738E-006  0.9118800E+02  0.7816164E-02  0.1184000E+00
        -11   -1    0    0    0    0  0.00000000000E+00  0.00000000000E+00  0.45593999997E+02  0.45594000000E+02  0.51100000000E-03 0. -1.
         11   -1    0    0    0    0 -0.00000000000E+00 -0.00000000000E+00 -0.45593999997E+02  0.45594000000E+02  0.51100000000E-03 0.  1.
         23    2    1    2    0    0  0.35527136788E-14  0.66613381478E-15  0.00000000000E+00  0.91188000000E+02  0.91188000000E+02 0.  0.
    9900012    2    3    3    0    0 -0.17337210539E+02 -0.96746122138E+00  0.32469439756E+02  0.54367090607E+02  0.40000014657E+02 0.  0.
        -12    1    3    3    0    0  0.17337210539E+02  0.96746122138E+00 -0.32469439756E+02  0.36820909393E+02  0.00000000000E+00 0.  1.
         11    1    4    4    0    0 -0.13549383956E+02  0.97249843147E+01  0.16580743355E+02  0.23517699207E+02  0.51100000000E-03 0. -1.
        -11    1    4    4    0    0  0.21767289642E-01 -0.67861357434E+01  0.21783990419E+02  0.22816536788E+02  0.51100000000E-03 0.  1.
        -12    1    4    4    0    0 -0.38095938724E+01 -0.39063097927E+01 -0.58952940186E+01  0.80328546131E+01  0.00000000000E+00 0.  1.
</event>
<event>
 8    1  0.2511738E-006  0.9118800E+02  0.7816164E-02  0.1184000E+00
        -11   -1    0    0    0    0  0.00000000000E+00  0.00000000000E+00  0.45593999997E+02  0.45594000000E+02  0.51100000000E-03 0.  1.
         11   -1    0    0    0    0 -0.00000000000E+00 -0.00000000000E+00 -0.45593999997E+02  0.45594000000E+02  0.51100000000E-03 0. -1.
         23    2    1    2    0    0  0.00000000000E+00  0.00000000000E+00  0.00000000000E+00  0.91188000000E+02  0.91188000000E+02 0.  0.
    9900012    2    3    3    0    0  0.26031466664E+02  0.20267073683E+02  0.16351975638E+02  0.54367100505E+02  0.40000037221E+02 0.  0.
         12    1    3    3    0    0 -0.26031466664E+02 -0.20267073683E+02 -0.16351975638E+02  0.36820899495E+02  0.00000000000E+00 0. -1.
         11    1    4    4    0    0  0.99692046648E+01 -0.46308205198E+01 -0.68879725628E+01  0.12972035562E+02  0.51100000000E-03 0. -1.
        -11    1    4    4    0    0  0.17093620728E+02  0.12943861896E+02  0.10430555349E+02  0.23843907304E+02  0.51100000000E-03 0.  1.
        -12    1    4    4    0    0 -0.10313587286E+01  0.11954032307E+02  0.12809392852E+02  0.17551157638E+02  0.00000000000E+00 0.  1.
</event>
<event>
 8    1  0.2511738E-006  0.9118800E+02  0.7816164E-02  0.1184000E+00
        -11   -1    0    0    0    0  0.00000000000E+00  0.00000000000E+00  0.45593999997E+02  0.45594000000E+02  0.51100000000E-03 0. -1.
         11   -1    0    0    0    0 -0.00000000000E+00 -0.00000000000E+00 -0.45593999997E+02  0.45594000000E+02  0.51100000000E-03 0.  1.
         23    2    1    2    0    0  0.17763568394E-14  0.00000000000E+00  0.00000000000E+00  0.91188000000E+02  0.91188000000E+02 0.  0.
    9900012    2    3    3    0    0 -0.11534862679E+02 -0.63580143014E+01 -0.34384618400E+02  0.54367090378E+02  0.40000014134E+02 0.  0.
         12    1    3    3    0    0  0.11534862679E+02  0.63580143014E+01  0.34384618400E+02  0.36820909622E+02  0.00000000000E+00 0. -1.
         11    1    4    4    0    0 -0.68321329601E+01  0.90916503840E+01 -0.91158212688E+01  0.14575127621E+02  0.51100000000E-03 0. -1.
        -11    1    4    4    0    0 -0.98115748768E+01 -0.18170345323E+02 -0.26773009604E+02  0.33811573377E+02  0.51100000000E-03 0.  1.
        -12    1    4    4    0    0  0.51088451578E+01  0.27206806373E+01  0.15042124722E+01  0.59803893801E+01  0.00000000000E+00 0.  1.
</event>
<event>
 8    1  0.2511738E-006  0.9118800E+02  0.7816164E-02  0.1184000E+00
        -11   -1    0    0    0    0  0.00000000000E+00  0.00000000000E+00  0.45593999997E+02  0.45594000000E+02  0.51100000000E-03 0. -1.
         11   -1    0    0    0    0 -0.00000000000E+00 -0.00000000000E+00 -0.45593999997E+02  0.45594000000E+02  0.51100000000E-03 0.  1.
         23    2    1    2    0    0 -0.88817841970E-15  0.00000000000E+00  0.00000000000E+00  0.91188000000E+02  0.91188000000E+02 0.  0.
    9900012    2    3    3    0    0  0.45033818043E+01 -0.21825235329E+02 -0.29311408899E+02  0.54367081536E+02  0.39999993978E+02 0.  0.
         12    1    3    3    0    0 -0.45033818043E+01  0.21825235329E+02  0.29311408899E+02  0.36820918464E+02  0.00000000000E+00 0. -1.
         11    1    4    4    0    0  0.33539462650E+01 -0.15137849536E+02 -0.20277096523E+02  0.25525753423E+02  0.51100000000E-03 0. -1.
        -11    1    4    4    0    0  0.11027628021E+02 -0.10237185540E+02 -0.10349574067E+02  0.18262591031E+02  0.51100000000E-03 0.  1.
         12    1    4    4    0    0 -0.98781924814E+01  0.35497997467E+01  0.13152616904E+01  0.10578737082E+02  0.00000000000E+00 0. -1.
</event>
<event>
 8    1  0.2511738E-006  0.9118800E+02  0.7816164E-02  0.1184000E+00
        -11   -1    0    0    0    0  0.00000000000E+00  0.00000000000E+00  0.45593999997E+02  0.45594000000E+02  0.51100000000E-03 0. -1.
         11   -1    0    0    0    0 -0.00000000000E+00 -0.00000000000E+00 -0.45593999997E+02  0.45594000000E+02  0.51100000000E-03 0.  1.
         23    2    1    2    0    0  0.00000000000E+00  0.88817841970E-15  0.00000000000E+00  0.91188000000E+02  0.91188000000E+02 0.  0.
    9900012    2    3    3    0    0  0.23425397902E+02 -0.64567820989E+01  0.27664714991E+02  0.54367139642E+02  0.40000126442E+02 0.  0.
        -12    1    3    3    0    0 -0.23425397902E+02  0.64567820989E+01 -0.27664714991E+02  0.36820860358E+02  0.00000000000E+00 0.  1.
         11    1    4    4    0    0  0.18922604234E+02 -0.93499929727E+01  0.10826313277E+02  0.23721222123E+02  0.51100000000E-03 0. -1.
        -11    1    4    4    0    0 -0.22687439802E+01 -0.10381228743E+02  0.58437950276E+01  0.12127120435E+02  0.51100000000E-03 0.  1.
        -12    1    4    4    0    0  0.67715376491E+01  0.13274439617E+02  0.10994606687E+02  0.18518797085E+02  0.00000000000E+00 0.  1.
</event>
<event>
 8    1  0.2511738E-006  0.9118800E+02  0.7816164E-02  0.1184000E+00
        -11   -1    0    0    0    0  0.00000000000E+00  0.00000000000E+00  0.45593999997E+02  0.45594000000E+02  0.51100000000E-03 0.  1.
         11   -1    0    0    0    0 -0.00000000000E+00 -0.00000000000E+00 -0.45593999997E+02  0.45594000000E+02  0.51100000000E-03 0. -1.
         23    2    1    2    0    0  0.17763568394E-14 -0.35527136788E-14  0.71054273576E-14  0.91188000000E+02  0.91188000000E+02 0.  0.
    9900012    2    3    3    0    0  0.13907567146E+02 -0.21491337550E+02  0.26466642789E+02  0.54367065816E+02  0.39999958142E+02 0.  0.
         12    1    3    3    0    0 -0.13907567146E+02  0.21491337550E+02 -0.26466642789E+02  0.36820934184E+02  0.00000000000E+00 0. -1.
         11    1    4    4    0    0  0.34747253757E+01 -0.98513915927E+01 -0.65565258833E+01  0.12333355775E+02  0.51100000000E-03 0.  1.
        -11    1    4    4    0    0  0.14190460748E+02 -0.51774251646E+01  0.10751784225E+02  0.18541191220E+02  0.51100000000E-03 0. -1.
        -12    1    4    4    0    0 -0.37576189774E+01 -0.64625207927E+01  0.22271384447E+02  0.23492518821E+02  0.00000000000E+00 0.  1.
</event>
<event>
 8    1  0.2511738E-006  0.9118800E+02  0.7816164E-02  0.1184000E+00
        -11   -1    0    0    0    0  0.00000000000E+00  0.00000000000E+00  0.45593999997E+02  0.45594000000E+02  0.51100000000E-03 0.  1.
         11   -1    0    0    0    0 -0.00000000000E+00 -0.00000000000E+00 -0.45593999997E+02  0.45594000000E+02  0.51100000000E-03 0. -1.
         23    2    1    2    0    0  0.00000000000E+00  0.00000000000E+00  0.00000000000E+00  0.91188000000E+02  0.91188000000E+02 0.  0.
    9900012    2    3    3    0    0 -0.11783214546E+02 -0.24927032732E+02  0.24404507767E+02  0.54367067024E+02  0.39999960895E+02 0.  0.
         12    1    3    3    0    0  0.11783214546E+02  0.24927032732E+02 -0.24404507767E+02  0.36820932976E+02  0.00000000000E+00 0. -1.
         11    1    4    4    0    0 -0.75755284122E+01  0.20831929093E+00  0.31076040437E+01  0.81908015972E+01  0.51100000000E-03 0. -1.
        -11    1    4    4    0    0 -0.51800178131E+01 -0.31769785587E+02  0.22619182750E+02  0.39341826208E+02  0.51100000000E-03 0.  1.
        -12    1    4    4    0    0  0.97233167901E+00  0.66344335647E+01 -0.13222790263E+01  0.68344392193E+01  0.00000000000E+00 0.  1.
</event>
<event>
 8    1  0.2511738E-006  0.9118800E+02  0.7816164E-02  0.1184000E+00
        -11   -1    0    0    0    0  0.00000000000E+00  0.00000000000E+00  0.45593999997E+02  0.45594000000E+02  0.51100000000E-03 0.  1.
         11   -1    0    0    0    0 -0.00000000000E+00 -0.00000000000E+00 -0.45593999997E+02  0.45594000000E+02  0.51100000000E-03 0. -1.
         23    2    1    2    0    0  0.00000000000E+00  0.35527136788E-14  0.00000000000E+00  0.91188000000E+02  0.91188000000E+02 0.  0.
    9900012    2    3    3    0    0 -0.12210981250E+02  0.31797723333E+02 -0.13984937796E+02  0.54367058168E+02  0.39999940705E+02 0.  0.
         12    1    3    3    0    0  0.12210981250E+02 -0.31797723333E+02  0.13984937796E+02  0.36820941832E+02  0.00000000000E+00 0. -1.
         11    1    4    4    0    0 -0.62971750634E+01  0.24525853041E+02 -0.22235933303E+02  0.33698792431E+02  0.51100000000E-03 0. -1.
        -11    1    4    4    0    0 -0.34776142732E+01  0.65554966802E+01  0.13178921421E+02  0.15124559757E+02  0.51100000000E-03 0.  1.
        -12    1    4    4    0    0 -0.24361919137E+01  0.71637361215E+00 -0.49279259131E+01  0.55437059804E+01  0.00000000000E+00 0.  1.
</event>
<event>
 8    1  0.2511738E-006  0.9118800E+02  0.7816164E-02  0.1184000E+00
        -11   -1    0    0    0    0  0.00000000000E+00  0.00000000000E+00  0.45593999997E+02  0.45594000000E+02  0.51100000000E-03 0. -1.
         11   -1    0    0    0    0 -0.00000000000E+00 -0.00000000000E+00 -0.45593999997E+02  0.45594000000E+02  0.51100000000E-03 0.  1.
         23    2    1    2    0    0  0.00000000000E+00  0.00000000000E+00  0.00000000000E+00  0.91188000000E+02  0.91188000000E+02 0.  0.
    9900012    2    3    3    0    0  0.30729572328E+02  0.19146647574E+02 -0.66992347812E+01  0.54367075576E+02  0.39999980391E+02 0.  0.
        -12    1    3    3    0    0 -0.30729572328E+02 -0.19146647574E+02  0.66992347812E+01  0.36820924424E+02  0.00000000000E+00 0.  1.
         11    1    4    4    0    0 -0.38164615826E+00  0.88799542114E+01  0.55660882409E+00  0.89055631057E+01  0.51100000000E-03 0. -1.
        -11    1    4    4    0    0  0.25324706503E+02  0.20564179132E+02 -0.81204515253E+01  0.33617970731E+02  0.51100000000E-03 0.  1.
        -12    1    4    4    0    0  0.57865119826E+01 -0.10297485769E+02  0.86460791998E+00  0.11843541739E+02  0.00000000000E+00 0.  1.
</event>
<event>
 8    1  0.2511738E-006  0.9118800E+02  0.7816164E-02  0.1184000E+00
        -11   -1    0    0    0    0  0.00000000000E+00  0.00000000000E+00  0.45593999997E+02  0.45594000000E+02  0.51100000000E-03 0. -1.
         11   -1    0    0    0    0 -0.00000000000E+00 -0.00000000000E+00 -0.45593999997E+02  0.45594000000E+02  0.51100000000E-03 0.  1.
         23    2    1    2    0    0 -0.35527136788E-14  0.00000000000E+00  0.00000000000E+00  0.91188000000E+02  0.91188000000E+02 0.  0.
    9900012    2    3    3    0    0 -0.17894067344E+02  0.30351513773E+02 -0.10694267382E+02  0.54367090325E+02  0.40000014014E+02 0.  0.
         12    1    3    3    0    0  0.17894067344E+02 -0.30351513773E+02  0.10694267382E+02  0.36820909675E+02  0.00000000000E+00 0. -1.
         11    1    4    4    0    0  0.41197987043E+00 -0.57486664033E+01  0.47652763206E+01  0.74782853317E+01  0.51100000000E-03 0. -1.
        -11    1    4    4    0    0 -0.11668843952E+02  0.67061200582E+01 -0.86383196352E+01  0.15992327279E+02  0.51100000000E-03 0.  1.
         12    1    4    4    0    0 -0.66372032622E+01  0.29394060118E+02 -0.68212240674E+01  0.30896477714E+02  0.00000000000E+00 0. -1.
</event>
<event>
 8    1  0.2511738E-006  0.9118800E+02  0.7816164E-02  0.1184000E+00
        -11   -1    0    0    0    0  0.00000000000E+00  0.00000000000E+00  0.45593999997E+02  0.45594000000E+02  0.51100000000E-03 0. -1.
         11   -1    0    0    0    0 -0.00000000000E+00 -0.00000000000E+00 -0.45593999997E+02  0.45594000000E+02  0.51100000000E-03 0.  1.
         23    2    1    2    0    0  0.17763568394E-14  0.00000000000E+00  0.00000000000E+00  0.91188000000E+02  0.91188000000E+02 0.  0.
    9900012    2    3    3    0    0  0.72476008209E+01 -0.26503277329E+02 -0.24511797877E+02  0.54367086622E+02  0.40000005572E+02 0.  0.
         12    1    3    3    0    0 -0.72476008209E+01  0.26503277329E+02  0.24511797877E+02  0.36820913378E+02  0.00000000000E+00 0. -1.
         11    1    4    4    0    0  0.44786415636E+01 -0.26128790188E+01 -0.10895001226E+02  0.12065919733E+02  0.51100000000E-03 0. -1.
        -11    1    4    4    0    0  0.27191412086E+01 -0.19266558966E+02 -0.24022677998E+02  0.30914124308E+02  0.51100000000E-03 0.  1.
         12    1    4    4    0    0  0.49818048751E-01 -0.46238393441E+01  0.10405881347E+02  0.11387042581E+02  0.00000000000E+00 0. -1.
</event>
<event>
 8    1  0.2511738E-006  0.9118800E+02  0.7816164E-02  0.1184000E+00
        -11   -1    0    0    0    0  0.00000000000E+00  0.00000000000E+00  0.45593999997E+02  0.45594000000E+02  0.51100000000E-03 0. -1.
         11   -1    0    0    0    0 -0.00000000000E+00 -0.00000000000E+00 -0.45593999997E+02  0.45594000000E+02  0.51100000000E-03 0.  1.
         23    2    1    2    0    0  0.00000000000E+00  0.00000000000E+00 -0.17763568394E-14  0.91188000000E+02  0.91188000000E+02 0.  0.
    9900012    2    3    3    0    0 -0.31626951469E+02 -0.13546040751E+02 -0.13115640510E+02  0.54367091467E+02  0.40000016617E+02 0.  0.
         12    1    3    3    0    0  0.31626951469E+02  0.13546040751E+02  0.13115640510E+02  0.36820908533E+02  0.00000000000E+00 0. -1.
         11    1    4    4    0    0  0.36813462969E+01  0.36505017260E+01 -0.30112827925E+01  0.59955231404E+01  0.51100000000E-03 0. -1.
        -11    1    4    4    0    0 -0.16262429875E+02 -0.11273373096E+02 -0.18162655320E+02  0.26859590744E+02  0.51100000000E-03 0.  1.
        -12    1    4    4    0    0 -0.19045867891E+02 -0.59231693810E+01  0.80582976029E+01  0.21511977582E+02  0.00000000000E+00 0.  1.
</event>
<event>
 8    1  0.2511738E-006  0.9118800E+02  0.7816164E-02  0.1184000E+00
        -11   -1    0    0    0    0  0.00000000000E+00  0.00000000000E+00  0.45593999997E+02  0.45594000000E+02  0.51100000000E-03 0.  1.
         11   -1    0    0    0    0 -0.00000000000E+00 -0.00000000000E+00 -0.45593999997E+02  0.45594000000E+02  0.51100000000E-03 0. -1.
         23    2    1    2    0    0  0.00000000000E+00  0.00000000000E+00  0.00000000000E+00  0.91188000000E+02  0.91188000000E+02 0.  0.
    9900012    2    3    3    0    0 -0.73576402176E+01  0.19766169267E+02 -0.30181843531E+02  0.54367082087E+02  0.39999995234E+02 0.  0.
        -12    1    3    3    0    0  0.73576402176E+01 -0.19766169267E+02  0.30181843531E+02  0.36820917913E+02  0.00000000000E+00 0.  1.
         11    1    4    4    0    0  0.12919476866E+02  0.71691945656E+01 -0.15362837597E+02  0.21314948100E+02  0.51100000000E-03 0. -1.
        -11    1    4    4    0    0 -0.60695053873E+01 -0.65391140285E+00  0.28991899730E+01  0.67580913377E+01  0.51100000000E-03 0.  1.
         12    1    4    4    0    0 -0.14207611696E+02  0.13250886104E+02 -0.17718195906E+02  0.26294042649E+02  0.00000000000E+00 0. -1.
</event>
<event>
 8    1  0.2511738E-006  0.9118800E+02  0.7816164E-02  0.1184000E+00
        -11   -1    0    0    0    0  0.00000000000E+00  0.00000000000E+00  0.45593999997E+02  0.45594000000E+02  0.51100000000E-03 0. -1.
         11   -1    0    0    0    0 -0.00000000000E+00 -0.00000000000E+00 -0.45593999997E+02  0.45594000000E+02  0.51100000000E-03 0.  1.
         23    2    1    2    0    0  0.88817841970E-15  0.00000000000E+00  0.00000000000E+00  0.91188000000E+02  0.91188000000E+02 0.  0.
    9900012    2    3    3    0    0  0.60728608021E+01  0.23392397570E+02  0.27779419555E+02  0.54367081310E+02  0.39999993462E+02 0.  0.
        -12    1    3    3    0    0 -0.60728608021E+01 -0.23392397570E+02 -0.27779419555E+02  0.36820918690E+02  0.00000000000E+00 0.  1.
         11    1    4    4    0    0 -0.78575332486E+01  0.91376732950E+01  0.85159829875E+01  0.14756688941E+02  0.51100000000E-03 0. -1.
        -11    1    4    4    0    0 -0.83039883402E+01  0.33947897323E+00  0.35779151141E+01  0.90483669882E+01  0.51100000000E-03 0.  1.
        -12    1    4    4    0    0  0.22234382391E+02  0.13915245302E+02  0.15685521453E+02  0.30562025381E+02  0.00000000000E+00 0.  1.
</event>
<event>
 8    1  0.2511738E-006  0.9118800E+02  0.7816164E-02  0.1184000E+00
        -11   -1    0    0    0    0  0.00000000000E+00  0.00000000000E+00  0.45593999997E+02  0.45594000000E+02  0.51100000000E-03 0.  1.
         11   -1    0    0    0    0 -0.00000000000E+00 -0.00000000000E+00 -0.45593999997E+02  0.45594000000E+02  0.51100000000E-03 0. -1.
         23    2    1    2    0    0  0.00000000000E+00  0.00000000000E+00  0.00000000000E+00  0.91188000000E+02  0.91188000000E+02 0.  0.
    9900012    2    3    3    0    0  0.17258138443E+02 -0.23945049189E+02 -0.22012965546E+02  0.54367090515E+02  0.40000014447E+02 0.  0.
        -12    1    3    3    0    0 -0.17258138443E+02  0.23945049189E+02  0.22012965546E+02  0.36820909485E+02  0.00000000000E+00 0.  1.
         11    1    4    4    0    0 -0.11190829425E+01 -0.83559646147E+01  0.22168091225E+01  0.87171517264E+01  0.51100000000E-03 0. -1.
        -11    1    4    4    0    0 -0.85013216393E+01 -0.43702975035E+01 -0.62784133223E+01  0.11436364982E+02  0.51100000000E-03 0.  1.
        -12    1    4    4    0    0  0.26878543025E+02 -0.11218787071E+02 -0.17951361346E+02  0.34213573807E+02  0.00000000000E+00 0.  1.
</event>
<event>
 8    1  0.2511738E-006  0.9118800E+02  0.7816164E-02  0.1184000E+00
        -11   -1    0    0    0    0  0.00000000000E+00  0.00000000000E+00  0.45593999997E+02  0.45594000000E+02  0.51100000000E-03 0. -1.
         11   -1    0    0    0    0 -0.00000000000E+00 -0.00000000000E+00 -0.45593999997E+02  0.45594000000E+02  0.51100000000E-03 0.  1.
         23    2    1    2    0    0  0.35527136788E-14  0.17763568394E-14  0.00000000000E+00  0.91188000000E+02  0.91188000000E+02 0.  0.
    9900012    2    3    3    0    0 -0.24824074715E+02 -0.13821930532E+02  0.23420051385E+02  0.54367092136E+02  0.40000018142E+02 0.  0.
        -12    1    3    3    0    0  0.24824074715E+02  0.13821930532E+02 -0.23420051385E+02  0.36820907864E+02  0.00000000000E+00 0.  1.
         11    1    4    4    0    0  0.20917749701E+01 -0.70282905335E+01  0.37512837294E+01  0.82367785103E+01  0.51100000000E-03 0. -1.
        -11    1    4    4    0    0 -0.30394210375E+01 -0.60819159321E+01 -0.73863240305E+01  0.10039201392E+02  0.51100000000E-03 0.  1.
         12    1    4    4    0    0 -0.23876428648E+02 -0.71172406639E+00  0.27055091686E+02  0.36091112233E+02  0.00000000000E+00 0. -1.
</event>
<event>
 8    1  0.2511738E-006  0.9118800E+02  0.7816164E-02  0.1184000E+00
        -11   -1    0    0    0    0  0.00000000000E+00  0.00000000000E+00  0.45593999997E+02  0.45594000000E+02  0.51100000000E-03 0. -1.
         11   -1    0    0    0    0 -0.00000000000E+00 -0.00000000000E+00 -0.45593999997E+02  0.45594000000E+02  0.51100000000E-03 0.  1.
         23    2    1    2    0    0  0.35527136788E-14  0.17763568394E-14  0.00000000000E+00  0.91188000000E+02  0.91188000000E+02 0.  0.
    9900012    2    3    3    0    0  0.31910430165E+02 -0.98212205727E+01 -0.15525742598E+02  0.54367073748E+02  0.39999976223E+02 0.  0.
         12    1    3    3    0    0 -0.31910430165E+02  0.98212205727E+01  0.15525742598E+02  0.36820926252E+02  0.00000000000E+00 0. -1.
         11    1    4    4    0    0  0.29521621697E+02 -0.95263585403E+01 -0.58845056211E+01  0.31573803403E+02  0.51100000000E-03 0. -1.
        -11    1    4    4    0    0 -0.38820415725E+00  0.88344737338E+01 -0.98650170449E+01  0.13248290085E+02  0.51100000000E-03 0.  1.
        -12    1    4    4    0    0  0.27770126253E+01 -0.91293357662E+01  0.22378006753E+00  0.95449802604E+01  0.00000000000E+00 0.  1.
</event>
<event>
 8    1  0.2511738E-006  0.9118800E+02  0.7816164E-02  0.1184000E+00
        -11   -1    0    0    0    0  0.00000000000E+00  0.00000000000E+00  0.45593999997E+02  0.45594000000E+02  0.51100000000E-03 0.  1.
         11   -1    0    0    0    0 -0.00000000000E+00 -0.00000000000E+00 -0.45593999997E+02  0.45594000000E+02  0.51100000000E-03 0. -1.
         23    2    1    2    0    0  0.00000000000E+00  0.35527136788E-14  0.35527136788E-14  0.91188000000E+02  0.91188000000E+02 0.  0.
    9900012    2    3    3    0    0  0.17495798801E+02 -0.19883659824E+02 -0.25579592732E+02  0.54367102836E+02  0.40000042534E+02 0.  0.
        -12    1    3    3    0    0 -0.17495798801E+02  0.19883659824E+02  0.25579592732E+02  0.36820897164E+02  0.00000000000E+00 0.  1.
         11    1    4    4    0    0  0.62509314196E+01 -0.38434749631E+01 -0.22540676061E+02  0.23705031554E+02  0.51100000000E-03 0. -1.
        -11    1    4    4    0    0 -0.19293270182E+01 -0.96283802784E+01 -0.10367489830E+02  0.14279805852E+02  0.51100000000E-03 0.  1.
         12    1    4    4    0    0  0.13174194399E+02 -0.64118045821E+01  0.73285731592E+01  0.16382265430E+02  0.00000000000E+00 0. -1.
</event>
<event>
 8    1  0.2511738E-006  0.9118800E+02  0.7816164E-02  0.1184000E+00
        -11   -1    0    0    0    0  0.00000000000E+00  0.00000000000E+00  0.45593999997E+02  0.45594000000E+02  0.51100000000E-03 0. -1.
         11   -1    0    0    0    0 -0.00000000000E+00 -0.00000000000E+00 -0.45593999997E+02  0.45594000000E+02  0.51100000000E-03 0.  1.
         23    2    1    2    0    0  0.17763568394E-14  0.00000000000E+00  0.71054273576E-14  0.91188000000E+02  0.91188000000E+02 0.  0.
    9900012    2    3    3    0    0 -0.13723981478E+02 -0.14251067496E+02 -0.31053798000E+02  0.54367096119E+02  0.40000027223E+02 0.  0.
         12    1    3    3    0    0  0.13723981478E+02  0.14251067496E+02  0.31053798000E+02  0.36820903881E+02  0.00000000000E+00 0. -1.
         11    1    4    4    0    0 -0.23850231049E+01 -0.17365628184E+02 -0.13525123837E+02  0.22140062161E+02  0.51100000000E-03 0. -1.
        -11    1    4    4    0    0 -0.40431005600E+00 -0.29409391698E+01  0.53717649819E+01  0.61374627578E+01  0.51100000000E-03 0.  1.
        -12    1    4    4    0    0 -0.10934648317E+02  0.60554998585E+01 -0.22900439145E+02  0.26089571200E+02  0.00000000000E+00 0.  1.
</event>
<event>
 8    1  0.2511738E-006  0.9118800E+02  0.7816164E-02  0.1184000E+00
        -11   -1    0    0    0    0  0.00000000000E+00  0.00000000000E+00  0.45593999997E+02  0.45594000000E+02  0.51100000000E-03 0.  1.
         11   -1    0    0    0    0 -0.00000000000E+00 -0.00000000000E+00 -0.45593999997E+02  0.45594000000E+02  0.51100000000E-03 0. -1.
         23    2    1    2    0    0 -0.35527136788E-14  0.00000000000E+00 -0.35527136788E-14  0.91188000000E+02  0.91188000000E+02 0.  0.
    9900012    2    3    3    0    0  0.19575711886E+02  0.25642972732E+02 -0.17748495935E+02  0.54367086727E+02  0.40000005811E+02 0.  0.
        -12    1    3    3    0    0 -0.19575711886E+02 -0.25642972732E+02  0.17748495935E+02  0.36820913273E+02  0.00000000000E+00 0.  1.
         11    1    4    4    0    0 -0.73239962093E-01 -0.36922638143E+01 -0.70716224504E+01  0.79778456057E+01  0.51100000000E-03 0. -1.
        -11    1    4    4    0    0  0.11695416290E+01  0.22999759003E+02  0.19763555239E+01  0.23114123891E+02  0.51100000000E-03 0.  1.
        -12    1    4    4    0    0  0.18479410219E+02  0.63354775426E+01 -0.12653229008E+02  0.23275117230E+02  0.00000000000E+00 0.  1.
</event>
<event>
 8    1  0.2511738E-006  0.9118800E+02  0.7816164E-02  0.1184000E+00
        -11   -1    0    0    0    0  0.00000000000E+00  0.00000000000E+00  0.45593999997E+02  0.45594000000E+02  0.51100000000E-03 0.  1.
         11   -1    0    0    0    0 -0.00000000000E+00 -0.00000000000E+00 -0.45593999997E+02  0.45594000000E+02  0.51100000000E-03 0. -1.
         23    2    1    2    0    0  0.00000000000E+00  0.00000000000E+00  0.00000000000E+00  0.91188000000E+02  0.91188000000E+02 0.  0.
    9900012    2    3    3    0    0 -0.18597742541E+02 -0.79627669833E+01  0.30765213272E+02  0.54367081580E+02  0.39999994077E+02 0.  0.
         12    1    3    3    0    0  0.18597742541E+02  0.79627669833E+01 -0.30765213272E+02  0.36820918420E+02  0.00000000000E+00 0. -1.
         11    1    4    4    0    0 -0.17639037008E+02 -0.16499758979E+01  0.64265842135E+01  0.18845663479E+02  0.51100000000E-03 0. -1.
        -11    1    4    4    0    0 -0.57173270532E+01 -0.97580809580E+01  0.88616001513E+00  0.11344304846E+02  0.51100000000E-03 0.  1.
        -12    1    4    4    0    0  0.47586215207E+01  0.34452898727E+01  0.23452469043E+02  0.24177113254E+02  0.00000000000E+00 0.  1.
</event>
<event>
 8    1  0.2511738E-006  0.9118800E+02  0.7816164E-02  0.1184000E+00
        -11   -1    0    0    0    0  0.00000000000E+00  0.00000000000E+00  0.45593999997E+02  0.45594000000E+02  0.51100000000E-03 0. -1.
         11   -1    0    0    0    0 -0.00000000000E+00 -0.00000000000E+00 -0.45593999997E+02  0.45594000000E+02  0.51100000000E-03 0.  1.
         23    2    1    2    0    0  0.35527136788E-14  0.00000000000E+00  0.00000000000E+00  0.91188000000E+02  0.91188000000E+02 0.  0.
    9900012    2    3    3    0    0 -0.28781724869E+02 -0.16228003651E+02 -0.16249407404E+02  0.54367095205E+02  0.40000025138E+02 0.  0.
         12    1    3    3    0    0  0.28781724869E+02  0.16228003651E+02  0.16249407404E+02  0.36820904795E+02  0.00000000000E+00 0. -1.
         11    1    4    4    0    0 -0.24438094795E+02  0.11003310456E+01  0.29024869964E+01  0.24634440052E+02  0.51100000000E-03 0. -1.
        -11    1    4    4    0    0 -0.82694362291E+01 -0.63272455210E+01 -0.12580167447E+02  0.16330285505E+02  0.51100000000E-03 0.  1.
         12    1    4    4    0    0  0.39258061551E+01 -0.11001089176E+02 -0.65717269538E+01  0.13402369648E+02  0.00000000000E+00 0. -1.
</event>
<event>
 8    1  0.2511738E-006  0.9118800E+02  0.7816164E-02  0.1184000E+00
        -11   -1    0    0    0    0  0.00000000000E+00  0.00000000000E+00  0.45593999997E+02  0.45594000000E+02  0.51100000000E-03 0.  1.
         11   -1    0    0    0    0 -0.00000000000E+00 -0.00000000000E+00 -0.45593999997E+02  0.45594000000E+02  0.51100000000E-03 0. -1.
         23    2    1    2    0    0  0.35527136788E-14  0.00000000000E+00  0.44408920985E-15  0.91188000000E+02  0.91188000000E+02 0.  0.
    9900012    2    3    3    0    0 -0.18899792065E+02  0.31590415790E+02 -0.78921982668E+00  0.54367090481E+02  0.40000014370E+02 0.  0.
        -12    1    3    3    0    0  0.18899792065E+02 -0.31590415790E+02  0.78921982668E+00  0.36820909519E+02  0.00000000000E+00 0.  1.
         11    1    4    4    0    0 -0.16400047805E+02  0.23907213749E+02  0.25800459267E+01  0.29106237725E+02  0.51100000000E-03 0. -1.
        -11    1    4    4    0    0 -0.48608361257E+01  0.10880113722E+02  0.72318124365E+01  0.13939286704E+02  0.51100000000E-03 0.  1.
         12    1    4    4    0    0  0.23610918654E+01 -0.31969116809E+01 -0.10601078190E+02  0.11321566052E+02  0.00000000000E+00 0. -1.
</event>
<event>
 8    1  0.2511738E-006  0.9118800E+02  0.7816164E-02  0.1184000E+00
        -11   -1    0    0    0    0  0.00000000000E+00  0.00000000000E+00  0.45593999997E+02  0.45594000000E+02  0.51100000000E-03 0. -1.
         11   -1    0    0    0    0 -0.00000000000E+00 -0.00000000000E+00 -0.45593999997E+02  0.45594000000E+02  0.51100000000E-03 0.  1.
         23    2    1    2    0    0  0.17763568394E-14  0.00000000000E+00  0.00000000000E+00  0.91188000000E+02  0.91188000000E+02 0.  0.
    9900012    2    3    3    0    0  0.15049720120E+02  0.23641784922E+01 -0.33521513628E+02  0.54367145969E+02  0.40000140866E+02 0.  0.
         12    1    3    3    0    0 -0.15049720120E+02 -0.23641784922E+01  0.33521513628E+02  0.36820854031E+02  0.00000000000E+00 0. -1.
         11    1    4    4    0    0  0.16070325194E+02  0.41299603793E+01 -0.21567753318E+02  0.27211760473E+02  0.51100000000E-03 0. -1.
        -11    1    4    4    0    0  0.69947094306E+01  0.15430931556E+01 -0.16042014963E+02  0.17568532689E+02  0.51100000000E-03 0.  1.
         12    1    4    4    0    0 -0.80153145045E+01 -0.33088750427E+01  0.40882546525E+01  0.95868528078E+01  0.00000000000E+00 0. -1.
</event>
<event>
 8    1  0.2511738E-006  0.9118800E+02  0.7816164E-02  0.1184000E+00
        -11   -1    0    0    0    0  0.00000000000E+00  0.00000000000E+00  0.45593999997E+02  0.45594000000E+02  0.51100000000E-03 0. -1.
         11   -1    0    0    0    0 -0.00000000000E+00 -0.00000000000E+00 -0.45593999997E+02  0.45594000000E+02  0.51100000000E-03 0.  1.
         23    2    1    2    0    0  0.11102230246E-15 -0.71054273576E-14  0.35527136788E-14  0.91188000000E+02  0.91188000000E+02 0.  0.
    9900012    2    3    3    0    0 -0.21094179869E+00  0.27177296241E+02 -0.24841940771E+02  0.54367191363E+02  0.40000244349E+02 0.  0.
         12    1    3    3    0    0  0.21094179869E+00 -0.27177296241E+02  0.24841940771E+02  0.36820808637E+02  0.00000000000E+00 0. -1.
         11    1    4    4    0    0  0.10148063900E+01  0.18744044264E+02  0.29358765221E+01  0.18999694697E+02  0.51100000000E-03 0. -1.
        -11    1    4    4    0    0 -0.30024386343E+01 -0.51042975644E+01 -0.16909173694E+02  0.17916156023E+02  0.51100000000E-03 0.  1.
         12    1    4    4    0    0  0.17766904457E+01  0.13537549541E+02 -0.10868643600E+02  0.17451340642E+02  0.00000000000E+00 0. -1.
</event>
<event>
 8    1  0.2511738E-006  0.9118800E+02  0.7816164E-02  0.1184000E+00
        -11   -1    0    0    0    0  0.00000000000E+00  0.00000000000E+00  0.45593999997E+02  0.45594000000E+02  0.51100000000E-03 0.  1.
         11   -1    0    0    0    0 -0.00000000000E+00 -0.00000000000E+00 -0.45593999997E+02  0.45594000000E+02  0.51100000000E-03 0. -1.
         23    2    1    2    0    0  0.35527136788E-14 -0.44408920985E-15  0.00000000000E+00  0.91188000000E+02  0.91188000000E+02 0.  0.
    9900012    2    3    3    0    0 -0.22788527283E+02 -0.31988893713E+01  0.28744229332E+02  0.54367074036E+02  0.39999976880E+02 0.  0.
         12    1    3    3    0    0  0.22788527283E+02  0.31988893713E+01 -0.28744229332E+02  0.36820925964E+02  0.00000000000E+00 0. -1.
         11    1    4    4    0    0 -0.97905717190E+00  0.42187763154E+00 -0.28667679061E+01  0.30585768211E+01  0.51100000000E-03 0. -1.
        -11    1    4    4    0    0 -0.29841172204E+02 -0.32675006103E+00  0.30300700407E+02  0.42529222536E+02  0.51100000000E-03 0.  1.
         12    1    4    4    0    0  0.80317020921E+01 -0.32940169418E+01  0.13102968311E+01  0.87792746793E+01  0.00000000000E+00 0. -1.
</event>
<event>
 8    1  0.2511738E-006  0.9118800E+02  0.7816164E-02  0.1184000E+00
        -11   -1    0    0    0    0  0.00000000000E+00  0.00000000000E+00  0.45593999997E+02  0.45594000000E+02  0.51100000000E-03 0.  1.
         11   -1    0    0    0    0 -0.00000000000E+00 -0.00000000000E+00 -0.45593999997E+02  0.45594000000E+02  0.51100000000E-03 0. -1.
         23    2    1    2    0    0 -0.35527136788E-14  0.00000000000E+00  0.00000000000E+00  0.91188000000E+02  0.91188000000E+02 0.  0.
    9900012    2    3    3    0    0  0.17293126053E+02 -0.14618596975E+01 -0.32474491025E+02  0.54367057457E+02  0.39999939084E+02 0.  0.
        -12    1    3    3    0    0 -0.17293126053E+02  0.14618596975E+01  0.32474491025E+02  0.36820942543E+02  0.00000000000E+00 0.  1.
         11    1    4    4    0    0 -0.17869181751E+01  0.12614606850E+02 -0.14409031472E+02  0.19233865206E+02  0.51100000000E-03 0. -1.
        -11    1    4    4    0    0  0.70527950434E+01 -0.95909274116E+01  0.12189593783E+01  0.11967191348E+02  0.51100000000E-03 0.  1.
        -12    1    4    4    0    0  0.12027249185E+02 -0.44855391362E+01 -0.19284418931E+02  0.23166000902E+02  0.00000000000E+00 0.  1.
</event>
<event>
 8    1  0.2511738E-006  0.9118800E+02  0.7816164E-02  0.1184000E+00
        -11   -1    0    0    0    0  0.00000000000E+00  0.00000000000E+00  0.45593999997E+02  0.45594000000E+02  0.51100000000E-03 0. -1.
         11   -1    0    0    0    0 -0.00000000000E+00 -0.00000000000E+00 -0.45593999997E+02  0.45594000000E+02  0.51100000000E-03 0.  1.
         23    2    1    2    0    0  0.00000000000E+00  0.13322676296E-14  0.35527136788E-14  0.91188000000E+02  0.91188000000E+02 0.  0.
    9900012    2    3    3    0    0 -0.19198389445E+02  0.38255741710E+01  0.31185998388E+02  0.54367086507E+02  0.40000005310E+02 0.  0.
        -12    1    3    3    0    0  0.19198389445E+02 -0.38255741710E+01 -0.31185998388E+02  0.36820913493E+02  0.00000000000E+00 0.  1.
         11    1    4    4    0    0 -0.14956470783E+00  0.14979031361E+01  0.12946340609E+02  0.13033565085E+02  0.51100000000E-03 0.  1.
        -11    1    4    4    0    0 -0.23878549917E+02 -0.65104559987E+01  0.19045246888E+02  0.31229675194E+02  0.51100000000E-03 0. -1.
        -12    1    4    4    0    0  0.48297251795E+01  0.88381270336E+01 -0.80558910970E+00  0.10103846227E+02  0.00000000000E+00 0.  1.
</event>
<event>
 8    1  0.2511738E-006  0.9118800E+02  0.7816164E-02  0.1184000E+00
        -11   -1    0    0    0    0  0.00000000000E+00  0.00000000000E+00  0.45593999997E+02  0.45594000000E+02  0.51100000000E-03 0.  1.
         11   -1    0    0    0    0 -0.00000000000E+00 -0.00000000000E+00 -0.45593999997E+02  0.45594000000E+02  0.51100000000E-03 0. -1.
         23    2    1    2    0    0  0.00000000000E+00  0.00000000000E+00  0.00000000000E+00  0.91188000000E+02  0.91188000000E+02 0.  0.
    9900012    2    3    3    0    0  0.29511810080E+02  0.15872267800E+02  0.15261108258E+02  0.54367119449E+02  0.40000080407E+02 0.  0.
        -12    1    3    3    0    0 -0.29511810080E+02 -0.15872267800E+02 -0.15261108258E+02  0.36820880551E+02  0.00000000000E+00 0.  1.
         11    1    4    4    0    0  0.11664301859E+02  0.17956089579E+02 -0.74919422210E+01  0.22684935295E+02  0.51100000000E-03 0. -1.
        -11    1    4    4    0    0  0.14273300605E+02  0.49990927676E+00  0.81850350849E+01  0.16461221675E+02  0.51100000000E-03 0.  1.
         12    1    4    4    0    0  0.35742076159E+01 -0.25837310555E+01  0.14568015394E+02  0.15220962478E+02  0.00000000000E+00 0. -1.
</event>
<event>
 8    1  0.2511738E-006  0.9118800E+02  0.7816164E-02  0.1184000E+00
        -11   -1    0    0    0    0  0.00000000000E+00  0.00000000000E+00  0.45593999997E+02  0.45594000000E+02  0.51100000000E-03 0.  1.
         11   -1    0    0    0    0 -0.00000000000E+00 -0.00000000000E+00 -0.45593999997E+02  0.45594000000E+02  0.51100000000E-03 0. -1.
         23    2    1    2    0    0  0.00000000000E+00  0.00000000000E+00  0.00000000000E+00  0.91188000000E+02  0.91188000000E+02 0.  0.
    9900012    2    3    3    0    0  0.15840955324E+02 -0.24195413440E+02 -0.22790900887E+02  0.54367094792E+02  0.40000024197E+02 0.  0.
        -12    1    3    3    0    0 -0.15840955324E+02  0.24195413440E+02  0.22790900887E+02  0.36820905208E+02  0.00000000000E+00 0.  1.
         11    1    4    4    0    0  0.18524775647E+02 -0.35141612201E+01  0.37544075140E+00  0.18858886443E+02  0.51100000000E-03 0.  1.
        -11    1    4    4    0    0 -0.61215952391E+01 -0.22024709828E+02 -0.17693790420E+02  0.28907299960E+02  0.51100000000E-03 0. -1.
         12    1    4    4    0    0  0.34377749158E+01  0.13434576084E+01 -0.54725512189E+01  0.66009083891E+01  0.00000000000E+00 0. -1.
</event>
<event>
 8    1  0.2511738E-006  0.9118800E+02  0.7816164E-02  0.1184000E+00
        -11   -1    0    0    0    0  0.00000000000E+00  0.00000000000E+00  0.45593999997E+02  0.45594000000E+02  0.51100000000E-03 0. -1.
         11   -1    0    0    0    0 -0.00000000000E+00 -0.00000000000E+00 -0.45593999997E+02  0.45594000000E+02  0.51100000000E-03 0.  1.
         23    2    1    2    0    0 -0.88817841970E-15  0.00000000000E+00 -0.71054273576E-14  0.91188000000E+02  0.91188000000E+02 0.  0.
    9900012    2    3    3    0    0  0.54529755879E+01 -0.14151454311E+02 -0.33552638644E+02  0.54367106993E+02  0.40000052012E+02 0.  0.
         12    1    3    3    0    0 -0.54529755879E+01  0.14151454311E+02  0.33552638644E+02  0.36820893007E+02  0.00000000000E+00 0. -1.
         11    1    4    4    0    0 -0.29422059254E+01  0.19958208843E+01 -0.31889504417E+02  0.32087074796E+02  0.51100000000E-03 0. -1.
        -11    1    4    4    0    0 -0.12412254306E+01 -0.10609613468E+02 -0.29753511515E+01  0.11088609166E+02  0.51100000000E-03 0.  1.
        -12    1    4    4    0    0  0.96364069439E+01 -0.55376617274E+01  0.13122169249E+01  0.11191423031E+02  0.00000000000E+00 0.  1.
</event>
<event>
 8    1  0.2511738E-006  0.9118800E+02  0.7816164E-02  0.1184000E+00
        -11   -1    0    0    0    0  0.00000000000E+00  0.00000000000E+00  0.45593999997E+02  0.45594000000E+02  0.51100000000E-03 0.  1.
         11   -1    0    0    0    0 -0.00000000000E+00 -0.00000000000E+00 -0.45593999997E+02  0.45594000000E+02  0.51100000000E-03 0. -1.
         23    2    1    2    0    0  0.17763568394E-14  0.00000000000E+00  0.00000000000E+00  0.91188000000E+02  0.91188000000E+02 0.  0.
    9900012    2    3    3    0    0  0.10804661329E+02 -0.18477510062E+02 -0.29960333015E+02  0.54367073356E+02  0.39999975330E+02 0.  0.
        -12    1    3    3    0    0 -0.10804661329E+02  0.18477510062E+02  0.29960333015E+02  0.36820926644E+02  0.00000000000E+00 0.  1.
         11    1    4    4    0    0  0.12785824425E+02 -0.16738051222E+02 -0.27744439022E+02  0.34833799130E+02  0.51100000000E-03 0. -1.
        -11    1    4    4    0    0 -0.11060810104E+01 -0.10278432449E+02 -0.33680552237E+01  0.10872597899E+02  0.51100000000E-03 0.  1.
        -12    1    4    4    0    0 -0.87508208605E+00  0.85389736089E+01  0.11521612302E+01  0.86606763276E+01  0.00000000000E+00 0.  1.
</event>
<event>
 8    1  0.2511738E-006  0.9118800E+02  0.7816164E-02  0.1184000E+00
        -11   -1    0    0    0    0  0.00000000000E+00  0.00000000000E+00  0.45593999997E+02  0.45594000000E+02  0.51100000000E-03 0.  1.
         11   -1    0    0    0    0 -0.00000000000E+00 -0.00000000000E+00 -0.45593999997E+02  0.45594000000E+02  0.51100000000E-03 0. -1.
         23    2    1    2    0    0  0.00000000000E+00 -0.35527136788E-14  0.00000000000E+00  0.91188000000E+02  0.91188000000E+02 0.  0.
    9900012    2    3    3    0    0  0.28920600998E+01 -0.20731899209E+02 -0.30291990517E+02  0.54367077335E+02  0.39999984400E+02 0.  0.
        -12    1    3    3    0    0 -0.28920600998E+01  0.20731899209E+02  0.30291990517E+02  0.36820922665E+02  0.00000000000E+00 0.  1.
         11    1    4    4    0    0  0.42403719546E+01  0.38521169274E+01 -0.46271712248E+01  0.73641206495E+01  0.51100000000E-03 0. -1.
        -11    1    4    4    0    0  0.94365145663E+01 -0.39850252878E+01 -0.20889983548E+02  0.23266277025E+02  0.51100000000E-03 0.  1.
         12    1    4    4    0    0 -0.10784826421E+02 -0.20598990848E+02 -0.47748357441E+01  0.23736679660E+02  0.00000000000E+00 0. -1.
</event>
<event>
 8    1  0.2511738E-006  0.9118800E+02  0.7816164E-02  0.1184000E+00
        -11   -1    0    0    0    0  0.00000000000E+00  0.00000000000E+00  0.45593999997E+02  0.45594000000E+02  0.51100000000E-03 0. -1.
         11   -1    0    0    0    0 -0.00000000000E+00 -0.00000000000E+00 -0.45593999997E+02  0.45594000000E+02  0.51100000000E-03 0.  1.
         23    2    1    2    0    0  0.00000000000E+00 -0.35527136788E-14  0.00000000000E+00  0.91188000000E+02  0.91188000000E+02 0.  0.
    9900012    2    3    3    0    0  0.23212304368E+02 -0.18990403464E+02 -0.21362090906E+02  0.54367008356E+02  0.39999827149E+02 0.  0.
         12    1    3    3    0    0 -0.23212304368E+02  0.18990403464E+02  0.21362090906E+02  0.36820991644E+02  0.00000000000E+00 0. -1.
         11    1    4    4    0    0  0.16536196595E+02 -0.12622461282E+02  0.18620693856E+01  0.20886350311E+02  0.51100000000E-03 0. -1.
        -11    1    4    4    0    0  0.23320065000E+00 -0.11689825682E+02 -0.22161518295E+02  0.25056721662E+02  0.51100000000E-03 0.  1.
        -12    1    4    4    0    0  0.64429071223E+01  0.53218835004E+01 -0.10626419964E+01  0.84239363834E+01  0.00000000000E+00 0.  1.
</event>
<event>
 8    1  0.2511738E-006  0.9118800E+02  0.7816164E-02  0.1184000E+00
        -11   -1    0    0    0    0  0.00000000000E+00  0.00000000000E+00  0.45593999997E+02  0.45594000000E+02  0.51100000000E-03 0.  1.
         11   -1    0    0    0    0 -0.00000000000E+00 -0.00000000000E+00 -0.45593999997E+02  0.45594000000E+02  0.51100000000E-03 0. -1.
         23    2    1    2    0    0  0.00000000000E+00  0.00000000000E+00  0.35527136788E-14  0.91188000000E+02  0.91188000000E+02 0.  0.
    9900012    2    3    3    0    0  0.28645357827E+02 -0.76049452433E+00 -0.23122387686E+02  0.54367086252E+02  0.40000004728E+02 0.  0.
         12    1    3    3    0    0 -0.28645357827E+02  0.76049452433E+00  0.23122387686E+02  0.36820913748E+02  0.00000000000E+00 0. -1.
         11    1    4    4    0    0  0.20444084304E+02 -0.51089048455E+01 -0.16813337445E+02  0.26958297573E+02  0.51100000000E-03 0. -1.
        -11    1    4    4    0    0  0.16421136584E+02 -0.12865587883E+01 -0.21551635304E+01  0.16611853910E+02  0.51100000000E-03 0.  1.
         12    1    4    4    0    0 -0.82198630606E+01  0.56349691095E+01 -0.41538867112E+01  0.10796934769E+02  0.00000000000E+00 0. -1.
</event>
<event>
 8    1  0.2511738E-006  0.9118800E+02  0.7816164E-02  0.1184000E+00
        -11   -1    0    0    0    0  0.00000000000E+00  0.00000000000E+00  0.45593999997E+02  0.45594000000E+02  0.51100000000E-03 0. -1.
         11   -1    0    0    0    0 -0.00000000000E+00 -0.00000000000E+00 -0.45593999997E+02  0.45594000000E+02  0.51100000000E-03 0.  1.
         23    2    1    2    0    0  0.00000000000E+00  0.00000000000E+00  0.00000000000E+00  0.91188000000E+02  0.91188000000E+02 0.  0.
    9900012    2    3    3    0    0  0.18428067583E+02 -0.23854921381E+02 -0.21145382703E+02  0.54367107037E+02  0.40000052113E+02 0.  0.
         12    1    3    3    0    0 -0.18428067583E+02  0.23854921381E+02  0.21145382703E+02  0.36820892963E+02  0.00000000000E+00 0. -1.
         11    1    4    4    0    0 -0.95963058830E+00 -0.53101098273E+01  0.69904467616E+01  0.88308835023E+01  0.51100000000E-03 0. -1.
        -11    1    4    4    0    0  0.10271204071E+02 -0.21347827331E+02 -0.11439176249E+02  0.26307453665E+02  0.51100000000E-03 0.  1.
         12    1    4    4    0    0  0.91164941003E+01  0.28030157770E+01 -0.16696653216E+02  0.19228769870E+02  0.00000000000E+00 0. -1.
</event>
<event>
 8    1  0.2511738E-006  0.9118800E+02  0.7816164E-02  0.1184000E+00
        -11   -1    0    0    0    0  0.00000000000E+00  0.00000000000E+00  0.45593999997E+02  0.45594000000E+02  0.51100000000E-03 0. -1.
         11   -1    0    0    0    0 -0.00000000000E+00 -0.00000000000E+00 -0.45593999997E+02  0.45594000000E+02  0.51100000000E-03 0.  1.
         23    2    1    2    0    0  0.00000000000E+00  0.00000000000E+00  0.44408920985E-15  0.91188000000E+02  0.91188000000E+02 0.  0.
    9900012    2    3    3    0    0 -0.15638806327E+02 -0.33126404226E+02  0.37214778061E+01  0.54367077723E+02  0.39999985285E+02 0.  0.
         12    1    3    3    0    0  0.15638806327E+02  0.33126404226E+02 -0.37214778061E+01  0.36820922277E+02  0.00000000000E+00 0. -1.
         11    1    4    4    0    0 -0.92185729083E+01 -0.59602475780E+01  0.12493786705E+02  0.16631336210E+02  0.51100000000E-03 0. -1.
        -11    1    4    4    0    0  0.79856149015E+01 -0.33697498873E+01 -0.36243862910E+00  0.86750574452E+01  0.51100000000E-03 0.  1.
         12    1    4    4    0    0 -0.14405848320E+02 -0.23796406761E+02 -0.84098702694E+01  0.29060684068E+02  0.00000000000E+00 0. -1.
</event>
<event>
 8    1  0.2511738E-006  0.9118800E+02  0.7816164E-02  0.1184000E+00
        -11   -1    0    0    0    0  0.00000000000E+00  0.00000000000E+00  0.45593999997E+02  0.45594000000E+02  0.51100000000E-03 0. -1.
         11   -1    0    0    0    0 -0.00000000000E+00 -0.00000000000E+00 -0.45593999997E+02  0.45594000000E+02  0.51100000000E-03 0.  1.
         23    2    1    2    0    0  0.71054273576E-14  0.00000000000E+00  0.00000000000E+00  0.91188000000E+02  0.91188000000E+02 0.  0.
    9900012    2    3    3    0    0 -0.25224805547E+02 -0.25527425881E+02 -0.82364616595E+01  0.54367087632E+02  0.40000007874E+02 0.  0.
         12    1    3    3    0    0  0.25224805547E+02  0.25527425881E+02  0.82364616595E+01  0.36820912368E+02  0.00000000000E+00 0. -1.
         11    1    4    4    0    0 -0.71564032092E+01 -0.68064709896E+01 -0.92883618731E+01  0.13557869330E+02  0.51100000000E-03 0. -1.
        -11    1    4    4    0    0 -0.13285714580E+02 -0.76273611324E+01 -0.14515542845E+02  0.21104213657E+02  0.51100000000E-03 0.  1.
         12    1    4    4    0    0 -0.47826877580E+01 -0.11093593759E+02  0.15567443058E+02  0.19705004645E+02  0.00000000000E+00 0. -1.
</event>
<event>
 8    1  0.2511738E-006  0.9118800E+02  0.7816164E-02  0.1184000E+00
        -11   -1    0    0    0    0  0.00000000000E+00  0.00000000000E+00  0.45593999997E+02  0.45594000000E+02  0.51100000000E-03 0.  1.
         11   -1    0    0    0    0 -0.00000000000E+00 -0.00000000000E+00 -0.45593999997E+02  0.45594000000E+02  0.51100000000E-03 0. -1.
         23    2    1    2    0    0  0.35527136788E-14  0.00000000000E+00  0.00000000000E+00  0.91188000000E+02  0.91188000000E+02 0.  0.
    9900012    2    3    3    0    0 -0.31954528463E+02  0.14832787746E+02  0.10708689942E+02  0.54367088524E+02  0.40000009909E+02 0.  0.
         12    1    3    3    0    0  0.31954528463E+02 -0.14832787746E+02 -0.10708689942E+02  0.36820911476E+02  0.00000000000E+00 0. -1.
         11    1    4    4    0    0 -0.39359254023E+01 -0.10684299015E+02  0.13461840922E+01  0.11465512029E+02  0.51100000000E-03 0. -1.
        -11    1    4    4    0    0 -0.10902575154E+02  0.74926162748E+01 -0.50603983384E+01  0.14163794521E+02  0.51100000000E-03 0.  1.
         12    1    4    4    0    0 -0.17116027907E+02  0.18024470486E+02  0.14422904188E+02  0.28737781975E+02  0.00000000000E+00 0. -1.
</event>
<event>
 8    1  0.2511738E-006  0.9118800E+02  0.7816164E-02  0.1184000E+00
        -11   -1    0    0    0    0  0.00000000000E+00  0.00000000000E+00  0.45593999997E+02  0.45594000000E+02  0.51100000000E-03 0. -1.
         11   -1    0    0    0    0 -0.00000000000E+00 -0.00000000000E+00 -0.45593999997E+02  0.45594000000E+02  0.51100000000E-03 0.  1.
         23    2    1    2    0    0  0.71054273576E-14  0.35527136788E-14  0.17763568394E-14  0.91188000000E+02  0.91188000000E+02 0.  0.
    9900012    2    3    3    0    0  0.32087603675E+02  0.17840932248E+02  0.28047833170E+01  0.54367082269E+02  0.39999995648E+02 0.  0.
        -12    1    3    3    0    0 -0.32087603675E+02 -0.17840932248E+02 -0.28047833170E+01  0.36820917731E+02  0.00000000000E+00 0.  1.
         11    1    4    4    0    0  0.77087058745E+01 -0.35470438752E+01 -0.77899504124E+01  0.11519070891E+02  0.51100000000E-03 0. -1.
        -11    1    4    4    0    0 -0.45420411125E+01  0.83232431308E+01  0.30590778189E+00  0.94868379091E+01  0.51100000000E-03 0.  1.
         12    1    4    4    0    0  0.28920938913E+02  0.13064732993E+02  0.10288825947E+02  0.33361173468E+02  0.00000000000E+00 0. -1.
</event>
<event>
 8    1  0.2511738E-006  0.9118800E+02  0.7816164E-02  0.1184000E+00
        -11   -1    0    0    0    0  0.00000000000E+00  0.00000000000E+00  0.45593999997E+02  0.45594000000E+02  0.51100000000E-03 0.  1.
         11   -1    0    0    0    0 -0.00000000000E+00 -0.00000000000E+00 -0.45593999997E+02  0.45594000000E+02  0.51100000000E-03 0. -1.
         23    2    1    2    0    0  0.00000000000E+00  0.00000000000E+00  0.00000000000E+00  0.91188000000E+02  0.91188000000E+02 0.  0.
    9900012    2    3    3    0    0 -0.31355184723E+02  0.17977617495E+02  0.70311222962E+01  0.54367095332E+02  0.40000025429E+02 0.  0.
         12    1    3    3    0    0  0.31355184723E+02 -0.17977617495E+02 -0.70311222962E+01  0.36820904668E+02  0.00000000000E+00 0. -1.
         11    1    4    4    0    0 -0.87587569609E+01  0.42185025361E+01  0.92402591091E+01  0.13412455995E+02  0.51100000000E-03 0. -1.
        -11    1    4    4    0    0 -0.96088730471E-02  0.77529369403E+01  0.11492193309E+02  0.13862850747E+02  0.51100000000E-03 0.  1.
         12    1    4    4    0    0 -0.22586818889E+02  0.60061780189E+01 -0.13701330122E+02  0.27091788590E+02  0.00000000000E+00 0. -1.
</event>
<event>
 8    1  0.2511738E-006  0.9118800E+02  0.7816164E-02  0.1184000E+00
        -11   -1    0    0    0    0  0.00000000000E+00  0.00000000000E+00  0.45593999997E+02  0.45594000000E+02  0.51100000000E-03 0.  1.
         11   -1    0    0    0    0 -0.00000000000E+00 -0.00000000000E+00 -0.45593999997E+02  0.45594000000E+02  0.51100000000E-03 0. -1.
         23    2    1    2    0    0  0.00000000000E+00  0.11102230246E-15  0.00000000000E+00  0.91188000000E+02  0.91188000000E+02 0.  0.
    9900012    2    3    3    0    0  0.30760003856E+02 -0.75524616299E+00  0.20224522179E+02  0.54367088396E+02  0.40000009616E+02 0.  0.
         12    1    3    3    0    0 -0.30760003856E+02  0.75524616299E+00 -0.20224522179E+02  0.36820911604E+02  0.00000000000E+00 0. -1.
         11    1    4    4    0    0 -0.74190378812E+01  0.78001762506E+00 -0.25331403095E+01  0.78782834848E+01  0.51100000000E-03 0. -1.
        -11    1    4    4    0    0  0.38730239747E+02 -0.31145201952E+01  0.22015550540E+02  0.44658886828E+02  0.51100000000E-03 0.  1.
        -12    1    4    4    0    0 -0.55119800979E+00  0.15792564072E+01  0.74211194869E+00  0.18299180828E+01  0.00000000000E+00 0.  1.
</event>
<event>
 8    1  0.2511738E-006  0.9118800E+02  0.7816164E-02  0.1184000E+00
        -11   -1    0    0    0    0  0.00000000000E+00  0.00000000000E+00  0.45593999997E+02  0.45594000000E+02  0.51100000000E-03 0.  1.
         11   -1    0    0    0    0 -0.00000000000E+00 -0.00000000000E+00 -0.45593999997E+02  0.45594000000E+02  0.51100000000E-03 0. -1.
         23    2    1    2    0    0  0.35527136788E-14  0.00000000000E+00 -0.88817841970E-15  0.91188000000E+02  0.91188000000E+02 0.  0.
    9900012    2    3    3    0    0 -0.29642498739E+02  0.20843199351E+02 -0.65317271827E+01  0.54367079986E+02  0.39999990444E+02 0.  0.
        -12    1    3    3    0    0  0.29642498739E+02 -0.20843199351E+02  0.65317271827E+01  0.36820920014E+02  0.00000000000E+00 0.  1.
         11    1    4    4    0    0 -0.34207417091E+01  0.14578155280E+02 -0.10326893907E+02  0.18189799978E+02  0.51100000000E-03 0. -1.
        -11    1    4    4    0    0  0.31758149943E+01 -0.11311818648E+01  0.47780179874E+01  0.58476345165E+01  0.51100000000E-03 0.  1.
        -12    1    4    4    0    0 -0.29397572024E+02  0.73962259365E+01 -0.98285126274E+00  0.30329645491E+02  0.00000000000E+00 0.  1.
</event>
<event>
 8    1  0.2511738E-006  0.9118800E+02  0.7816164E-02  0.1184000E+00
        -11   -1    0    0    0    0  0.00000000000E+00  0.00000000000E+00  0.45593999997E+02  0.45594000000E+02  0.51100000000E-03 0.  1.
         11   -1    0    0    0    0 -0.00000000000E+00 -0.00000000000E+00 -0.45593999997E+02  0.45594000000E+02  0.51100000000E-03 0. -1.
         23    2    1    2    0    0  0.00000000000E+00 -0.88817841970E-15  0.35527136788E-14  0.91188000000E+02  0.91188000000E+02 0.  0.
    9900012    2    3    3    0    0  0.32272619690E+02  0.42365092475E+01  0.17213657766E+02  0.54367081951E+02  0.39999994924E+02 0.  0.
         12    1    3    3    0    0 -0.32272619690E+02 -0.42365092475E+01 -0.17213657766E+02  0.36820918049E+02  0.00000000000E+00 0. -1.
         11    1    4    4    0    0  0.80845967458E+01  0.15339550141E+02  0.18755220862E+00  0.17340636643E+02  0.51100000000E-03 0. -1.
        -11    1    4    4    0    0  0.72694050614E+01 -0.13941558357E+02  0.83238055967E+01  0.17790363663E+02  0.51100000000E-03 0.  1.
        -12    1    4    4    0    0  0.16918617883E+02  0.28385174634E+01  0.87022999608E+01  0.19236081646E+02  0.00000000000E+00 0.  1.
</event>
<event>
 8    1  0.2511738E-006  0.9118800E+02  0.7816164E-02  0.1184000E+00
        -11   -1    0    0    0    0  0.00000000000E+00  0.00000000000E+00  0.45593999997E+02  0.45594000000E+02  0.51100000000E-03 0. -1.
         11   -1    0    0    0    0 -0.00000000000E+00 -0.00000000000E+00 -0.45593999997E+02  0.45594000000E+02  0.51100000000E-03 0.  1.
         23    2    1    2    0    0  0.00000000000E+00  0.17763568394E-14  0.35527136788E-14  0.91188000000E+02  0.91188000000E+02 0.  0.
    9900012    2    3    3    0    0 -0.17945114267E+02  0.66416410857E+01  0.31458532046E+02  0.54367112438E+02  0.40000064425E+02 0.  0.
        -12    1    3    3    0    0  0.17945114267E+02 -0.66416410857E+01 -0.31458532046E+02  0.36820887562E+02  0.00000000000E+00 0.  1.
         11    1    4    4    0    0 -0.15657778353E+02  0.82744261531E+01  0.55432448278E+01  0.18556931713E+02  0.51100000000E-03 0. -1.
        -11    1    4    4    0    0 -0.47687229784E+01  0.10728800096E+02  0.94470020824E+01  0.15069629025E+02  0.51100000000E-03 0.  1.
         12    1    4    4    0    0  0.24813870644E+01 -0.12361585164E+02  0.16468285136E+02  0.20740551700E+02  0.00000000000E+00 0. -1.
</event>
<event>
 8    1  0.2511738E-006  0.9118800E+02  0.7816164E-02  0.1184000E+00
        -11   -1    0    0    0    0  0.00000000000E+00  0.00000000000E+00  0.45593999997E+02  0.45594000000E+02  0.51100000000E-03 0. -1.
         11   -1    0    0    0    0 -0.00000000000E+00 -0.00000000000E+00 -0.45593999997E+02  0.45594000000E+02  0.51100000000E-03 0.  1.
         23    2    1    2    0    0 -0.35527136788E-14  0.00000000000E+00  0.00000000000E+00  0.91188000000E+02  0.91188000000E+02 0.  0.
    9900012    2    3    3    0    0 -0.23909824427E+02  0.13471900108E+02 -0.24548086256E+02  0.54367077477E+02  0.39999984723E+02 0.  0.
         12    1    3    3    0    0  0.23909824427E+02 -0.13471900108E+02  0.24548086256E+02  0.36820922523E+02  0.00000000000E+00 0. -1.
         11    1    4    4    0    0 -0.13090148292E+02 -0.73843139576E+01 -0.66838888073E+01  0.16448539291E+02  0.51100000000E-03 0. -1.
        -11    1    4    4    0    0  0.75773894865E+01  0.70781075656E+01 -0.42623574782E+01  0.11210893349E+02  0.51100000000E-03 0.  1.
        -12    1    4    4    0    0 -0.18397065621E+02  0.13778106500E+02 -0.13601839970E+02  0.26707644838E+02  0.00000000000E+00 0.  1.
</event>
<event>
 8    1  0.2511738E-006  0.9118800E+02  0.7816164E-02  0.1184000E+00
        -11   -1    0    0    0    0  0.00000000000E+00  0.00000000000E+00  0.45593999997E+02  0.45594000000E+02  0.51100000000E-03 0. -1.
         11   -1    0    0    0    0 -0.00000000000E+00 -0.00000000000E+00 -0.45593999997E+02  0.45594000000E+02  0.51100000000E-03 0.  1.
         23    2    1    2    0    0  0.00000000000E+00  0.00000000000E+00  0.00000000000E+00  0.91188000000E+02  0.91188000000E+02 0.  0.
    9900012    2    3    3    0    0 -0.32955445839E+02  0.13517995228E+02 -0.93264650135E+01  0.54367074494E+02  0.39999977924E+02 0.  0.
        -12    1    3    3    0    0  0.32955445839E+02 -0.13517995228E+02  0.93264650135E+01  0.36820925506E+02  0.00000000000E+00 0.  1.
         11    1    4    4    0    0 -0.22024992159E+02 -0.46041596437E+01 -0.21632486140E+01  0.22604827150E+02  0.51100000000E-03 0. -1.
        -11    1    4    4    0    0 -0.15259354698E+02  0.51043134131E+01 -0.80948885794E+01  0.18011916683E+02  0.51100000000E-03 0.  1.
        -12    1    4    4    0    0  0.43289010174E+01  0.13017841459E+02  0.93167217990E+00  0.13750330662E+02  0.00000000000E+00 0.  1.
</event>
<event>
 8    1  0.2511738E-006  0.9118800E+02  0.7816164E-02  0.1184000E+00
        -11   -1    0    0    0    0  0.00000000000E+00  0.00000000000E+00  0.45593999997E+02  0.45594000000E+02  0.51100000000E-03 0.  1.
         11   -1    0    0    0    0 -0.00000000000E+00 -0.00000000000E+00 -0.45593999997E+02  0.45594000000E+02  0.51100000000E-03 0. -1.
         23    2    1    2    0    0  0.00000000000E+00 -0.35527136788E-14  0.00000000000E+00  0.91188000000E+02  0.91188000000E+02 0.  0.
    9900012    2    3    3    0    0 -0.20074671339E+02 -0.20636208570E+02 -0.22955096389E+02  0.54367055094E+02  0.39999933697E+02 0.  0.
        -12    1    3    3    0    0  0.20074671339E+02  0.20636208570E+02  0.22955096389E+02  0.36820944906E+02  0.00000000000E+00 0.  1.
         11    1    4    4    0    0 -0.37607070100E+01 -0.27393357890E+02 -0.56586345968E+01  0.28223378952E+02  0.51100000000E-03 0.  1.
        -11    1    4    4    0    0 -0.13615096842E+02  0.27949850610E+01 -0.89899199881E+01  0.16552989614E+02  0.51100000000E-03 0. -1.
        -12    1    4    4    0    0 -0.26988674880E+01  0.39621642588E+01 -0.83065418043E+01  0.95906865280E+01  0.00000000000E+00 0.  1.
</event>
<event>
 8    1  0.2511738E-006  0.9118800E+02  0.7816164E-02  0.1184000E+00
        -11   -1    0    0    0    0  0.00000000000E+00  0.00000000000E+00  0.45593999997E+02  0.45594000000E+02  0.51100000000E-03 0. -1.
         11   -1    0    0    0    0 -0.00000000000E+00 -0.00000000000E+00 -0.45593999997E+02  0.45594000000E+02  0.51100000000E-03 0.  1.
         23    2    1    2    0    0  0.00000000000E+00  0.17763568394E-14  0.00000000000E+00  0.91188000000E+02  0.91188000000E+02 0.  0.
    9900012    2    3    3    0    0  0.20228594391E+02  0.83619816707E+01  0.29608382572E+02  0.54367148746E+02  0.40000147197E+02 0.  0.
        -12    1    3    3    0    0 -0.20228594391E+02 -0.83619816707E+01 -0.29608382572E+02  0.36820851254E+02  0.00000000000E+00 0.  1.
         11    1    4    4    0    0  0.70920734243E+00  0.12272029524E+02  0.15100150109E+01  0.12384903281E+02  0.51100000000E-03 0. -1.
        -11    1    4    4    0    0  0.75703247970E+01  0.17795334305E+01 -0.28819484250E+01  0.82935025019E+01  0.51100000000E-03 0.  1.
         12    1    4    4    0    0  0.11949062252E+02 -0.56895812833E+01  0.30980315986E+02  0.33688742964E+02  0.00000000000E+00 0. -1.
</event>
<event>
 8    1  0.2511738E-006  0.9118800E+02  0.7816164E-02  0.1184000E+00
        -11   -1    0    0    0    0  0.00000000000E+00  0.00000000000E+00  0.45593999997E+02  0.45594000000E+02  0.51100000000E-03 0. -1.
         11   -1    0    0    0    0 -0.00000000000E+00 -0.00000000000E+00 -0.45593999997E+02  0.45594000000E+02  0.51100000000E-03 0.  1.
         23    2    1    2    0    0  0.35527136788E-14 -0.35527136788E-14  0.00000000000E+00  0.91188000000E+02  0.91188000000E+02 0.  0.
    9900012    2    3    3    0    0  0.14099129578E+02  0.17843175270E+02 -0.28958866431E+02  0.54367077910E+02  0.39999985712E+02 0.  0.
         12    1    3    3    0    0 -0.14099129578E+02 -0.17843175270E+02  0.28958866431E+02  0.36820922090E+02  0.00000000000E+00 0. -1.
         11    1    4    4    0    0  0.11830660566E+02  0.11714467452E+02 -0.31197366456E+01  0.16938891171E+02  0.51100000000E-03 0. -1.
        -11    1    4    4    0    0 -0.31407542881E+01 -0.81171555735E+01 -0.18646400039E+02  0.20577676904E+02  0.51100000000E-03 0.  1.
        -12    1    4    4    0    0  0.54092233003E+01  0.14245863392E+02 -0.71927297460E+01  0.16850509835E+02  0.00000000000E+00 0.  1.
</event>
<event>
 8    1  0.2511738E-006  0.9118800E+02  0.7816164E-02  0.1184000E+00
        -11   -1    0    0    0    0  0.00000000000E+00  0.00000000000E+00  0.45593999997E+02  0.45594000000E+02  0.51100000000E-03 0. -1.
         11   -1    0    0    0    0 -0.00000000000E+00 -0.00000000000E+00 -0.45593999997E+02  0.45594000000E+02  0.51100000000E-03 0.  1.
         23    2    1    2    0    0 -0.17763568394E-14  0.71054273576E-14  0.35527136788E-14  0.91188000000E+02  0.91188000000E+02 0.  0.
    9900012    2    3    3    0    0  0.13710805398E+02 -0.33348695755E+02 -0.74604989846E+01  0.54367072006E+02  0.39999972253E+02 0.  0.
         12    1    3    3    0    0 -0.13710805398E+02  0.33348695755E+02  0.74604989846E+01  0.36820927994E+02  0.00000000000E+00 0. -1.
         11    1    4    4    0    0 -0.84489918444E+01 -0.11587618964E+02  0.43661349227E+01  0.14990714154E+02  0.51100000000E-03 0. -1.
        -11    1    4    4    0    0  0.17881484545E+00 -0.10772661886E+02  0.23196175680E+01  0.11021018318E+02  0.51100000000E-03 0.  1.
        -12    1    4    4    0    0  0.21980982397E+02 -0.10988414905E+02 -0.14146251475E+02  0.28355339534E+02  0.00000000000E+00 0.  1.
</event>
<event>
 8    1  0.2511738E-006  0.9118800E+02  0.7816164E-02  0.1184000E+00
        -11   -1    0    0    0    0  0.00000000000E+00  0.00000000000E+00  0.45593999997E+02  0.45594000000E+02  0.51100000000E-03 0.  1.
         11   -1    0    0    0    0 -0.00000000000E+00 -0.00000000000E+00 -0.45593999997E+02  0.45594000000E+02  0.51100000000E-03 0. -1.
         23    2    1    2    0    0  0.88817841970E-15  0.00000000000E+00  0.17763568394E-14  0.91188000000E+02  0.91188000000E+02 0.  0.
    9900012    2    3    3    0    0 -0.74087142706E+01 -0.33292428782E+02  0.13874637616E+02  0.54367076189E+02  0.39999981788E+02 0.  0.
         12    1    3    3    0    0  0.74087142706E+01  0.33292428782E+02 -0.13874637616E+02  0.36820923811E+02  0.00000000000E+00 0. -1.
         11    1    4    4    0    0  0.14860677404E+02 -0.18025757666E+02  0.74432989153E+00  0.23373525613E+02  0.51100000000E-03 0. -1.
        -11    1    4    4    0    0 -0.20178282764E+02 -0.12056283382E+02  0.85272862059E+01  0.25004633063E+02  0.51100000000E-03 0.  1.
        -12    1    4    4    0    0 -0.20911089104E+01 -0.32103877336E+01  0.46030215187E+01  0.59889175130E+01  0.00000000000E+00 0.  1.
</event>
<event>
 8    1  0.2511738E-006  0.9118800E+02  0.7816164E-02  0.1184000E+00
        -11   -1    0    0    0    0  0.00000000000E+00  0.00000000000E+00  0.45593999997E+02  0.45594000000E+02  0.51100000000E-03 0.  1.
         11   -1    0    0    0    0 -0.00000000000E+00 -0.00000000000E+00 -0.45593999997E+02  0.45594000000E+02  0.51100000000E-03 0. -1.
         23    2    1    2    0    0  0.00000000000E+00  0.17763568394E-14  0.00000000000E+00  0.91188000000E+02  0.91188000000E+02 0.  0.
    9900012    2    3    3    0    0  0.45111416744E+01  0.15914778869E+02  0.32896028132E+02  0.54367092183E+02  0.40000018249E+02 0.  0.
         12    1    3    3    0    0 -0.45111416744E+01 -0.15914778869E+02 -0.32896028132E+02  0.36820907817E+02  0.00000000000E+00 0. -1.
         11    1    4    4    0    0 -0.90519798910E+01  0.14366051501E+02  0.63876422671E+01  0.18141768097E+02  0.51100000000E-03 0. -1.
        -11    1    4    4    0    0  0.92326298801E+01  0.77957695920E+01  0.25923702862E+02  0.28601640658E+02  0.51100000000E-03 0.  1.
         12    1    4    4    0    0  0.43304916853E+01 -0.62470422245E+01  0.58468300308E+00  0.76236834277E+01  0.00000000000E+00 0. -1.
</event>
<event>
 8    1  0.2511738E-006  0.9118800E+02  0.7816164E-02  0.1184000E+00
        -11   -1    0    0    0    0  0.00000000000E+00  0.00000000000E+00  0.45593999997E+02  0.45594000000E+02  0.51100000000E-03 0.  1.
         11   -1    0    0    0    0 -0.00000000000E+00 -0.00000000000E+00 -0.45593999997E+02  0.45594000000E+02  0.51100000000E-03 0. -1.
         23    2    1    2    0    0  0.00000000000E+00  0.00000000000E+00  0.00000000000E+00  0.91188000000E+02  0.91188000000E+02 0.  0.
    9900012    2    3    3    0    0  0.29746856863E+02  0.13465069231E+02  0.17017577818E+02  0.54367061155E+02  0.39999947516E+02 0.  0.
        -12    1    3    3    0    0 -0.29746856863E+02 -0.13465069231E+02 -0.17017577818E+02  0.36820938845E+02  0.00000000000E+00 0.  1.
         11    1    4    4    0    0  0.15299005113E+02  0.51474345058E+01 -0.56197817609E+01  0.17092032844E+02  0.51100000000E-03 0. -1.
        -11    1    4    4    0    0  0.12088698362E+02  0.15050855185E+02  0.23125289147E+02  0.30123808994E+02  0.51100000000E-03 0.  1.
        -12    1    4    4    0    0  0.23591533878E+01 -0.67332204596E+01 -0.48792956889E+00  0.71512193176E+01  0.00000000000E+00 0.  1.
</event>
<event>
 8    1  0.2511738E-006  0.9118800E+02  0.7816164E-02  0.1184000E+00
        -11   -1    0    0    0    0  0.00000000000E+00  0.00000000000E+00  0.45593999997E+02  0.45594000000E+02  0.51100000000E-03 0.  1.
         11   -1    0    0    0    0 -0.00000000000E+00 -0.00000000000E+00 -0.45593999997E+02  0.45594000000E+02  0.51100000000E-03 0. -1.
         23    2    1    2    0    0  0.00000000000E+00  0.00000000000E+00  0.35527136788E-14  0.91188000000E+02  0.91188000000E+02 0.  0.
    9900012    2    3    3    0    0 -0.27701653589E+02  0.10926434198E+02 -0.21656643331E+02  0.54367098650E+02  0.40000032992E+02 0.  0.
        -12    1    3    3    0    0  0.27701653589E+02 -0.10926434198E+02  0.21656643331E+02  0.36820901350E+02  0.00000000000E+00 0.  1.
         11    1    4    4    0    0  0.74623481068E+01  0.64087024768E+01 -0.56235923710E+01  0.11330617729E+02  0.51100000000E-03 0. -1.
        -11    1    4    4    0    0 -0.59882188153E+01 -0.52045071516E+01 -0.79662143290E+01  0.11243052533E+02  0.51100000000E-03 0.  1.
        -12    1    4    4    0    0 -0.29175782881E+02  0.97222388725E+01 -0.80668366311E+01  0.31793428388E+02  0.00000000000E+00 0.  1.
</event>
<event>
 8    1  0.2511738E-006  0.9118800E+02  0.7816164E-02  0.1184000E+00
        -11   -1    0    0    0    0  0.00000000000E+00  0.00000000000E+00  0.45593999997E+02  0.45594000000E+02  0.51100000000E-03 0.  1.
         11   -1    0    0    0    0 -0.00000000000E+00 -0.00000000000E+00 -0.45593999997E+02  0.45594000000E+02  0.51100000000E-03 0. -1.
         23    2    1    2    0    0  0.17763568394E-14  0.00000000000E+00 -0.35527136788E-14  0.91188000000E+02  0.91188000000E+02 0.  0.
    9900012    2    3    3    0    0 -0.14660435068E+02 -0.27426514139E+02  0.19713671349E+02  0.54367205980E+02  0.40000277672E+02 0.  0.
         12    1    3    3    0    0  0.14660435068E+02  0.27426514139E+02 -0.19713671349E+02  0.36820794020E+02  0.00000000000E+00 0. -1.
         11    1    4    4    0    0 -0.11839120912E+02 -0.45383439719E+00  0.17342490149E+02  0.21003159631E+02  0.51100000000E-03 0. -1.
        -11    1    4    4    0    0 -0.11061366079E+02 -0.16363667543E+02  0.17347234074E+00  0.19752304369E+02  0.51100000000E-03 0.  1.
        -12    1    4    4    0    0  0.82400519224E+01 -0.10609012199E+02  0.21977088590E+01  0.13611741980E+02  0.00000000000E+00 0.  1.
</event>
<event>
 8    1  0.2511738E-006  0.9118800E+02  0.7816164E-02  0.1184000E+00
        -11   -1    0    0    0    0  0.00000000000E+00  0.00000000000E+00  0.45593999997E+02  0.45594000000E+02  0.51100000000E-03 0. -1.
         11   -1    0    0    0    0 -0.00000000000E+00 -0.00000000000E+00 -0.45593999997E+02  0.45594000000E+02  0.51100000000E-03 0.  1.
         23    2    1    2    0    0 -0.35527136788E-14 -0.88817841970E-15  0.00000000000E+00  0.91188000000E+02  0.91188000000E+02 0.  0.
    9900012    2    3    3    0    0 -0.26684593068E+02  0.63187524015E+01  0.24572050872E+02  0.54367084434E+02  0.40000000584E+02 0.  0.
        -12    1    3    3    0    0  0.26684593068E+02 -0.63187524015E+01 -0.24572050872E+02  0.36820915566E+02  0.00000000000E+00 0.  1.
         11    1    4    4    0    0 -0.29779214852E+01 -0.87717130547E+01  0.84263761492E+01  0.12522570884E+02  0.51100000000E-03 0. -1.
        -11    1    4    4    0    0 -0.78677234102E+01  0.18552764821E+02  0.15834055822E+02  0.25628567618E+02  0.51100000000E-03 0.  1.
        -12    1    4    4    0    0 -0.15838948172E+02 -0.34622993644E+01  0.31161890087E+00  0.16215945931E+02  0.00000000000E+00 0.  1.
</event>
<event>
 8    1  0.2511738E-006  0.9118800E+02  0.7816164E-02  0.1184000E+00
        -11   -1    0    0    0    0  0.00000000000E+00  0.00000000000E+00  0.45593999997E+02  0.45594000000E+02  0.51100000000E-03 0.  1.
         11   -1    0    0    0    0 -0.00000000000E+00 -0.00000000000E+00 -0.45593999997E+02  0.45594000000E+02  0.51100000000E-03 0. -1.
         23    2    1    2    0    0 -0.17763568394E-14 -0.17763568394E-14  0.71054273576E-14  0.91188000000E+02  0.91188000000E+02 0.  0.
    9900012    2    3    3    0    0  0.12677018776E+02  0.37623136470E+01 -0.34364493177E+02  0.54367079312E+02  0.39999988908E+02 0.  0.
        -12    1    3    3    0    0 -0.12677018776E+02 -0.37623136470E+01  0.34364493177E+02  0.36820920688E+02  0.00000000000E+00 0.  1.
         11    1    4    4    0    0  0.43971960401E+01 -0.13896549703E+01 -0.83926673156E+01  0.95761860301E+01  0.51100000000E-03 0. -1.
        -11    1    4    4    0    0  0.52329912403E+01 -0.15040385717E+02 -0.13382729162E+02  0.20801318225E+02  0.51100000000E-03 0.  1.
         12    1    4    4    0    0  0.30468314953E+01  0.20192354334E+02 -0.12589096699E+02  0.23989575057E+02  0.00000000000E+00 0. -1.
</event>
<event>
 8    1  0.2511738E-006  0.9118800E+02  0.7816164E-02  0.1184000E+00
        -11   -1    0    0    0    0  0.00000000000E+00  0.00000000000E+00  0.45593999997E+02  0.45594000000E+02  0.51100000000E-03 0.  1.
         11   -1    0    0    0    0 -0.00000000000E+00 -0.00000000000E+00 -0.45593999997E+02  0.45594000000E+02  0.51100000000E-03 0. -1.
         23    2    1    2    0    0 -0.17763568394E-14 -0.17763568394E-14  0.00000000000E+00  0.91188000000E+02  0.91188000000E+02 0.  0.
    9900012    2    3    3    0    0  0.82311308377E+01  0.41578679994E+01 -0.35647451168E+02  0.54367079914E+02  0.39999990281E+02 0.  0.
        -12    1    3    3    0    0 -0.82311308377E+01 -0.41578679994E+01  0.35647451168E+02  0.36820920086E+02  0.00000000000E+00 0.  1.
         11    1    4    4    0    0 -0.95917613066E+01  0.11162429483E+02 -0.92327210099E+01  0.17373682811E+02  0.51100000000E-03 0. -1.
        -11    1    4    4    0    0  0.73222883482E+01  0.36843073377E+00  0.32074115427E+00  0.73385640972E+01  0.51100000000E-03 0.  1.
        -12    1    4    4    0    0  0.10500603796E+02 -0.73729922171E+01 -0.26735471312E+02  0.29654833006E+02  0.00000000000E+00 0.  1.
</event>
<event>
 8    1  0.2511738E-006  0.9118800E+02  0.7816164E-02  0.1184000E+00
        -11   -1    0    0    0    0  0.00000000000E+00  0.00000000000E+00  0.45593999997E+02  0.45594000000E+02  0.51100000000E-03 0. -1.
         11   -1    0    0    0    0 -0.00000000000E+00 -0.00000000000E+00 -0.45593999997E+02  0.45594000000E+02  0.51100000000E-03 0.  1.
         23    2    1    2    0    0  0.00000000000E+00  0.00000000000E+00 -0.35527136788E-14  0.91188000000E+02  0.91188000000E+02 0.  0.
    9900012    2    3    3    0    0 -0.15807731161E+02  0.15544730205E+02  0.29398240327E+02  0.54367088334E+02  0.40000009475E+02 0.  0.
        -12    1    3    3    0    0  0.15807731161E+02 -0.15544730205E+02 -0.29398240327E+02  0.36820911666E+02  0.00000000000E+00 0.  1.
         11    1    4    4    0    0 -0.93255022370E+01 -0.10715420489E+02  0.10154771940E+02  0.17461518308E+02  0.51100000000E-03 0. -1.
        -11    1    4    4    0    0 -0.61201242762E+01  0.13497232036E+02  0.12915012108E+01  0.14876127501E+02  0.51100000000E-03 0.  1.
         12    1    4    4    0    0 -0.36210464736E+00  0.12762918658E+02  0.17951967176E+02  0.22029442525E+02  0.00000000000E+00 0. -1.
</event>
<event>
 8    1  0.2511738E-006  0.9118800E+02  0.7816164E-02  0.1184000E+00
        -11   -1    0    0    0    0  0.00000000000E+00  0.00000000000E+00  0.45593999997E+02  0.45594000000E+02  0.51100000000E-03 0.  1.
         11   -1    0    0    0    0 -0.00000000000E+00 -0.00000000000E+00 -0.45593999997E+02  0.45594000000E+02  0.51100000000E-03 0. -1.
         23    2    1    2    0    0  0.17763568394E-14  0.17763568394E-14  0.00000000000E+00  0.91188000000E+02  0.91188000000E+02 0.  0.
    9900012    2    3    3    0    0  0.64415517082E+01  0.13548593003E+02 -0.33626222732E+02  0.54367070952E+02  0.39999969849E+02 0.  0.
        -12    1    3    3    0    0 -0.64415517082E+01 -0.13548593003E+02  0.33626222732E+02  0.36820929048E+02  0.00000000000E+00 0.  1.
         11    1    4    4    0    0 -0.12861900445E+02  0.17662450095E+02 -0.12403103248E+02  0.25124243209E+02  0.51100000000E-03 0. -1.
        -11    1    4    4    0    0  0.97211638160E+01 -0.39854097498E+01 -0.11870345089E+02  0.15852116881E+02  0.51100000000E-03 0.  1.
         12    1    4    4    0    0  0.95822883368E+01 -0.12844734211E+00 -0.93527743950E+01  0.13390710861E+02  0.00000000000E+00 0. -1.
</event>
<event>
 8    1  0.2511738E-006  0.9118800E+02  0.7816164E-02  0.1184000E+00
        -11   -1    0    0    0    0  0.00000000000E+00  0.00000000000E+00  0.45593999997E+02  0.45594000000E+02  0.51100000000E-03 0. -1.
         11   -1    0    0    0    0 -0.00000000000E+00 -0.00000000000E+00 -0.45593999997E+02  0.45594000000E+02  0.51100000000E-03 0.  1.
         23    2    1    2    0    0 -0.17763568394E-14 -0.17763568394E-14 -0.35527136788E-14  0.91188000000E+02  0.91188000000E+02 0.  0.
    9900012    2    3    3    0    0  0.14332694344E+02  0.11995216292E+02  0.31724888073E+02  0.54367083875E+02  0.39999999309E+02 0.  0.
        -12    1    3    3    0    0 -0.14332694344E+02 -0.11995216292E+02 -0.31724888073E+02  0.36820916125E+02  0.00000000000E+00 0.  1.
         11    1    4    4    0    0  0.44534081752E+01  0.27971212611E+01  0.18565985826E+02  0.19296439093E+02  0.51100000000E-03 0. -1.
        -11    1    4    4    0    0 -0.61262085159E+01 -0.69119914404E+01  0.68568645001E+01  0.11503158153E+02  0.51100000000E-03 0.  1.
         12    1    4    4    0    0  0.16005494685E+02  0.16110086471E+02  0.63020377469E+01  0.23567486629E+02  0.00000000000E+00 0. -1.
</event>
<event>
 8    1  0.2511738E-006  0.9118800E+02  0.7816164E-02  0.1184000E+00
        -11   -1    0    0    0    0  0.00000000000E+00  0.00000000000E+00  0.45593999997E+02  0.45594000000E+02  0.51100000000E-03 0. -1.
         11   -1    0    0    0    0 -0.00000000000E+00 -0.00000000000E+00 -0.45593999997E+02  0.45594000000E+02  0.51100000000E-03 0.  1.
         23    2    1    2    0    0  0.00000000000E+00 -0.17763568394E-14  0.00000000000E+00  0.91188000000E+02  0.91188000000E+02 0.  0.
    9900012    2    3    3    0    0  0.32431600978E+02 -0.15049373432E+02  0.88028395271E+01  0.54367049897E+02  0.39999921851E+02 0.  0.
         12    1    3    3    0    0 -0.32431600978E+02  0.15049373432E+02 -0.88028395271E+01  0.36820950103E+02  0.00000000000E+00 0. -1.
         11    1    4    4    0    0 -0.48595540797E+01 -0.34964788095E+01  0.10982595407E+02  0.12508318514E+02  0.51100000000E-03 0. -1.
        -11    1    4    4    0    0  0.17348829400E+02 -0.50535208893E+00 -0.67225411284E+01  0.18612625333E+02  0.51100000000E-03 0.  1.
         12    1    4    4    0    0  0.19942325658E+02 -0.11047542534E+02  0.45427852482E+01  0.23246106050E+02  0.00000000000E+00 0. -1.
</event>
<event>
 8    1  0.2511738E-006  0.9118800E+02  0.7816164E-02  0.1184000E+00
        -11   -1    0    0    0    0  0.00000000000E+00  0.00000000000E+00  0.45593999997E+02  0.45594000000E+02  0.51100000000E-03 0.  1.
         11   -1    0    0    0    0 -0.00000000000E+00 -0.00000000000E+00 -0.45593999997E+02  0.45594000000E+02  0.51100000000E-03 0. -1.
         23    2    1    2    0    0 -0.17763568394E-14  0.00000000000E+00 -0.71054273576E-14  0.91188000000E+02  0.91188000000E+02 0.  0.
    9900012    2    3    3    0    0 -0.31336498050E+01 -0.16586378703E+02  0.32723864416E+02  0.54367095314E+02  0.40000025388E+02 0.  0.
         12    1    3    3    0    0  0.31336498050E+01  0.16586378703E+02 -0.32723864416E+02  0.36820904686E+02  0.00000000000E+00 0. -1.
         11    1    4    4    0    0 -0.17582419751E+02 -0.59846974628E+01  0.16438228287E+02  0.24802690126E+02  0.51100000000E-03 0. -1.
        -11    1    4    4    0    0  0.86389764213E+01 -0.13930611980E+02  0.15932608950E+02  0.22859175225E+02  0.51100000000E-03 0.  1.
        -12    1    4    4    0    0  0.58097935246E+01  0.33289307403E+01  0.35302717940E+00  0.67052299634E+01  0.00000000000E+00 0.  1.
</event>
<event>
 8    1  0.2511738E-006  0.9118800E+02  0.7816164E-02  0.1184000E+00
        -11   -1    0    0    0    0  0.00000000000E+00  0.00000000000E+00  0.45593999997E+02  0.45594000000E+02  0.51100000000E-03 0.  1.
         11   -1    0    0    0    0 -0.00000000000E+00 -0.00000000000E+00 -0.45593999997E+02  0.45594000000E+02  0.51100000000E-03 0. -1.
         23    2    1    2    0    0  0.35527136788E-14 -0.35527136788E-14  0.00000000000E+00  0.91188000000E+02  0.91188000000E+02 0.  0.
    9900012    2    3    3    0    0 -0.21008819000E+02  0.27535846594E+02 -0.12497457656E+02  0.54367085138E+02  0.40000002189E+02 0.  0.
        -12    1    3    3    0    0  0.21008819000E+02 -0.27535846594E+02  0.12497457656E+02  0.36820914862E+02  0.00000000000E+00 0.  1.
         11    1    4    4    0    0 -0.15894591924E+02  0.47754289624E+01 -0.69190085923E+01  0.17980974789E+02  0.51100000000E-03 0. -1.
        -11    1    4    4    0    0 -0.40774871042E+01 -0.45093875499E+01 -0.67337668728E+01  0.90721603666E+01  0.51100000000E-03 0.  1.
        -12    1    4    4    0    0 -0.10367399718E+01  0.27269805182E+02  0.11553178095E+01  0.27313949983E+02  0.00000000000E+00 0.  1.
</event>
<event>
 8    1  0.2511738E-006  0.9118800E+02  0.7816164E-02  0.1184000E+00
        -11   -1    0    0    0    0  0.00000000000E+00  0.00000000000E+00  0.45593999997E+02  0.45594000000E+02  0.51100000000E-03 0.  1.
         11   -1    0    0    0    0 -0.00000000000E+00 -0.00000000000E+00 -0.45593999997E+02  0.45594000000E+02  0.51100000000E-03 0. -1.
         23    2    1    2    0    0  0.00000000000E+00  0.35527136788E-14  0.00000000000E+00  0.91188000000E+02  0.91188000000E+02 0.  0.
    9900012    2    3    3    0    0  0.57152360257E+01 -0.21956176798E+02 -0.29000739563E+02  0.54367075003E+02  0.39999979085E+02 0.  0.
        -12    1    3    3    0    0 -0.57152360257E+01  0.21956176798E+02  0.29000739563E+02  0.36820924997E+02  0.00000000000E+00 0.  1.
         11    1    4    4    0    0  0.67210726253E+01 -0.17056806029E+02 -0.16110612591E+02  0.24406132169E+02  0.51100000000E-03 0. -1.
        -11    1    4    4    0    0 -0.28562027385E+01  0.94160097292E+01 -0.11972838344E+02  0.15497354341E+02  0.51100000000E-03 0.  1.
        -12    1    4    4    0    0  0.18503661389E+01 -0.14315380498E+02 -0.91728862703E+00  0.14463588493E+02  0.00000000000E+00 0.  1.
</event>
<event>
 8    1  0.2511738E-006  0.9118800E+02  0.7816164E-02  0.1184000E+00
        -11   -1    0    0    0    0  0.00000000000E+00  0.00000000000E+00  0.45593999997E+02  0.45594000000E+02  0.51100000000E-03 0. -1.
         11   -1    0    0    0    0 -0.00000000000E+00 -0.00000000000E+00 -0.45593999997E+02  0.45594000000E+02  0.51100000000E-03 0.  1.
         23    2    1    2    0    0  0.00000000000E+00 -0.66613381478E-15  0.35527136788E-14  0.91188000000E+02  0.91188000000E+02 0.  0.
    9900012    2    3    3    0    0  0.21272517325E+02  0.15169934911E+01 -0.30015965102E+02  0.54367089859E+02  0.40000012952E+02 0.  0.
         12    1    3    3    0    0 -0.21272517325E+02 -0.15169934911E+01  0.30015965102E+02  0.36820910141E+02  0.00000000000E+00 0. -1.
         11    1    4    4    0    0  0.50401671396E+00 -0.10032292988E+02  0.27056719328E+01  0.10402960940E+02  0.51100000000E-03 0. -1.
        -11    1    4    4    0    0  0.13715802703E+02  0.15700479846E+02 -0.26306250902E+02  0.33565564914E+02  0.51100000000E-03 0.  1.
        -12    1    4    4    0    0  0.70526979077E+01 -0.41511933673E+01 -0.64153861324E+01  0.10398564006E+02  0.00000000000E+00 0.  1.
</event>
<event>
 8    1  0.2511738E-006  0.9118800E+02  0.7816164E-02  0.1184000E+00
        -11   -1    0    0    0    0  0.00000000000E+00  0.00000000000E+00  0.45593999997E+02  0.45594000000E+02  0.51100000000E-03 0.  1.
         11   -1    0    0    0    0 -0.00000000000E+00 -0.00000000000E+00 -0.45593999997E+02  0.45594000000E+02  0.51100000000E-03 0. -1.
         23    2    1    2    0    0 -0.44408920985E-15  0.35527136788E-14  0.00000000000E+00  0.91188000000E+02  0.91188000000E+02 0.  0.
    9900012    2    3    3    0    0 -0.35954246435E+01 -0.16905563537E+02 -0.32512355391E+02  0.54367103624E+02  0.40000044331E+02 0.  0.
        -12    1    3    3    0    0  0.35954246435E+01  0.16905563537E+02  0.32512355391E+02  0.36820896376E+02  0.00000000000E+00 0.  1.
         11    1    4    4    0    0 -0.27981322736E+01 -0.22229527898E+01 -0.14620693167E+02  0.15051104022E+02  0.51100000000E-03 0. -1.
        -11    1    4    4    0    0 -0.95026496464E+01 -0.37222510874E+01  0.58441967815E+01  0.11760533140E+02  0.51100000000E-03 0.  1.
         12    1    4    4    0    0  0.87053572764E+01 -0.10960359660E+02 -0.23735859006E+02  0.27555466462E+02  0.00000000000E+00 0. -1.
</event>
<event>
 8    1  0.2511738E-006  0.9118800E+02  0.7816164E-02  0.1184000E+00
        -11   -1    0    0    0    0  0.00000000000E+00  0.00000000000E+00  0.45593999997E+02  0.45594000000E+02  0.51100000000E-03 0. -1.
         11   -1    0    0    0    0 -0.00000000000E+00 -0.00000000000E+00 -0.45593999997E+02  0.45594000000E+02  0.51100000000E-03 0.  1.
         23    2    1    2    0    0  0.88817841970E-15  0.00000000000E+00  0.71054273576E-14  0.91188000000E+02  0.91188000000E+02 0.  0.
    9900012    2    3    3    0    0  0.31484044454E+01  0.86784689932E+01  0.35644797566E+02  0.54367083823E+02  0.39999999191E+02 0.  0.
        -12    1    3    3    0    0 -0.31484044454E+01 -0.86784689932E+01 -0.35644797566E+02  0.36820916177E+02  0.00000000000E+00 0.  1.
         11    1    4    4    0    0  0.87904024060E+01  0.19619305123E+02  0.10001069322E+02  0.23710961512E+02  0.51100000000E-03 0. -1.
        -11    1    4    4    0    0 -0.49906232729E+01  0.78612605623E+00  0.79032169146E+01  0.93800401219E+01  0.51100000000E-03 0.  1.
        -12    1    4    4    0    0 -0.65137468775E+00 -0.11726962186E+02  0.17740511329E+02  0.21276082189E+02  0.00000000000E+00 0.  1.
</event>
<event>
 8    1  0.2511738E-006  0.9118800E+02  0.7816164E-02  0.1184000E+00
        -11   -1    0    0    0    0  0.00000000000E+00  0.00000000000E+00  0.45593999997E+02  0.45594000000E+02  0.51100000000E-03 0. -1.
         11   -1    0    0    0    0 -0.00000000000E+00 -0.00000000000E+00 -0.45593999997E+02  0.45594000000E+02  0.51100000000E-03 0.  1.
         23    2    1    2    0    0  0.00000000000E+00 -0.35527136788E-14  0.00000000000E+00  0.91188000000E+02  0.91188000000E+02 0.  0.
    9900012    2    3    3    0    0 -0.13212036425E+02 -0.29419568596E+02  0.17768267188E+02  0.54367078750E+02  0.39999987626E+02 0.  0.
        -12    1    3    3    0    0  0.13212036425E+02  0.29419568596E+02 -0.17768267188E+02  0.36820921250E+02  0.00000000000E+00 0.  1.
         11    1    4    4    0    0 -0.20408419385E+02 -0.16509721226E+02  0.79907291018E+01  0.27439501245E+02  0.51100000000E-03 0. -1.
        -11    1    4    4    0    0  0.44078846698E+01 -0.14422268297E+02 -0.15537210881E+01  0.15160650368E+02  0.51100000000E-03 0.  1.
         12    1    4    4    0    0  0.27884982902E+01  0.15124209266E+01  0.11331259174E+02  0.11766927137E+02  0.00000000000E+00 0. -1.
</event>
<event>
 8    1  0.2511738E-006  0.9118800E+02  0.7816164E-02  0.1184000E+00
        -11   -1    0    0    0    0  0.00000000000E+00  0.00000000000E+00  0.45593999997E+02  0.45594000000E+02  0.51100000000E-03 0.  1.
         11   -1    0    0    0    0 -0.00000000000E+00 -0.00000000000E+00 -0.45593999997E+02  0.45594000000E+02  0.51100000000E-03 0. -1.
         23    2    1    2    0    0  0.35527136788E-14  0.35527136788E-14  0.00000000000E+00  0.91188000000E+02  0.91188000000E+02 0.  0.
    9900012    2    3    3    0    0  0.17671872144E+02 -0.16057985611E+02  0.28029018611E+02  0.54367084052E+02  0.39999999714E+02 0.  0.
         12    1    3    3    0    0 -0.17671872144E+02  0.16057985611E+02 -0.28029018611E+02  0.36820915948E+02  0.00000000000E+00 0. -1.
         11    1    4    4    0    0 -0.45024563977E+01  0.22240254146E+01  0.31067444786E+01  0.59051049249E+01  0.51100000000E-03 0. -1.
        -11    1    4    4    0    0  0.17261628918E+02  0.14422593208E+00  0.23083575954E+00  0.17263774773E+02  0.51100000000E-03 0.  1.
        -12    1    4    4    0    0  0.49126996244E+01 -0.18426236958E+02  0.24691438372E+02  0.31198204354E+02  0.00000000000E+00 0.  1.
</event>
<event>
 8    1  0.2511738E-006  0.9118800E+02  0.7816164E-02  0.1184000E+00
        -11   -1    0    0    0    0  0.00000000000E+00  0.00000000000E+00  0.45593999997E+02  0.45594000000E+02  0.51100000000E-03 0.  1.
         11   -1    0    0    0    0 -0.00000000000E+00 -0.00000000000E+00 -0.45593999997E+02  0.45594000000E+02  0.51100000000E-03 0. -1.
         23    2    1    2    0    0  0.00000000000E+00  0.44408920985E-15  0.00000000000E+00  0.91188000000E+02  0.91188000000E+02 0.  0.
    9900012    2    3    3    0    0  0.15085101635E+02 -0.28894394975E+01  0.33464507839E+02  0.54367048942E+02  0.39999919672E+02 0.  0.
         12    1    3    3    0    0 -0.15085101635E+02  0.28894394975E+01 -0.33464507839E+02  0.36820951058E+02  0.00000000000E+00 0. -1.
         11    1    4    4    0    0  0.17333014406E+02 -0.70861353620E+01  0.32833070862E+02  0.37797582532E+02  0.51100000000E-03 0.  1.
        -11    1    4    4    0    0 -0.31358645286E+00 -0.60811151270E+01  0.50992888388E+00  0.61105094206E+01  0.51100000000E-03 0. -1.
         12    1    4    4    0    0 -0.19343263189E+01  0.10277810991E+02  0.12150809344E+00  0.10458956989E+02  0.00000000000E+00 0. -1.
</event>
<event>
 8    1  0.2511738E-006  0.9118800E+02  0.7816164E-02  0.1184000E+00
        -11   -1    0    0    0    0  0.00000000000E+00  0.00000000000E+00  0.45593999997E+02  0.45594000000E+02  0.51100000000E-03 0.  1.
         11   -1    0    0    0    0 -0.00000000000E+00 -0.00000000000E+00 -0.45593999997E+02  0.45594000000E+02  0.51100000000E-03 0. -1.
         23    2    1    2    0    0  0.71054273576E-14  0.00000000000E+00  0.00000000000E+00  0.91188000000E+02  0.91188000000E+02 0.  0.
    9900012    2    3    3    0    0 -0.32684704251E+02  0.80356723287E+01  0.14930427368E+02  0.54367087692E+02  0.40000008012E+02 0.  0.
        -12    1    3    3    0    0  0.32684704251E+02 -0.80356723287E+01 -0.14930427368E+02  0.36820912308E+02  0.00000000000E+00 0.  1.
         11    1    4    4    0    0  0.17230002378E+01  0.55032864267E+01 -0.70418260866E+01  0.91017693999E+01  0.51100000000E-03 0. -1.
        -11    1    4    4    0    0 -0.10789020788E+02  0.24472059645E+00  0.18312084978E+02  0.21255477277E+02  0.51100000000E-03 0.  1.
        -12    1    4    4    0    0 -0.23618683701E+02  0.22876653056E+01  0.36601684764E+01  0.24009841016E+02  0.00000000000E+00 0.  1.
</event>
<event>
 8    1  0.2511738E-006  0.9118800E+02  0.7816164E-02  0.1184000E+00
        -11   -1    0    0    0    0  0.00000000000E+00  0.00000000000E+00  0.45593999997E+02  0.45594000000E+02  0.51100000000E-03 0. -1.
         11   -1    0    0    0    0 -0.00000000000E+00 -0.00000000000E+00 -0.45593999997E+02  0.45594000000E+02  0.51100000000E-03 0.  1.
         23    2    1    2    0    0  0.00000000000E+00  0.00000000000E+00  0.00000000000E+00  0.91188000000E+02  0.91188000000E+02 0.  0.
    9900012    2    3    3    0    0 -0.93893390226E+01 -0.13371003554E+02 -0.32997520405E+02  0.54367085071E+02  0.40000002036E+02 0.  0.
         12    1    3    3    0    0  0.93893390226E+01  0.13371003554E+02  0.32997520405E+02  0.36820914929E+02  0.00000000000E+00 0. -1.
         11    1    4    4    0    0 -0.17542972363E+02 -0.19394834926E+02 -0.10443457198E+02  0.28159923644E+02  0.51100000000E-03 0. -1.
        -11    1    4    4    0    0  0.60792513148E+01  0.68665776846E+01 -0.10475233465E+02  0.13922560902E+02  0.51100000000E-03 0.  1.
        -12    1    4    4    0    0  0.20743820253E+01 -0.84274631208E+00 -0.12078829741E+02  0.12284600525E+02  0.00000000000E+00 0.  1.
</event>
<event>
 8    1  0.2511738E-006  0.9118800E+02  0.7816164E-02  0.1184000E+00
        -11   -1    0    0    0    0  0.00000000000E+00  0.00000000000E+00  0.45593999997E+02  0.45594000000E+02  0.51100000000E-03 0.  1.
         11   -1    0    0    0    0 -0.00000000000E+00 -0.00000000000E+00 -0.45593999997E+02  0.45594000000E+02  0.51100000000E-03 0. -1.
         23    2    1    2    0    0  0.00000000000E+00  0.00000000000E+00  0.35527136788E-14  0.91188000000E+02  0.91188000000E+02 0.  0.
    9900012    2    3    3    0    0 -0.19301054132E+02  0.12266180425E+01  0.31332782057E+02  0.54367102213E+02  0.40000041115E+02 0.  0.
         12    1    3    3    0    0  0.19301054132E+02 -0.12266180425E+01 -0.31332782057E+02  0.36820897787E+02  0.00000000000E+00 0. -1.
         11    1    4    4    0    0  0.29554521112E+01 -0.63820783327E+01 -0.51346742753E+00  0.70518983322E+01  0.51100000000E-03 0. -1.
        -11    1    4    4    0    0 -0.65675798239E+01 -0.80656532126E+01  0.28020203924E+01  0.10772148580E+02  0.51100000000E-03 0.  1.
        -12    1    4    4    0    0 -0.15688926419E+02  0.15674349588E+02  0.29044229092E+02  0.36543055301E+02  0.00000000000E+00 0.  1.
</event>
<event>
 8    1  0.2511738E-006  0.9118800E+02  0.7816164E-02  0.1184000E+00
        -11   -1    0    0    0    0  0.00000000000E+00  0.00000000000E+00  0.45593999997E+02  0.45594000000E+02  0.51100000000E-03 0. -1.
         11   -1    0    0    0    0 -0.00000000000E+00 -0.00000000000E+00 -0.45593999997E+02  0.45594000000E+02  0.51100000000E-03 0.  1.
         23    2    1    2    0    0 -0.17763568394E-14 -0.71054273576E-14 -0.13322676296E-14  0.91188000000E+02  0.91188000000E+02 0.  0.
    9900012    2    3    3    0    0  0.66178886668E+01  0.36091430115E+02 -0.30646379975E+01  0.54367084962E+02  0.40000001789E+02 0.  0.
        -12    1    3    3    0    0 -0.66178886668E+01 -0.36091430115E+02  0.30646379975E+01  0.36820915038E+02  0.00000000000E+00 0.  1.
         11    1    4    4    0    0 -0.20819383679E+01  0.11282125593E+02  0.10659769768E+02  0.15660508198E+02  0.51100000000E-03 0. -1.
        -11    1    4    4    0    0  0.32243591581E+01  0.25441930702E+02 -0.18330934307E+02  0.31523189601E+02  0.51100000000E-03 0.  1.
         12    1    4    4    0    0  0.54754678766E+01 -0.63262617994E+00  0.46065265418E+01  0.71833871629E+01  0.00000000000E+00 0. -1.
</event>
<event>
 8    1  0.2511738E-006  0.9118800E+02  0.7816164E-02  0.1184000E+00
        -11   -1    0    0    0    0  0.00000000000E+00  0.00000000000E+00  0.45593999997E+02  0.45594000000E+02  0.51100000000E-03 0. -1.
         11   -1    0    0    0    0 -0.00000000000E+00 -0.00000000000E+00 -0.45593999997E+02  0.45594000000E+02  0.51100000000E-03 0.  1.
         23    2    1    2    0    0  0.00000000000E+00 -0.35527136788E-14  0.44408920985E-15  0.91188000000E+02  0.91188000000E+02 0.  0.
    9900012    2    3    3    0    0 -0.20852897878E+02  0.30203323068E+02  0.29486995776E+01  0.54367096922E+02  0.40000029053E+02 0.  0.
         12    1    3    3    0    0  0.20852897878E+02 -0.30203323068E+02 -0.29486995776E+01  0.36820903078E+02  0.00000000000E+00 0. -1.
         11    1    4    4    0    0 -0.12084201054E+01 -0.62054628674E+01 -0.53275155560E+01  0.82674343547E+01  0.51100000000E-03 0. -1.
        -11    1    4    4    0    0  0.45759714745E+00  0.63141740733E+01 -0.44480085973E+01  0.77371163957E+01  0.51100000000E-03 0.  1.
         12    1    4    4    0    0 -0.20102074920E+02  0.30094611862E+02  0.12724223731E+02  0.38362546172E+02  0.00000000000E+00 0. -1.
</event>
<event>
 8    1  0.2511738E-006  0.9118800E+02  0.7816164E-02  0.1184000E+00
        -11   -1    0    0    0    0  0.00000000000E+00  0.00000000000E+00  0.45593999997E+02  0.45594000000E+02  0.51100000000E-03 0.  1.
         11   -1    0    0    0    0 -0.00000000000E+00 -0.00000000000E+00 -0.45593999997E+02  0.45594000000E+02  0.51100000000E-03 0. -1.
         23    2    1    2    0    0  0.00000000000E+00  0.00000000000E+00 -0.17763568394E-14  0.91188000000E+02  0.91188000000E+02 0.  0.
    9900012    2    3    3    0    0 -0.27274228596E+02  0.22972243190E+02 -0.91745930166E+01  0.54367073073E+02  0.39999974685E+02 0.  0.
        -12    1    3    3    0    0  0.27274228596E+02 -0.22972243190E+02  0.91745930166E+01  0.36820926927E+02  0.00000000000E+00 0.  1.
         11    1    4    4    0    0 -0.15163107076E+02  0.35624376337E+01 -0.20198132302E+02  0.25506378159E+02  0.51100000000E-03 0. -1.
        -11    1    4    4    0    0 -0.24072805412E+01  0.15963614335E+02  0.48614048924E+01  0.16860167260E+02  0.51100000000E-03 0.  1.
         12    1    4    4    0    0 -0.97038409798E+01  0.34461912213E+01  0.61621343927E+01  0.12000527654E+02  0.00000000000E+00 0. -1.
</event>
<event>
 8    1  0.2511738E-006  0.9118800E+02  0.7816164E-02  0.1184000E+00
        -11   -1    0    0    0    0  0.00000000000E+00  0.00000000000E+00  0.45593999997E+02  0.45594000000E+02  0.51100000000E-03 0.  1.
         11   -1    0    0    0    0 -0.00000000000E+00 -0.00000000000E+00 -0.45593999997E+02  0.45594000000E+02  0.51100000000E-03 0. -1.
         23    2    1    2    0    0  0.00000000000E+00  0.00000000000E+00 -0.35527136788E-14  0.91188000000E+02  0.91188000000E+02 0.  0.
    9900012    2    3    3    0    0 -0.21419068206E+02 -0.10760579589E+02  0.27950163704E+02  0.54367106380E+02  0.40000050614E+02 0.  0.
         12    1    3    3    0    0  0.21419068206E+02  0.10760579589E+02 -0.27950163704E+02  0.36820893620E+02  0.00000000000E+00 0. -1.
         11    1    4    4    0    0 -0.10879961251E+02 -0.24063047483E+02  0.14851208639E+02  0.30297891169E+02  0.51100000000E-03 0. -1.
        -11    1    4    4    0    0 -0.50454457791E+01  0.56729898194E+01 -0.41871470195E+00  0.76035951275E+01  0.51100000000E-03 0.  1.
         12    1    4    4    0    0 -0.54936611751E+01  0.76294780745E+01  0.13517669768E+02  0.16465620084E+02  0.00000000000E+00 0. -1.
</event>
<event>
 8    1  0.2511738E-006  0.9118800E+02  0.7816164E-02  0.1184000E+00
        -11   -1    0    0    0    0  0.00000000000E+00  0.00000000000E+00  0.45593999997E+02  0.45594000000E+02  0.51100000000E-03 0.  1.
         11   -1    0    0    0    0 -0.00000000000E+00 -0.00000000000E+00 -0.45593999997E+02  0.45594000000E+02  0.51100000000E-03 0. -1.
         23    2    1    2    0    0  0.71054273576E-14 -0.35527136788E-14 -0.88817841970E-15  0.91188000000E+02  0.91188000000E+02 0.  0.
    9900012    2    3    3    0    0 -0.35019099542E+02  0.10638601582E+02  0.40326955515E+01  0.54367084616E+02  0.40000000998E+02 0.  0.
         12    1    3    3    0    0  0.35019099542E+02 -0.10638601582E+02 -0.40326955515E+01  0.36820915384E+02  0.00000000000E+00 0. -1.
         11    1    4    4    0    0  0.22657338563E+01  0.24424520054E+01 -0.66798937857E+01  0.74645899389E+01  0.51100000000E-03 0. -1.
        -11    1    4    4    0    0  0.35316051147E+01 -0.99651763131E+00 -0.16351292606E+00  0.36731483518E+01  0.51100000000E-03 0.  1.
        -12    1    4    4    0    0 -0.40816438513E+02  0.91926672078E+01  0.10876102263E+02  0.43229346325E+02  0.00000000000E+00 0.  1.
</event>
<event>
 8    1  0.2511738E-006  0.9118800E+02  0.7816164E-02  0.1184000E+00
        -11   -1    0    0    0    0  0.00000000000E+00  0.00000000000E+00  0.45593999997E+02  0.45594000000E+02  0.51100000000E-03 0. -1.
         11   -1    0    0    0    0 -0.00000000000E+00 -0.00000000000E+00 -0.45593999997E+02  0.45594000000E+02  0.51100000000E-03 0.  1.
         23    2    1    2    0    0 -0.71054273576E-14 -0.17763568394E-14  0.88817841970E-15  0.91188000000E+02  0.91188000000E+02 0.  0.
    9900012    2    3    3    0    0  0.34435154800E+02 -0.11280606031E+02 -0.65380724411E+01  0.54367104441E+02  0.40000046193E+02 0.  0.
        -12    1    3    3    0    0 -0.34435154800E+02  0.11280606031E+02  0.65380724411E+01  0.36820895559E+02  0.00000000000E+00 0.  1.
         11    1    4    4    0    0  0.13391590592E+02 -0.73955611127E+01  0.34128824817E+01  0.15674080192E+02  0.51100000000E-03 0. -1.
        -11    1    4    4    0    0 -0.26789036182E+01  0.87395419362E+01  0.18785647024E+01  0.93319410335E+01  0.51100000000E-03 0.  1.
        -12    1    4    4    0    0  0.23722467826E+02 -0.12624586854E+02 -0.11829519625E+02  0.29361083215E+02  0.00000000000E+00 0.  1.
</event>
<event>
 8    1  0.2511738E-006  0.9118800E+02  0.7816164E-02  0.1184000E+00
        -11   -1    0    0    0    0  0.00000000000E+00  0.00000000000E+00  0.45593999997E+02  0.45594000000E+02  0.51100000000E-03 0. -1.
         11   -1    0    0    0    0 -0.00000000000E+00 -0.00000000000E+00 -0.45593999997E+02  0.45594000000E+02  0.51100000000E-03 0.  1.
         23    2    1    2    0    0  0.00000000000E+00  0.71054273576E-14  0.00000000000E+00  0.91188000000E+02  0.91188000000E+02 0.  0.
    9900012    2    3    3    0    0  0.25424807794E+02  0.24556105257E+02 -0.10312880143E+02  0.54367100315E+02  0.40000036788E+02 0.  0.
        -12    1    3    3    0    0 -0.25424807794E+02 -0.24556105257E+02  0.10312880143E+02  0.36820899685E+02  0.00000000000E+00 0.  1.
         11    1    4    4    0    0  0.16073872600E+02 -0.28579060220E+01 -0.10212707961E+02  0.19257113267E+02  0.51100000000E-03 0. -1.
        -11    1    4    4    0    0  0.24738925611E+01  0.16954980094E+02 -0.93743936021E+01  0.19531276202E+02  0.51100000000E-03 0.  1.
         12    1    4    4    0    0  0.68770426330E+01  0.10459031184E+02  0.92742214204E+01  0.15578710847E+02  0.00000000000E+00 0. -1.
</event>
<event>
 8    1  0.2511738E-006  0.9118800E+02  0.7816164E-02  0.1184000E+00
        -11   -1    0    0    0    0  0.00000000000E+00  0.00000000000E+00  0.45593999997E+02  0.45594000000E+02  0.51100000000E-03 0.  1.
         11   -1    0    0    0    0 -0.00000000000E+00 -0.00000000000E+00 -0.45593999997E+02  0.45594000000E+02  0.51100000000E-03 0. -1.
         23    2    1    2    0    0  0.00000000000E+00  0.00000000000E+00  0.00000000000E+00  0.91188000000E+02  0.91188000000E+02 0.  0.
    9900012    2    3    3    0    0  0.95684603052E+01 -0.28658510124E+02 -0.21045544118E+02  0.54367074396E+02  0.39999977700E+02 0.  0.
        -12    1    3    3    0    0 -0.95684603052E+01  0.28658510124E+02  0.21045544118E+02  0.36820925604E+02  0.00000000000E+00 0.  1.
         11    1    4    4    0    0  0.10195998646E+02 -0.22532386280E+01  0.62745320367E+01  0.12182168331E+02  0.51100000000E-03 0. -1.
        -11    1    4    4    0    0  0.20266359910E+01 -0.15473168498E+02 -0.37228020204E+01  0.16043236954E+02  0.51100000000E-03 0.  1.
         12    1    4    4    0    0 -0.26541743321E+01 -0.10932102998E+02 -0.23597274134E+02  0.26141669111E+02  0.00000000000E+00 0. -1.
</event>
<event>
 8    1  0.2511738E-006  0.9118800E+02  0.7816164E-02  0.1184000E+00
        -11   -1    0    0    0    0  0.00000000000E+00  0.00000000000E+00  0.45593999997E+02  0.45594000000E+02  0.51100000000E-03 0. -1.
         11   -1    0    0    0    0 -0.00000000000E+00 -0.00000000000E+00 -0.45593999997E+02  0.45594000000E+02  0.51100000000E-03 0.  1.
         23    2    1    2    0    0  0.00000000000E+00 -0.35527136788E-14  0.00000000000E+00  0.91188000000E+02  0.91188000000E+02 0.  0.
    9900012    2    3    3    0    0  0.93070522001E+01 -0.26010833716E+02 -0.24343271149E+02  0.54367088258E+02  0.40000009302E+02 0.  0.
         12    1    3    3    0    0 -0.93070522001E+01  0.26010833716E+02  0.24343271149E+02  0.36820911742E+02  0.00000000000E+00 0. -1.
         11    1    4    4    0    0  0.61807990250E+01 -0.99712014371E+01  0.74865606587E+01  0.13916742631E+02  0.51100000000E-03 0. -1.
        -11    1    4    4    0    0  0.70162542007E+00 -0.14797215259E+02 -0.33921822577E+02  0.37015400915E+02  0.51100000000E-03 0.  1.
        -12    1    4    4    0    0  0.24246277550E+01 -0.12424170199E+01  0.20919907691E+01  0.34349447127E+01  0.00000000000E+00 0.  1.
</event>
<event>
 8    1  0.2511738E-006  0.9118800E+02  0.7816164E-02  0.1184000E+00
        -11   -1    0    0    0    0  0.00000000000E+00  0.00000000000E+00  0.45593999997E+02  0.45594000000E+02  0.51100000000E-03 0.  1.
         11   -1    0    0    0    0 -0.00000000000E+00 -0.00000000000E+00 -0.45593999997E+02  0.45594000000E+02  0.51100000000E-03 0. -1.
         23    2    1    2    0    0  0.00000000000E+00  0.00000000000E+00  0.00000000000E+00  0.91188000000E+02  0.91188000000E+02 0.  0.
    9900012    2    3    3    0    0 -0.14864045760E+02 -0.46811228700E+01  0.33360571918E+02  0.54367074884E+02  0.39999978813E+02 0.  0.
         12    1    3    3    0    0  0.14864045760E+02  0.46811228700E+01 -0.33360571918E+02  0.36820925116E+02  0.00000000000E+00 0. -1.
         11    1    4    4    0    0 -0.10383095254E+02  0.23303505121E+01  0.54889012367E+01  0.11973605874E+02  0.51100000000E-03 0. -1.
        -11    1    4    4    0    0 -0.80610406039E+01  0.70225350187E+01  0.25587313491E+02  0.27730975202E+02  0.51100000000E-03 0.  1.
        -12    1    4    4    0    0  0.35800900985E+01 -0.14034008401E+02  0.22843571910E+01  0.14662493808E+02  0.00000000000E+00 0.  1.
</event>
<event>
 8    1  0.2511738E-006  0.9118800E+02  0.7816164E-02  0.1184000E+00
        -11   -1    0    0    0    0  0.00000000000E+00  0.00000000000E+00  0.45593999997E+02  0.45594000000E+02  0.51100000000E-03 0.  1.
         11   -1    0    0    0    0 -0.00000000000E+00 -0.00000000000E+00 -0.45593999997E+02  0.45594000000E+02  0.51100000000E-03 0. -1.
         23    2    1    2    0    0  0.35527136788E-14  0.35527136788E-14  0.00000000000E+00  0.91188000000E+02  0.91188000000E+02 0.  0.
    9900012    2    3    3    0    0 -0.16724526109E+02  0.29417387189E+02 -0.14515091104E+02  0.54367077791E+02  0.39999985439E+02 0.  0.
        -12    1    3    3    0    0  0.16724526109E+02 -0.29417387189E+02  0.14515091104E+02  0.36820922209E+02  0.00000000000E+00 0.  1.
         11    1    4    4    0    0 -0.10165061139E+02 -0.47704054248E+01 -0.15583068920E+02  0.19207219296E+02  0.51100000000E-03 0. -1.
        -11    1    4    4    0    0 -0.36184501991E+01  0.22759308497E+02 -0.14597215983E+01  0.23091342371E+02  0.51100000000E-03 0.  1.
         12    1    4    4    0    0 -0.29410147710E+01  0.11428484117E+02  0.25276994138E+01  0.12068516123E+02  0.00000000000E+00 0. -1.
</event>
<event>
 8    1  0.2511738E-006  0.9118800E+02  0.7816164E-02  0.1184000E+00
        -11   -1    0    0    0    0  0.00000000000E+00  0.00000000000E+00  0.45593999997E+02  0.45594000000E+02  0.51100000000E-03 0. -1.
         11   -1    0    0    0    0 -0.00000000000E+00 -0.00000000000E+00 -0.45593999997E+02  0.45594000000E+02  0.51100000000E-03 0.  1.
         23    2    1    2    0    0 -0.17763568394E-14  0.00000000000E+00  0.88817841970E-15  0.91188000000E+02  0.91188000000E+02 0.  0.
    9900012    2    3    3    0    0 -0.11667578346E+02  0.34095305730E+02 -0.75602942470E+01  0.54367077872E+02  0.39999985624E+02 0.  0.
         12    1    3    3    0    0  0.11667578346E+02 -0.34095305730E+02  0.75602942470E+01  0.36820922128E+02  0.00000000000E+00 0. -1.
         11    1    4    4    0    0  0.84233660811E+01  0.20625295768E+01  0.44703272782E+01  0.97565849879E+01  0.51100000000E-03 0. -1.
        -11    1    4    4    0    0 -0.19190006256E+02  0.34893389907E+02 -0.10240705413E+02  0.41117843413E+02  0.51100000000E-03 0.  1.
        -12    1    4    4    0    0 -0.90093817120E+00 -0.28606137540E+01 -0.17899161119E+01  0.34926494707E+01  0.00000000000E+00 0.  1.
</event>
<event>
 8    1  0.2511738E-006  0.9118800E+02  0.7816164E-02  0.1184000E+00
        -11   -1    0    0    0    0  0.00000000000E+00  0.00000000000E+00  0.45593999997E+02  0.45594000000E+02  0.51100000000E-03 0.  1.
         11   -1    0    0    0    0 -0.00000000000E+00 -0.00000000000E+00 -0.45593999997E+02  0.45594000000E+02  0.51100000000E-03 0. -1.
         23    2    1    2    0    0  0.17763568394E-14 -0.35527136788E-14  0.00000000000E+00  0.91188000000E+02  0.91188000000E+02 0.  0.
    9900012    2    3    3    0    0  0.98145102414E+01 -0.27280377875E+02 -0.22698800602E+02  0.54367093207E+02  0.40000020584E+02 0.  0.
        -12    1    3    3    0    0 -0.98145102414E+01  0.27280377875E+02  0.22698800602E+02  0.36820906793E+02  0.00000000000E+00 0.  1.
         11    1    4    4    0    0  0.68211963935E+01 -0.74100512691E+01 -0.84970408074E+01  0.13177150025E+02  0.51100000000E-03 0. -1.
        -11    1    4    4    0    0  0.41192506626E+01 -0.27848511840E+02 -0.16727307330E+02  0.32746154713E+02  0.51100000000E-03 0.  1.
         12    1    4    4    0    0 -0.11259368147E+01  0.79781852340E+01  0.25255475361E+01  0.84437884682E+01  0.00000000000E+00 0. -1.
</event>
<event>
 8    1  0.2511738E-006  0.9118800E+02  0.7816164E-02  0.1184000E+00
        -11   -1    0    0    0    0  0.00000000000E+00  0.00000000000E+00  0.45593999997E+02  0.45594000000E+02  0.51100000000E-03 0.  1.
         11   -1    0    0    0    0 -0.00000000000E+00 -0.00000000000E+00 -0.45593999997E+02  0.45594000000E+02  0.51100000000E-03 0. -1.
         23    2    1    2    0    0  0.17763568394E-14  0.00000000000E+00 -0.35527136788E-14  0.91188000000E+02  0.91188000000E+02 0.  0.
    9900012    2    3    3    0    0 -0.12105234349E+02 -0.28235439208E+02  0.20297863706E+02  0.54367082074E+02  0.39999995204E+02 0.  0.
         12    1    3    3    0    0  0.12105234349E+02  0.28235439208E+02 -0.20297863706E+02  0.36820917926E+02  0.00000000000E+00 0. -1.
         11    1    4    4    0    0 -0.73102273465E+01 -0.96587518117E+01  0.41571264481E+01  0.12806740842E+02  0.51100000000E-03 0. -1.
        -11    1    4    4    0    0 -0.16041879108E+02 -0.88660681724E+01 -0.16238484538E+01  0.18400704721E+02  0.51100000000E-03 0.  1.
         12    1    4    4    0    0  0.11246872105E+02 -0.97106192236E+01  0.17764585711E+02  0.23159636512E+02  0.00000000000E+00 0. -1.
</event>
<event>
 8    1  0.2511738E-006  0.9118800E+02  0.7816164E-02  0.1184000E+00
        -11   -1    0    0    0    0  0.00000000000E+00  0.00000000000E+00  0.45593999997E+02  0.45594000000E+02  0.51100000000E-03 0. -1.
         11   -1    0    0    0    0 -0.00000000000E+00 -0.00000000000E+00 -0.45593999997E+02  0.45594000000E+02  0.51100000000E-03 0.  1.
         23    2    1    2    0    0  0.00000000000E+00  0.22204460493E-15  0.00000000000E+00  0.91188000000E+02  0.91188000000E+02 0.  0.
    9900012    2    3    3    0    0  0.16357582119E+02  0.13868733321E+01  0.32958852022E+02  0.54367084245E+02  0.40000000153E+02 0.  0.
        -12    1    3    3    0    0 -0.16357582119E+02 -0.13868733321E+01 -0.32958852022E+02  0.36820915755E+02  0.00000000000E+00 0.  1.
         11    1    4    4    0    0  0.31751604183E+01  0.31848930114E+01 -0.41710739057E+01  0.61337627085E+01  0.51100000000E-03 0. -1.
        -11    1    4    4    0    0  0.47819624688E+01 -0.91654666099E+01  0.96642183573E+00  0.10383010867E+02  0.51100000000E-03 0.  1.
         12    1    4    4    0    0  0.84004592320E+01  0.73674469305E+01  0.36163504092E+02  0.37850310670E+02  0.00000000000E+00 0. -1.
</event>
<event>
 8    1  0.2511738E-006  0.9118800E+02  0.7816164E-02  0.1184000E+00
        -11   -1    0    0    0    0  0.00000000000E+00  0.00000000000E+00  0.45593999997E+02  0.45594000000E+02  0.51100000000E-03 0. -1.
         11   -1    0    0    0    0 -0.00000000000E+00 -0.00000000000E+00 -0.45593999997E+02  0.45594000000E+02  0.51100000000E-03 0.  1.
         23    2    1    2    0    0  0.11102230246E-15 -0.71054273576E-14 -0.35527136788E-14  0.91188000000E+02  0.91188000000E+02 0.  0.
    9900012    2    3    3    0    0  0.49550125806E+00  0.30232059347E+02  0.21013250397E+02  0.54367087109E+02  0.40000006683E+02 0.  0.
        -12    1    3    3    0    0 -0.49550125806E+00 -0.30232059347E+02 -0.21013250397E+02  0.36820912891E+02  0.00000000000E+00 0.  1.
         11    1    4    4    0    0  0.12953821494E+01 -0.23170248291E+01  0.85188234732E+01  0.89228343367E+01  0.51100000000E-03 0. -1.
        -11    1    4    4    0    0 -0.57258134821E+01  0.31996529412E+01 -0.72139597322E+01  0.97500735513E+01  0.51100000000E-03 0.  1.
         12    1    4    4    0    0  0.49259325907E+01  0.29349431235E+02  0.19708386656E+02  0.35694179221E+02  0.00000000000E+00 0. -1.
</event>
<event>
 8    1  0.2511738E-006  0.9118800E+02  0.7816164E-02  0.1184000E+00
        -11   -1    0    0    0    0  0.00000000000E+00  0.00000000000E+00  0.45593999997E+02  0.45594000000E+02  0.51100000000E-03 0. -1.
         11   -1    0    0    0    0 -0.00000000000E+00 -0.00000000000E+00 -0.45593999997E+02  0.45594000000E+02  0.51100000000E-03 0.  1.
         23    2    1    2    0    0  0.35527136788E-14  0.71054273576E-14  0.17763568394E-14  0.91188000000E+02  0.91188000000E+02 0.  0.
    9900012    2    3    3    0    0  0.12845461491E+02  0.32668741346E+02  0.11114102520E+02  0.54367138835E+02  0.40000124603E+02 0.  0.
        -12    1    3    3    0    0 -0.12845461491E+02 -0.32668741346E+02 -0.11114102520E+02  0.36820861165E+02  0.00000000000E+00 0.  1.
         11    1    4    4    0    0 -0.38270086574E+01 -0.33221075013E+01  0.34375695874E+01  0.61236654418E+01  0.51100000000E-03 0. -1.
        -11    1    4    4    0    0  0.10861493625E+01  0.16480726462E+02 -0.84146859100E+01  0.18536477669E+02  0.51100000000E-03 0.  1.
         12    1    4    4    0    0  0.15586320786E+02  0.19510122386E+02  0.16091218842E+02  0.29706995725E+02  0.00000000000E+00 0. -1.
</event>
<event>
 8    1  0.2511738E-006  0.9118800E+02  0.7816164E-02  0.1184000E+00
        -11   -1    0    0    0    0  0.00000000000E+00  0.00000000000E+00  0.45593999997E+02  0.45594000000E+02  0.51100000000E-03 0.  1.
         11   -1    0    0    0    0 -0.00000000000E+00 -0.00000000000E+00 -0.45593999997E+02  0.45594000000E+02  0.51100000000E-03 0. -1.
         23    2    1    2    0    0 -0.17763568394E-14  0.00000000000E+00  0.35527136788E-14  0.91188000000E+02  0.91188000000E+02 0.  0.
    9900012    2    3    3    0    0  0.13709501500E+02 -0.16591726884E+02 -0.29875460279E+02  0.54367096165E+02  0.40000027328E+02 0.  0.
        -12    1    3    3    0    0 -0.13709501500E+02  0.16591726884E+02  0.29875460279E+02  0.36820903835E+02  0.00000000000E+00 0.  1.
         11    1    4    4    0    0  0.15105317563E+02 -0.45680491134E+01 -0.62202216083E+01  0.16962571990E+02  0.51100000000E-03 0. -1.
        -11    1    4    4    0    0 -0.13799552789E+01  0.75519848519E+01 -0.14682069831E+01  0.78161617039E+01  0.51100000000E-03 0.  1.
         12    1    4    4    0    0 -0.15860784723E-01 -0.19575662622E+02 -0.22187031687E+02  0.29588362472E+02  0.00000000000E+00 0. -1.
</event>
<event>
 8    1  0.2511738E-006  0.9118800E+02  0.7816164E-02  0.1184000E+00
        -11   -1    0    0    0    0  0.00000000000E+00  0.00000000000E+00  0.45593999997E+02  0.45594000000E+02  0.51100000000E-03 0.  1.
         11   -1    0    0    0    0 -0.00000000000E+00 -0.00000000000E+00 -0.45593999997E+02  0.45594000000E+02  0.51100000000E-03 0. -1.
         23    2    1    2    0    0  0.00000000000E+00  0.00000000000E+00  0.00000000000E+00  0.91188000000E+02  0.91188000000E+02 0.  0.
    9900012    2    3    3    0    0 -0.11209394439E+02  0.32375965354E+02 -0.13488046628E+02  0.54367067663E+02  0.39999962351E+02 0.  0.
        -12    1    3    3    0    0  0.11209394439E+02 -0.32375965354E+02  0.13488046628E+02  0.36820932337E+02  0.00000000000E+00 0.  1.
         11    1    4    4    0    0 -0.58759747014E+01 -0.33091675734E+01  0.50030291937E+00  0.67622460760E+01  0.51100000000E-03 0. -1.
        -11    1    4    4    0    0 -0.11024907864E+02  0.70632844667E+01  0.35392645831E+01  0.13563368863E+02  0.51100000000E-03 0.  1.
         12    1    4    4    0    0  0.56914881260E+01  0.28621848461E+02 -0.17527614131E+02  0.34041452724E+02  0.00000000000E+00 0. -1.
</event>
<event>
 8    1  0.2511738E-006  0.9118800E+02  0.7816164E-02  0.1184000E+00
        -11   -1    0    0    0    0  0.00000000000E+00  0.00000000000E+00  0.45593999997E+02  0.45594000000E+02  0.51100000000E-03 0. -1.
         11   -1    0    0    0    0 -0.00000000000E+00 -0.00000000000E+00 -0.45593999997E+02  0.45594000000E+02  0.51100000000E-03 0.  1.
         23    2    1    2    0    0  0.00000000000E+00 -0.44408920985E-15 -0.35527136788E-14  0.91188000000E+02  0.91188000000E+02 0.  0.
    9900012    2    3    3    0    0 -0.23857985053E+02  0.15191297317E+01  0.28004800648E+02  0.54367081146E+02  0.39999993089E+02 0.  0.
        -12    1    3    3    0    0  0.23857985053E+02 -0.15191297317E+01 -0.28004800648E+02  0.36820918854E+02  0.00000000000E+00 0.  1.
         11    1    4    4    0    0 -0.25243021251E+01  0.42402068455E+01  0.25802950435E+01  0.55686064759E+01  0.51100000000E-03 0. -1.
        -11    1    4    4    0    0  0.33105338565E+01  0.23885052064E+00 -0.71276965861E+01  0.78626167954E+01  0.51100000000E-03 0.  1.
         12    1    4    4    0    0 -0.24644216784E+02 -0.29599276345E+01  0.32552202190E+02  0.40935857875E+02  0.00000000000E+00 0. -1.
</event>
<event>
 8    1  0.2511738E-006  0.9118800E+02  0.7816164E-02  0.1184000E+00
        -11   -1    0    0    0    0  0.00000000000E+00  0.00000000000E+00  0.45593999997E+02  0.45594000000E+02  0.51100000000E-03 0. -1.
         11   -1    0    0    0    0 -0.00000000000E+00 -0.00000000000E+00 -0.45593999997E+02  0.45594000000E+02  0.51100000000E-03 0.  1.
         23    2    1    2    0    0  0.00000000000E+00  0.22204460493E-15  0.00000000000E+00  0.91188000000E+02  0.91188000000E+02 0.  0.
    9900012    2    3    3    0    0  0.36720967806E+02  0.75516278291E+00  0.26039311227E+01  0.54367079252E+02  0.39999988770E+02 0.  0.
        -12    1    3    3    0    0 -0.36720967806E+02 -0.75516278291E+00 -0.26039311227E+01  0.36820920748E+02  0.00000000000E+00 0.  1.
         11    1    4    4    0    0  0.11872579319E+01  0.46132983809E+00  0.69448591364E+01  0.70606993494E+01  0.51100000000E-03 0. -1.
        -11    1    4    4    0    0  0.63616211451E+01  0.11653625130E+02 -0.84412684680E+01  0.15733156577E+02  0.51100000000E-03 0.  1.
         12    1    4    4    0    0  0.29172088729E+02 -0.11359792185E+02  0.41003404543E+01  0.31573223325E+02  0.00000000000E+00 0. -1.
</event>
<event>
 8    1  0.2511738E-006  0.9118800E+02  0.7816164E-02  0.1184000E+00
        -11   -1    0    0    0    0  0.00000000000E+00  0.00000000000E+00  0.45593999997E+02  0.45594000000E+02  0.51100000000E-03 0. -1.
         11   -1    0    0    0    0 -0.00000000000E+00 -0.00000000000E+00 -0.45593999997E+02  0.45594000000E+02  0.51100000000E-03 0.  1.
         23    2    1    2    0    0  0.71054273576E-14  0.17763568394E-14  0.00000000000E+00  0.91188000000E+02  0.91188000000E+02 0.  0.
    9900012    2    3    3    0    0  0.35279441273E+02 -0.10363651517E+02 -0.19330043675E+01  0.54367071777E+02  0.39999971731E+02 0.  0.
         12    1    3    3    0    0 -0.35279441273E+02  0.10363651517E+02  0.19330043675E+01  0.36820928223E+02  0.00000000000E+00 0. -1.
         11    1    4    4    0    0  0.27181571294E+02 -0.10216220595E+01  0.23911725594E+01  0.27305663078E+02  0.51100000000E-03 0. -1.
        -11    1    4    4    0    0  0.14433186945E+02 -0.12733521403E+02 -0.48726259111E+01  0.19854519290E+02  0.51100000000E-03 0.  1.
         12    1    4    4    0    0 -0.63353169664E+01  0.33914919447E+01  0.54844898419E+00  0.72068894098E+01  0.00000000000E+00 0. -1.
</event>
<event>
 8    1  0.2511738E-006  0.9118800E+02  0.7816164E-02  0.1184000E+00
        -11   -1    0    0    0    0  0.00000000000E+00  0.00000000000E+00  0.45593999997E+02  0.45594000000E+02  0.51100000000E-03 0. -1.
         11   -1    0    0    0    0 -0.00000000000E+00 -0.00000000000E+00 -0.45593999997E+02  0.45594000000E+02  0.51100000000E-03 0.  1.
         23    2    1    2    0    0  0.35527136788E-14  0.00000000000E+00  0.00000000000E+00  0.91188000000E+02  0.91188000000E+02 0.  0.
    9900012    2    3    3    0    0 -0.26878812260E+02  0.10165072293E+02  0.23021704728E+02  0.54366835817E+02  0.39999433807E+02 0.  0.
        -12    1    3    3    0    0  0.26878812260E+02 -0.10165072293E+02 -0.23021704728E+02  0.36821164183E+02  0.00000000000E+00 0.  1.
         11    1    4    4    0    0 -0.23531623855E+01  0.24495048793E+01 -0.23105800006E+01  0.41080685932E+01  0.51100000000E-03 0. -1.
        -11    1    4    4    0    0  0.35507532044E+01  0.14162194291E+02  0.84829507427E+01  0.16885971959E+02  0.51100000000E-03 0.  1.
         12    1    4    4    0    0 -0.28076403079E+02 -0.64466268773E+01  0.16849333986E+02  0.33372795264E+02  0.00000000000E+00 0. -1.
</event>
<event>
 8    1  0.2511738E-006  0.9118800E+02  0.7816164E-02  0.1184000E+00
        -11   -1    0    0    0    0  0.00000000000E+00  0.00000000000E+00  0.45593999997E+02  0.45594000000E+02  0.51100000000E-03 0.  1.
         11   -1    0    0    0    0 -0.00000000000E+00 -0.00000000000E+00 -0.45593999997E+02  0.45594000000E+02  0.51100000000E-03 0. -1.
         23    2    1    2    0    0 -0.35527136788E-14  0.00000000000E+00 -0.35527136788E-14  0.91188000000E+02  0.91188000000E+02 0.  0.
    9900012    2    3    3    0    0  0.27948981979E+02 -0.16045276886E+02  0.17809638637E+02  0.54367085666E+02  0.40000003392E+02 0.  0.
         12    1    3    3    0    0 -0.27948981979E+02  0.16045276886E+02 -0.17809638637E+02  0.36820914334E+02  0.00000000000E+00 0. -1.
         11    1    4    4    0    0  0.91751982561E+01  0.52205736225E+01  0.99298369937E+01  0.14492767678E+02  0.51100000000E-03 0. -1.
        -11    1    4    4    0    0  0.56611165208E+01  0.38707996738E+01  0.92206564505E+01  0.11491380945E+02  0.51100000000E-03 0.  1.
        -12    1    4    4    0    0  0.13112667203E+02 -0.25136650183E+02 -0.13408548076E+01  0.28382937043E+02  0.00000000000E+00 0.  1.
</event>
<event>
 8    1  0.2511738E-006  0.9118800E+02  0.7816164E-02  0.1184000E+00
        -11   -1    0    0    0    0  0.00000000000E+00  0.00000000000E+00  0.45593999997E+02  0.45594000000E+02  0.51100000000E-03 0.  1.
         11   -1    0    0    0    0 -0.00000000000E+00 -0.00000000000E+00 -0.45593999997E+02  0.45594000000E+02  0.51100000000E-03 0. -1.
         23    2    1    2    0    0  0.00000000000E+00  0.00000000000E+00  0.00000000000E+00  0.91188000000E+02  0.91188000000E+02 0.  0.
    9900012    2    3    3    0    0  0.28965443165E+02 -0.14711293525E+02  0.17330923752E+02  0.54367082398E+02  0.39999995944E+02 0.  0.
         12    1    3    3    0    0 -0.28965443165E+02  0.14711293525E+02 -0.17330923752E+02  0.36820917602E+02  0.00000000000E+00 0. -1.
         11    1    4    4    0    0  0.15746526779E+02 -0.12654780304E+02 -0.88664006347E+01  0.22061496563E+02  0.51100000000E-03 0. -1.
        -11    1    4    4    0    0  0.10890339831E+02 -0.53886529701E+00  0.71100860314E+01  0.13017035034E+02  0.51100000000E-03 0.  1.
         12    1    4    4    0    0  0.23285765557E+01 -0.15176479243E+01  0.19087238355E+02  0.19288550801E+02  0.00000000000E+00 0. -1.
</event>
<event>
 8    1  0.2511738E-006  0.9118800E+02  0.7816164E-02  0.1184000E+00
        -11   -1    0    0    0    0  0.00000000000E+00  0.00000000000E+00  0.45593999997E+02  0.45594000000E+02  0.51100000000E-03 0.  1.
         11   -1    0    0    0    0 -0.00000000000E+00 -0.00000000000E+00 -0.45593999997E+02  0.45594000000E+02  0.51100000000E-03 0. -1.
         23    2    1    2    0    0 -0.35527136788E-14 -0.17763568394E-14  0.00000000000E+00  0.91188000000E+02  0.91188000000E+02 0.  0.
    9900012    2    3    3    0    0  0.20904236613E+02  0.15388387948E+02  0.26114943086E+02  0.54367084145E+02  0.39999999924E+02 0.  0.
         12    1    3    3    0    0 -0.20904236613E+02 -0.15388387948E+02 -0.26114943086E+02  0.36820915855E+02  0.00000000000E+00 0. -1.
         11    1    4    4    0    0  0.31661333118E+02  0.10818334013E+02  0.14473454779E+02  0.36454866056E+02  0.51100000000E-03 0. -1.
        -11    1    4    4    0    0 -0.60289385880E+01 -0.66965291675E+00  0.30377556296E+01  0.67841355421E+01  0.51100000000E-03 0.  1.
         12    1    4    4    0    0 -0.47281579168E+01  0.52397068525E+01  0.86037326771E+01  0.11128082547E+02  0.00000000000E+00 0. -1.
</event>
<event>
 8    1  0.2511738E-006  0.9118800E+02  0.7816164E-02  0.1184000E+00
        -11   -1    0    0    0    0  0.00000000000E+00  0.00000000000E+00  0.45593999997E+02  0.45594000000E+02  0.51100000000E-03 0. -1.
         11   -1    0    0    0    0 -0.00000000000E+00 -0.00000000000E+00 -0.45593999997E+02  0.45594000000E+02  0.51100000000E-03 0.  1.
         23    2    1    2    0    0  0.00000000000E+00  0.00000000000E+00  0.71054273576E-14  0.91188000000E+02  0.91188000000E+02 0.  0.
    9900012    2    3    3    0    0 -0.25294923834E+02  0.18883837316E+02 -0.18956450533E+02  0.54367088817E+02  0.40000010576E+02 0.  0.
         12    1    3    3    0    0  0.25294923834E+02 -0.18883837316E+02  0.18956450533E+02  0.36820911183E+02  0.00000000000E+00 0. -1.
         11    1    4    4    0    0  0.12487899449E+01  0.10528170987E+01  0.24081320357E+00  0.16510273862E+01  0.51100000000E-03 0. -1.
        -11    1    4    4    0    0 -0.19664748994E+02  0.16222385090E+02  0.62989723876E+01  0.26259192379E+02  0.51100000000E-03 0.  1.
        -12    1    4    4    0    0 -0.68789647846E+01  0.16086351270E+01 -0.25496236124E+02  0.26456869051E+02  0.00000000000E+00 0.  1.
</event>
<event>
 8    1  0.2511738E-006  0.9118800E+02  0.7816164E-02  0.1184000E+00
        -11   -1    0    0    0    0  0.00000000000E+00  0.00000000000E+00  0.45593999997E+02  0.45594000000E+02  0.51100000000E-03 0.  1.
         11   -1    0    0    0    0 -0.00000000000E+00 -0.00000000000E+00 -0.45593999997E+02  0.45594000000E+02  0.51100000000E-03 0. -1.
         23    2    1    2    0    0  0.00000000000E+00 -0.17763568394E-14 -0.35527136788E-14  0.91188000000E+02  0.91188000000E+02 0.  0.
    9900012    2    3    3    0    0 -0.24350279995E+02  0.15148613460E+02  0.23094646513E+02  0.54367091223E+02  0.40000016061E+02 0.  0.
         12    1    3    3    0    0  0.24350279995E+02 -0.15148613460E+02 -0.23094646513E+02  0.36820908777E+02  0.00000000000E+00 0. -1.
         11    1    4    4    0    0 -0.21217471392E+02  0.22468110040E+01  0.17117730523E+02  0.27354084713E+02  0.51100000000E-03 0. -1.
        -11    1    4    4    0    0 -0.91251727190E+01  0.15180369293E+02  0.90651911412E+01  0.19896986699E+02  0.51100000000E-03 0.  1.
         12    1    4    4    0    0  0.59923641161E+01 -0.22785668366E+01 -0.30882751515E+01  0.71160198103E+01  0.00000000000E+00 0. -1.
</event>
<event>
 8    1  0.2511738E-006  0.9118800E+02  0.7816164E-02  0.1184000E+00
        -11   -1    0    0    0    0  0.00000000000E+00  0.00000000000E+00  0.45593999997E+02  0.45594000000E+02  0.51100000000E-03 0. -1.
         11   -1    0    0    0    0 -0.00000000000E+00 -0.00000000000E+00 -0.45593999997E+02  0.45594000000E+02  0.51100000000E-03 0.  1.
         23    2    1    2    0    0  0.00000000000E+00  0.88817841970E-15  0.00000000000E+00  0.91188000000E+02  0.91188000000E+02 0.  0.
    9900012    2    3    3    0    0  0.12407304247E+02 -0.68628380676E+01  0.33981465293E+02  0.54367085719E+02  0.40000003514E+02 0.  0.
        -12    1    3    3    0    0 -0.12407304247E+02  0.68628380676E+01 -0.33981465293E+02  0.36820914281E+02  0.00000000000E+00 0.  1.
         11    1    4    4    0    0  0.64834973875E+01 -0.10176238863E+02  0.15440915088E+02  0.19596260735E+02  0.51100000000E-03 0. -1.
        -11    1    4    4    0    0  0.10034318732E+02  0.63733883232E+01 -0.33002549934E+01  0.12336908624E+02  0.51100000000E-03 0.  1.
        -12    1    4    4    0    0 -0.41105118717E+01 -0.30599875277E+01  0.21840805199E+02  0.22433916360E+02  0.00000000000E+00 0.  1.
</event>
<event>
 8    1  0.2511738E-006  0.9118800E+02  0.7816164E-02  0.1184000E+00
        -11   -1    0    0    0    0  0.00000000000E+00  0.00000000000E+00  0.45593999997E+02  0.45594000000E+02  0.51100000000E-03 0.  1.
         11   -1    0    0    0    0 -0.00000000000E+00 -0.00000000000E+00 -0.45593999997E+02  0.45594000000E+02  0.51100000000E-03 0. -1.
         23    2    1    2    0    0  0.17763568394E-14  0.00000000000E+00  0.00000000000E+00  0.91188000000E+02  0.91188000000E+02 0.  0.
    9900012    2    3    3    0    0 -0.79560088007E+01  0.12411854077E+02 -0.33740634938E+02  0.54367046133E+02  0.39999913269E+02 0.  0.
        -12    1    3    3    0    0  0.79560088007E+01 -0.12411854077E+02  0.33740634938E+02  0.36820953867E+02  0.00000000000E+00 0.  1.
         11    1    4    4    0    0 -0.21064548507E+02  0.43951058838E+01 -0.11076499326E+02  0.24201673437E+02  0.51100000000E-03 0. -1.
        -11    1    4    4    0    0  0.36236085243E+01  0.49177096908E+01 -0.83711023071E+00  0.61656436112E+01  0.51100000000E-03 0.  1.
        -12    1    4    4    0    0  0.94849311825E+01  0.30990385021E+01 -0.21827025381E+02  0.23999729085E+02  0.00000000000E+00 0.  1.
</event>
<event>
 8    1  0.2511738E-006  0.9118800E+02  0.7816164E-02  0.1184000E+00
        -11   -1    0    0    0    0  0.00000000000E+00  0.00000000000E+00  0.45593999997E+02  0.45594000000E+02  0.51100000000E-03 0.  1.
         11   -1    0    0    0    0 -0.00000000000E+00 -0.00000000000E+00 -0.45593999997E+02  0.45594000000E+02  0.51100000000E-03 0. -1.
         23    2    1    2    0    0  0.00000000000E+00  0.00000000000E+00  0.00000000000E+00  0.91188000000E+02  0.91188000000E+02 0.  0.
    9900012    2    3    3    0    0 -0.20091392276E+01  0.10681173472E+02  0.35180393943E+02  0.54367024658E+02  0.39999864312E+02 0.  0.
         12    1    3    3    0    0  0.20091392276E+01 -0.10681173472E+02 -0.35180393943E+02  0.36820975342E+02  0.00000000000E+00 0. -1.
         11    1    4    4    0    0  0.11765995393E+02 -0.85968236004E+01  0.13437942976E+02  0.19822268671E+02  0.51100000000E-03 0. -1.
        -11    1    4    4    0    0 -0.15824828173E+02  0.16610625226E+02  0.20995196340E+02  0.31098815520E+02  0.51100000000E-03 0.  1.
         12    1    4    4    0    0  0.20496935527E+01  0.26673718457E+01  0.74725462747E+00  0.34459404669E+01  0.00000000000E+00 0. -1.
</event>
<event>
 8    1  0.2511738E-006  0.9118800E+02  0.7816164E-02  0.1184000E+00
        -11   -1    0    0    0    0  0.00000000000E+00  0.00000000000E+00  0.45593999997E+02  0.45594000000E+02  0.51100000000E-03 0. -1.
         11   -1    0    0    0    0 -0.00000000000E+00 -0.00000000000E+00 -0.45593999997E+02  0.45594000000E+02  0.51100000000E-03 0.  1.
         23    2    1    2    0    0  0.00000000000E+00  0.66613381478E-15 -0.88817841970E-15  0.91188000000E+02  0.91188000000E+02 0.  0.
    9900012    2    3    3    0    0 -0.36658273892E+02 -0.14302438804E+01  0.31464919543E+01  0.54367149196E+02  0.40000148222E+02 0.  0.
         12    1    3    3    0    0  0.36658273892E+02  0.14302438804E+01 -0.31464919543E+01  0.36820850804E+02  0.00000000000E+00 0. -1.
         11    1    4    4    0    0 -0.63049982780E+00  0.73098705308E+00  0.91444675609E+01  0.91952791876E+01  0.51100000000E-03 0. -1.
        -11    1    4    4    0    0 -0.25368779486E+02 -0.13710203996E+02 -0.17385186037E+01  0.28888875254E+02  0.51100000000E-03 0.  1.
        -12    1    4    4    0    0 -0.10658994578E+02  0.11548973063E+02 -0.42594570029E+01  0.16282994755E+02  0.00000000000E+00 0.  1.
</event>
<event>
 8    1  0.2511738E-006  0.9118800E+02  0.7816164E-02  0.1184000E+00
        -11   -1    0    0    0    0  0.00000000000E+00  0.00000000000E+00  0.45593999997E+02  0.45594000000E+02  0.51100000000E-03 0.  1.
         11   -1    0    0    0    0 -0.00000000000E+00 -0.00000000000E+00 -0.45593999997E+02  0.45594000000E+02  0.51100000000E-03 0. -1.
         23    2    1    2    0    0 -0.71054273576E-14  0.00000000000E+00  0.00000000000E+00  0.91188000000E+02  0.91188000000E+02 0.  0.
    9900012    2    3    3    0    0 -0.36114413976E+02  0.56336550342E+01 -0.44488180950E+01  0.54367069154E+02  0.39999965751E+02 0.  0.
        -12    1    3    3    0    0  0.36114413976E+02 -0.56336550342E+01  0.44488180950E+01  0.36820930846E+02  0.00000000000E+00 0.  1.
         11    1    4    4    0    0  0.46693262528E+01  0.24579037461E+01  0.11792762402E+01  0.54069021807E+01  0.51100000000E-03 0. -1.
        -11    1    4    4    0    0 -0.39323157674E+01 -0.36674991234E+00  0.84698817098E+01  0.93454004319E+01  0.51100000000E-03 0.  1.
         12    1    4    4    0    0 -0.36851424462E+02  0.35425012004E+01 -0.14097976045E+02  0.39614766542E+02  0.00000000000E+00 0. -1.
</event>
<event>
 8    1  0.2511738E-006  0.9118800E+02  0.7816164E-02  0.1184000E+00
        -11   -1    0    0    0    0  0.00000000000E+00  0.00000000000E+00  0.45593999997E+02  0.45594000000E+02  0.51100000000E-03 0.  1.
         11   -1    0    0    0    0 -0.00000000000E+00 -0.00000000000E+00 -0.45593999997E+02  0.45594000000E+02  0.51100000000E-03 0. -1.
         23    2    1    2    0    0  0.00000000000E+00  0.88817841970E-15  0.00000000000E+00  0.91188000000E+02  0.91188000000E+02 0.  0.
    9900012    2    3    3    0    0  0.13718710763E+01  0.78992790318E+01  0.35937432540E+02  0.54367086147E+02  0.40000004488E+02 0.  0.
         12    1    3    3    0    0 -0.13718710763E+01 -0.78992790318E+01 -0.35937432540E+02  0.36820913853E+02  0.00000000000E+00 0. -1.
         11    1    4    4    0    0  0.75187194638E+01 -0.15828756123E+01 -0.35053275089E+00  0.76915220243E+01  0.51100000000E-03 0. -1.
        -11    1    4    4    0    0 -0.49950754548E+00  0.14699425683E+02  0.36104020952E+02  0.38984906725E+02  0.51100000000E-03 0.  1.
        -12    1    4    4    0    0 -0.56473408420E+01 -0.52172710389E+01  0.18394433819E+00  0.76906573970E+01  0.00000000000E+00 0.  1.
</event>
<event>
 8    1  0.2511738E-006  0.9118800E+02  0.7816164E-02  0.1184000E+00
        -11   -1    0    0    0    0  0.00000000000E+00  0.00000000000E+00  0.45593999997E+02  0.45594000000E+02  0.51100000000E-03 0. -1.
         11   -1    0    0    0    0 -0.00000000000E+00 -0.00000000000E+00 -0.45593999997E+02  0.45594000000E+02  0.51100000000E-03 0.  1.
         23    2    1    2    0    0 -0.33306690739E-15 -0.88817841970E-15  0.00000000000E+00  0.91188000000E+02  0.91188000000E+02 0.  0.
    9900012    2    3    3    0    0  0.32858358853E+00  0.17286778048E+01 -0.36778876170E+02  0.54367054514E+02  0.39999932375E+02 0.  0.
         12    1    3    3    0    0 -0.32858358853E+00 -0.17286778048E+01  0.36778876170E+02  0.36820945486E+02  0.00000000000E+00 0. -1.
         11    1    4    4    0    0  0.53229718352E+01 -0.54066192796E+01 -0.15606783017E+01  0.77460492004E+01  0.51100000000E-03 0. -1.
        -11    1    4    4    0    0  0.68033425412E+00 -0.26746443571E+01 -0.35179830646E+02  0.35287916653E+02  0.51100000000E-03 0.  1.
        -12    1    4    4    0    0 -0.56747225008E+01  0.98099414415E+01 -0.38367222480E-01  0.11333088661E+02  0.00000000000E+00 0.  1.
</event>
<event>
 8    1  0.2511738E-006  0.9118800E+02  0.7816164E-02  0.1184000E+00
        -11   -1    0    0    0    0  0.00000000000E+00  0.00000000000E+00  0.45593999997E+02  0.45594000000E+02  0.51100000000E-03 0. -1.
         11   -1    0    0    0    0 -0.00000000000E+00 -0.00000000000E+00 -0.45593999997E+02  0.45594000000E+02  0.51100000000E-03 0.  1.
         23    2    1    2    0    0  0.00000000000E+00  0.35527136788E-14  0.00000000000E+00  0.91188000000E+02  0.91188000000E+02 0.  0.
    9900012    2    3    3    0    0 -0.18890546981E+02  0.24050967826E+02  0.20505523104E+02  0.54367105166E+02  0.40000047848E+02 0.  0.
        -12    1    3    3    0    0  0.18890546981E+02 -0.24050967826E+02 -0.20505523104E+02  0.36820894834E+02  0.00000000000E+00 0.  1.
         11    1    4    4    0    0 -0.25311258068E+02  0.10709457178E+02  0.12042095211E+02  0.30006071309E+02  0.51100000000E-03 0. -1.
        -11    1    4    4    0    0 -0.34108959738E+01 -0.24789399628E+01  0.16268598886E+01  0.45195163504E+01  0.51100000000E-03 0.  1.
        -12    1    4    4    0    0  0.98316070609E+01  0.15820450611E+02  0.68365680038E+01  0.19841517507E+02  0.00000000000E+00 0.  1.
</event>
<event>
 8    1  0.2511738E-006  0.9118800E+02  0.7816164E-02  0.1184000E+00
        -11   -1    0    0    0    0  0.00000000000E+00  0.00000000000E+00  0.45593999997E+02  0.45594000000E+02  0.51100000000E-03 0. -1.
         11   -1    0    0    0    0 -0.00000000000E+00 -0.00000000000E+00 -0.45593999997E+02  0.45594000000E+02  0.51100000000E-03 0.  1.
         23    2    1    2    0    0  0.35527136788E-14  0.00000000000E+00 -0.88817841970E-15  0.91188000000E+02  0.91188000000E+02 0.  0.
    9900012    2    3    3    0    0  0.31751024833E+02 -0.17182432794E+02 -0.72400229484E+01  0.54367061569E+02  0.39999948458E+02 0.  0.
         12    1    3    3    0    0 -0.31751024833E+02  0.17182432794E+02  0.72400229484E+01  0.36820938431E+02  0.00000000000E+00 0. -1.
         11    1    4    4    0    0 -0.22154797541E+00 -0.63890543743E+01  0.11357104179E+02  0.13032763134E+02  0.51100000000E-03 0. -1.
        -11    1    4    4    0    0  0.92204315739E+01  0.36936292346E+01 -0.54078535362E+01  0.11309471051E+02  0.51100000000E-03 0.  1.
         12    1    4    4    0    0  0.22752141234E+02 -0.14487007654E+02 -0.13189273592E+02  0.30024827383E+02  0.00000000000E+00 0. -1.
</event>
<event>
 8    1  0.2511738E-006  0.9118800E+02  0.7816164E-02  0.1184000E+00
        -11   -1    0    0    0    0  0.00000000000E+00  0.00000000000E+00  0.45593999997E+02  0.45594000000E+02  0.51100000000E-03 0.  1.
         11   -1    0    0    0    0 -0.00000000000E+00 -0.00000000000E+00 -0.45593999997E+02  0.45594000000E+02  0.51100000000E-03 0. -1.
         23    2    1    2    0    0  0.17763568394E-14  0.17763568394E-14  0.00000000000E+00  0.91188000000E+02  0.91188000000E+02 0.  0.
    9900012    2    3    3    0    0  0.10299815583E+02 -0.18176807338E+01 -0.35304236366E+02  0.54367091950E+02  0.40000017718E+02 0.  0.
        -12    1    3    3    0    0 -0.10299815583E+02  0.18176807338E+01  0.35304236366E+02  0.36820908050E+02  0.00000000000E+00 0.  1.
         11    1    4    4    0    0 -0.18459971784E+01 -0.58103687862E+01 -0.14779927905E+02  0.15987944213E+02  0.51100000000E-03 0. -1.
        -11    1    4    4    0    0  0.19467313972E+01 -0.11287720263E+02 -0.88806343773E+00  0.11488735736E+02  0.51100000000E-03 0.  1.
         12    1    4    4    0    0  0.10199081365E+02  0.15280408316E+02 -0.19636245023E+02  0.26890412001E+02  0.00000000000E+00 0. -1.
</event>
<event>
 8    1  0.2511738E-006  0.9118800E+02  0.7816164E-02  0.1184000E+00
        -11   -1    0    0    0    0  0.00000000000E+00  0.00000000000E+00  0.45593999997E+02  0.45594000000E+02  0.51100000000E-03 0.  1.
         11   -1    0    0    0    0 -0.00000000000E+00 -0.00000000000E+00 -0.45593999997E+02  0.45594000000E+02  0.51100000000E-03 0. -1.
         23    2    1    2    0    0  0.00000000000E+00  0.00000000000E+00  0.35527136788E-14  0.91188000000E+02  0.91188000000E+02 0.  0.
    9900012    2    3    3    0    0  0.64260504250E+01  0.32325363930E+02  0.16418172848E+02  0.54367086419E+02  0.40000005109E+02 0.  0.
         12    1    3    3    0    0 -0.64260504250E+01 -0.32325363930E+02 -0.16418172848E+02  0.36820913581E+02  0.00000000000E+00 0. -1.
         11    1    4    4    0    0  0.13794410704E-01  0.36523739189E+02  0.30418645177E+01  0.36650193105E+02  0.51100000000E-03 0. -1.
        -11    1    4    4    0    0  0.72106930015E+00  0.49745696228E+00  0.91939429036E+01  0.92355828588E+01  0.51100000000E-03 0.  1.
         12    1    4    4    0    0  0.56911867142E+01 -0.46958322213E+01  0.41823654264E+01  0.84813104545E+01  0.00000000000E+00 0. -1.
</event>
<event>
 8    1  0.2511738E-006  0.9118800E+02  0.7816164E-02  0.1184000E+00
        -11   -1    0    0    0    0  0.00000000000E+00  0.00000000000E+00  0.45593999997E+02  0.45594000000E+02  0.51100000000E-03 0. -1.
         11   -1    0    0    0    0 -0.00000000000E+00 -0.00000000000E+00 -0.45593999997E+02  0.45594000000E+02  0.51100000000E-03 0.  1.
         23    2    1    2    0    0 -0.35527136788E-14  0.00000000000E+00  0.00000000000E+00  0.91188000000E+02  0.91188000000E+02 0.  0.
    9900012    2    3    3    0    0 -0.31136557382E+02 -0.49659177931E+01 -0.19016685063E+02  0.54367083989E+02  0.39999999569E+02 0.  0.
         12    1    3    3    0    0  0.31136557382E+02  0.49659177931E+01  0.19016685063E+02  0.36820916011E+02  0.00000000000E+00 0. -1.
         11    1    4    4    0    0 -0.22773895784E+01 -0.50570867893E+00  0.75635623312E+01  0.79151576079E+01  0.51100000000E-03 0. -1.
        -11    1    4    4    0    0  0.12989721110E+01  0.37358695599E+01  0.16987963013E+01  0.43046438933E+01  0.51100000000E-03 0.  1.
         12    1    4    4    0    0 -0.30158139914E+02 -0.81960786741E+01 -0.28279043696E+02  0.42147282487E+02  0.00000000000E+00 0. -1.
</event>
<event>
 8    1  0.2511738E-006  0.9118800E+02  0.7816164E-02  0.1184000E+00
        -11   -1    0    0    0    0  0.00000000000E+00  0.00000000000E+00  0.45593999997E+02  0.45594000000E+02  0.51100000000E-03 0.  1.
         11   -1    0    0    0    0 -0.00000000000E+00 -0.00000000000E+00 -0.45593999997E+02  0.45594000000E+02  0.51100000000E-03 0. -1.
         23    2    1    2    0    0  0.35527136788E-14 -0.35527136788E-14 -0.71054273576E-14  0.91188000000E+02  0.91188000000E+02 0.  0.
    9900012    2    3    3    0    0  0.95938777067E+01 -0.22294691323E+02  0.27689059853E+02  0.54367084935E+02  0.40000001727E+02 0.  0.
         12    1    3    3    0    0 -0.95938777067E+01  0.22294691323E+02 -0.27689059853E+02  0.36820915065E+02  0.00000000000E+00 0. -1.
         11    1    4    4    0    0 -0.41572311278E+01  0.44826987667E+00 -0.25637851050E+01  0.49047437097E+01  0.51100000000E-03 0. -1.
        -11    1    4    4    0    0  0.22869890547E+01 -0.11399436670E+02 -0.34262367166E+01  0.12120914719E+02  0.51100000000E-03 0.  1.
         12    1    4    4    0    0  0.11464119780E+02 -0.11343524530E+02  0.33679081675E+02  0.37341426506E+02  0.00000000000E+00 0. -1.
</event>
<event>
 8    1  0.2511738E-006  0.9118800E+02  0.7816164E-02  0.1184000E+00
        -11   -1    0    0    0    0  0.00000000000E+00  0.00000000000E+00  0.45593999997E+02  0.45594000000E+02  0.51100000000E-03 0.  1.
         11   -1    0    0    0    0 -0.00000000000E+00 -0.00000000000E+00 -0.45593999997E+02  0.45594000000E+02  0.51100000000E-03 0. -1.
         23    2    1    2    0    0  0.00000000000E+00  0.00000000000E+00  0.71054273576E-14  0.91188000000E+02  0.91188000000E+02 0.  0.
    9900012    2    3    3    0    0 -0.13451494404E+02  0.17347146203E+02  0.29562049170E+02  0.54367069346E+02  0.39999966188E+02 0.  0.
         12    1    3    3    0    0  0.13451494404E+02 -0.17347146203E+02 -0.29562049170E+02  0.36820930654E+02  0.00000000000E+00 0. -1.
         11    1    4    4    0    0 -0.17627923695E+02  0.87089690814E+01 -0.25712139856E+01  0.19829295950E+02  0.51100000000E-03 0. -1.
        -11    1    4    4    0    0  0.30787967428E+01  0.79757561208E+01  0.14316514260E+02  0.16674958948E+02  0.51100000000E-03 0.  1.
         12    1    4    4    0    0  0.10976325484E+01  0.66242100054E+00  0.17816748896E+02  0.17862814448E+02  0.00000000000E+00 0. -1.
</event>
<event>
 8    1  0.2511738E-006  0.9118800E+02  0.7816164E-02  0.1184000E+00
        -11   -1    0    0    0    0  0.00000000000E+00  0.00000000000E+00  0.45593999997E+02  0.45594000000E+02  0.51100000000E-03 0.  1.
         11   -1    0    0    0    0 -0.00000000000E+00 -0.00000000000E+00 -0.45593999997E+02  0.45594000000E+02  0.51100000000E-03 0. -1.
         23    2    1    2    0    0  0.88817841970E-15  0.00000000000E+00  0.00000000000E+00  0.91188000000E+02  0.91188000000E+02 0.  0.
    9900012    2    3    3    0    0 -0.21797758257E+01 -0.32026525094E+02 -0.18036927707E+02  0.54367075333E+02  0.39999979836E+02 0.  0.
        -12    1    3    3    0    0  0.21797758257E+01  0.32026525094E+02  0.18036927707E+02  0.36820924667E+02  0.00000000000E+00 0.  1.
         11    1    4    4    0    0  0.92146844127E+01 -0.57335125946E+01 -0.12406276927E+02  0.16483303157E+02  0.51100000000E-03 0. -1.
        -11    1    4    4    0    0 -0.14252169305E+02 -0.14817793827E+02  0.58771253280E+01  0.21382982630E+02  0.51100000000E-03 0.  1.
        -12    1    4    4    0    0  0.28577090661E+01 -0.11475218672E+02 -0.11507776108E+02  0.16500789546E+02  0.00000000000E+00 0.  1.
</event>
<event>
 8    1  0.2511738E-006  0.9118800E+02  0.7816164E-02  0.1184000E+00
        -11   -1    0    0    0    0  0.00000000000E+00  0.00000000000E+00  0.45593999997E+02  0.45594000000E+02  0.51100000000E-03 0.  1.
         11   -1    0    0    0    0 -0.00000000000E+00 -0.00000000000E+00 -0.45593999997E+02  0.45594000000E+02  0.51100000000E-03 0. -1.
         23    2    1    2    0    0  0.88817841970E-15 -0.17763568394E-14  0.00000000000E+00  0.91188000000E+02  0.91188000000E+02 0.  0.
    9900012    2    3    3    0    0  0.71287400070E+01  0.10612090353E+02  0.34530320842E+02  0.54367103037E+02  0.40000042993E+02 0.  0.
         12    1    3    3    0    0 -0.71287400070E+01 -0.10612090353E+02 -0.34530320842E+02  0.36820896963E+02  0.00000000000E+00 0. -1.
         11    1    4    4    0    0  0.10962105906E+02 -0.21297793002E+01 -0.59927201003E+00  0.11183150404E+02  0.51100000000E-03 0. -1.
        -11    1    4    4    0    0  0.73775264009E+01  0.11512629960E+02  0.16782112765E+02  0.21647352113E+02  0.51100000000E-03 0.  1.
         12    1    4    4    0    0 -0.11210892300E+02  0.12292396937E+01  0.18347480086E+02  0.21536600519E+02  0.00000000000E+00 0. -1.
</event>
<event>
 8    1  0.2511738E-006  0.9118800E+02  0.7816164E-02  0.1184000E+00
        -11   -1    0    0    0    0  0.00000000000E+00  0.00000000000E+00  0.45593999997E+02  0.45594000000E+02  0.51100000000E-03 0. -1.
         11   -1    0    0    0    0 -0.00000000000E+00 -0.00000000000E+00 -0.45593999997E+02  0.45594000000E+02  0.51100000000E-03 0.  1.
         23    2    1    2    0    0  0.44408920985E-15  0.00000000000E+00  0.00000000000E+00  0.91188000000E+02  0.91188000000E+02 0.  0.
    9900012    2    3    3    0    0  0.20445830186E+01 -0.50674904528E+01 -0.36413161883E+02  0.54367107323E+02  0.40000052765E+02 0.  0.
         12    1    3    3    0    0 -0.20445830186E+01  0.50674904528E+01  0.36413161883E+02  0.36820892677E+02  0.00000000000E+00 0. -1.
         11    1    4    4    0    0  0.86659991616E+01 -0.56036084265E+01 -0.14530974963E+01  0.10421682276E+02  0.51100000000E-03 0. -1.
        -11    1    4    4    0    0 -0.80499287424E+01  0.13337548958E+01  0.75351278004E+00  0.81943905600E+01  0.51100000000E-03 0.  1.
         12    1    4    4    0    0  0.14285125994E+01 -0.79763692210E+00 -0.35713577166E+02  0.35751034487E+02  0.00000000000E+00 0. -1.
</event>
<event>
 8    1  0.2511738E-006  0.9118800E+02  0.7816164E-02  0.1184000E+00
        -11   -1    0    0    0    0  0.00000000000E+00  0.00000000000E+00  0.45593999997E+02  0.45594000000E+02  0.51100000000E-03 0. -1.
         11   -1    0    0    0    0 -0.00000000000E+00 -0.00000000000E+00 -0.45593999997E+02  0.45594000000E+02  0.51100000000E-03 0.  1.
         23    2    1    2    0    0  0.00000000000E+00 -0.88817841970E-15  0.00000000000E+00  0.91188000000E+02  0.91188000000E+02 0.  0.
    9900012    2    3    3    0    0 -0.34123772091E+02  0.45985099212E+01  0.13046151038E+02  0.54367079695E+02  0.39999989780E+02 0.  0.
        -12    1    3    3    0    0  0.34123772091E+02 -0.45985099212E+01 -0.13046151038E+02  0.36820920305E+02  0.00000000000E+00 0.  1.
         11    1    4    4    0    0 -0.26847505207E+02  0.16826359378E+02  0.13623135249E+02  0.34489197149E+02  0.51100000000E-03 0. -1.
        -11    1    4    4    0    0  0.11356293782E+01 -0.76387534435E+01 -0.51275873278E+01  0.92699708910E+01  0.51100000000E-03 0.  1.
         12    1    4    4    0    0 -0.84118962622E+01 -0.45890960129E+01  0.45506031173E+01  0.10607911655E+02  0.00000000000E+00 0. -1.
</event>
<event>
 8    1  0.2511738E-006  0.9118800E+02  0.7816164E-02  0.1184000E+00
        -11   -1    0    0    0    0  0.00000000000E+00  0.00000000000E+00  0.45593999997E+02  0.45594000000E+02  0.51100000000E-03 0.  1.
         11   -1    0    0    0    0 -0.00000000000E+00 -0.00000000000E+00 -0.45593999997E+02  0.45594000000E+02  0.51100000000E-03 0. -1.
         23    2    1    2    0    0  0.00000000000E+00  0.00000000000E+00  0.00000000000E+00  0.91188000000E+02  0.91188000000E+02 0.  0.
    9900012    2    3    3    0    0  0.18152840946E+02 -0.10089276582E+02 -0.30404959489E+02  0.54367072556E+02  0.39999973505E+02 0.  0.
        -12    1    3    3    0    0 -0.18152840946E+02  0.10089276582E+02  0.30404959489E+02  0.36820927444E+02  0.00000000000E+00 0.  1.
         11    1    4    4    0    0  0.37233718926E+01 -0.13202899905E+02 -0.66930918964E+01  0.15263601919E+02  0.51100000000E-03 0. -1.
        -11    1    4    4    0    0 -0.22455592360E+01  0.21364583250E+01 -0.22106652786E+02  0.22322882612E+02  0.51100000000E-03 0.  1.
        -12    1    4    4    0    0  0.16675028289E+02  0.97716499817E+00 -0.16052148067E+01  0.16780588024E+02  0.00000000000E+00 0.  1.
</event>
<event>
 8    1  0.2511738E-006  0.9118800E+02  0.7816164E-02  0.1184000E+00
        -11   -1    0    0    0    0  0.00000000000E+00  0.00000000000E+00  0.45593999997E+02  0.45594000000E+02  0.51100000000E-03 0.  1.
         11   -1    0    0    0    0 -0.00000000000E+00 -0.00000000000E+00 -0.45593999997E+02  0.45594000000E+02  0.51100000000E-03 0. -1.
         23    2    1    2    0    0 -0.44408920985E-15 -0.35527136788E-14 -0.35527136788E-14  0.91188000000E+02  0.91188000000E+02 0.  0.
    9900012    2    3    3    0    0  0.37184723859E+01 -0.29501566060E+02 -0.21716627378E+02  0.54367063815E+02  0.39999953578E+02 0.  0.
        -12    1    3    3    0    0 -0.37184723859E+01  0.29501566060E+02  0.21716627378E+02  0.36820936185E+02  0.00000000000E+00 0.  1.
         11    1    4    4    0    0  0.31272078919E+01 -0.16999647749E+02 -0.16866016313E+02  0.24150154437E+02  0.51100000000E-03 0.  1.
        -11    1    4    4    0    0 -0.93280078325E+01 -0.11535856343E+02 -0.11033555729E+02  0.18488565763E+02  0.51100000000E-03 0. -1.
        -12    1    4    4    0    0  0.99192723265E+01 -0.96606196763E+00  0.61829446641E+01  0.11728343614E+02  0.00000000000E+00 0.  1.
</event>
<event>
 8    1  0.2511738E-006  0.9118800E+02  0.7816164E-02  0.1184000E+00
        -11   -1    0    0    0    0  0.00000000000E+00  0.00000000000E+00  0.45593999997E+02  0.45594000000E+02  0.51100000000E-03 0.  1.
         11   -1    0    0    0    0 -0.00000000000E+00 -0.00000000000E+00 -0.45593999997E+02  0.45594000000E+02  0.51100000000E-03 0. -1.
         23    2    1    2    0    0  0.00000000000E+00  0.00000000000E+00  0.00000000000E+00  0.91188000000E+02  0.91188000000E+02 0.  0.
    9900012    2    3    3    0    0  0.12011798971E+02  0.24968343171E+02 -0.24250322926E+02  0.54367086958E+02  0.40000006337E+02 0.  0.
        -12    1    3    3    0    0 -0.12011798971E+02 -0.24968343171E+02  0.24250322926E+02  0.36820913042E+02  0.00000000000E+00 0.  1.
         11    1    4    4    0    0 -0.13458098525E+01  0.26294879131E+02 -0.90501299314E+01  0.27841277354E+02  0.51100000000E-03 0. -1.
        -11    1    4    4    0    0 -0.21404372916E+01  0.39994593844E+01 -0.59635811982E+00  0.45752366534E+01  0.51100000000E-03 0.  1.
         12    1    4    4    0    0  0.15498046115E+02 -0.53259953438E+01 -0.14603834875E+02  0.21950572950E+02  0.00000000000E+00 0. -1.
</event>
<event>
 8    1  0.2511738E-006  0.9118800E+02  0.7816164E-02  0.1184000E+00
        -11   -1    0    0    0    0  0.00000000000E+00  0.00000000000E+00  0.45593999997E+02  0.45594000000E+02  0.51100000000E-03 0.  1.
         11   -1    0    0    0    0 -0.00000000000E+00 -0.00000000000E+00 -0.45593999997E+02  0.45594000000E+02  0.51100000000E-03 0. -1.
         23    2    1    2    0    0  0.00000000000E+00  0.00000000000E+00  0.00000000000E+00  0.91188000000E+02  0.91188000000E+02 0.  0.
    9900012    2    3    3    0    0 -0.74638057155E+01  0.24999913540E+01 -0.35969740237E+02  0.54367074356E+02  0.39999977610E+02 0.  0.
        -12    1    3    3    0    0  0.74638057155E+01 -0.24999913540E+01  0.35969740237E+02  0.36820925644E+02  0.00000000000E+00 0.  1.
         11    1    4    4    0    0  0.41254716908E+01 -0.12542905562E+02 -0.81497401419E+01  0.15516515758E+02  0.51100000000E-03 0. -1.
        -11    1    4    4    0    0 -0.13750167027E+02  0.13221312256E+02 -0.11470413836E+02  0.22258494668E+02  0.51100000000E-03 0.  1.
        -12    1    4    4    0    0  0.21608896211E+01  0.18215846603E+01 -0.16349586260E+02  0.16592063931E+02  0.00000000000E+00 0.  1.
</event>
<event>
 8    1  0.2511738E-006  0.9118800E+02  0.7816164E-02  0.1184000E+00
        -11   -1    0    0    0    0  0.00000000000E+00  0.00000000000E+00  0.45593999997E+02  0.45594000000E+02  0.51100000000E-03 0. -1.
         11   -1    0    0    0    0 -0.00000000000E+00 -0.00000000000E+00 -0.45593999997E+02  0.45594000000E+02  0.51100000000E-03 0.  1.
         23    2    1    2    0    0 -0.88817841970E-15  0.00000000000E+00  0.35527136788E-14  0.91188000000E+02  0.91188000000E+02 0.  0.
    9900012    2    3    3    0    0 -0.61227719155E+01  0.17524508432E+02 -0.31799098575E+02  0.54367090154E+02  0.40000013624E+02 0.  0.
         12    1    3    3    0    0  0.61227719155E+01 -0.17524508432E+02  0.31799098575E+02  0.36820909846E+02  0.00000000000E+00 0. -1.
         11    1    4    4    0    0  0.82911279899E+01  0.60749200406E+01  0.33360083867E+01  0.10806313389E+02  0.51100000000E-03 0. -1.
        -11    1    4    4    0    0  0.41298129837E+01  0.29212801463E+01 -0.46332158234E+01  0.68597319263E+01  0.51100000000E-03 0.  1.
         12    1    4    4    0    0 -0.18543712889E+02  0.85283082453E+01 -0.30501891138E+02  0.36701044839E+02  0.00000000000E+00 0. -1.
</event>
<event>
 8    1  0.2996753E-006  0.9118800E+02  0.7816164E-02  0.1184000E+00
        -11   -1    0    0    0    0  0.00000000000E+00  0.00000000000E+00  0.45593999997E+02  0.45594000000E+02  0.51100000000E-03 0.  1.
         11   -1    0    0    0    0 -0.00000000000E+00 -0.00000000000E+00 -0.45593999997E+02  0.45594000000E+02  0.51100000000E-03 0. -1.
         23    2    1    2    0    0  0.88817841970E-15  0.17763568394E-14  0.00000000000E+00  0.91188000000E+02  0.91188000000E+02 0.  0.
    9900012    2    3    3    0    0  0.49626132576E+01  0.14968379777E+02  0.33273112289E+02  0.54367083052E+02  0.39999997434E+02 0.  0.
         12    1    3    3    0    0 -0.49626132576E+01 -0.14968379777E+02 -0.33273112289E+02  0.36820916948E+02  0.00000000000E+00 0. -1.
         11    1    4    4    0    0  0.35835742704E+01  0.49483373369E+01  0.17441111404E+02  0.18480270946E+02  0.51100000000E-03 0. -1.
        -11    1    4    4    0    0 -0.57986994481E+01  0.98770960212E+01  0.23029845044E+02  0.25720725186E+02  0.51100000000E-03 0.  1.
         12    1    4    4    0    0  0.71777384354E+01  0.14294641897E+00 -0.71978441591E+01  0.10166086920E+02  0.00000000000E+00 0. -1.
</event>
<event>
 8    1  0.2511738E-006  0.9118800E+02  0.7816164E-02  0.1184000E+00
        -11   -1    0    0    0    0  0.00000000000E+00  0.00000000000E+00  0.45593999997E+02  0.45594000000E+02  0.51100000000E-03 0. -1.
         11   -1    0    0    0    0 -0.00000000000E+00 -0.00000000000E+00 -0.45593999997E+02  0.45594000000E+02  0.51100000000E-03 0.  1.
         23    2    1    2    0    0  0.00000000000E+00  0.71054273576E-14 -0.88817841970E-15  0.91188000000E+02  0.91188000000E+02 0.  0.
    9900012    2    3    3    0    0 -0.17267085676E+02 -0.32360182796E+02  0.32297842933E+01  0.54367283210E+02  0.40000453732E+02 0.  0.
        -12    1    3    3    0    0  0.17267085676E+02  0.32360182796E+02 -0.32297842933E+01  0.36820716790E+02  0.00000000000E+00 0.  1.
         11    1    4    4    0    0 -0.13822679639E+01 -0.15231066190E+01 -0.44030233045E+01  0.48597461845E+01  0.51100000000E-03 0. -1.
        -11    1    4    4    0    0 -0.61307192453E+01 -0.36522183801E+02  0.90666896448E+01  0.38126899815E+02  0.51100000000E-03 0.  1.
         12    1    4    4    0    0 -0.97540984670E+01  0.56851076248E+01 -0.14338820470E+01  0.11380637211E+02  0.00000000000E+00 0. -1.
</event>
<event>
 8    1  0.2511738E-006  0.9118800E+02  0.7816164E-02  0.1184000E+00
        -11   -1    0    0    0    0  0.00000000000E+00  0.00000000000E+00  0.45593999997E+02  0.45594000000E+02  0.51100000000E-03 0. -1.
         11   -1    0    0    0    0 -0.00000000000E+00 -0.00000000000E+00 -0.45593999997E+02  0.45594000000E+02  0.51100000000E-03 0.  1.
         23    2    1    2    0    0  0.00000000000E+00 -0.17763568394E-14  0.35527136788E-14  0.91188000000E+02  0.91188000000E+02 0.  0.
    9900012    2    3    3    0    0 -0.11789070788E+02 -0.14789195905E+02 -0.31592365280E+02  0.54367081359E+02  0.39999993574E+02 0.  0.
         12    1    3    3    0    0  0.11789070788E+02  0.14789195905E+02  0.31592365280E+02  0.36820918641E+02  0.00000000000E+00 0. -1.
         11    1    4    4    0    0 -0.58250143226E+01  0.29674401717E+01  0.72928955545E+01  0.97940195457E+01  0.51100000000E-03 0. -1.
        -11    1    4    4    0    0 -0.79464340116E+01 -0.67219052854E+01 -0.21491277723E+02  0.23878962343E+02  0.51100000000E-03 0.  1.
        -12    1    4    4    0    0  0.19823775459E+01 -0.11034730792E+02 -0.17393983112E+02  0.20694099470E+02  0.00000000000E+00 0.  1.
</event>
<event>
 8    1  0.2511738E-006  0.9118800E+02  0.7816164E-02  0.1184000E+00
        -11   -1    0    0    0    0  0.00000000000E+00  0.00000000000E+00  0.45593999997E+02  0.45594000000E+02  0.51100000000E-03 0. -1.
         11   -1    0    0    0    0 -0.00000000000E+00 -0.00000000000E+00 -0.45593999997E+02  0.45594000000E+02  0.51100000000E-03 0.  1.
         23    2    1    2    0    0  0.35527136788E-14 -0.13322676296E-14  0.35527136788E-14  0.91188000000E+02  0.91188000000E+02 0.  0.
    9900012    2    3    3    0    0 -0.22294990684E+02 -0.38223584078E+01 -0.29053401009E+02  0.54367120820E+02  0.40000083534E+02 0.  0.
         12    1    3    3    0    0  0.22294990684E+02  0.38223584078E+01  0.29053401009E+02  0.36820879180E+02  0.00000000000E+00 0. -1.
         11    1    4    4    0    0 -0.95452810163E+01 -0.10092113690E+02  0.47192299510E+01  0.14670865005E+02  0.51100000000E-03 0. -1.
        -11    1    4    4    0    0 -0.12203095687E+02  0.83497011176E+00 -0.11588317383E+02  0.16849386323E+02  0.51100000000E-03 0.  1.
         12    1    4    4    0    0 -0.54661398035E+00  0.54347851706E+01 -0.22184313577E+02  0.22846869491E+02  0.00000000000E+00 0. -1.
</event>
<event>
 8    1  0.2511738E-006  0.9118800E+02  0.7816164E-02  0.1184000E+00
        -11   -1    0    0    0    0  0.00000000000E+00  0.00000000000E+00  0.45593999997E+02  0.45594000000E+02  0.51100000000E-03 0.  1.
         11   -1    0    0    0    0 -0.00000000000E+00 -0.00000000000E+00 -0.45593999997E+02  0.45594000000E+02  0.51100000000E-03 0. -1.
         23    2    1    2    0    0  0.00000000000E+00  0.00000000000E+00  0.88817841970E-15  0.91188000000E+02  0.91188000000E+02 0.  0.
    9900012    2    3    3    0    0  0.34946852843E+02 -0.11431044313E+02 -0.19567032513E+01  0.54367082231E+02  0.39999995563E+02 0.  0.
        -12    1    3    3    0    0 -0.34946852843E+02  0.11431044313E+02  0.19567032513E+01  0.36820917769E+02  0.00000000000E+00 0.  1.
         11    1    4    4    0    0  0.68688853530E+01 -0.17239762396E+02 -0.10654476649E+02  0.21398805256E+02  0.51100000000E-03 0. -1.
        -11    1    4    4    0    0  0.50881577853E+01 -0.43041978912E+01  0.13513165035E+01  0.68001121820E+01  0.51100000000E-03 0.  1.
         12    1    4    4    0    0  0.22989809705E+02  0.10112915974E+02  0.73464568937E+01  0.26168164794E+02  0.00000000000E+00 0. -1.
</event>
<event>
 8    1  0.2511738E-006  0.9118800E+02  0.7816164E-02  0.1184000E+00
        -11   -1    0    0    0    0  0.00000000000E+00  0.00000000000E+00  0.45593999997E+02  0.45594000000E+02  0.51100000000E-03 0. -1.
         11   -1    0    0    0    0 -0.00000000000E+00 -0.00000000000E+00 -0.45593999997E+02  0.45594000000E+02  0.51100000000E-03 0.  1.
         23    2    1    2    0    0 -0.35527136788E-14  0.88817841970E-15  0.00000000000E+00  0.91188000000E+02  0.91188000000E+02 0.  0.
    9900012    2    3    3    0    0 -0.24148792111E+02 -0.70356293209E+01  0.26890791078E+02  0.54367097170E+02  0.40000029619E+02 0.  0.
        -12    1    3    3    0    0  0.24148792111E+02  0.70356293209E+01 -0.26890791078E+02  0.36820902830E+02  0.00000000000E+00 0.  1.
         11    1    4    4    0    0 -0.13428254464E+01 -0.12128763781E+02  0.27633618949E+02  0.30208061632E+02  0.51100000000E-03 0. -1.
        -11    1    4    4    0    0 -0.38544724858E+01  0.19904950017E+01 -0.22672448531E+01  0.48948368697E+01  0.51100000000E-03 0.  1.
         12    1    4    4    0    0 -0.18951494179E+02  0.31026394584E+01  0.15244169817E+01  0.19264198669E+02  0.00000000000E+00 0. -1.
</event>
<event>
 8    1  0.2511738E-006  0.9118800E+02  0.7816164E-02  0.1184000E+00
        -11   -1    0    0    0    0  0.00000000000E+00  0.00000000000E+00  0.45593999997E+02  0.45594000000E+02  0.51100000000E-03 0.  1.
         11   -1    0    0    0    0 -0.00000000000E+00 -0.00000000000E+00 -0.45593999997E+02  0.45594000000E+02  0.51100000000E-03 0. -1.
         23    2    1    2    0    0  0.00000000000E+00  0.35527136788E-14 -0.17763568394E-14  0.91188000000E+02  0.91188000000E+02 0.  0.
    9900012    2    3    3    0    0 -0.29289007159E+02 -0.18438809272E+02  0.12567569035E+02  0.54367089919E+02  0.40000013089E+02 0.  0.
        -12    1    3    3    0    0  0.29289007159E+02  0.18438809272E+02 -0.12567569035E+02  0.36820910081E+02  0.00000000000E+00 0.  1.
         11    1    4    4    0    0 -0.19534863163E+02 -0.64716170736E+01  0.13618131523E+02  0.24676835550E+02  0.51100000000E-03 0. -1.
        -11    1    4    4    0    0 -0.72351714242E+01 -0.95075355230E+00  0.10980429442E+02  0.13184137016E+02  0.51100000000E-03 0.  1.
         12    1    4    4    0    0 -0.25189725716E+01 -0.11016438646E+02 -0.12030991930E+02  0.16506117353E+02  0.00000000000E+00 0. -1.
</event>
<event>
 8    1  0.2511738E-006  0.9118800E+02  0.7816164E-02  0.1184000E+00
        -11   -1    0    0    0    0  0.00000000000E+00  0.00000000000E+00  0.45593999997E+02  0.45594000000E+02  0.51100000000E-03 0. -1.
         11   -1    0    0    0    0 -0.00000000000E+00 -0.00000000000E+00 -0.45593999997E+02  0.45594000000E+02  0.51100000000E-03 0.  1.
         23    2    1    2    0    0  0.88817841970E-15  0.00000000000E+00  0.35527136788E-14  0.91188000000E+02  0.91188000000E+02 0.  0.
    9900012    2    3    3    0    0 -0.57508460733E+01  0.20422249519E+02  0.30093843116E+02  0.54367083398E+02  0.39999998222E+02 0.  0.
         12    1    3    3    0    0  0.57508460733E+01 -0.20422249519E+02 -0.30093843116E+02  0.36820916602E+02  0.00000000000E+00 0. -1.
         11    1    4    4    0    0  0.42399398669E+01 -0.59946993205E+01  0.44880488470E+01  0.86055849733E+01  0.51100000000E-03 0.  1.
        -11    1    4    4    0    0  0.63574612126E+01  0.11067942924E+02  0.18032487414E+02  0.22092697351E+02  0.51100000000E-03 0. -1.
        -12    1    4    4    0    0 -0.16348247153E+02  0.15349005915E+02  0.75733068548E+01  0.23668801074E+02  0.00000000000E+00 0.  1.
</event>
<event>
 8    1  0.2511738E-006  0.9118800E+02  0.7816164E-02  0.1184000E+00
        -11   -1    0    0    0    0  0.00000000000E+00  0.00000000000E+00  0.45593999997E+02  0.45594000000E+02  0.51100000000E-03 0.  1.
         11   -1    0    0    0    0 -0.00000000000E+00 -0.00000000000E+00 -0.45593999997E+02  0.45594000000E+02  0.51100000000E-03 0. -1.
         23    2    1    2    0    0 -0.22204460493E-15  0.71054273576E-14 -0.35527136788E-14  0.91188000000E+02  0.91188000000E+02 0.  0.
    9900012    2    3    3    0    0  0.19396855335E+01 -0.32489152699E+02  0.17218377687E+02  0.54367082667E+02  0.39999996555E+02 0.  0.
         12    1    3    3    0    0 -0.19396855335E+01  0.32489152699E+02 -0.17218377687E+02  0.36820917333E+02  0.00000000000E+00 0. -1.
         11    1    4    4    0    0  0.12381201153E+02 -0.74392849088E+01  0.35985987244E+01  0.14885799105E+02  0.51100000000E-03 0. -1.
        -11    1    4    4    0    0 -0.11462789631E+01 -0.57927048946E+01  0.16850700835E+02  0.17855405465E+02  0.51100000000E-03 0.  1.
        -12    1    4    4    0    0 -0.92952366564E+01 -0.19257162896E+02 -0.32309218716E+01  0.21625878096E+02  0.00000000000E+00 0.  1.
</event>
<event>
 8    1  0.2511738E-006  0.9118800E+02  0.7816164E-02  0.1184000E+00
        -11   -1    0    0    0    0  0.00000000000E+00  0.00000000000E+00  0.45593999997E+02  0.45594000000E+02  0.51100000000E-03 0. -1.
         11   -1    0    0    0    0 -0.00000000000E+00 -0.00000000000E+00 -0.45593999997E+02  0.45594000000E+02  0.51100000000E-03 0.  1.
         23    2    1    2    0    0 -0.88817841970E-15  0.00000000000E+00  0.00000000000E+00  0.91188000000E+02  0.91188000000E+02 0.  0.
    9900012    2    3    3    0    0  0.22463528289E+01 -0.13897190417E+02  0.34023639074E+02  0.54367000307E+02  0.39999808800E+02 0.  0.
        -12    1    3    3    0    0 -0.22463528289E+01  0.13897190417E+02 -0.34023639074E+02  0.36820999693E+02  0.00000000000E+00 0.  1.
         11    1    4    4    0    0  0.82183753415E+01 -0.15722923039E+02  0.17560630058E+02  0.24962526524E+02  0.51100000000E-03 0. -1.
        -11    1    4    4    0    0 -0.10372529622E+02 -0.21264355513E+01  0.19915942053E+02  0.22555616752E+02  0.51100000000E-03 0.  1.
        -12    1    4    4    0    0  0.44005071091E+01  0.39521681729E+01 -0.34529330376E+01  0.68488570322E+01  0.00000000000E+00 0.  1.
</event>
<event>
 8    1  0.2511738E-006  0.9118800E+02  0.7816164E-02  0.1184000E+00
        -11   -1    0    0    0    0  0.00000000000E+00  0.00000000000E+00  0.45593999997E+02  0.45594000000E+02  0.51100000000E-03 0.  1.
         11   -1    0    0    0    0 -0.00000000000E+00 -0.00000000000E+00 -0.45593999997E+02  0.45594000000E+02  0.51100000000E-03 0. -1.
         23    2    1    2    0    0  0.17763568394E-14 -0.17763568394E-14  0.00000000000E+00  0.91188000000E+02  0.91188000000E+02 0.  0.
    9900012    2    3    3    0    0 -0.14902996287E+02  0.83142490281E+01 -0.32627536342E+02  0.54367052660E+02  0.39999928150E+02 0.  0.
        -12    1    3    3    0    0  0.14902996287E+02 -0.83142490281E+01  0.32627536342E+02  0.36820947340E+02  0.00000000000E+00 0.  1.
         11    1    4    4    0    0 -0.57660962414E+01  0.12776477157E+02 -0.18994663380E+02  0.23606852217E+02  0.51100000000E-03 0. -1.
        -11    1    4    4    0    0 -0.18140667661E+01 -0.81180746170E+01 -0.19157474633E+02  0.20885468831E+02  0.51100000000E-03 0.  1.
        -12    1    4    4    0    0 -0.73228332799E+01  0.36558464884E+01  0.55246016712E+01  0.98747316124E+01  0.00000000000E+00 0.  1.
</event>
<event>
 8    1  0.2511738E-006  0.9118800E+02  0.7816164E-02  0.1184000E+00
        -11   -1    0    0    0    0  0.00000000000E+00  0.00000000000E+00  0.45593999997E+02  0.45594000000E+02  0.51100000000E-03 0.  1.
         11   -1    0    0    0    0 -0.00000000000E+00 -0.00000000000E+00 -0.45593999997E+02  0.45594000000E+02  0.51100000000E-03 0. -1.
         23    2    1    2    0    0  0.35527136788E-14  0.00000000000E+00 -0.66613381478E-15  0.91188000000E+02  0.91188000000E+02 0.  0.
    9900012    2    3    3    0    0 -0.16138541416E+02  0.33086834106E+02 -0.76741398129E+00  0.54367081565E+02  0.39999994044E+02 0.  0.
        -12    1    3    3    0    0  0.16138541416E+02 -0.33086834106E+02  0.76741398129E+00  0.36820918435E+02  0.00000000000E+00 0.  1.
         11    1    4    4    0    0  0.45311102645E+01  0.47985190172E+01 -0.92292808117E+01  0.11346205073E+02  0.51100000000E-03 0. -1.
        -11    1    4    4    0    0  0.28707693439E+01  0.12414588535E+00 -0.33941109854E+01  0.44471022553E+01  0.51100000000E-03 0.  1.
         12    1    4    4    0    0 -0.23540421024E+02  0.28164169203E+02  0.11855977816E+02  0.38573774237E+02  0.00000000000E+00 0. -1.
</event>
<event>
 8    1  0.2511738E-006  0.9118800E+02  0.7816164E-02  0.1184000E+00
        -11   -1    0    0    0    0  0.00000000000E+00  0.00000000000E+00  0.45593999997E+02  0.45594000000E+02  0.51100000000E-03 0. -1.
         11   -1    0    0    0    0 -0.00000000000E+00 -0.00000000000E+00 -0.45593999997E+02  0.45594000000E+02  0.51100000000E-03 0.  1.
         23    2    1    2    0    0  0.16653345369E-15 -0.71054273576E-14  0.00000000000E+00  0.91188000000E+02  0.91188000000E+02 0.  0.
    9900012    2    3    3    0    0 -0.11267660157E+00 -0.32548756950E+02 -0.17214688813E+02  0.54367084939E+02  0.40000001735E+02 0.  0.
         12    1    3    3    0    0  0.11267660157E+00  0.32548756950E+02  0.17214688813E+02  0.36820915061E+02  0.00000000000E+00 0. -1.
         11    1    4    4    0    0  0.12470634319E+01 -0.10274151537E+02 -0.21393711855E+01  0.10568361574E+02  0.51100000000E-03 0. -1.
        -11    1    4    4    0    0 -0.66421971819E+00 -0.27884890920E+02 -0.21517360395E+02  0.35227902692E+02  0.51100000000E-03 0.  1.
         12    1    4    4    0    0 -0.69552031527E+00  0.56102855074E+01  0.64420427679E+01  0.85708206729E+01  0.00000000000E+00 0. -1.
</event>
<event>
 8    1  0.2511738E-006  0.9118800E+02  0.7816164E-02  0.1184000E+00
        -11   -1    0    0    0    0  0.00000000000E+00  0.00000000000E+00  0.45593999997E+02  0.45594000000E+02  0.51100000000E-03 0.  1.
         11   -1    0    0    0    0 -0.00000000000E+00 -0.00000000000E+00 -0.45593999997E+02  0.45594000000E+02  0.51100000000E-03 0. -1.
         23    2    1    2    0    0  0.00000000000E+00  0.00000000000E+00  0.00000000000E+00  0.91188000000E+02  0.91188000000E+02 0.  0.
    9900012    2    3    3    0    0  0.22955491766E+02  0.27051913016E+02 -0.98498224544E+01  0.54367087430E+02  0.40000007415E+02 0.  0.
        -12    1    3    3    0    0 -0.22955491766E+02 -0.27051913016E+02  0.98498224544E+01  0.36820912570E+02  0.00000000000E+00 0.  1.
         11    1    4    4    0    0  0.17532113414E+02  0.14125025958E+02 -0.20856612708E+02  0.30690220804E+02  0.51100000000E-03 0. -1.
        -11    1    4    4    0    0 -0.27824913406E+01  0.62541829452E+01 -0.17897017948E+01  0.70753159045E+01  0.51100000000E-03 0.  1.
         12    1    4    4    0    0  0.82058696935E+01  0.66727041134E+01  0.12796492049E+02  0.16601550722E+02  0.00000000000E+00 0. -1.
</event>
<event>
 8    1  0.2511738E-006  0.9118800E+02  0.7816164E-02  0.1184000E+00
        -11   -1    0    0    0    0  0.00000000000E+00  0.00000000000E+00  0.45593999997E+02  0.45594000000E+02  0.51100000000E-03 0. -1.
         11   -1    0    0    0    0 -0.00000000000E+00 -0.00000000000E+00 -0.45593999997E+02  0.45594000000E+02  0.51100000000E-03 0.  1.
         23    2    1    2    0    0  0.00000000000E+00  0.00000000000E+00  0.00000000000E+00  0.91188000000E+02  0.91188000000E+02 0.  0.
    9900012    2    3    3    0    0 -0.44290446995E+01 -0.84819223110E+01 -0.35555895488E+02  0.54367066457E+02  0.39999959601E+02 0.  0.
         12    1    3    3    0    0  0.44290446995E+01  0.84819223110E+01  0.35555895488E+02  0.36820933543E+02  0.00000000000E+00 0. -1.
         11    1    4    4    0    0 -0.17697188603E+02 -0.88651872568E+01 -0.26217129094E+02  0.32849960239E+02  0.51100000000E-03 0. -1.
        -11    1    4    4    0    0 -0.21813430172E+01  0.21523217641E+00  0.14894190639E+01  0.26500852170E+01  0.51100000000E-03 0.  1.
        -12    1    4    4    0    0  0.15449486920E+02  0.16803276941E+00 -0.10828185458E+02  0.18867021001E+02  0.00000000000E+00 0.  1.
</event>
<event>
 8    1  0.2511738E-006  0.9118800E+02  0.7816164E-02  0.1184000E+00
        -11   -1    0    0    0    0  0.00000000000E+00  0.00000000000E+00  0.45593999997E+02  0.45594000000E+02  0.51100000000E-03 0.  1.
         11   -1    0    0    0    0 -0.00000000000E+00 -0.00000000000E+00 -0.45593999997E+02  0.45594000000E+02  0.51100000000E-03 0. -1.
         23    2    1    2    0    0  0.00000000000E+00 -0.35527136788E-14  0.35527136788E-14  0.91188000000E+02  0.91188000000E+02 0.  0.
    9900012    2    3    3    0    0  0.11947252896E+02  0.29796995556E+02  0.18032773553E+02  0.54367099441E+02  0.40000034796E+02 0.  0.
         12    1    3    3    0    0 -0.11947252896E+02 -0.29796995556E+02 -0.18032773553E+02  0.36820900559E+02  0.00000000000E+00 0. -1.
         11    1    4    4    0    0 -0.69300280597E+01  0.51578355168E+01  0.40260915528E+01  0.95308955288E+01  0.51100000000E-03 0. -1.
        -11    1    4    4    0    0 -0.45867383927E+01  0.16473509583E+02  0.19191959978E+01  0.17207498383E+02  0.51100000000E-03 0.  1.
        -12    1    4    4    0    0  0.23464019348E+02  0.81656504569E+01  0.12087486003E+02  0.27628705529E+02  0.00000000000E+00 0.  1.
</event>
<event>
 8    1  0.2511738E-006  0.9118800E+02  0.7816164E-02  0.1184000E+00
        -11   -1    0    0    0    0  0.00000000000E+00  0.00000000000E+00  0.45593999997E+02  0.45594000000E+02  0.51100000000E-03 0. -1.
         11   -1    0    0    0    0 -0.00000000000E+00 -0.00000000000E+00 -0.45593999997E+02  0.45594000000E+02  0.51100000000E-03 0.  1.
         23    2    1    2    0    0  0.00000000000E+00 -0.17763568394E-14  0.00000000000E+00  0.91188000000E+02  0.91188000000E+02 0.  0.
    9900012    2    3    3    0    0 -0.16023992272E+02  0.65434586493E+01 -0.32499159017E+02  0.54367075022E+02  0.39999979128E+02 0.  0.
         12    1    3    3    0    0  0.16023992272E+02 -0.65434586493E+01  0.32499159017E+02  0.36820924978E+02  0.00000000000E+00 0. -1.
         11    1    4    4    0    0 -0.49761368464E+01  0.11308674660E+02 -0.10227232289E+02  0.16038838519E+02  0.51100000000E-03 0. -1.
        -11    1    4    4    0    0 -0.11704143611E+02 -0.85688076569E+01 -0.27934005776E+02  0.31475706843E+02  0.51100000000E-03 0.  1.
        -12    1    4    4    0    0  0.65628818569E+00  0.38035916459E+01  0.56620790483E+01  0.68525296600E+01  0.00000000000E+00 0.  1.
</event>
<event>
 8    1  0.2511738E-006  0.9118800E+02  0.7816164E-02  0.1184000E+00
        -11   -1    0    0    0    0  0.00000000000E+00  0.00000000000E+00  0.45593999997E+02  0.45594000000E+02  0.51100000000E-03 0. -1.
         11   -1    0    0    0    0 -0.00000000000E+00 -0.00000000000E+00 -0.45593999997E+02  0.45594000000E+02  0.51100000000E-03 0.  1.
         23    2    1    2    0    0  0.35527136788E-14  0.00000000000E+00  0.35527136788E-14  0.91188000000E+02  0.91188000000E+02 0.  0.
    9900012    2    3    3    0    0 -0.29231917009E+02  0.75564035826E+01 -0.21075477271E+02  0.54367082720E+02  0.39999996676E+02 0.  0.
         12    1    3    3    0    0  0.29231917009E+02 -0.75564035826E+01  0.21075477271E+02  0.36820917280E+02  0.00000000000E+00 0. -1.
         11    1    4    4    0    0 -0.62116943077E+01 -0.11506160478E+02 -0.11489449169E+01  0.13126193272E+02  0.51100000000E-03 0. -1.
        -11    1    4    4    0    0 -0.10832586115E+01 -0.14012106983E+01  0.29997806665E+01  0.34836080360E+01  0.51100000000E-03 0.  1.
        -12    1    4    4    0    0 -0.21936964090E+02  0.20463774759E+02 -0.22926313021E+02  0.37757281412E+02  0.00000000000E+00 0.  1.
</event>
<event>
 8    1  0.2511738E-006  0.9118800E+02  0.7816164E-02  0.1184000E+00
        -11   -1    0    0    0    0  0.00000000000E+00  0.00000000000E+00  0.45593999997E+02  0.45594000000E+02  0.51100000000E-03 0. -1.
         11   -1    0    0    0    0 -0.00000000000E+00 -0.00000000000E+00 -0.45593999997E+02  0.45594000000E+02  0.51100000000E-03 0.  1.
         23    2    1    2    0    0  0.00000000000E+00  0.17763568394E-14  0.00000000000E+00  0.91188000000E+02  0.91188000000E+02 0.  0.
    9900012    2    3    3    0    0 -0.12381583352E+02 -0.14573281678E+02 -0.31465812727E+02  0.54367061449E+02  0.39999948186E+02 0.  0.
         12    1    3    3    0    0  0.12381583352E+02  0.14573281678E+02  0.31465812727E+02  0.36820938551E+02  0.00000000000E+00 0. -1.
         11    1    4    4    0    0 -0.97946034289E+00 -0.19148443705E+02 -0.15095945888E+02  0.24403069918E+02  0.51100000000E-03 0. -1.
        -11    1    4    4    0    0  0.25847740795E+01 -0.99038302309E+00 -0.14538289650E+02  0.14799452077E+02  0.51100000000E-03 0.  1.
        -12    1    4    4    0    0 -0.13986897089E+02  0.55655450496E+01 -0.18315771887E+01  0.15164539455E+02  0.00000000000E+00 0.  1.
</event>
<event>
 8    1  0.2511738E-006  0.9118800E+02  0.7816164E-02  0.1184000E+00
        -11   -1    0    0    0    0  0.00000000000E+00  0.00000000000E+00  0.45593999997E+02  0.45594000000E+02  0.51100000000E-03 0.  1.
         11   -1    0    0    0    0 -0.00000000000E+00 -0.00000000000E+00 -0.45593999997E+02  0.45594000000E+02  0.51100000000E-03 0. -1.
         23    2    1    2    0    0  0.00000000000E+00  0.00000000000E+00  0.00000000000E+00  0.91188000000E+02  0.91188000000E+02 0.  0.
    9900012    2    3    3    0    0 -0.32739971288E+02 -0.12191207507E+02 -0.11629667356E+02  0.54367076285E+02  0.39999982006E+02 0.  0.
        -12    1    3    3    0    0  0.32739971288E+02  0.12191207507E+02  0.11629667356E+02  0.36820923715E+02  0.00000000000E+00 0.  1.
         11    1    4    4    0    0  0.20241815761E+01 -0.49205340239E+01 -0.53601677921E+01  0.75525072098E+01  0.51100000000E-03 0. -1.
        -11    1    4    4    0    0 -0.76461823923E+01 -0.60012932189E+01  0.10969139187E+02  0.14656112726E+02  0.51100000000E-03 0.  1.
         12    1    4    4    0    0 -0.27117970472E+02 -0.12693802643E+01 -0.17238638750E+02  0.32158456349E+02  0.00000000000E+00 0. -1.
</event>
<event>
 8    1  0.2511738E-006  0.9118800E+02  0.7816164E-02  0.1184000E+00
        -11   -1    0    0    0    0  0.00000000000E+00  0.00000000000E+00  0.45593999997E+02  0.45594000000E+02  0.51100000000E-03 0.  1.
         11   -1    0    0    0    0 -0.00000000000E+00 -0.00000000000E+00 -0.45593999997E+02  0.45594000000E+02  0.51100000000E-03 0. -1.
         23    2    1    2    0    0  0.00000000000E+00  0.00000000000E+00  0.00000000000E+00  0.91188000000E+02  0.91188000000E+02 0.  0.
    9900012    2    3    3    0    0 -0.17504616777E+02  0.25581562982E+02 -0.19873384187E+02  0.54367090558E+02  0.40000014545E+02 0.  0.
        -12    1    3    3    0    0  0.17504616777E+02 -0.25581562982E+02  0.19873384187E+02  0.36820909442E+02  0.00000000000E+00 0.  1.
         11    1    4    4    0    0 -0.33689159694E+01 -0.65178707353E+01  0.96742739194E+00  0.74005506384E+01  0.51100000000E-03 0. -1.
        -11    1    4    4    0    0 -0.37262306499E+00  0.19902468753E+02 -0.10251651734E+01  0.19932337402E+02  0.51100000000E-03 0.  1.
        -12    1    4    4    0    0 -0.13763077742E+02  0.12196964964E+02 -0.19815646405E+02  0.27034202517E+02  0.00000000000E+00 0.  1.
</event>
<event>
 8    1  0.2511738E-006  0.9118800E+02  0.7816164E-02  0.1184000E+00
        -11   -1    0    0    0    0  0.00000000000E+00  0.00000000000E+00  0.45593999997E+02  0.45594000000E+02  0.51100000000E-03 0. -1.
         11   -1    0    0    0    0 -0.00000000000E+00 -0.00000000000E+00 -0.45593999997E+02  0.45594000000E+02  0.51100000000E-03 0.  1.
         23    2    1    2    0    0  0.00000000000E+00  0.00000000000E+00 -0.17763568394E-14  0.91188000000E+02  0.91188000000E+02 0.  0.
    9900012    2    3    3    0    0 -0.11665766701E+02  0.33545504738E+02  0.97154972113E+01  0.54367056410E+02  0.39999936697E+02 0.  0.
        -12    1    3    3    0    0  0.11665766701E+02 -0.33545504738E+02 -0.97154972113E+01  0.36820943590E+02  0.00000000000E+00 0.  1.
         11    1    4    4    0    0  0.32449826980E+01  0.10627483318E+02 -0.74738731777E+01  0.13391493379E+02  0.51100000000E-03 0. -1.
        -11    1    4    4    0    0  0.43227702696E+01 -0.25204728763E+01  0.63575609766E+00  0.50441364376E+01  0.51100000000E-03 0.  1.
         12    1    4    4    0    0 -0.19233519668E+02  0.25438494296E+02  0.16553614291E+02  0.35931426593E+02  0.00000000000E+00 0. -1.
</event>
<event>
 8    1  0.2511738E-006  0.9118800E+02  0.7816164E-02  0.1184000E+00
        -11   -1    0    0    0    0  0.00000000000E+00  0.00000000000E+00  0.45593999997E+02  0.45594000000E+02  0.51100000000E-03 0. -1.
         11   -1    0    0    0    0 -0.00000000000E+00 -0.00000000000E+00 -0.45593999997E+02  0.45594000000E+02  0.51100000000E-03 0.  1.
         23    2    1    2    0    0  0.00000000000E+00  0.00000000000E+00  0.99920072216E-15  0.91188000000E+02  0.91188000000E+02 0.  0.
    9900012    2    3    3    0    0 -0.36440677718E+02  0.52416219519E+01  0.61812121289E+00  0.54367086553E+02  0.40000005415E+02 0.  0.
        -12    1    3    3    0    0  0.36440677718E+02 -0.52416219519E+01 -0.61812121289E+00  0.36820913447E+02  0.00000000000E+00 0.  1.
         11    1    4    4    0    0 -0.16802191563E+02  0.65195136487E+01  0.15568715535E+02  0.23816015687E+02  0.51100000000E-03 0. -1.
        -11    1    4    4    0    0 -0.61060849078E+01 -0.88089776627E+01 -0.34461302416E+01  0.11258693275E+02  0.51100000000E-03 0.  1.
        -12    1    4    4    0    0 -0.13532401247E+02  0.75310859659E+01 -0.11504464080E+02  0.19292377591E+02  0.00000000000E+00 0.  1.
</event>
<event>
 8    1  0.2511738E-006  0.9118800E+02  0.7816164E-02  0.1184000E+00
        -11   -1    0    0    0    0  0.00000000000E+00  0.00000000000E+00  0.45593999997E+02  0.45594000000E+02  0.51100000000E-03 0. -1.
         11   -1    0    0    0    0 -0.00000000000E+00 -0.00000000000E+00 -0.45593999997E+02  0.45594000000E+02  0.51100000000E-03 0.  1.
         23    2    1    2    0    0 -0.71054273576E-14  0.88817841970E-15  0.17763568394E-14  0.91188000000E+02  0.91188000000E+02 0.  0.
    9900012    2    3    3    0    0 -0.34254844860E+02  0.43776706829E+01  0.12775799484E+02  0.54367089508E+02  0.40000012152E+02 0.  0.
        -12    1    3    3    0    0  0.34254844860E+02 -0.43776706829E+01 -0.12775799484E+02  0.36820910492E+02  0.00000000000E+00 0.  1.
         11    1    4    4    0    0 -0.84729248627E+01  0.96233416229E+00  0.39051424082E+01  0.93790554033E+01  0.51100000000E-03 0. -1.
        -11    1    4    4    0    0 -0.70830130013E+00 -0.45372308040E+01 -0.11066633757E+02  0.11981591592E+02  0.51100000000E-03 0.  1.
         12    1    4    4    0    0 -0.25073618697E+02  0.79525673245E+01  0.19937290832E+02  0.33006442513E+02  0.00000000000E+00 0. -1.
</event>
<event>
 8    1  0.2511738E-006  0.9118800E+02  0.7816164E-02  0.1184000E+00
        -11   -1    0    0    0    0  0.00000000000E+00  0.00000000000E+00  0.45593999997E+02  0.45594000000E+02  0.51100000000E-03 0. -1.
         11   -1    0    0    0    0 -0.00000000000E+00 -0.00000000000E+00 -0.45593999997E+02  0.45594000000E+02  0.51100000000E-03 0.  1.
         23    2    1    2    0    0  0.71054273576E-14  0.00000000000E+00 -0.35527136788E-14  0.91188000000E+02  0.91188000000E+02 0.  0.
    9900012    2    3    3    0    0 -0.19577400268E+02 -0.16847837047E+02  0.26242247078E+02  0.54367085479E+02  0.40000002967E+02 0.  0.
         12    1    3    3    0    0  0.19577400268E+02  0.16847837047E+02 -0.26242247078E+02  0.36820914521E+02  0.00000000000E+00 0. -1.
         11    1    4    4    0    0 -0.29825228225E+01 -0.97931062882E+01  0.32716150064E+02  0.34280414940E+02  0.51100000000E-03 0. -1.
        -11    1    4    4    0    0 -0.66843838412E+01 -0.60641313787E+01 -0.36385816598E+01  0.97310818243E+01  0.51100000000E-03 0.  1.
         12    1    4    4    0    0 -0.99104936046E+01 -0.99059938016E+00 -0.28353213264E+01  0.10355588715E+02  0.00000000000E+00 0. -1.
</event>
<event>
 8    1  0.2511738E-006  0.9118800E+02  0.7816164E-02  0.1184000E+00
        -11   -1    0    0    0    0  0.00000000000E+00  0.00000000000E+00  0.45593999997E+02  0.45594000000E+02  0.51100000000E-03 0.  1.
         11   -1    0    0    0    0 -0.00000000000E+00 -0.00000000000E+00 -0.45593999997E+02  0.45594000000E+02  0.51100000000E-03 0. -1.
         23    2    1    2    0    0  0.17763568394E-14 -0.33306690739E-15  0.71054273576E-14  0.91188000000E+02  0.91188000000E+02 0.  0.
    9900012    2    3    3    0    0  0.38755880602E+01 -0.77167372218E+00  0.36608243828E+02  0.54367093176E+02  0.40000020514E+02 0.  0.
         12    1    3    3    0    0 -0.38755880602E+01  0.77167372218E+00 -0.36608243828E+02  0.36820906824E+02  0.00000000000E+00 0. -1.
         11    1    4    4    0    0 -0.63082471688E+01  0.46074304816E+01 -0.10664075456E+01  0.78841374480E+01  0.51100000000E-03 0. -1.
        -11    1    4    4    0    0  0.11087507461E+01 -0.23842709043E+01  0.36791961655E+02  0.36885803755E+02  0.51100000000E-03 0.  1.
         12    1    4    4    0    0  0.90750844829E+01 -0.29948332995E+01  0.88268971883E+00  0.95971519735E+01  0.00000000000E+00 0. -1.
</event>
<event>
 8    1  0.2511738E-006  0.9118800E+02  0.7816164E-02  0.1184000E+00
        -11   -1    0    0    0    0  0.00000000000E+00  0.00000000000E+00  0.45593999997E+02  0.45594000000E+02  0.51100000000E-03 0. -1.
         11   -1    0    0    0    0 -0.00000000000E+00 -0.00000000000E+00 -0.45593999997E+02  0.45594000000E+02  0.51100000000E-03 0.  1.
         23    2    1    2    0    0 -0.17763568394E-14  0.35527136788E-14  0.00000000000E+00  0.91188000000E+02  0.91188000000E+02 0.  0.
    9900012    2    3    3    0    0  0.90837562930E+01 -0.31272510700E+02  0.17184154311E+02  0.54367085926E+02  0.40000003985E+02 0.  0.
        -12    1    3    3    0    0 -0.90837562930E+01  0.31272510700E+02 -0.17184154311E+02  0.36820914074E+02  0.00000000000E+00 0.  1.
         11    1    4    4    0    0 -0.12384692068E+02 -0.23720240467E+02  0.77208926320E+01  0.27850360657E+02  0.51100000000E-03 0. -1.
        -11    1    4    4    0    0  0.84743209471E+01 -0.72313178506E+01  0.73538001557E+01  0.13348574844E+02  0.51100000000E-03 0.  1.
         12    1    4    4    0    0  0.12994127414E+02 -0.32095238228E+00  0.21094615238E+01  0.13168150425E+02  0.00000000000E+00 0. -1.
</event>
<event>
 8    1  0.2511738E-006  0.9118800E+02  0.7816164E-02  0.1184000E+00
        -11   -1    0    0    0    0  0.00000000000E+00  0.00000000000E+00  0.45593999997E+02  0.45594000000E+02  0.51100000000E-03 0.  1.
         11   -1    0    0    0    0 -0.00000000000E+00 -0.00000000000E+00 -0.45593999997E+02  0.45594000000E+02  0.51100000000E-03 0. -1.
         23    2    1    2    0    0  0.17763568394E-14  0.00000000000E+00  0.00000000000E+00  0.91188000000E+02  0.91188000000E+02 0.  0.
    9900012    2    3    3    0    0 -0.49672813561E+01  0.21796754556E+02 -0.29257604754E+02  0.54367084352E+02  0.40000000397E+02 0.  0.
        -12    1    3    3    0    0  0.49672813561E+01 -0.21796754556E+02  0.29257604754E+02  0.36820915648E+02  0.00000000000E+00 0.  1.
         11    1    4    4    0    0 -0.93735713274E+01  0.27426221971E+02 -0.25441947631E+02  0.38566231220E+02  0.51100000000E-03 0. -1.
        -11    1    4    4    0    0  0.12436469975E+01 -0.69360741008E+01  0.33931683568E+01  0.78210851897E+01  0.51100000000E-03 0.  1.
         12    1    4    4    0    0  0.31626429739E+01  0.13066066860E+01 -0.72088254794E+01  0.79797679418E+01  0.00000000000E+00 0. -1.
</event>
<event>
 8    1  0.2511738E-006  0.9118800E+02  0.7816164E-02  0.1184000E+00
        -11   -1    0    0    0    0  0.00000000000E+00  0.00000000000E+00  0.45593999997E+02  0.45594000000E+02  0.51100000000E-03 0.  1.
         11   -1    0    0    0    0 -0.00000000000E+00 -0.00000000000E+00 -0.45593999997E+02  0.45594000000E+02  0.51100000000E-03 0. -1.
         23    2    1    2    0    0  0.00000000000E+00  0.35527136788E-14  0.44408920985E-15  0.91188000000E+02  0.91188000000E+02 0.  0.
    9900012    2    3    3    0    0  0.26204466358E+02 -0.25845761598E+02  0.10496857126E+01  0.54367091676E+02  0.40000017095E+02 0.  0.
         12    1    3    3    0    0 -0.26204466358E+02  0.25845761598E+02 -0.10496857126E+01  0.36820908324E+02  0.00000000000E+00 0. -1.
         11    1    4    4    0    0  0.91031993943E+01  0.16501850515E+01  0.21207912705E+01  0.94915281062E+01  0.51100000000E-03 0. -1.
        -11    1    4    4    0    0  0.57611777276E+01  0.42864175767E+01 -0.76533958833E+01  0.10494713586E+02  0.51100000000E-03 0.  1.
        -12    1    4    4    0    0  0.11340089236E+02 -0.31782364226E+02  0.65822903254E+01  0.34380849984E+02  0.00000000000E+00 0.  1.
</event>
<event>
 8    1  0.2511738E-006  0.9118800E+02  0.7816164E-02  0.1184000E+00
        -11   -1    0    0    0    0  0.00000000000E+00  0.00000000000E+00  0.45593999997E+02  0.45594000000E+02  0.51100000000E-03 0.  1.
         11   -1    0    0    0    0 -0.00000000000E+00 -0.00000000000E+00 -0.45593999997E+02  0.45594000000E+02  0.51100000000E-03 0. -1.
         23    2    1    2    0    0  0.00000000000E+00  0.00000000000E+00  0.35527136788E-14  0.91188000000E+02  0.91188000000E+02 0.  0.
    9900012    2    3    3    0    0 -0.27385523362E+02 -0.10419906788E+02 -0.22298836265E+02  0.54367089554E+02  0.40000012257E+02 0.  0.
        -12    1    3    3    0    0  0.27385523362E+02  0.10419906788E+02  0.22298836265E+02  0.36820910446E+02  0.00000000000E+00 0.  1.
         11    1    4    4    0    0 -0.23514482584E+02 -0.20705851703E+02 -0.25519961955E+02  0.40409548926E+02  0.51100000000E-03 0. -1.
        -11    1    4    4    0    0  0.15615971465E+01  0.15189994578E+01  0.29152055603E+01  0.36392813467E+01  0.51100000000E-03 0.  1.
         12    1    4    4    0    0 -0.54326379249E+01  0.87669454576E+01  0.30592013007E+00  0.10318259282E+02  0.00000000000E+00 0. -1.
</event>
<event>
 8    1  0.2511738E-006  0.9118800E+02  0.7816164E-02  0.1184000E+00
        -11   -1    0    0    0    0  0.00000000000E+00  0.00000000000E+00  0.45593999997E+02  0.45594000000E+02  0.51100000000E-03 0.  1.
         11   -1    0    0    0    0 -0.00000000000E+00 -0.00000000000E+00 -0.45593999997E+02  0.45594000000E+02  0.51100000000E-03 0. -1.
         23    2    1    2    0    0 -0.35527136788E-14  0.17763568394E-14  0.35527136788E-14  0.91188000000E+02  0.91188000000E+02 0.  0.
    9900012    2    3    3    0    0 -0.21909016014E+02  0.10393952976E+02  0.27708127052E+02  0.54367088198E+02  0.40000009166E+02 0.  0.
         12    1    3    3    0    0  0.21909016014E+02 -0.10393952976E+02 -0.27708127052E+02  0.36820911802E+02  0.00000000000E+00 0. -1.
         11    1    4    4    0    0 -0.16888698620E+02 -0.24966175520E+01  0.18271144897E+02  0.25005918827E+02  0.51100000000E-03 0. -1.
        -11    1    4    4    0    0 -0.33013952045E+01  0.10897840393E+02  0.17500580111E+02  0.20878995187E+02  0.51100000000E-03 0.  1.
         12    1    4    4    0    0 -0.17189221897E+01  0.19927301345E+01 -0.80635979565E+01  0.84821741840E+01  0.00000000000E+00 0. -1.
</event>
<event>
 8    1  0.2511738E-006  0.9118800E+02  0.7816164E-02  0.1184000E+00
        -11   -1    0    0    0    0  0.00000000000E+00  0.00000000000E+00  0.45593999997E+02  0.45594000000E+02  0.51100000000E-03 0.  1.
         11   -1    0    0    0    0 -0.00000000000E+00 -0.00000000000E+00 -0.45593999997E+02  0.45594000000E+02  0.51100000000E-03 0. -1.
         23    2    1    2    0    0  0.00000000000E+00  0.00000000000E+00  0.35527136788E-14  0.91188000000E+02  0.91188000000E+02 0.  0.
    9900012    2    3    3    0    0  0.18636324715E+02  0.27175972546E+01  0.31639896987E+02  0.54367068248E+02  0.39999963686E+02 0.  0.
         12    1    3    3    0    0 -0.18636324715E+02 -0.27175972546E+01 -0.31639896987E+02  0.36820931752E+02  0.00000000000E+00 0. -1.
         11    1    4    4    0    0 -0.70862115233E+01  0.82692444206E+01  0.69960557364E+01  0.12943708633E+02  0.51100000000E-03 0. -1.
        -11    1    4    4    0    0  0.11490355703E+02 -0.64957262247E+01  0.29296432589E+00  0.13202596780E+02  0.51100000000E-03 0.  1.
        -12    1    4    4    0    0  0.14232180535E+02  0.94407905870E+00  0.24350876925E+02  0.28220762836E+02  0.00000000000E+00 0.  1.
</event>
<event>
 8    1  0.2511738E-006  0.9118800E+02  0.7816164E-02  0.1184000E+00
        -11   -1    0    0    0    0  0.00000000000E+00  0.00000000000E+00  0.45593999997E+02  0.45594000000E+02  0.51100000000E-03 0. -1.
         11   -1    0    0    0    0 -0.00000000000E+00 -0.00000000000E+00 -0.45593999997E+02  0.45594000000E+02  0.51100000000E-03 0.  1.
         23    2    1    2    0    0  0.00000000000E+00  0.35527136788E-14  0.00000000000E+00  0.91188000000E+02  0.91188000000E+02 0.  0.
    9900012    2    3    3    0    0  0.16632281275E+02  0.19298377060E+02  0.26584194275E+02  0.54367088512E+02  0.40000009881E+02 0.  0.
         12    1    3    3    0    0 -0.16632281275E+02 -0.19298377060E+02 -0.26584194275E+02  0.36820911488E+02  0.00000000000E+00 0. -1.
         11    1    4    4    0    0  0.76816747922E+00  0.15165470751E+01  0.16012960213E+02  0.16102946667E+02  0.51100000000E-03 0. -1.
        -11    1    4    4    0    0  0.10621228056E+02 -0.35888685191E+01 -0.39652324867E+01  0.11891742160E+02  0.51100000000E-03 0.  1.
         12    1    4    4    0    0  0.52428857397E+01  0.21370698504E+02  0.14536466549E+02  0.26372399685E+02  0.00000000000E+00 0. -1.
</event>
<event>
 8    1  0.2511738E-006  0.9118800E+02  0.7816164E-02  0.1184000E+00
        -11   -1    0    0    0    0  0.00000000000E+00  0.00000000000E+00  0.45593999997E+02  0.45594000000E+02  0.51100000000E-03 0. -1.
         11   -1    0    0    0    0 -0.00000000000E+00 -0.00000000000E+00 -0.45593999997E+02  0.45594000000E+02  0.51100000000E-03 0.  1.
         23    2    1    2    0    0 -0.11102230246E-14  0.00000000000E+00  0.00000000000E+00  0.91188000000E+02  0.91188000000E+02 0.  0.
    9900012    2    3    3    0    0  0.14884463414E+01  0.11329813085E+02  0.35002849609E+02  0.54367087222E+02  0.40000006941E+02 0.  0.
        -12    1    3    3    0    0 -0.14884463414E+01 -0.11329813085E+02 -0.35002849609E+02  0.36820912778E+02  0.00000000000E+00 0.  1.
         11    1    4    4    0    0 -0.10452107418E+02  0.17837659137E+02  0.20721556723E+02  0.29271343431E+02  0.51100000000E-03 0. -1.
        -11    1    4    4    0    0 -0.18071468244E+01 -0.55714266057E+01  0.97037381089E+00  0.59370194258E+01  0.51100000000E-03 0.  1.
         12    1    4    4    0    0  0.13747700584E+02 -0.93641944613E+00  0.13310919075E+02  0.19158724366E+02  0.00000000000E+00 0. -1.
</event>
<event>
 8    1  0.2511738E-006  0.9118800E+02  0.7816164E-02  0.1184000E+00
        -11   -1    0    0    0    0  0.00000000000E+00  0.00000000000E+00  0.45593999997E+02  0.45594000000E+02  0.51100000000E-03 0. -1.
         11   -1    0    0    0    0 -0.00000000000E+00 -0.00000000000E+00 -0.45593999997E+02  0.45594000000E+02  0.51100000000E-03 0.  1.
         23    2    1    2    0    0 -0.35527136788E-14  0.17763568394E-14  0.35527136788E-14  0.91188000000E+02  0.91188000000E+02 0.  0.
    9900012    2    3    3    0    0  0.25474200789E+02  0.76872812748E+01 -0.25450972961E+02  0.54367065413E+02  0.39999957221E+02 0.  0.
         12    1    3    3    0    0 -0.25474200789E+02 -0.76872812748E+01  0.25450972961E+02  0.36820934587E+02  0.00000000000E+00 0. -1.
         11    1    4    4    0    0 -0.13143940229E+01  0.68138552276E+01  0.21613202861E+01  0.72682570366E+01  0.51100000000E-03 0. -1.
        -11    1    4    4    0    0  0.21502053366E+02  0.10694168921E+02 -0.26696100635E+02  0.35908012160E+02  0.51100000000E-03 0.  1.
         12    1    4    4    0    0  0.52865414458E+01 -0.98207428741E+01 -0.91619261177E+00  0.11190796217E+02  0.00000000000E+00 0. -1.
</event>
<event>
 8    1  0.2511738E-006  0.9118800E+02  0.7816164E-02  0.1184000E+00
        -11   -1    0    0    0    0  0.00000000000E+00  0.00000000000E+00  0.45593999997E+02  0.45594000000E+02  0.51100000000E-03 0. -1.
         11   -1    0    0    0    0 -0.00000000000E+00 -0.00000000000E+00 -0.45593999997E+02  0.45594000000E+02  0.51100000000E-03 0.  1.
         23    2    1    2    0    0 -0.35527136788E-14 -0.17763568394E-14  0.17763568394E-14  0.91188000000E+02  0.91188000000E+02 0.  0.
    9900012    2    3    3    0    0  0.31080029792E+02 -0.11874420421E+02 -0.15773697076E+02  0.54367087034E+02  0.40000006511E+02 0.  0.
         12    1    3    3    0    0 -0.31080029792E+02  0.11874420421E+02  0.15773697076E+02  0.36820912966E+02  0.00000000000E+00 0. -1.
         11    1    4    4    0    0  0.25584954811E+01  0.24970158524E+01 -0.10841991383E+02  0.11416206231E+02  0.51100000000E-03 0. -1.
        -11    1    4    4    0    0  0.70599229604E+01  0.73570800941E+01  0.42694966449E+01  0.11054308734E+02  0.51100000000E-03 0.  1.
         12    1    4    4    0    0  0.21461611351E+02 -0.21728516367E+02 -0.92012023378E+01  0.31896572069E+02  0.00000000000E+00 0. -1.
</event>
<event>
 8    1  0.2511738E-006  0.9118800E+02  0.7816164E-02  0.1184000E+00
        -11   -1    0    0    0    0  0.00000000000E+00  0.00000000000E+00  0.45593999997E+02  0.45594000000E+02  0.51100000000E-03 0.  1.
         11   -1    0    0    0    0 -0.00000000000E+00 -0.00000000000E+00 -0.45593999997E+02  0.45594000000E+02  0.51100000000E-03 0. -1.
         23    2    1    2    0    0  0.35527136788E-14  0.00000000000E+00  0.35527136788E-14  0.91188000000E+02  0.91188000000E+02 0.  0.
    9900012    2    3    3    0    0  0.21674544073E+02 -0.60959013322E+01  0.29134802747E+02  0.54367046659E+02  0.39999914469E+02 0.  0.
         12    1    3    3    0    0 -0.21674544073E+02  0.60959013322E+01 -0.29134802747E+02  0.36820953341E+02  0.00000000000E+00 0. -1.
         11    1    4    4    0    0  0.53562358908E+01 -0.32621990862E+01 -0.60497689482E+01  0.87138344248E+01  0.51100000000E-03 0. -1.
        -11    1    4    4    0    0  0.44460665182E+01 -0.11815153914E+02  0.23695670456E+02  0.26848653004E+02  0.51100000000E-03 0.  1.
        -12    1    4    4    0    0  0.11872241664E+02  0.89814516677E+01  0.11488901239E+02  0.18804559231E+02  0.00000000000E+00 0.  1.
</event>
<event>
 8    1  0.2511738E-006  0.9118800E+02  0.7816164E-02  0.1184000E+00
        -11   -1    0    0    0    0  0.00000000000E+00  0.00000000000E+00  0.45593999997E+02  0.45594000000E+02  0.51100000000E-03 0. -1.
         11   -1    0    0    0    0 -0.00000000000E+00 -0.00000000000E+00 -0.45593999997E+02  0.45594000000E+02  0.51100000000E-03 0.  1.
         23    2    1    2    0    0  0.17763568394E-14  0.00000000000E+00  0.00000000000E+00  0.91188000000E+02  0.91188000000E+02 0.  0.
    9900012    2    3    3    0    0  0.11720587007E+02  0.29482734742E+02  0.18686264125E+02  0.54367078303E+02  0.39999986607E+02 0.  0.
        -12    1    3    3    0    0 -0.11720587007E+02 -0.29482734742E+02 -0.18686264125E+02  0.36820921697E+02  0.00000000000E+00 0.  1.
         11    1    4    4    0    0  0.50106789638E+01  0.59048133976E+01  0.14304872009E+02  0.16266624985E+02  0.51100000000E-03 0. -1.
        -11    1    4    4    0    0  0.69614878836E+01  0.28442772729E+02 -0.28074540693E+01  0.29416584313E+02  0.51100000000E-03 0.  1.
        -12    1    4    4    0    0 -0.25157983993E+00 -0.48648513845E+01  0.71888461858E+01  0.86838690047E+01  0.00000000000E+00 0.  1.
</event>
<event>
 8    1  0.2511738E-006  0.9118800E+02  0.7816164E-02  0.1184000E+00
        -11   -1    0    0    0    0  0.00000000000E+00  0.00000000000E+00  0.45593999997E+02  0.45594000000E+02  0.51100000000E-03 0.  1.
         11   -1    0    0    0    0 -0.00000000000E+00 -0.00000000000E+00 -0.45593999997E+02  0.45594000000E+02  0.51100000000E-03 0. -1.
         23    2    1    2    0    0  0.00000000000E+00  0.35527136788E-14  0.00000000000E+00  0.91188000000E+02  0.91188000000E+02 0.  0.
    9900012    2    3    3    0    0  0.90932872690E+01  0.31139951568E+02  0.17418574567E+02  0.54366929986E+02  0.39999648487E+02 0.  0.
         12    1    3    3    0    0 -0.90932872690E+01 -0.31139951568E+02 -0.17418574567E+02  0.36821070014E+02  0.00000000000E+00 0. -1.
         11    1    4    4    0    0 -0.76022110367E+00  0.24496845301E+02  0.68619378756E+01  0.25451120947E+02  0.51100000000E-03 0. -1.
        -11    1    4    4    0    0 -0.14885536281E+01  0.13555578290E+02  0.54216369742E+01  0.14675273164E+02  0.51100000000E-03 0.  1.
         12    1    4    4    0    0  0.11342062001E+02 -0.69124720226E+01  0.51349997176E+01  0.14240535874E+02  0.00000000000E+00 0. -1.
</event>
<event>
 8    1  0.2511738E-006  0.9118800E+02  0.7816164E-02  0.1184000E+00
        -11   -1    0    0    0    0  0.00000000000E+00  0.00000000000E+00  0.45593999997E+02  0.45594000000E+02  0.51100000000E-03 0.  1.
         11   -1    0    0    0    0 -0.00000000000E+00 -0.00000000000E+00 -0.45593999997E+02  0.45594000000E+02  0.51100000000E-03 0. -1.
         23    2    1    2    0    0 -0.35527136788E-14 -0.71054273576E-14 -0.88817841970E-15  0.91188000000E+02  0.91188000000E+02 0.  0.
    9900012    2    3    3    0    0 -0.26428438069E+02 -0.24686598608E+02  0.69206410686E+01  0.54367003783E+02  0.39999816724E+02 0.  0.
        -12    1    3    3    0    0  0.26428438069E+02  0.24686598608E+02 -0.69206410686E+01  0.36820996217E+02  0.00000000000E+00 0.  1.
         11    1    4    4    0    0  0.23251316780E+01 -0.62343591264E+01 -0.72668851277E+01  0.98529737013E+01  0.51100000000E-03 0. -1.
        -11    1    4    4    0    0 -0.98389074090E+01  0.15658654885E+01 -0.48035863141E+01  0.11060310822E+02  0.51100000000E-03 0.  1.
         12    1    4    4    0    0 -0.18914662338E+02 -0.20018104970E+02  0.18991112510E+02  0.33453719260E+02  0.00000000000E+00 0. -1.
</event>
<event>
 8    1  0.2511738E-006  0.9118800E+02  0.7816164E-02  0.1184000E+00
        -11   -1    0    0    0    0  0.00000000000E+00  0.00000000000E+00  0.45593999997E+02  0.45594000000E+02  0.51100000000E-03 0. -1.
         11   -1    0    0    0    0 -0.00000000000E+00 -0.00000000000E+00 -0.45593999997E+02  0.45594000000E+02  0.51100000000E-03 0.  1.
         23    2    1    2    0    0  0.00000000000E+00  0.00000000000E+00  0.00000000000E+00  0.91188000000E+02  0.91188000000E+02 0.  0.
    9900012    2    3    3    0    0 -0.15027949285E+02 -0.25024975310E+02 -0.22443074132E+02  0.54367078970E+02  0.39999988128E+02 0.  0.
         12    1    3    3    0    0  0.15027949285E+02  0.25024975310E+02  0.22443074132E+02  0.36820921030E+02  0.00000000000E+00 0. -1.
         11    1    4    4    0    0  0.54068845775E+01 -0.23723165820E+02 -0.18428102923E+02  0.30522417580E+02  0.51100000000E-03 0.  1.
        -11    1    4    4    0    0 -0.28473854445E+01 -0.46598399500E+01 -0.20457688494E+01  0.58315420496E+01  0.51100000000E-03 0. -1.
        -12    1    4    4    0    0 -0.17587448418E+02  0.33580304598E+01 -0.19692023598E+01  0.18013119340E+02  0.00000000000E+00 0.  1.
</event>
<event>
 8    1  0.2511738E-006  0.9118800E+02  0.7816164E-02  0.1184000E+00
        -11   -1    0    0    0    0  0.00000000000E+00  0.00000000000E+00  0.45593999997E+02  0.45594000000E+02  0.51100000000E-03 0.  1.
         11   -1    0    0    0    0 -0.00000000000E+00 -0.00000000000E+00 -0.45593999997E+02  0.45594000000E+02  0.51100000000E-03 0. -1.
         23    2    1    2    0    0  0.00000000000E+00  0.00000000000E+00  0.17763568394E-14  0.91188000000E+02  0.91188000000E+02 0.  0.
    9900012    2    3    3    0    0  0.12421862889E+02  0.31019592741E+02 -0.15468066391E+02  0.54367097114E+02  0.40000029491E+02 0.  0.
        -12    1    3    3    0    0 -0.12421862889E+02 -0.31019592741E+02  0.15468066391E+02  0.36820902886E+02  0.00000000000E+00 0.  1.
         11    1    4    4    0    0  0.81233633797E+01  0.19534968682E+02 -0.14680187989E+02  0.25750960247E+02  0.51100000000E-03 0. -1.
        -11    1    4    4    0    0  0.39132174390E+01  0.11865449659E+02  0.11101976151E+02  0.16713947500E+02  0.51100000000E-03 0.  1.
        -12    1    4    4    0    0  0.38528207061E+00 -0.38082560013E+00 -0.11889854553E+02  0.11902189366E+02  0.00000000000E+00 0.  1.
</event>
<event>
 8    1  0.2511738E-006  0.9118800E+02  0.7816164E-02  0.1184000E+00
        -11   -1    0    0    0    0  0.00000000000E+00  0.00000000000E+00  0.45593999997E+02  0.45594000000E+02  0.51100000000E-03 0. -1.
         11   -1    0    0    0    0 -0.00000000000E+00 -0.00000000000E+00 -0.45593999997E+02  0.45594000000E+02  0.51100000000E-03 0.  1.
         23    2    1    2    0    0  0.00000000000E+00  0.00000000000E+00  0.55511151231E-16  0.91188000000E+02  0.91188000000E+02 0.  0.
    9900012    2    3    3    0    0  0.27678713998E+02  0.24282934208E+02  0.82600911188E-01  0.54367096626E+02  0.40000028379E+02 0.  0.
         12    1    3    3    0    0 -0.27678713998E+02 -0.24282934208E+02 -0.82600911188E-01  0.36820903374E+02  0.00000000000E+00 0. -1.
         11    1    4    4    0    0  0.13042508662E+02  0.24480622065E+01  0.62938809906E+01  0.14687170556E+02  0.51100000000E-03 0. -1.
        -11    1    4    4    0    0  0.21509844479E+02  0.22175178836E+02 -0.91152899868E+01  0.32210254233E+02  0.51100000000E-03 0.  1.
        -12    1    4    4    0    0 -0.68736391434E+01 -0.34030683397E+00  0.29040099074E+01  0.74696718373E+01  0.00000000000E+00 0.  1.
</event>
<event>
 8    1  0.2511738E-006  0.9118800E+02  0.7816164E-02  0.1184000E+00
        -11   -1    0    0    0    0  0.00000000000E+00  0.00000000000E+00  0.45593999997E+02  0.45594000000E+02  0.51100000000E-03 0.  1.
         11   -1    0    0    0    0 -0.00000000000E+00 -0.00000000000E+00 -0.45593999997E+02  0.45594000000E+02  0.51100000000E-03 0. -1.
         23    2    1    2    0    0  0.00000000000E+00  0.00000000000E+00  0.00000000000E+00  0.91188000000E+02  0.91188000000E+02 0.  0.
    9900012    2    3    3    0    0 -0.98955285383E+01  0.18752659230E+02 -0.30103088630E+02  0.54367086672E+02  0.40000005686E+02 0.  0.
         12    1    3    3    0    0  0.98955285383E+01 -0.18752659230E+02  0.30103088630E+02  0.36820913328E+02  0.00000000000E+00 0. -1.
         11    1    4    4    0    0 -0.71028363588E+01  0.26200196897E+02 -0.21554709929E+02  0.34662748335E+02  0.51100000000E-03 0. -1.
        -11    1    4    4    0    0  0.63928112051E+01 -0.50877167907E+01 -0.29212168980E+01  0.86767739208E+01  0.51100000000E-03 0.  1.
        -12    1    4    4    0    0 -0.91855033846E+01 -0.23598208758E+01 -0.56271618033E+01  0.11027564416E+02  0.00000000000E+00 0.  1.
</event>
<event>
 8    1  0.2511738E-006  0.9118800E+02  0.7816164E-02  0.1184000E+00
        -11   -1    0    0    0    0  0.00000000000E+00  0.00000000000E+00  0.45593999997E+02  0.45594000000E+02  0.51100000000E-03 0.  1.
         11   -1    0    0    0    0 -0.00000000000E+00 -0.00000000000E+00 -0.45593999997E+02  0.45594000000E+02  0.51100000000E-03 0. -1.
         23    2    1    2    0    0  0.17763568394E-14  0.00000000000E+00  0.35527136788E-14  0.91188000000E+02  0.91188000000E+02 0.  0.
    9900012    2    3    3    0    0 -0.10595824660E+02  0.23886707218E+02 -0.25941004499E+02  0.54367054923E+02  0.39999933308E+02 0.  0.
        -12    1    3    3    0    0  0.10595824660E+02 -0.23886707218E+02  0.25941004499E+02  0.36820945077E+02  0.00000000000E+00 0.  1.
         11    1    4    4    0    0  0.15415522203E+01  0.20742025070E+00  0.17742258576E+01  0.23595092844E+01  0.51100000000E-03 0. -1.
        -11    1    4    4    0    0  0.32431190638E+01 -0.77218650858E+01 -0.20187150000E+01  0.86151164924E+01  0.51100000000E-03 0.  1.
         12    1    4    4    0    0 -0.15380495945E+02  0.31401152053E+02 -0.25696515357E+02  0.43392429146E+02  0.00000000000E+00 0. -1.
</event>
<event>
 8    1  0.2511738E-006  0.9118800E+02  0.7816164E-02  0.1184000E+00
        -11   -1    0    0    0    0  0.00000000000E+00  0.00000000000E+00  0.45593999997E+02  0.45594000000E+02  0.51100000000E-03 0. -1.
         11   -1    0    0    0    0 -0.00000000000E+00 -0.00000000000E+00 -0.45593999997E+02  0.45594000000E+02  0.51100000000E-03 0.  1.
         23    2    1    2    0    0  0.88817841970E-15  0.00000000000E+00  0.00000000000E+00  0.91188000000E+02  0.91188000000E+02 0.  0.
    9900012    2    3    3    0    0  0.43407204319E+01 -0.36506178529E+02 -0.20589978539E+01  0.54367049485E+02  0.39999920910E+02 0.  0.
         12    1    3    3    0    0 -0.43407204319E+01  0.36506178529E+02  0.20589978539E+01  0.36820950515E+02  0.00000000000E+00 0. -1.
         11    1    4    4    0    0 -0.13095447582E+02 -0.26558991463E+02  0.80549454917E-01  0.29612113457E+02  0.51100000000E-03 0. -1.
        -11    1    4    4    0    0  0.15434791993E+01 -0.85723369076E+01 -0.78465263658E+00  0.87454541401E+01  0.51100000000E-03 0.  1.
         12    1    4    4    0    0  0.15892688815E+02 -0.13748501586E+01 -0.13548946722E+01  0.16009481887E+02  0.00000000000E+00 0. -1.
</event>
<event>
 8    1  0.2511738E-006  0.9118800E+02  0.7816164E-02  0.1184000E+00
        -11   -1    0    0    0    0  0.00000000000E+00  0.00000000000E+00  0.45593999997E+02  0.45594000000E+02  0.51100000000E-03 0. -1.
         11   -1    0    0    0    0 -0.00000000000E+00 -0.00000000000E+00 -0.45593999997E+02  0.45594000000E+02  0.51100000000E-03 0.  1.
         23    2    1    2    0    0  0.71054273576E-14  0.00000000000E+00  0.00000000000E+00  0.91188000000E+02  0.91188000000E+02 0.  0.
    9900012    2    3    3    0    0  0.31916261322E+02 -0.57926569900E+01 -0.17423477660E+02  0.54367079513E+02  0.39999989365E+02 0.  0.
        -12    1    3    3    0    0 -0.31916261322E+02  0.57926569900E+01  0.17423477660E+02  0.36820920487E+02  0.00000000000E+00 0.  1.
         11    1    4    4    0    0  0.20599366691E+00 -0.73786693728E+01  0.64047391424E-01  0.73818220944E+01  0.51100000000E-03 0. -1.
        -11    1    4    4    0    0  0.73079033555E+00  0.10690921129E+02 -0.78644097858E+01  0.13292057427E+02  0.51100000000E-03 0.  1.
         12    1    4    4    0    0  0.30979477319E+02 -0.91049087460E+01 -0.96231152659E+01  0.33693199992E+02  0.00000000000E+00 0. -1.
</event>
<event>
 8    1  0.2511738E-006  0.9118800E+02  0.7816164E-02  0.1184000E+00
        -11   -1    0    0    0    0  0.00000000000E+00  0.00000000000E+00  0.45593999997E+02  0.45594000000E+02  0.51100000000E-03 0. -1.
         11   -1    0    0    0    0 -0.00000000000E+00 -0.00000000000E+00 -0.45593999997E+02  0.45594000000E+02  0.51100000000E-03 0.  1.
         23    2    1    2    0    0 -0.88817841970E-15  0.00000000000E+00 -0.71054273576E-14  0.91188000000E+02  0.91188000000E+02 0.  0.
    9900012    2    3    3    0    0 -0.30388702363E+01  0.14662415363E+02 -0.33638644818E+02  0.54367087711E+02  0.40000008055E+02 0.  0.
         12    1    3    3    0    0  0.30388702363E+01 -0.14662415363E+02  0.33638644818E+02  0.36820912289E+02  0.00000000000E+00 0. -1.
         11    1    4    4    0    0  0.11245620133E+02  0.40943636203E+01 -0.41960528535E+01  0.12682059984E+02  0.51100000000E-03 0. -1.
        -11    1    4    4    0    0  0.64553483518E+01  0.37339877234E+01 -0.54088440438E+01  0.92124796235E+01  0.51100000000E-03 0.  1.
        -12    1    4    4    0    0 -0.20739838721E+02  0.68340640190E+01 -0.24033747921E+02  0.32472548103E+02  0.00000000000E+00 0.  1.
</event>
<event>
 8    1  0.2511738E-006  0.9118800E+02  0.7816164E-02  0.1184000E+00
        -11   -1    0    0    0    0  0.00000000000E+00  0.00000000000E+00  0.45593999997E+02  0.45594000000E+02  0.51100000000E-03 0. -1.
         11   -1    0    0    0    0 -0.00000000000E+00 -0.00000000000E+00 -0.45593999997E+02  0.45594000000E+02  0.51100000000E-03 0.  1.
         23    2    1    2    0    0  0.35527136788E-14  0.35527136788E-14 -0.17763568394E-14  0.91188000000E+02  0.91188000000E+02 0.  0.
    9900012    2    3    3    0    0  0.22298226927E+02  0.28954449818E+02  0.44950057684E+01  0.54367134106E+02  0.40000113820E+02 0.  0.
         12    1    3    3    0    0 -0.22298226927E+02 -0.28954449818E+02 -0.44950057684E+01  0.36820865894E+02  0.00000000000E+00 0. -1.
         11    1    4    4    0    0  0.10629951415E+02  0.82781890961E+01  0.10805831942E+02  0.17271082364E+02  0.51100000000E-03 0. -1.
        -11    1    4    4    0    0 -0.95517162677E+00 -0.64421497126E+01  0.58876240139E-01  0.65128421161E+01  0.51100000000E-03 0.  1.
        -12    1    4    4    0    0  0.12623447139E+02  0.27118410435E+02 -0.63697024138E+01  0.30583209626E+02  0.00000000000E+00 0.  1.
</event>
<event>
 8    1  0.2511738E-006  0.9118800E+02  0.7816164E-02  0.1184000E+00
        -11   -1    0    0    0    0  0.00000000000E+00  0.00000000000E+00  0.45593999997E+02  0.45594000000E+02  0.51100000000E-03 0.  1.
         11   -1    0    0    0    0 -0.00000000000E+00 -0.00000000000E+00 -0.45593999997E+02  0.45594000000E+02  0.51100000000E-03 0. -1.
         23    2    1    2    0    0  0.00000000000E+00  0.00000000000E+00  0.00000000000E+00  0.91188000000E+02  0.91188000000E+02 0.  0.
    9900012    2    3    3    0    0  0.24144873532E+02  0.52094412918E+01  0.27306976432E+02  0.54367025566E+02  0.39999866382E+02 0.  0.
         12    1    3    3    0    0 -0.24144873532E+02 -0.52094412918E+01 -0.27306976432E+02  0.36820974434E+02  0.00000000000E+00 0. -1.
         11    1    4    4    0    0  0.11524535924E+02  0.31197723175E+01  0.17786963447E+02  0.21422510976E+02  0.51100000000E-03 0. -1.
        -11    1    4    4    0    0  0.11254776599E+02  0.14251001304E+02  0.99356195718E+01  0.20699699780E+02  0.51100000000E-03 0.  1.
         12    1    4    4    0    0  0.13655610081E+01 -0.12161332329E+02 -0.41560658716E+00  0.12244814810E+02  0.00000000000E+00 0. -1.
</event>
<event>
 8    1  0.2511738E-006  0.9118800E+02  0.7816164E-02  0.1184000E+00
        -11   -1    0    0    0    0  0.00000000000E+00  0.00000000000E+00  0.45593999997E+02  0.45594000000E+02  0.51100000000E-03 0.  1.
         11   -1    0    0    0    0 -0.00000000000E+00 -0.00000000000E+00 -0.45593999997E+02  0.45594000000E+02  0.51100000000E-03 0. -1.
         23    2    1    2    0    0 -0.17763568394E-14  0.35527136788E-14  0.00000000000E+00  0.91188000000E+02  0.91188000000E+02 0.  0.
    9900012    2    3    3    0    0 -0.10862865310E+02  0.19947299772E+02  0.28980715427E+02  0.54367102705E+02  0.40000042236E+02 0.  0.
         12    1    3    3    0    0  0.10862865310E+02 -0.19947299772E+02 -0.28980715427E+02  0.36820897295E+02  0.00000000000E+00 0. -1.
         11    1    4    4    0    0 -0.15884083482E+02 -0.28095815389E+01  0.77915166089E+01  0.17913837887E+02  0.51100000000E-03 0.  1.
        -11    1    4    4    0    0  0.96474902393E+01  0.22390605042E+02  0.14679628302E+02  0.28458825510E+02  0.51100000000E-03 0. -1.
         12    1    4    4    0    0 -0.46262720670E+01  0.36627626912E+00  0.65095705167E+01  0.79944393083E+01  0.00000000000E+00 0. -1.
</event>
<event>
 8    1  0.2511738E-006  0.9118800E+02  0.7816164E-02  0.1184000E+00
        -11   -1    0    0    0    0  0.00000000000E+00  0.00000000000E+00  0.45593999997E+02  0.45594000000E+02  0.51100000000E-03 0.  1.
         11   -1    0    0    0    0 -0.00000000000E+00 -0.00000000000E+00 -0.45593999997E+02  0.45594000000E+02  0.51100000000E-03 0. -1.
         23    2    1    2    0    0 -0.83266726847E-16  0.00000000000E+00  0.00000000000E+00  0.91188000000E+02  0.91188000000E+02 0.  0.
    9900012    2    3    3    0    0  0.18040666968E+00 -0.21822599895E+02  0.29656722566E+02  0.54367087381E+02  0.40000007302E+02 0.  0.
         12    1    3    3    0    0 -0.18040666968E+00  0.21822599895E+02 -0.29656722566E+02  0.36820912619E+02  0.00000000000E+00 0. -1.
         11    1    4    4    0    0  0.25382201437E+01 -0.12178729949E+01 -0.55559289067E+01  0.62284927877E+01  0.51100000000E-03 0. -1.
        -11    1    4    4    0    0 -0.89908812936E+00 -0.23446710405E+02  0.15391394014E+02  0.28061567993E+02  0.51100000000E-03 0.  1.
        -12    1    4    4    0    0 -0.14587253447E+01  0.28419835046E+01  0.19821257458E+02  0.20077026600E+02  0.00000000000E+00 0.  1.
</event>
<event>
 8    1  0.2511738E-006  0.9118800E+02  0.7816164E-02  0.1184000E+00
        -11   -1    0    0    0    0  0.00000000000E+00  0.00000000000E+00  0.45593999997E+02  0.45594000000E+02  0.51100000000E-03 0.  1.
         11   -1    0    0    0    0 -0.00000000000E+00 -0.00000000000E+00 -0.45593999997E+02  0.45594000000E+02  0.51100000000E-03 0. -1.
         23    2    1    2    0    0 -0.88817841970E-15  0.71054273576E-14  0.17763568394E-14  0.91188000000E+02  0.91188000000E+02 0.  0.
    9900012    2    3    3    0    0  0.67011008433E+01 -0.33717772898E+02 -0.13190399664E+02  0.54367087395E+02  0.40000007335E+02 0.  0.
         12    1    3    3    0    0 -0.67011008433E+01  0.33717772898E+02  0.13190399664E+02  0.36820912605E+02  0.00000000000E+00 0. -1.
         11    1    4    4    0    0  0.68123778910E+01 -0.10318756867E+02  0.12934078629E+02  0.17893452043E+02  0.51100000000E-03 0.  1.
        -11    1    4    4    0    0 -0.39919878000E+01 -0.55008767723E+01 -0.45743396401E+01  0.81926915762E+01  0.51100000000E-03 0. -1.
        -12    1    4    4    0    0  0.38807107523E+01 -0.17898139259E+02 -0.21550138653E+02  0.28280943776E+02  0.00000000000E+00 0.  1.
</event>
<event>
 8    1  0.2511738E-006  0.9118800E+02  0.7816164E-02  0.1184000E+00
        -11   -1    0    0    0    0  0.00000000000E+00  0.00000000000E+00  0.45593999997E+02  0.45594000000E+02  0.51100000000E-03 0. -1.
         11   -1    0    0    0    0 -0.00000000000E+00 -0.00000000000E+00 -0.45593999997E+02  0.45594000000E+02  0.51100000000E-03 0.  1.
         23    2    1    2    0    0  0.71054273576E-14  0.35527136788E-14  0.00000000000E+00  0.91188000000E+02  0.91188000000E+02 0.  0.
    9900012    2    3    3    0    0  0.18713310438E+02  0.25002801837E+02  0.19505174052E+02  0.54367083362E+02  0.39999998141E+02 0.  0.
        -12    1    3    3    0    0 -0.18713310438E+02 -0.25002801837E+02 -0.19505174052E+02  0.36820916638E+02  0.00000000000E+00 0.  1.
         11    1    4    4    0    0 -0.10628423550E+02  0.93214321469E+01  0.39035432006E+01  0.14665951528E+02  0.51100000000E-03 0. -1.
        -11    1    4    4    0    0 -0.13620752712E+00  0.36646418146E+01 -0.99710602259E+00  0.38003121978E+01  0.51100000000E-03 0.  1.
         12    1    4    4    0    0  0.29477941515E+02  0.12016727875E+02  0.16598736874E+02  0.35900819637E+02  0.00000000000E+00 0. -1.
</event>
<event>
 8    1  0.2511738E-006  0.9118800E+02  0.7816164E-02  0.1184000E+00
        -11   -1    0    0    0    0  0.00000000000E+00  0.00000000000E+00  0.45593999997E+02  0.45594000000E+02  0.51100000000E-03 0. -1.
         11   -1    0    0    0    0 -0.00000000000E+00 -0.00000000000E+00 -0.45593999997E+02  0.45594000000E+02  0.51100000000E-03 0.  1.
         23    2    1    2    0    0  0.49960036108E-15 -0.44408920985E-15  0.00000000000E+00  0.91188000000E+02  0.91188000000E+02 0.  0.
    9900012    2    3    3    0    0  0.42316512956E+00  0.28820931305E+01  0.36705498818E+02  0.54367093262E+02  0.40000020710E+02 0.  0.
        -12    1    3    3    0    0 -0.42316512956E+00 -0.28820931305E+01 -0.36705498818E+02  0.36820906738E+02  0.00000000000E+00 0.  1.
         11    1    4    4    0    0 -0.64665652248E+01  0.17395083420E+01  0.16953931132E+02  0.18228497913E+02  0.51100000000E-03 0. -1.
        -11    1    4    4    0    0  0.65405618512E+01 -0.31893745560E+01  0.26848250803E+02  0.27816894701E+02  0.51100000000E-03 0.  1.
        -12    1    4    4    0    0  0.34916850314E+00  0.43319593445E+01 -0.70966831172E+01  0.83217006478E+01  0.00000000000E+00 0.  1.
</event>
<event>
 8    1  0.2511738E-006  0.9118800E+02  0.7816164E-02  0.1184000E+00
        -11   -1    0    0    0    0  0.00000000000E+00  0.00000000000E+00  0.45593999997E+02  0.45594000000E+02  0.51100000000E-03 0.  1.
         11   -1    0    0    0    0 -0.00000000000E+00 -0.00000000000E+00 -0.45593999997E+02  0.45594000000E+02  0.51100000000E-03 0. -1.
         23    2    1    2    0    0 -0.35527136788E-14  0.88817841970E-15  0.71054273576E-14  0.91188000000E+02  0.91188000000E+02 0.  0.
    9900012    2    3    3    0    0  0.26486334050E+02 -0.50672622654E+01  0.25071426794E+02  0.54367089097E+02  0.40000011214E+02 0.  0.
         12    1    3    3    0    0 -0.26486334050E+02  0.50672622654E+01 -0.25071426794E+02  0.36820910903E+02  0.00000000000E+00 0. -1.
         11    1    4    4    0    0 -0.51849649708E+01  0.68915290499E+01 -0.11136535468E+01  0.86958184708E+01  0.51100000000E-03 0. -1.
        -11    1    4    4    0    0  0.19829089743E+02 -0.68370502321E+01  0.61796887986E+01  0.21866106416E+02  0.51100000000E-03 0.  1.
        -12    1    4    4    0    0  0.11842209278E+02 -0.51217410832E+01  0.20005391542E+02  0.23805164210E+02  0.00000000000E+00 0.  1.
</event>
<event>
 8    1  0.2511738E-006  0.9118800E+02  0.7816164E-02  0.1184000E+00
        -11   -1    0    0    0    0  0.00000000000E+00  0.00000000000E+00  0.45593999997E+02  0.45594000000E+02  0.51100000000E-03 0.  1.
         11   -1    0    0    0    0 -0.00000000000E+00 -0.00000000000E+00 -0.45593999997E+02  0.45594000000E+02  0.51100000000E-03 0. -1.
         23    2    1    2    0    0  0.35527136788E-14 -0.88817841970E-15 -0.35527136788E-14  0.91188000000E+02  0.91188000000E+02 0.  0.
    9900012    2    3    3    0    0  0.19529930415E+02 -0.55929326721E+01 -0.30709634470E+02  0.54367072157E+02  0.39999972597E+02 0.  0.
        -12    1    3    3    0    0 -0.19529930415E+02  0.55929326721E+01  0.30709634470E+02  0.36820927843E+02  0.00000000000E+00 0.  1.
         11    1    4    4    0    0 -0.33797494857E+01 -0.94875414791E+01 -0.76678416897E+01  0.12658275804E+02  0.51100000000E-03 0. -1.
        -11    1    4    4    0    0  0.22911452556E+02  0.82309402178E+01 -0.26629539710E+02  0.36080679325E+02  0.51100000000E-03 0.  1.
         12    1    4    4    0    0 -0.17726552844E-02 -0.43363314109E+01  0.35877469299E+01  0.56281170280E+01  0.00000000000E+00 0. -1.
</event>
<event>
 8    1  0.2511738E-006  0.9118800E+02  0.7816164E-02  0.1184000E+00
        -11   -1    0    0    0    0  0.00000000000E+00  0.00000000000E+00  0.45593999997E+02  0.45594000000E+02  0.51100000000E-03 0. -1.
         11   -1    0    0    0    0 -0.00000000000E+00 -0.00000000000E+00 -0.45593999997E+02  0.45594000000E+02  0.51100000000E-03 0.  1.
         23    2    1    2    0    0  0.00000000000E+00 -0.88817841970E-15  0.17763568394E-14  0.91188000000E+02  0.91188000000E+02 0.  0.
    9900012    2    3    3    0    0 -0.35989505046E+02  0.50600528405E+01 -0.59101699156E+01  0.54367099459E+02  0.40000034837E+02 0.  0.
         12    1    3    3    0    0  0.35989505046E+02 -0.50600528405E+01  0.59101699156E+01  0.36820900541E+02  0.00000000000E+00 0. -1.
         11    1    4    4    0    0  0.14904117994E+01  0.11011698460E+01 -0.12656999974E+01  0.22440809045E+01  0.51100000000E-03 0. -1.
        -11    1    4    4    0    0 -0.20512662888E+02  0.16168815256E+02 -0.13522676634E+02  0.29411948409E+02  0.51100000000E-03 0.  1.
        -12    1    4    4    0    0 -0.16967253957E+02 -0.12209932262E+02  0.88782067162E+01  0.22711070146E+02  0.00000000000E+00 0.  1.
</event>
<event>
 8    1  0.2511738E-006  0.9118800E+02  0.7816164E-02  0.1184000E+00
        -11   -1    0    0    0    0  0.00000000000E+00  0.00000000000E+00  0.45593999997E+02  0.45594000000E+02  0.51100000000E-03 0. -1.
         11   -1    0    0    0    0 -0.00000000000E+00 -0.00000000000E+00 -0.45593999997E+02  0.45594000000E+02  0.51100000000E-03 0.  1.
         23    2    1    2    0    0  0.00000000000E+00  0.00000000000E+00 -0.35527136788E-14  0.91188000000E+02  0.91188000000E+02 0.  0.
    9900012    2    3    3    0    0 -0.25225735441E+02  0.49692547486E+01 -0.26358037318E+02  0.54367117982E+02  0.40000077063E+02 0.  0.
         12    1    3    3    0    0  0.25225735441E+02 -0.49692547486E+01  0.26358037318E+02  0.36820882018E+02  0.00000000000E+00 0. -1.
         11    1    4    4    0    0 -0.20552756083E+02 -0.25124752884E+00  0.38908912582E+01  0.20919319849E+02  0.51100000000E-03 0. -1.
        -11    1    4    4    0    0 -0.35681823672E+01  0.13548409315E+01 -0.10296071176E+01  0.39531772580E+01  0.51100000000E-03 0.  1.
         12    1    4    4    0    0 -0.11047969916E+01  0.38656613460E+01 -0.29219321459E+02  0.29494620875E+02  0.00000000000E+00 0. -1.
</event>
<event>
 8    1  0.2511738E-006  0.9118800E+02  0.7816164E-02  0.1184000E+00
        -11   -1    0    0    0    0  0.00000000000E+00  0.00000000000E+00  0.45593999997E+02  0.45594000000E+02  0.51100000000E-03 0.  1.
         11   -1    0    0    0    0 -0.00000000000E+00 -0.00000000000E+00 -0.45593999997E+02  0.45594000000E+02  0.51100000000E-03 0. -1.
         23    2    1    2    0    0  0.00000000000E+00  0.35527136788E-14  0.17763568394E-14  0.91188000000E+02  0.91188000000E+02 0.  0.
    9900012    2    3    3    0    0 -0.24870970753E+02  0.25401510034E+02  0.95905059226E+01  0.54367086078E+02  0.40000004332E+02 0.  0.
         12    1    3    3    0    0  0.24870970753E+02 -0.25401510034E+02 -0.95905059226E+01  0.36820913922E+02  0.00000000000E+00 0. -1.
         11    1    4    4    0    0  0.42746741827E+01 -0.10886032572E+01 -0.14896412239E+01  0.46558487579E+01  0.51100000000E-03 0. -1.
        -11    1    4    4    0    0 -0.14534549240E+02  0.28620926208E+02  0.15505029789E+01  0.32137432977E+02  0.51100000000E-03 0.  1.
        -12    1    4    4    0    0 -0.14611095696E+02 -0.21308129169E+01  0.95296441676E+01  0.17573804343E+02  0.00000000000E+00 0.  1.
</event>
<event>
 8    1  0.2511738E-006  0.9118800E+02  0.7816164E-02  0.1184000E+00
        -11   -1    0    0    0    0  0.00000000000E+00  0.00000000000E+00  0.45593999997E+02  0.45594000000E+02  0.51100000000E-03 0.  1.
         11   -1    0    0    0    0 -0.00000000000E+00 -0.00000000000E+00 -0.45593999997E+02  0.45594000000E+02  0.51100000000E-03 0. -1.
         23    2    1    2    0    0  0.00000000000E+00  0.26645352591E-14  0.00000000000E+00  0.91188000000E+02  0.91188000000E+02 0.  0.
    9900012    2    3    3    0    0  0.32329459946E+02 -0.52157276827E+01 -0.16833913822E+02  0.54367103077E+02  0.40000043085E+02 0.  0.
        -12    1    3    3    0    0 -0.32329459946E+02  0.52157276827E+01  0.16833913822E+02  0.36820896923E+02  0.00000000000E+00 0.  1.
         11    1    4    4    0    0  0.30414349485E+01  0.12472487301E+02 -0.82208440463E+01  0.15244525021E+02  0.51100000000E-03 0. -1.
        -11    1    4    4    0    0  0.38873615819E+01 -0.81228296422E+00  0.44345315952E+01  0.59528526281E+01  0.51100000000E-03 0.  1.
        -12    1    4    4    0    0  0.25400663415E+02 -0.16875932019E+02 -0.13047601371E+02  0.33169725428E+02  0.00000000000E+00 0.  1.
</event>
<event>
 8    1  0.2511738E-006  0.9118800E+02  0.7816164E-02  0.1184000E+00
        -11   -1    0    0    0    0  0.00000000000E+00  0.00000000000E+00  0.45593999997E+02  0.45594000000E+02  0.51100000000E-03 0. -1.
         11   -1    0    0    0    0 -0.00000000000E+00 -0.00000000000E+00 -0.45593999997E+02  0.45594000000E+02  0.51100000000E-03 0.  1.
         23    2    1    2    0    0  0.11102230246E-15  0.00000000000E+00  0.00000000000E+00  0.91188000000E+02  0.91188000000E+02 0.  0.
    9900012    2    3    3    0    0 -0.43799738132E+00  0.35132168949E+02 -0.11014489956E+02  0.54367080325E+02  0.39999991216E+02 0.  0.
        -12    1    3    3    0    0  0.43799738132E+00 -0.35132168949E+02  0.11014489956E+02  0.36820919675E+02  0.00000000000E+00 0.  1.
         11    1    4    4    0    0  0.42915827062E+01  0.16863713815E+02 -0.30813380096E+01  0.17671931698E+02  0.51100000000E-03 0. -1.
        -11    1    4    4    0    0 -0.42657010217E+01  0.44191744771E+01 -0.18355639566E+02  0.19356001973E+02  0.51100000000E-03 0.  1.
        -12    1    4    4    0    0 -0.46387906579E+00  0.13849280657E+02  0.10422487619E+02  0.17339146653E+02  0.00000000000E+00 0.  1.
</event>
<event>
 8    1  0.2511738E-006  0.9118800E+02  0.7816164E-02  0.1184000E+00
        -11   -1    0    0    0    0  0.00000000000E+00  0.00000000000E+00  0.45593999997E+02  0.45594000000E+02  0.51100000000E-03 0.  1.
         11   -1    0    0    0    0 -0.00000000000E+00 -0.00000000000E+00 -0.45593999997E+02  0.45594000000E+02  0.51100000000E-03 0. -1.
         23    2    1    2    0    0  0.00000000000E+00  0.00000000000E+00  0.00000000000E+00  0.91188000000E+02  0.91188000000E+02 0.  0.
    9900012    2    3    3    0    0 -0.11710501750E+02 -0.15800677184E+02 -0.31128488467E+02  0.54367081422E+02  0.39999993717E+02 0.  0.
        -12    1    3    3    0    0  0.11710501750E+02  0.15800677184E+02  0.31128488467E+02  0.36820918578E+02  0.00000000000E+00 0.  1.
         11    1    4    4    0    0 -0.53490178412E+01 -0.14467237009E+01 -0.17619584578E+02  0.18470375261E+02  0.51100000000E-03 0. -1.
        -11    1    4    4    0    0 -0.14604529913E+02 -0.18260798912E+02 -0.61539594420E+01  0.24178922391E+02  0.51100000000E-03 0.  1.
         12    1    4    4    0    0  0.82430460051E+01  0.39068454294E+01 -0.73549444470E+01  0.11717783770E+02  0.00000000000E+00 0. -1.
</event>
<event>
 8    1  0.2511738E-006  0.9118800E+02  0.7816164E-02  0.1184000E+00
        -11   -1    0    0    0    0  0.00000000000E+00  0.00000000000E+00  0.45593999997E+02  0.45594000000E+02  0.51100000000E-03 0. -1.
         11   -1    0    0    0    0 -0.00000000000E+00 -0.00000000000E+00 -0.45593999997E+02  0.45594000000E+02  0.51100000000E-03 0.  1.
         23    2    1    2    0    0  0.35527136788E-14  0.00000000000E+00 -0.17763568394E-14  0.91188000000E+02  0.91188000000E+02 0.  0.
    9900012    2    3    3    0    0 -0.29372457847E+02 -0.18928557458E+02  0.11608090862E+02  0.54367090983E+02  0.40000015513E+02 0.  0.
        -12    1    3    3    0    0  0.29372457847E+02  0.18928557458E+02 -0.11608090862E+02  0.36820909017E+02  0.00000000000E+00 0.  1.
         11    1    4    4    0    0 -0.13689917442E+01 -0.15514482944E+02  0.97712786675E+01  0.18386168891E+02  0.51100000000E-03 0. -1.
        -11    1    4    4    0    0 -0.34984428754E+01 -0.90847388324E+01 -0.33571323036E+01  0.10297665744E+02  0.51100000000E-03 0.  1.
         12    1    4    4    0    0 -0.24505023227E+02  0.56706643188E+01  0.51939444982E+01  0.25683256348E+02  0.00000000000E+00 0. -1.
</event>
<event>
 8    1  0.2511738E-006  0.9118800E+02  0.7816164E-02  0.1184000E+00
        -11   -1    0    0    0    0  0.00000000000E+00  0.00000000000E+00  0.45593999997E+02  0.45594000000E+02  0.51100000000E-03 0.  1.
         11   -1    0    0    0    0 -0.00000000000E+00 -0.00000000000E+00 -0.45593999997E+02  0.45594000000E+02  0.51100000000E-03 0. -1.
         23    2    1    2    0    0  0.00000000000E+00  0.00000000000E+00  0.00000000000E+00  0.91188000000E+02  0.91188000000E+02 0.  0.
    9900012    2    3    3    0    0 -0.27571733443E+02  0.10219648583E+02  0.22161621130E+02  0.54367093529E+02  0.40000021318E+02 0.  0.
         12    1    3    3    0    0  0.27571733443E+02 -0.10219648583E+02 -0.22161621130E+02  0.36820906471E+02  0.00000000000E+00 0. -1.
         11    1    4    4    0    0  0.16513916304E+01  0.14876894100E+02  0.93370607741E+01  0.17641705602E+02  0.51100000000E-03 0. -1.
        -11    1    4    4    0    0 -0.80493730938E+01 -0.21472647834E+01  0.12955644579E+02  0.15402982827E+02  0.51100000000E-03 0.  1.
         12    1    4    4    0    0 -0.21173751980E+02 -0.25099807335E+01 -0.13108422300E+00  0.21322405100E+02  0.00000000000E+00 0. -1.
</event>
<event>
 8    1  0.2511738E-006  0.9118800E+02  0.7816164E-02  0.1184000E+00
        -11   -1    0    0    0    0  0.00000000000E+00  0.00000000000E+00  0.45593999997E+02  0.45594000000E+02  0.51100000000E-03 0.  1.
         11   -1    0    0    0    0 -0.00000000000E+00 -0.00000000000E+00 -0.45593999997E+02  0.45594000000E+02  0.51100000000E-03 0. -1.
         23    2    1    2    0    0  0.71054273576E-14  0.00000000000E+00 -0.88817841970E-15  0.91188000000E+02  0.91188000000E+02 0.  0.
    9900012    2    3    3    0    0  0.30405546644E+02 -0.20325442577E+02 -0.42613150256E+01  0.54367086263E+02  0.40000004754E+02 0.  0.
        -12    1    3    3    0    0 -0.30405546644E+02  0.20325442577E+02  0.42613150256E+01  0.36820913737E+02  0.00000000000E+00 0.  1.
         11    1    4    4    0    0 -0.19238433885E+01  0.23781469772E+01 -0.24365342537E+01  0.39106848325E+01  0.51100000000E-03 0. -1.
        -11    1    4    4    0    0  0.14613107388E+02  0.21283076188E+01  0.98978460763E+01  0.17777512708E+02  0.51100000000E-03 0.  1.
         12    1    4    4    0    0  0.17716282644E+02 -0.24831897173E+02 -0.11722626848E+02  0.32678888723E+02  0.00000000000E+00 0. -1.
</event>
<event>
 8    1  0.2511738E-006  0.9118800E+02  0.7816164E-02  0.1184000E+00
        -11   -1    0    0    0    0  0.00000000000E+00  0.00000000000E+00  0.45593999997E+02  0.45594000000E+02  0.51100000000E-03 0.  1.
         11   -1    0    0    0    0 -0.00000000000E+00 -0.00000000000E+00 -0.45593999997E+02  0.45594000000E+02  0.51100000000E-03 0. -1.
         23    2    1    2    0    0  0.35527136788E-14  0.00000000000E+00  0.00000000000E+00  0.91188000000E+02  0.91188000000E+02 0.  0.
    9900012    2    3    3    0    0  0.21881281068E+02  0.23623908153E+02  0.17857726492E+02  0.54367110642E+02  0.40000060331E+02 0.  0.
         12    1    3    3    0    0 -0.21881281068E+02 -0.23623908153E+02 -0.17857726492E+02  0.36820889358E+02  0.00000000000E+00 0. -1.
         11    1    4    4    0    0  0.72968088849E+01  0.12929178971E+02 -0.37696880032E+01  0.15317233323E+02  0.51100000000E-03 0. -1.
        -11    1    4    4    0    0  0.55412063424E+00  0.12504020342E+02 -0.79093922868E+00  0.12541258290E+02  0.51100000000E-03 0.  1.
        -12    1    4    4    0    0  0.14030351549E+02 -0.18092911596E+01  0.22418353724E+02  0.26508619029E+02  0.00000000000E+00 0.  1.
</event>
<event>
 8    1  0.2511738E-006  0.9118800E+02  0.7816164E-02  0.1184000E+00
        -11   -1    0    0    0    0  0.00000000000E+00  0.00000000000E+00  0.45593999997E+02  0.45594000000E+02  0.51100000000E-03 0.  1.
         11   -1    0    0    0    0 -0.00000000000E+00 -0.00000000000E+00 -0.45593999997E+02  0.45594000000E+02  0.51100000000E-03 0. -1.
         23    2    1    2    0    0  0.44408920985E-15  0.88817841970E-15  0.00000000000E+00  0.91188000000E+02  0.91188000000E+02 0.  0.
    9900012    2    3    3    0    0  0.24422084170E+01  0.45326403615E+01 -0.36459184093E+02  0.54367064171E+02  0.39999954390E+02 0.  0.
        -12    1    3    3    0    0 -0.24422084170E+01 -0.45326403615E+01  0.36459184093E+02  0.36820935829E+02  0.00000000000E+00 0.  1.
         11    1    4    4    0    0  0.14257860639E+02 -0.32375398690E+01 -0.16599967635E+02  0.22120740949E+02  0.51100000000E-03 0. -1.
        -11    1    4    4    0    0 -0.77349497560E+01  0.13803719559E+02 -0.66537612042E+01  0.17165216568E+02  0.51100000000E-03 0.  1.
         12    1    4    4    0    0 -0.40807024657E+01 -0.60335393287E+01 -0.13205455254E+02  0.15081106654E+02  0.00000000000E+00 0. -1.
</event>
<event>
 8    1  0.2511738E-006  0.9118800E+02  0.7816164E-02  0.1184000E+00
        -11   -1    0    0    0    0  0.00000000000E+00  0.00000000000E+00  0.45593999997E+02  0.45594000000E+02  0.51100000000E-03 0.  1.
         11   -1    0    0    0    0 -0.00000000000E+00 -0.00000000000E+00 -0.45593999997E+02  0.45594000000E+02  0.51100000000E-03 0. -1.
         23    2    1    2    0    0  0.00000000000E+00  0.71054273576E-14  0.00000000000E+00  0.91188000000E+02  0.91188000000E+02 0.  0.
    9900012    2    3    3    0    0 -0.16643925860E+02 -0.32349148026E+02  0.56825750403E+01  0.54367091468E+02  0.40000016620E+02 0.  0.
         12    1    3    3    0    0  0.16643925860E+02  0.32349148026E+02 -0.56825750403E+01  0.36820908532E+02  0.00000000000E+00 0. -1.
         11    1    4    4    0    0 -0.25933038529E+02 -0.15411720795E+02  0.11892882660E+01  0.30190363232E+02  0.51100000000E-03 0.  1.
        -11    1    4    4    0    0  0.64583160087E+01 -0.18814052454E+02  0.54932580188E+01  0.20636237528E+02  0.51100000000E-03 0. -1.
         12    1    4    4    0    0  0.28307966608E+01  0.18766252232E+01 -0.99997124457E+00  0.35404907079E+01  0.00000000000E+00 0. -1.
</event>
<event>
 8    1  0.2511738E-006  0.9118800E+02  0.7816164E-02  0.1184000E+00
        -11   -1    0    0    0    0  0.00000000000E+00  0.00000000000E+00  0.45593999997E+02  0.45594000000E+02  0.51100000000E-03 0. -1.
         11   -1    0    0    0    0 -0.00000000000E+00 -0.00000000000E+00 -0.45593999997E+02  0.45594000000E+02  0.51100000000E-03 0.  1.
         23    2    1    2    0    0  0.00000000000E+00 -0.35527136788E-14  0.35527136788E-14  0.91188000000E+02  0.91188000000E+02 0.  0.
    9900012    2    3    3    0    0  0.10722525051E+02  0.25695293386E+02  0.24094840451E+02  0.54367055118E+02  0.39999933753E+02 0.  0.
        -12    1    3    3    0    0 -0.10722525051E+02 -0.25695293386E+02 -0.24094840451E+02  0.36820944882E+02  0.00000000000E+00 0.  1.
         11    1    4    4    0    0  0.24275992303E+01  0.10726154282E+02  0.15102755492E+02  0.18682527865E+02  0.51100000000E-03 0. -1.
        -11    1    4    4    0    0  0.98687809250E+01  0.86644244822E+01  0.19392592049E+02  0.23420882033E+02  0.51100000000E-03 0.  1.
        -12    1    4    4    0    0 -0.15738551040E+01  0.63047146212E+01 -0.10400507091E+02  0.12263645220E+02  0.00000000000E+00 0.  1.
</event>
<event>
 8    1  0.2511738E-006  0.9118800E+02  0.7816164E-02  0.1184000E+00
        -11   -1    0    0    0    0  0.00000000000E+00  0.00000000000E+00  0.45593999997E+02  0.45594000000E+02  0.51100000000E-03 0.  1.
         11   -1    0    0    0    0 -0.00000000000E+00 -0.00000000000E+00 -0.45593999997E+02  0.45594000000E+02  0.51100000000E-03 0. -1.
         23    2    1    2    0    0 -0.35527136788E-14  0.13322676296E-14  0.00000000000E+00  0.91188000000E+02  0.91188000000E+02 0.  0.
    9900012    2    3    3    0    0 -0.19775336157E+02 -0.35417789268E+01 -0.30857269384E+02  0.54367093006E+02  0.40000020125E+02 0.  0.
        -12    1    3    3    0    0  0.19775336157E+02  0.35417789268E+01  0.30857269384E+02  0.36820906994E+02  0.00000000000E+00 0.  1.
         11    1    4    4    0    0 -0.15839281831E+02 -0.12784085999E+02 -0.79116100064E+01  0.21838252606E+02  0.51100000000E-03 0. -1.
        -11    1    4    4    0    0 -0.76471806584E+01  0.96501603566E+01 -0.36029523667E+01  0.12829116608E+02  0.51100000000E-03 0.  1.
        -12    1    4    4    0    0  0.37111263324E+01 -0.40785328462E+00 -0.19342707011E+02  0.19699723791E+02  0.00000000000E+00 0.  1.
</event>
<event>
 8    1  0.2511738E-006  0.9118800E+02  0.7816164E-02  0.1184000E+00
        -11   -1    0    0    0    0  0.00000000000E+00  0.00000000000E+00  0.45593999997E+02  0.45594000000E+02  0.51100000000E-03 0. -1.
         11   -1    0    0    0    0 -0.00000000000E+00 -0.00000000000E+00 -0.45593999997E+02  0.45594000000E+02  0.51100000000E-03 0.  1.
         23    2    1    2    0    0  0.00000000000E+00  0.00000000000E+00  0.17763568394E-14  0.91188000000E+02  0.91188000000E+02 0.  0.
    9900012    2    3    3    0    0  0.21650023736E+02  0.25940109739E+02 -0.14634429423E+02  0.54367090919E+02  0.40000015367E+02 0.  0.
         12    1    3    3    0    0 -0.21650023736E+02 -0.25940109739E+02  0.14634429423E+02  0.36820909081E+02  0.00000000000E+00 0. -1.
         11    1    4    4    0    0  0.50947932206E+01 -0.70063179709E+01  0.41344706236E+01  0.95989195782E+01  0.51100000000E-03 0. -1.
        -11    1    4    4    0    0 -0.19652013681E+01  0.13546233053E+02 -0.46395570878E+01  0.14452955980E+02  0.51100000000E-03 0.  1.
         12    1    4    4    0    0  0.18520431883E+02  0.19400194657E+02 -0.14129342959E+02  0.30315215360E+02  0.00000000000E+00 0. -1.
</event>
<event>
 8    1  0.2511738E-006  0.9118800E+02  0.7816164E-02  0.1184000E+00
        -11   -1    0    0    0    0  0.00000000000E+00  0.00000000000E+00  0.45593999997E+02  0.45594000000E+02  0.51100000000E-03 0.  1.
         11   -1    0    0    0    0 -0.00000000000E+00 -0.00000000000E+00 -0.45593999997E+02  0.45594000000E+02  0.51100000000E-03 0. -1.
         23    2    1    2    0    0  0.35527136788E-14  0.00000000000E+00  0.00000000000E+00  0.91188000000E+02  0.91188000000E+02 0.  0.
    9900012    2    3    3    0    0 -0.26636021212E+02 -0.17147162896E+02 -0.18769051489E+02  0.54367080468E+02  0.39999991543E+02 0.  0.
        -12    1    3    3    0    0  0.26636021212E+02  0.17147162896E+02  0.18769051489E+02  0.36820919532E+02  0.00000000000E+00 0.  1.
         11    1    4    4    0    0 -0.80537233771E+01  0.52714107030E+01 -0.94696245375E+01  0.13502741210E+02  0.51100000000E-03 0. -1.
        -11    1    4    4    0    0  0.53904645603E+01 -0.10394350044E+02  0.17858661312E+01  0.11844363179E+02  0.51100000000E-03 0.  1.
        -12    1    4    4    0    0 -0.23972762395E+02 -0.12024223556E+02 -0.11085293082E+02  0.29019976080E+02  0.00000000000E+00 0.  1.
</event>
<event>
 8    1  0.2511738E-006  0.9118800E+02  0.7816164E-02  0.1184000E+00
        -11   -1    0    0    0    0  0.00000000000E+00  0.00000000000E+00  0.45593999997E+02  0.45594000000E+02  0.51100000000E-03 0.  1.
         11   -1    0    0    0    0 -0.00000000000E+00 -0.00000000000E+00 -0.45593999997E+02  0.45594000000E+02  0.51100000000E-03 0. -1.
         23    2    1    2    0    0 -0.35527136788E-14  0.35527136788E-14  0.00000000000E+00  0.91188000000E+02  0.91188000000E+02 0.  0.
    9900012    2    3    3    0    0 -0.12360190650E+02  0.28791651713E+02  0.19340295732E+02  0.54367074424E+02  0.39999977765E+02 0.  0.
         12    1    3    3    0    0  0.12360190650E+02 -0.28791651713E+02 -0.19340295732E+02  0.36820925576E+02  0.00000000000E+00 0. -1.
         11    1    4    4    0    0  0.45628319446E+00  0.13675758444E+02 -0.76195488862E+01  0.15661803500E+02  0.51100000000E-03 0. -1.
        -11    1    4    4    0    0  0.37543198066E+01  0.89088909820E+01  0.12808223402E+02  0.16047237853E+02  0.51100000000E-03 0.  1.
        -12    1    4    4    0    0 -0.16570793651E+02  0.62070022864E+01  0.14151621216E+02  0.22658033071E+02  0.00000000000E+00 0.  1.
</event>
<event>
 8    1  0.2511738E-006  0.9118800E+02  0.7816164E-02  0.1184000E+00
        -11   -1    0    0    0    0  0.00000000000E+00  0.00000000000E+00  0.45593999997E+02  0.45594000000E+02  0.51100000000E-03 0. -1.
         11   -1    0    0    0    0 -0.00000000000E+00 -0.00000000000E+00 -0.45593999997E+02  0.45594000000E+02  0.51100000000E-03 0.  1.
         23    2    1    2    0    0  0.35527136788E-14  0.35527136788E-14  0.00000000000E+00  0.91188000000E+02  0.91188000000E+02 0.  0.
    9900012    2    3    3    0    0 -0.14890990128E+02 -0.25626737928E+02 -0.21847382078E+02  0.54367090350E+02  0.40000014071E+02 0.  0.
         12    1    3    3    0    0  0.14890990128E+02  0.25626737928E+02  0.21847382078E+02  0.36820909650E+02  0.00000000000E+00 0. -1.
         11    1    4    4    0    0 -0.20135391521E+01  0.21624693101E+01  0.68536780156E+01  0.74634788160E+01  0.51100000000E-03 0. -1.
        -11    1    4    4    0    0  0.36044196533E+01 -0.98689109967E+01 -0.16771877410E+02  0.19790985761E+02  0.51100000000E-03 0.  1.
        -12    1    4    4    0    0 -0.16481870629E+02 -0.17920296241E+02 -0.11929182683E+02  0.27112625773E+02  0.00000000000E+00 0.  1.
</event>
<event>
 8    1  0.2511738E-006  0.9118800E+02  0.7816164E-02  0.1184000E+00
        -11   -1    0    0    0    0  0.00000000000E+00  0.00000000000E+00  0.45593999997E+02  0.45594000000E+02  0.51100000000E-03 0. -1.
         11   -1    0    0    0    0 -0.00000000000E+00 -0.00000000000E+00 -0.45593999997E+02  0.45594000000E+02  0.51100000000E-03 0.  1.
         23    2    1    2    0    0 -0.17763568394E-14  0.35527136788E-14  0.17763568394E-14  0.91188000000E+02  0.91188000000E+02 0.  0.
    9900012    2    3    3    0    0  0.15684451718E+02  0.30667444473E+02 -0.13010615135E+02  0.54367213990E+02  0.40000295932E+02 0.  0.
        -12    1    3    3    0    0 -0.15684451718E+02 -0.30667444473E+02  0.13010615135E+02  0.36820786010E+02  0.00000000000E+00 0.  1.
         11    1    4    4    0    0  0.12817679215E+01  0.28052482703E+02  0.16344465222E+01  0.28129275328E+02  0.51100000000E-03 0. -1.
        -11    1    4    4    0    0  0.14868685698E+02  0.59861622024E+01 -0.15931917455E+02  0.22599512082E+02  0.51100000000E-03 0.  1.
         12    1    4    4    0    0 -0.46600190170E+00 -0.33712004326E+01  0.12868557976E+01  0.36384265793E+01  0.00000000000E+00 0. -1.
</event>
<event>
 8    1  0.2511738E-006  0.9118800E+02  0.7816164E-02  0.1184000E+00
        -11   -1    0    0    0    0  0.00000000000E+00  0.00000000000E+00  0.45593999997E+02  0.45594000000E+02  0.51100000000E-03 0. -1.
         11   -1    0    0    0    0 -0.00000000000E+00 -0.00000000000E+00 -0.45593999997E+02  0.45594000000E+02  0.51100000000E-03 0.  1.
         23    2    1    2    0    0  0.00000000000E+00  0.00000000000E+00  0.49960036108E-15  0.91188000000E+02  0.91188000000E+02 0.  0.
    9900012    2    3    3    0    0 -0.19349126399E+02  0.31324075118E+02  0.43994919336E+00  0.54367082987E+02  0.39999997285E+02 0.  0.
        -12    1    3    3    0    0  0.19349126399E+02 -0.31324075118E+02 -0.43994919336E+00  0.36820917013E+02  0.00000000000E+00 0.  1.
         11    1    4    4    0    0 -0.63039355569E+01  0.98830166901E+01 -0.79946337170E+01  0.14189002464E+02  0.51100000000E-03 0. -1.
        -11    1    4    4    0    0 -0.14837556670E+02  0.11068257445E+02 -0.83964632679E+01  0.20326337754E+02  0.51100000000E-03 0.  1.
         12    1    4    4    0    0  0.17923658281E+01  0.10372800983E+02  0.16831046178E+02  0.19851742769E+02  0.00000000000E+00 0. -1.
</event>
<event>
 8    1  0.2511738E-006  0.9118800E+02  0.7816164E-02  0.1184000E+00
        -11   -1    0    0    0    0  0.00000000000E+00  0.00000000000E+00  0.45593999997E+02  0.45594000000E+02  0.51100000000E-03 0.  1.
         11   -1    0    0    0    0 -0.00000000000E+00 -0.00000000000E+00 -0.45593999997E+02  0.45594000000E+02  0.51100000000E-03 0. -1.
         23    2    1    2    0    0  0.00000000000E+00  0.35527136788E-14  0.00000000000E+00  0.91188000000E+02  0.91188000000E+02 0.  0.
    9900012    2    3    3    0    0  0.29336470502E+02 -0.20591787026E+02 -0.84337546584E+01  0.54367103595E+02  0.40000044265E+02 0.  0.
        -12    1    3    3    0    0 -0.29336470502E+02  0.20591787026E+02  0.84337546584E+01  0.36820896405E+02  0.00000000000E+00 0.  1.
         11    1    4    4    0    0 -0.71692185372E+00 -0.32935609501E+01 -0.63604890238E+01  0.71984263252E+01  0.51100000000E-03 0. -1.
        -11    1    4    4    0    0 -0.28761299003E+01 -0.78231678246E+01  0.78970209156E+01  0.11482030205E+02  0.51100000000E-03 0.  1.
        -12    1    4    4    0    0  0.32929522256E+02 -0.94750582512E+01 -0.99702865501E+01  0.35686647065E+02  0.00000000000E+00 0.  1.
</event>
<event>
 8    1  0.2511738E-006  0.9118800E+02  0.7816164E-02  0.1184000E+00
        -11   -1    0    0    0    0  0.00000000000E+00  0.00000000000E+00  0.45593999997E+02  0.45594000000E+02  0.51100000000E-03 0. -1.
         11   -1    0    0    0    0 -0.00000000000E+00 -0.00000000000E+00 -0.45593999997E+02  0.45594000000E+02  0.51100000000E-03 0.  1.
         23    2    1    2    0    0  0.17763568394E-14  0.00000000000E+00  0.00000000000E+00  0.91188000000E+02  0.91188000000E+02 0.  0.
    9900012    2    3    3    0    0  0.15606002274E+02  0.13341146220E+02 -0.30565429027E+02  0.54367096412E+02  0.40000027891E+02 0.  0.
         12    1    3    3    0    0 -0.15606002274E+02 -0.13341146220E+02  0.30565429027E+02  0.36820903588E+02  0.00000000000E+00 0. -1.
         11    1    4    4    0    0 -0.17456093492E+01  0.16677673754E+02 -0.14865374208E+02  0.22409179022E+02  0.51100000000E-03 0. -1.
        -11    1    4    4    0    0 -0.88562821898E+00 -0.25575411579E+01 -0.13269773570E+02  0.13542977700E+02  0.51100000000E-03 0.  1.
         12    1    4    4    0    0  0.18237239842E+02 -0.77898637606E+00 -0.24302812485E+01  0.18414939690E+02  0.00000000000E+00 0. -1.
</event>
<event>
 8    1  0.2511738E-006  0.9118800E+02  0.7816164E-02  0.1184000E+00
        -11   -1    0    0    0    0  0.00000000000E+00  0.00000000000E+00  0.45593999997E+02  0.45594000000E+02  0.51100000000E-03 0.  1.
         11   -1    0    0    0    0 -0.00000000000E+00 -0.00000000000E+00 -0.45593999997E+02  0.45594000000E+02  0.51100000000E-03 0. -1.
         23    2    1    2    0    0  0.00000000000E+00 -0.17763568394E-14  0.00000000000E+00  0.91188000000E+02  0.91188000000E+02 0.  0.
    9900012    2    3    3    0    0  0.34258352989E+02 -0.12906011477E+02 -0.39471700840E+01  0.54367081578E+02  0.39999994072E+02 0.  0.
         12    1    3    3    0    0 -0.34258352989E+02  0.12906011477E+02  0.39471700840E+01  0.36820918422E+02  0.00000000000E+00 0. -1.
         11    1    4    4    0    0  0.66993341183E+01 -0.60362427602E+01  0.76833130682E+01  0.11846966036E+02  0.51100000000E-03 0. -1.
        -11    1    4    4    0    0  0.10210229685E+02 -0.17551968307E+02 -0.80034405032E+01  0.21826026707E+02  0.51100000000E-03 0.  1.
         12    1    4    4    0    0  0.17348789186E+02  0.10682199590E+02 -0.36270426491E+01  0.20694088834E+02  0.00000000000E+00 0. -1.
</event>
<event>
 8    1  0.2511738E-006  0.9118800E+02  0.7816164E-02  0.1184000E+00
        -11   -1    0    0    0    0  0.00000000000E+00  0.00000000000E+00  0.45593999997E+02  0.45594000000E+02  0.51100000000E-03 0.  1.
         11   -1    0    0    0    0 -0.00000000000E+00 -0.00000000000E+00 -0.45593999997E+02  0.45594000000E+02  0.51100000000E-03 0. -1.
         23    2    1    2    0    0  0.00000000000E+00  0.00000000000E+00  0.00000000000E+00  0.91188000000E+02  0.91188000000E+02 0.  0.
    9900012    2    3    3    0    0  0.34602011006E+02  0.87584345843E+01 -0.90427841229E+01  0.54367064560E+02  0.39999955277E+02 0.  0.
        -12    1    3    3    0    0 -0.34602011006E+02 -0.87584345843E+01  0.90427841229E+01  0.36820935440E+02  0.00000000000E+00 0.  1.
         11    1    4    4    0    0  0.38460480423E+02  0.85202036756E+01 -0.28330963609E+01  0.39494668758E+02  0.51100000000E-03 0. -1.
        -11    1    4    4    0    0 -0.39193732010E-01  0.63025109015E+01 -0.35094045533E+01  0.72138131658E+01  0.51100000000E-03 0.  1.
         12    1    4    4    0    0 -0.38192756853E+01 -0.60642799928E+01 -0.27002832087E+01  0.76585826364E+01  0.00000000000E+00 0. -1.
</event>
<event>
 8    1  0.2511738E-006  0.9118800E+02  0.7816164E-02  0.1184000E+00
        -11   -1    0    0    0    0  0.00000000000E+00  0.00000000000E+00  0.45593999997E+02  0.45594000000E+02  0.51100000000E-03 0.  1.
         11   -1    0    0    0    0 -0.00000000000E+00 -0.00000000000E+00 -0.45593999997E+02  0.45594000000E+02  0.51100000000E-03 0. -1.
         23    2    1    2    0    0  0.00000000000E+00 -0.88817841970E-15  0.00000000000E+00  0.91188000000E+02  0.91188000000E+02 0.  0.
    9900012    2    3    3    0    0  0.32355489744E+02 -0.68263378563E+01 -0.16195748324E+02  0.54367097392E+02  0.40000030124E+02 0.  0.
        -12    1    3    3    0    0 -0.32355489744E+02  0.68263378563E+01  0.16195748324E+02  0.36820902608E+02  0.00000000000E+00 0.  1.
         11    1    4    4    0    0  0.16674031468E+02 -0.67953419237E+01 -0.11801776397E+02  0.21528630324E+02  0.51100000000E-03 0. -1.
        -11    1    4    4    0    0  0.53696145218E+01  0.13924145600E+02  0.62127986558E-01  0.14923754587E+02  0.51100000000E-03 0.  1.
        -12    1    4    4    0    0  0.10311843755E+02 -0.13955141533E+02 -0.44560999132E+01  0.17914712481E+02  0.00000000000E+00 0.  1.
</event>
<event>
 8    1  0.2511738E-006  0.9118800E+02  0.7816164E-02  0.1184000E+00
        -11   -1    0    0    0    0  0.00000000000E+00  0.00000000000E+00  0.45593999997E+02  0.45594000000E+02  0.51100000000E-03 0.  1.
         11   -1    0    0    0    0 -0.00000000000E+00 -0.00000000000E+00 -0.45593999997E+02  0.45594000000E+02  0.51100000000E-03 0. -1.
         23    2    1    2    0    0 -0.71054273576E-14  0.00000000000E+00  0.00000000000E+00  0.91188000000E+02  0.91188000000E+02 0.  0.
    9900012    2    3    3    0    0 -0.34000570458E+02 -0.48861707469E+01  0.13261469951E+02  0.54367081471E+02  0.39999993830E+02 0.  0.
         12    1    3    3    0    0  0.34000570458E+02  0.48861707469E+01 -0.13261469951E+02  0.36820918529E+02  0.00000000000E+00 0. -1.
         11    1    4    4    0    0 -0.56064564075E+01 -0.12460117959E+02 -0.38167448057E+01  0.14186417242E+02  0.51100000000E-03 0. -1.
        -11    1    4    4    0    0 -0.29256751224E+02  0.18941201958E+01  0.98090984129E+01  0.30915426496E+02  0.51100000000E-03 0.  1.
         12    1    4    4    0    0  0.86263717356E+00  0.56798270161E+01  0.72691163436E+01  0.92652377326E+01  0.00000000000E+00 0. -1.
</event>
<event>
 8    1  0.2511738E-006  0.9118800E+02  0.7816164E-02  0.1184000E+00
        -11   -1    0    0    0    0  0.00000000000E+00  0.00000000000E+00  0.45593999997E+02  0.45594000000E+02  0.51100000000E-03 0.  1.
         11   -1    0    0    0    0 -0.00000000000E+00 -0.00000000000E+00 -0.45593999997E+02  0.45594000000E+02  0.51100000000E-03 0. -1.
         23    2    1    2    0    0 -0.44408920985E-15  0.00000000000E+00  0.00000000000E+00  0.91188000000E+02  0.91188000000E+02 0.  0.
    9900012    2    3    3    0    0 -0.32798489264E+01 -0.21760670119E+02  0.29521038417E+02  0.54367137948E+02  0.40000122580E+02 0.  0.
         12    1    3    3    0    0  0.32798489264E+01  0.21760670119E+02 -0.29521038417E+02  0.36820862052E+02  0.00000000000E+00 0. -1.
         11    1    4    4    0    0  0.29592461933E+01  0.46259139707E+01  0.28473807885E+01  0.61857736552E+01  0.51100000000E-03 0. -1.
        -11    1    4    4    0    0 -0.93108326547E+01 -0.19057988696E+02  0.92120801865E+00  0.21230806917E+02  0.51100000000E-03 0.  1.
        -12    1    4    4    0    0  0.30717375350E+01 -0.73285953937E+01  0.25752449610E+02  0.26950557376E+02  0.00000000000E+00 0.  1.
</event>
<event>
 8    1  0.2511738E-006  0.9118800E+02  0.7816164E-02  0.1184000E+00
        -11   -1    0    0    0    0  0.00000000000E+00  0.00000000000E+00  0.45593999997E+02  0.45594000000E+02  0.51100000000E-03 0. -1.
         11   -1    0    0    0    0 -0.00000000000E+00 -0.00000000000E+00 -0.45593999997E+02  0.45594000000E+02  0.51100000000E-03 0.  1.
         23    2    1    2    0    0  0.00000000000E+00  0.00000000000E+00  0.00000000000E+00  0.91188000000E+02  0.91188000000E+02 0.  0.
    9900012    2    3    3    0    0 -0.32847462656E+02 -0.37801945352E+01 -0.16202921276E+02  0.54367077530E+02  0.39999984846E+02 0.  0.
         12    1    3    3    0    0  0.32847462656E+02  0.37801945352E+01  0.16202921276E+02  0.36820922470E+02  0.00000000000E+00 0. -1.
         11    1    4    4    0    0 -0.18963585750E+01  0.32499290654E+01 -0.25003755027E+01  0.45177530577E+01  0.51100000000E-03 0. -1.
        -11    1    4    4    0    0 -0.22380579008E+02  0.13138463673E+02 -0.87002051473E+01  0.27371574933E+02  0.51100000000E-03 0.  1.
         12    1    4    4    0    0 -0.85705250726E+01 -0.20168587274E+02 -0.50023406261E+01  0.22477749540E+02  0.00000000000E+00 0. -1.
</event>
<event>
 8    1  0.2511738E-006  0.9118800E+02  0.7816164E-02  0.1184000E+00
        -11   -1    0    0    0    0  0.00000000000E+00  0.00000000000E+00  0.45593999997E+02  0.45594000000E+02  0.51100000000E-03 0. -1.
         11   -1    0    0    0    0 -0.00000000000E+00 -0.00000000000E+00 -0.45593999997E+02  0.45594000000E+02  0.51100000000E-03 0.  1.
         23    2    1    2    0    0  0.35527136788E-14  0.18873791419E-14  0.35527136788E-14  0.91188000000E+02  0.91188000000E+02 0.  0.
    9900012    2    3    3    0    0 -0.18852276878E+02 -0.58615840044E+00  0.31623245882E+02  0.54367060234E+02  0.39999945415E+02 0.  0.
        -12    1    3    3    0    0  0.18852276878E+02  0.58615840044E+00 -0.31623245882E+02  0.36820939766E+02  0.00000000000E+00 0.  1.
         11    1    4    4    0    0 -0.17424096339E+02 -0.19448835657E+01  0.12273112302E+02  0.21401191349E+02  0.51100000000E-03 0. -1.
        -11    1    4    4    0    0  0.22928353614E+01  0.13141021338E+02  0.55651669000E+01  0.14453879019E+02  0.51100000000E-03 0.  1.
        -12    1    4    4    0    0 -0.37210159007E+01 -0.11782296173E+02  0.13784966680E+02  0.18511989866E+02  0.00000000000E+00 0.  1.
</event>
<event>
 8    1  0.2511738E-006  0.9118800E+02  0.7816164E-02  0.1184000E+00
        -11   -1    0    0    0    0  0.00000000000E+00  0.00000000000E+00  0.45593999997E+02  0.45594000000E+02  0.51100000000E-03 0. -1.
         11   -1    0    0    0    0 -0.00000000000E+00 -0.00000000000E+00 -0.45593999997E+02  0.45594000000E+02  0.51100000000E-03 0.  1.
         23    2    1    2    0    0  0.00000000000E+00  0.00000000000E+00 -0.35527136788E-14  0.91188000000E+02  0.91188000000E+02 0.  0.
    9900012    2    3    3    0    0  0.17117336808E+02 -0.92613918862E+01  0.31257061612E+02  0.54367075247E+02  0.39999979640E+02 0.  0.
        -12    1    3    3    0    0 -0.17117336808E+02  0.92613918862E+01 -0.31257061612E+02  0.36820924753E+02  0.00000000000E+00 0.  1.
         11    1    4    4    0    0  0.18666388784E+02 -0.23116640523E+01  0.28174006743E+02  0.33875544529E+02  0.51100000000E-03 0. -1.
        -11    1    4    4    0    0 -0.87059725365E+01  0.12649026599E+01  0.37781310610E+01  0.95743517337E+01  0.51100000000E-03 0.  1.
        -12    1    4    4    0    0  0.71569205600E+01 -0.82146304937E+01 -0.69507619166E+00  0.10917178984E+02  0.00000000000E+00 0.  1.
</event>
<event>
 8    1  0.2511738E-006  0.9118800E+02  0.7816164E-02  0.1184000E+00
        -11   -1    0    0    0    0  0.00000000000E+00  0.00000000000E+00  0.45593999997E+02  0.45594000000E+02  0.51100000000E-03 0. -1.
         11   -1    0    0    0    0 -0.00000000000E+00 -0.00000000000E+00 -0.45593999997E+02  0.45594000000E+02  0.51100000000E-03 0.  1.
         23    2    1    2    0    0 -0.26645352591E-14  0.00000000000E+00  0.35527136788E-14  0.91188000000E+02  0.91188000000E+02 0.  0.
    9900012    2    3    3    0    0 -0.62769012047E+01  0.24216281586E+02 -0.27017603439E+02  0.54367099981E+02  0.40000036028E+02 0.  0.
         12    1    3    3    0    0  0.62769012047E+01 -0.24216281586E+02  0.27017603439E+02  0.36820900019E+02  0.00000000000E+00 0. -1.
         11    1    4    4    0    0 -0.16918810675E+02  0.67696404479E+01  0.19765483549E+01  0.18329782599E+02  0.51100000000E-03 0. -1.
        -11    1    4    4    0    0  0.22285916976E+00  0.12794287311E+01 -0.56150174215E+01  0.57632477816E+01  0.51100000000E-03 0.  1.
         12    1    4    4    0    0  0.10419050301E+02  0.16167212407E+02 -0.23379134373E+02  0.30274069601E+02  0.00000000000E+00 0. -1.
</event>
<event>
 8    1  0.2511738E-006  0.9118800E+02  0.7816164E-02  0.1184000E+00
        -11   -1    0    0    0    0  0.00000000000E+00  0.00000000000E+00  0.45593999997E+02  0.45594000000E+02  0.51100000000E-03 0. -1.
         11   -1    0    0    0    0 -0.00000000000E+00 -0.00000000000E+00 -0.45593999997E+02  0.45594000000E+02  0.51100000000E-03 0.  1.
         23    2    1    2    0    0  0.00000000000E+00  0.17763568394E-14 -0.44408920985E-15  0.91188000000E+02  0.91188000000E+02 0.  0.
    9900012    2    3    3    0    0 -0.35034665010E+02 -0.10831450275E+02  0.33213572186E+01  0.54367089077E+02  0.40000011169E+02 0.  0.
         12    1    3    3    0    0  0.35034665010E+02  0.10831450275E+02 -0.33213572186E+01  0.36820910923E+02  0.00000000000E+00 0. -1.
         11    1    4    4    0    0 -0.81032845382E+01  0.82109358989E+01  0.68623484577E+01  0.13422910089E+02  0.51100000000E-03 0. -1.
        -11    1    4    4    0    0 -0.76567698313E+01  0.52899798511E+01  0.17083772495E+01  0.94619535067E+01  0.51100000000E-03 0.  1.
        -12    1    4    4    0    0 -0.19274610641E+02 -0.24332366025E+02 -0.52493684886E+01  0.31482225481E+02  0.00000000000E+00 0.  1.
</event>
<event>
 8    1  0.2511738E-006  0.9118800E+02  0.7816164E-02  0.1184000E+00
        -11   -1    0    0    0    0  0.00000000000E+00  0.00000000000E+00  0.45593999997E+02  0.45594000000E+02  0.51100000000E-03 0. -1.
         11   -1    0    0    0    0 -0.00000000000E+00 -0.00000000000E+00 -0.45593999997E+02  0.45594000000E+02  0.51100000000E-03 0.  1.
         23    2    1    2    0    0  0.00000000000E+00 -0.88817841970E-15 -0.71054273576E-14  0.91188000000E+02  0.91188000000E+02 0.  0.
    9900012    2    3    3    0    0 -0.49872232233E+01  0.78064654582E+01 -0.35636603717E+02  0.54367070857E+02  0.39999969633E+02 0.  0.
         12    1    3    3    0    0  0.49872232233E+01 -0.78064654582E+01  0.35636603717E+02  0.36820929143E+02  0.00000000000E+00 0. -1.
         11    1    4    4    0    0  0.79512726725E+01  0.69974707054E+01 -0.13605246964E+02  0.17242101920E+02  0.51100000000E-03 0. -1.
        -11    1    4    4    0    0 -0.81457149690E+01 -0.30534364857E+01  0.45659593328E+01  0.98246695424E+01  0.51100000000E-03 0.  1.
        -12    1    4    4    0    0 -0.47927809268E+01  0.38624312384E+01 -0.26597316086E+02  0.27300299395E+02  0.00000000000E+00 0.  1.
</event>
<event>
 8    1  0.2511738E-006  0.9118800E+02  0.7816164E-02  0.1184000E+00
        -11   -1    0    0    0    0  0.00000000000E+00  0.00000000000E+00  0.45593999997E+02  0.45594000000E+02  0.51100000000E-03 0.  1.
         11   -1    0    0    0    0 -0.00000000000E+00 -0.00000000000E+00 -0.45593999997E+02  0.45594000000E+02  0.51100000000E-03 0. -1.
         23    2    1    2    0    0  0.35527136788E-14  0.00000000000E+00  0.17763568394E-14  0.91188000000E+02  0.91188000000E+02 0.  0.
    9900012    2    3    3    0    0  0.26869941776E+02  0.24168794503E+02  0.70466584743E+01  0.54367084823E+02  0.40000001472E+02 0.  0.
        -12    1    3    3    0    0 -0.26869941776E+02 -0.24168794503E+02 -0.70466584743E+01  0.36820915177E+02  0.00000000000E+00 0.  1.
         11    1    4    4    0    0  0.19377898420E+01  0.75242595213E+01 -0.76070347674E+01  0.10873660333E+02  0.51100000000E-03 0. -1.
        -11    1    4    4    0    0 -0.31098937006E+01  0.48746417461E+01  0.11558837289E+02  0.12924406784E+02  0.51100000000E-03 0.  1.
         12    1    4    4    0    0  0.28042045635E+02  0.11769893236E+02  0.30948559523E+01  0.30569017706E+02  0.00000000000E+00 0. -1.
</event>
<event>
 8    1  0.2511738E-006  0.9118800E+02  0.7816164E-02  0.1184000E+00
        -11   -1    0    0    0    0  0.00000000000E+00  0.00000000000E+00  0.45593999997E+02  0.45594000000E+02  0.51100000000E-03 0. -1.
         11   -1    0    0    0    0 -0.00000000000E+00 -0.00000000000E+00 -0.45593999997E+02  0.45594000000E+02  0.51100000000E-03 0.  1.
         23    2    1    2    0    0 -0.35527136788E-14  0.00000000000E+00  0.00000000000E+00  0.91188000000E+02  0.91188000000E+02 0.  0.
    9900012    2    3    3    0    0  0.26537224334E+02  0.25004110160E+02  0.51332603790E+01  0.54367079828E+02  0.39999990083E+02 0.  0.
        -12    1    3    3    0    0 -0.26537224334E+02 -0.25004110160E+02 -0.51332603790E+01  0.36820920172E+02  0.00000000000E+00 0.  1.
         11    1    4    4    0    0  0.12082730211E+02  0.67436496400E+01 -0.14099009561E+01  0.13908882082E+02  0.51100000000E-03 0. -1.
        -11    1    4    4    0    0 -0.98861068081E+01  0.17483967378E+01 -0.10124555916E+01  0.10090444270E+02  0.51100000000E-03 0.  1.
        -12    1    4    4    0    0  0.24340600931E+02  0.16512063782E+02  0.75556169267E+01  0.30367753476E+02  0.00000000000E+00 0.  1.
</event>
<event>
 8    1  0.2511738E-006  0.9118800E+02  0.7816164E-02  0.1184000E+00
        -11   -1    0    0    0    0  0.00000000000E+00  0.00000000000E+00  0.45593999997E+02  0.45594000000E+02  0.51100000000E-03 0. -1.
         11   -1    0    0    0    0 -0.00000000000E+00 -0.00000000000E+00 -0.45593999997E+02  0.45594000000E+02  0.51100000000E-03 0.  1.
         23    2    1    2    0    0 -0.35527136788E-14  0.00000000000E+00  0.22204460493E-15  0.91188000000E+02  0.91188000000E+02 0.  0.
    9900012    2    3    3    0    0  0.22977996189E+02  0.28703454015E+02  0.19758298259E+01  0.54367075450E+02  0.39999980103E+02 0.  0.
        -12    1    3    3    0    0 -0.22977996189E+02 -0.28703454015E+02 -0.19758298259E+01  0.36820924550E+02  0.00000000000E+00 0.  1.
         11    1    4    4    0    0 -0.37024734991E+01  0.17172809792E+01 -0.35560256650E+01  0.54131952453E+01  0.51100000000E-03 0. -1.
        -11    1    4    4    0    0 -0.26987369446E+01  0.26575002001E+01 -0.76985470850E+01  0.85798086162E+01  0.51100000000E-03 0.  1.
         12    1    4    4    0    0  0.29379206632E+02  0.24328672836E+02  0.13230402576E+02  0.40374071588E+02  0.00000000000E+00 0. -1.
</event>
<event>
 8    1  0.2511738E-006  0.9118800E+02  0.7816164E-02  0.1184000E+00
        -11   -1    0    0    0    0  0.00000000000E+00  0.00000000000E+00  0.45593999997E+02  0.45594000000E+02  0.51100000000E-03 0.  1.
         11   -1    0    0    0    0 -0.00000000000E+00 -0.00000000000E+00 -0.45593999997E+02  0.45594000000E+02  0.51100000000E-03 0. -1.
         23    2    1    2    0    0  0.35527136788E-14  0.00000000000E+00 -0.35527136788E-14  0.91188000000E+02  0.91188000000E+02 0.  0.
    9900012    2    3    3    0    0 -0.23181709564E+02 -0.21774681266E+02  0.18553992992E+02  0.54367094817E+02  0.40000024254E+02 0.  0.
         12    1    3    3    0    0  0.23181709564E+02  0.21774681266E+02 -0.18553992992E+02  0.36820905183E+02  0.00000000000E+00 0. -1.
         11    1    4    4    0    0 -0.88870491892E+01 -0.12315905953E+02  0.98888678702E+01  0.18123214140E+02  0.51100000000E-03 0. -1.
        -11    1    4    4    0    0 -0.98006288386E+01 -0.19748115006E+02  0.11207743964E+02  0.24731637571E+02  0.51100000000E-03 0.  1.
         12    1    4    4    0    0 -0.44940315360E+01  0.10289339693E+02 -0.25426188422E+01  0.11512243106E+02  0.00000000000E+00 0. -1.
</event>
<event>
 8    1  0.2511738E-006  0.9118800E+02  0.7816164E-02  0.1184000E+00
        -11   -1    0    0    0    0  0.00000000000E+00  0.00000000000E+00  0.45593999997E+02  0.45594000000E+02  0.51100000000E-03 0. -1.
         11   -1    0    0    0    0 -0.00000000000E+00 -0.00000000000E+00 -0.45593999997E+02  0.45594000000E+02  0.51100000000E-03 0.  1.
         23    2    1    2    0    0  0.35527136788E-14  0.00000000000E+00  0.00000000000E+00  0.91188000000E+02  0.91188000000E+02 0.  0.
    9900012    2    3    3    0    0 -0.29364668859E+02  0.11914313789E+02  0.18749540220E+02  0.54367083272E+02  0.39999997936E+02 0.  0.
        -12    1    3    3    0    0  0.29364668859E+02 -0.11914313789E+02 -0.18749540220E+02  0.36820916728E+02  0.00000000000E+00 0.  1.
         11    1    4    4    0    0 -0.28651591111E+02  0.10370452372E+02  0.23046791069E+02  0.38204901969E+02  0.51100000000E-03 0. -1.
        -11    1    4    4    0    0  0.17212312961E+01 -0.53076527566E+01 -0.64983770918E+01  0.85652040284E+01  0.51100000000E-03 0.  1.
         12    1    4    4    0    0 -0.24343090439E+01  0.68515141729E+01  0.22011262419E+01  0.75969772749E+01  0.00000000000E+00 0. -1.
</event>
<event>
 8    1  0.2511738E-006  0.9118800E+02  0.7816164E-02  0.1184000E+00
        -11   -1    0    0    0    0  0.00000000000E+00  0.00000000000E+00  0.45593999997E+02  0.45594000000E+02  0.51100000000E-03 0.  1.
         11   -1    0    0    0    0 -0.00000000000E+00 -0.00000000000E+00 -0.45593999997E+02  0.45594000000E+02  0.51100000000E-03 0. -1.
         23    2    1    2    0    0  0.00000000000E+00  0.00000000000E+00  0.00000000000E+00  0.91188000000E+02  0.91188000000E+02 0.  0.
    9900012    2    3    3    0    0 -0.31460863478E+02 -0.26785415878E+01 -0.18942514315E+02  0.54367090663E+02  0.40000014784E+02 0.  0.
        -12    1    3    3    0    0  0.31460863478E+02  0.26785415878E+01  0.18942514315E+02  0.36820909337E+02  0.00000000000E+00 0.  1.
         11    1    4    4    0    0 -0.16791004503E+02  0.59348352163E+01 -0.24208430449E+02  0.30053422539E+02  0.51100000000E-03 0. -1.
        -11    1    4    4    0    0  0.33415799949E+01  0.75512474154E+00  0.53296924844E+00  0.34670487044E+01  0.51100000000E-03 0.  1.
         12    1    4    4    0    0 -0.18011438970E+02 -0.93685015457E+01  0.47329468855E+01  0.20846619419E+02  0.00000000000E+00 0. -1.
</event>
<event>
 8    1  0.2511738E-006  0.9118800E+02  0.7816164E-02  0.1184000E+00
        -11   -1    0    0    0    0  0.00000000000E+00  0.00000000000E+00  0.45593999997E+02  0.45594000000E+02  0.51100000000E-03 0.  1.
         11   -1    0    0    0    0 -0.00000000000E+00 -0.00000000000E+00 -0.45593999997E+02  0.45594000000E+02  0.51100000000E-03 0. -1.
         23    2    1    2    0    0  0.00000000000E+00 -0.35527136788E-14  0.00000000000E+00  0.91188000000E+02  0.91188000000E+02 0.  0.
    9900012    2    3    3    0    0  0.98008140777E+01 -0.26211703984E+02  0.23930565599E+02  0.54367063670E+02  0.39999953249E+02 0.  0.
         12    1    3    3    0    0 -0.98008140777E+01  0.26211703984E+02 -0.23930565599E+02  0.36820936330E+02  0.00000000000E+00 0. -1.
         11    1    4    4    0    0  0.32650298564E+01 -0.89097926621E+00  0.79557382465E+01  0.86456946120E+01  0.51100000000E-03 0. -1.
        -11    1    4    4    0    0  0.11133773184E-01  0.62220338282E+01  0.11669191896E+02  0.13224366476E+02  0.51100000000E-03 0.  1.
         12    1    4    4    0    0  0.65246504482E+01 -0.31542758546E+02  0.43056354560E+01  0.32497002582E+02  0.00000000000E+00 0. -1.
</event>
<event>
 8    1  0.2511738E-006  0.9118800E+02  0.7816164E-02  0.1184000E+00
        -11   -1    0    0    0    0  0.00000000000E+00  0.00000000000E+00  0.45593999997E+02  0.45594000000E+02  0.51100000000E-03 0.  1.
         11   -1    0    0    0    0 -0.00000000000E+00 -0.00000000000E+00 -0.45593999997E+02  0.45594000000E+02  0.51100000000E-03 0. -1.
         23    2    1    2    0    0  0.00000000000E+00  0.00000000000E+00  0.00000000000E+00  0.91188000000E+02  0.91188000000E+02 0.  0.
    9900012    2    3    3    0    0 -0.19416327961E+02 -0.21907271879E+02  0.22335119705E+02  0.54367083052E+02  0.39999997433E+02 0.  0.
         12    1    3    3    0    0  0.19416327961E+02  0.21907271879E+02 -0.22335119705E+02  0.36820916948E+02  0.00000000000E+00 0. -1.
         11    1    4    4    0    0 -0.44606845728E+01  0.78506218446E+01  0.21325430195E+01  0.92778074024E+01  0.51100000000E-03 0. -1.
        -11    1    4    4    0    0 -0.14381680165E+02 -0.22913379733E+02  0.24900270619E+02  0.36767909545E+02  0.51100000000E-03 0.  1.
         12    1    4    4    0    0 -0.57396322367E+00 -0.68445139902E+01 -0.46976939334E+01  0.83213661040E+01  0.00000000000E+00 0. -1.
</event>
<event>
 8    1  0.2511738E-006  0.9118800E+02  0.7816164E-02  0.1184000E+00
        -11   -1    0    0    0    0  0.00000000000E+00  0.00000000000E+00  0.45593999997E+02  0.45594000000E+02  0.51100000000E-03 0. -1.
         11   -1    0    0    0    0 -0.00000000000E+00 -0.00000000000E+00 -0.45593999997E+02  0.45594000000E+02  0.51100000000E-03 0.  1.
         23    2    1    2    0    0  0.00000000000E+00  0.00000000000E+00  0.35527136788E-14  0.91188000000E+02  0.91188000000E+02 0.  0.
    9900012    2    3    3    0    0 -0.23483000544E+02  0.13104404460E+02  0.25151619945E+02  0.54367072300E+02  0.39999972922E+02 0.  0.
        -12    1    3    3    0    0  0.23483000544E+02 -0.13104404460E+02 -0.25151619945E+02  0.36820927700E+02  0.00000000000E+00 0.  1.
         11    1    4    4    0    0 -0.93968884849E+01  0.54925394021E+01  0.56434771356E+01  0.12260437868E+02  0.51100000000E-03 0. -1.
        -11    1    4    4    0    0  0.55454020590E+01 -0.15862587827E-01  0.20286668501E+02  0.21030945170E+02  0.51100000000E-03 0.  1.
         12    1    4    4    0    0 -0.19631514118E+02  0.76277276461E+01 -0.77852569105E+00  0.21075689262E+02  0.00000000000E+00 0. -1.
</event>
<event>
 8    1  0.2511738E-006  0.9118800E+02  0.7816164E-02  0.1184000E+00
        -11   -1    0    0    0    0  0.00000000000E+00  0.00000000000E+00  0.45593999997E+02  0.45594000000E+02  0.51100000000E-03 0.  1.
         11   -1    0    0    0    0 -0.00000000000E+00 -0.00000000000E+00 -0.45593999997E+02  0.45594000000E+02  0.51100000000E-03 0. -1.
         23    2    1    2    0    0  0.00000000000E+00 -0.88817841970E-15  0.00000000000E+00  0.91188000000E+02  0.91188000000E+02 0.  0.
    9900012    2    3    3    0    0 -0.17264429488E+02  0.24849503812E+01  0.32427539094E+02  0.54367071229E+02  0.39999970480E+02 0.  0.
         12    1    3    3    0    0  0.17264429488E+02 -0.24849503812E+01 -0.32427539094E+02  0.36820928771E+02  0.00000000000E+00 0. -1.
         11    1    4    4    0    0  0.45686215310E+01 -0.65498750206E+01  0.12824794846E+02  0.15107896233E+02  0.51100000000E-03 0. -1.
        -11    1    4    4    0    0 -0.23047000831E+02  0.94431515128E+01  0.24055037873E+02  0.34626322432E+02  0.51100000000E-03 0.  1.
        -12    1    4    4    0    0  0.12139498124E+01 -0.40832611097E+00 -0.44522936251E+01  0.46328525645E+01  0.00000000000E+00 0.  1.
</event>
<event>
 8    1  0.2511738E-006  0.9118800E+02  0.7816164E-02  0.1184000E+00
        -11   -1    0    0    0    0  0.00000000000E+00  0.00000000000E+00  0.45593999997E+02  0.45594000000E+02  0.51100000000E-03 0. -1.
         11   -1    0    0    0    0 -0.00000000000E+00 -0.00000000000E+00 -0.45593999997E+02  0.45594000000E+02  0.51100000000E-03 0.  1.
         23    2    1    2    0    0  0.00000000000E+00  0.00000000000E+00  0.00000000000E+00  0.91188000000E+02  0.91188000000E+02 0.  0.
    9900012    2    3    3    0    0  0.27712610763E+02  0.16616642375E+02 -0.17654407844E+02  0.54367085896E+02  0.40000003917E+02 0.  0.
        -12    1    3    3    0    0 -0.27712610763E+02 -0.16616642375E+02  0.17654407844E+02  0.36820914104E+02  0.00000000000E+00 0.  1.
         11    1    4    4    0    0  0.31138052589E+02  0.11966963081E+02 -0.16853922657E+02  0.37374339240E+02  0.51100000000E-03 0. -1.
        -11    1    4    4    0    0 -0.78613422589E+01  0.58541971974E+01 -0.47871474073E+01  0.10908212846E+02  0.51100000000E-03 0.  1.
         12    1    4    4    0    0  0.44359004326E+01 -0.12045179030E+01  0.39866622202E+01  0.60845338100E+01  0.00000000000E+00 0. -1.
</event>
<event>
 8    1  0.2511738E-006  0.9118800E+02  0.7816164E-02  0.1184000E+00
        -11   -1    0    0    0    0  0.00000000000E+00  0.00000000000E+00  0.45593999997E+02  0.45594000000E+02  0.51100000000E-03 0.  1.
         11   -1    0    0    0    0 -0.00000000000E+00 -0.00000000000E+00 -0.45593999997E+02  0.45594000000E+02  0.51100000000E-03 0. -1.
         23    2    1    2    0    0  0.00000000000E+00 -0.71054273576E-14  0.44408920985E-15  0.91188000000E+02  0.91188000000E+02 0.  0.
    9900012    2    3    3    0    0 -0.11899080610E+02 -0.34764184966E+02  0.23755635911E+01  0.54367082330E+02  0.39999995787E+02 0.  0.
         12    1    3    3    0    0  0.11899080610E+02  0.34764184966E+02 -0.23755635911E+01  0.36820917670E+02  0.00000000000E+00 0. -1.
         11    1    4    4    0    0 -0.25702473057E+01 -0.40986155109E+01  0.10719195412E+02  0.11760355899E+02  0.51100000000E-03 0. -1.
        -11    1    4    4    0    0 -0.42260968893E+01 -0.16020459589E+02  0.93931836325E+01  0.19045916081E+02  0.51100000000E-03 0.  1.
         12    1    4    4    0    0 -0.51027364153E+01 -0.14645109866E+02 -0.17736815454E+02  0.23560810350E+02  0.00000000000E+00 0. -1.
</event>
<event>
 8    1  0.2511738E-006  0.9118800E+02  0.7816164E-02  0.1184000E+00
        -11   -1    0    0    0    0  0.00000000000E+00  0.00000000000E+00  0.45593999997E+02  0.45594000000E+02  0.51100000000E-03 0. -1.
         11   -1    0    0    0    0 -0.00000000000E+00 -0.00000000000E+00 -0.45593999997E+02  0.45594000000E+02  0.51100000000E-03 0.  1.
         23    2    1    2    0    0 -0.17763568394E-14  0.00000000000E+00  0.00000000000E+00  0.91188000000E+02  0.91188000000E+02 0.  0.
    9900012    2    3    3    0    0 -0.13831773897E+02  0.27126402917E+02  0.20703173876E+02  0.54367066919E+02  0.39999960656E+02 0.  0.
        -12    1    3    3    0    0  0.13831773897E+02 -0.27126402917E+02 -0.20703173876E+02  0.36820933081E+02  0.00000000000E+00 0.  1.
         11    1    4    4    0    0  0.34969069174E+01  0.37651978964E+01  0.11613967171E+02  0.12699972713E+02  0.51100000000E-03 0. -1.
        -11    1    4    4    0    0 -0.78596019417E+01  0.22379371643E+01 -0.90974320971E+01  0.12228858346E+02  0.51100000000E-03 0.  1.
        -12    1    4    4    0    0 -0.94690788730E+01  0.21123267857E+02  0.18186638802E+02  0.29438235860E+02  0.00000000000E+00 0.  1.
</event>
<event>
 8    1  0.2511738E-006  0.9118800E+02  0.7816164E-02  0.1184000E+00
        -11   -1    0    0    0    0  0.00000000000E+00  0.00000000000E+00  0.45593999997E+02  0.45594000000E+02  0.51100000000E-03 0.  1.
         11   -1    0    0    0    0 -0.00000000000E+00 -0.00000000000E+00 -0.45593999997E+02  0.45594000000E+02  0.51100000000E-03 0. -1.
         23    2    1    2    0    0 -0.35527136788E-14  0.00000000000E+00  0.00000000000E+00  0.91188000000E+02  0.91188000000E+02 0.  0.
    9900012    2    3    3    0    0 -0.19426622792E+02 -0.26764460872E+02 -0.16187940227E+02  0.54367089533E+02  0.40000012208E+02 0.  0.
        -12    1    3    3    0    0  0.19426622792E+02  0.26764460872E+02  0.16187940227E+02  0.36820910467E+02  0.00000000000E+00 0.  1.
         11    1    4    4    0    0  0.71533809599E+00 -0.12841184050E+02 -0.20584322001E+02  0.24271836126E+02  0.51100000000E-03 0. -1.
        -11    1    4    4    0    0 -0.18858186908E+02 -0.33898873947E+01  0.27355657236E+01  0.19354737665E+02  0.51100000000E-03 0.  1.
         12    1    4    4    0    0 -0.12837739801E+01 -0.10533389427E+02  0.16608160507E+01  0.10740515742E+02  0.00000000000E+00 0. -1.
</event>
<event>
 8    1  0.2511738E-006  0.9118800E+02  0.7816164E-02  0.1184000E+00
        -11   -1    0    0    0    0  0.00000000000E+00  0.00000000000E+00  0.45593999997E+02  0.45594000000E+02  0.51100000000E-03 0. -1.
         11   -1    0    0    0    0 -0.00000000000E+00 -0.00000000000E+00 -0.45593999997E+02  0.45594000000E+02  0.51100000000E-03 0.  1.
         23    2    1    2    0    0  0.00000000000E+00 -0.88817841970E-15  0.00000000000E+00  0.91188000000E+02  0.91188000000E+02 0.  0.
    9900012    2    3    3    0    0  0.33143535745E+02 -0.42794688550E+01  0.15458709211E+02  0.54367088743E+02  0.40000010407E+02 0.  0.
        -12    1    3    3    0    0 -0.33143535745E+02  0.42794688550E+01 -0.15458709211E+02  0.36820911257E+02  0.00000000000E+00 0.  1.
         11    1    4    4    0    0  0.38049999421E+01  0.76507738770E+01 -0.41190170391E+01  0.94857085716E+01  0.51100000000E-03 0. -1.
        -11    1    4    4    0    0  0.11074969483E+01 -0.92370723753E+01  0.12624689280E+02  0.15682245861E+02  0.51100000000E-03 0.  1.
        -12    1    4    4    0    0  0.28231038854E+02 -0.26931703567E+01  0.69530369703E+01  0.29199134310E+02  0.00000000000E+00 0.  1.
</event>
<event>
 8    1  0.2511738E-006  0.9118800E+02  0.7816164E-02  0.1184000E+00
        -11   -1    0    0    0    0  0.00000000000E+00  0.00000000000E+00  0.45593999997E+02  0.45594000000E+02  0.51100000000E-03 0.  1.
         11   -1    0    0    0    0 -0.00000000000E+00 -0.00000000000E+00 -0.45593999997E+02  0.45594000000E+02  0.51100000000E-03 0. -1.
         23    2    1    2    0    0 -0.13322676296E-14 -0.71054273576E-14  0.17763568394E-14  0.91188000000E+02  0.91188000000E+02 0.  0.
    9900012    2    3    3    0    0 -0.24660711310E+01  0.35695489264E+02  0.86908113811E+01  0.54367086607E+02  0.40000005538E+02 0.  0.
         12    1    3    3    0    0  0.24660711310E+01 -0.35695489264E+02 -0.86908113811E+01  0.36820913393E+02  0.00000000000E+00 0. -1.
         11    1    4    4    0    0  0.90987832414E+01  0.12322826718E+02 -0.79414329242E+01  0.17254166800E+02  0.51100000000E-03 0. -1.
        -11    1    4    4    0    0 -0.41286654360E+01  0.25125260179E+02  0.13826586015E+02  0.28974110140E+02  0.51100000000E-03 0.  1.
         12    1    4    4    0    0 -0.74361889363E+01 -0.17525976326E+01  0.28056582899E+01  0.81388096672E+01  0.00000000000E+00 0. -1.
</event>
<event>
 8    1  0.2511738E-006  0.9118800E+02  0.7816164E-02  0.1184000E+00
        -11   -1    0    0    0    0  0.00000000000E+00  0.00000000000E+00  0.45593999997E+02  0.45594000000E+02  0.51100000000E-03 0. -1.
         11   -1    0    0    0    0 -0.00000000000E+00 -0.00000000000E+00 -0.45593999997E+02  0.45594000000E+02  0.51100000000E-03 0.  1.
         23    2    1    2    0    0 -0.17763568394E-14  0.00000000000E+00  0.71054273576E-14  0.91188000000E+02  0.91188000000E+02 0.  0.
    9900012    2    3    3    0    0 -0.11664211124E+02  0.12098436595E+02 -0.32762133895E+02  0.54367035774E+02  0.39999889653E+02 0.  0.
         12    1    3    3    0    0  0.11664211124E+02 -0.12098436595E+02  0.32762133895E+02  0.36820964226E+02  0.00000000000E+00 0. -1.
         11    1    4    4    0    0 -0.65899618159E+01  0.10473474539E+02 -0.65587158468E+01  0.14004928399E+02  0.51100000000E-03 0. -1.
        -11    1    4    4    0    0  0.10512622212E+02  0.77402861973E+01 -0.67542059277E+01  0.14698522176E+02  0.51100000000E-03 0.  1.
        -12    1    4    4    0    0 -0.15586871520E+02 -0.61153241412E+01 -0.19449212121E+02  0.25663585198E+02  0.00000000000E+00 0.  1.
</event>
<event>
 8    1  0.2511738E-006  0.9118800E+02  0.7816164E-02  0.1184000E+00
        -11   -1    0    0    0    0  0.00000000000E+00  0.00000000000E+00  0.45593999997E+02  0.45594000000E+02  0.51100000000E-03 0.  1.
         11   -1    0    0    0    0 -0.00000000000E+00 -0.00000000000E+00 -0.45593999997E+02  0.45594000000E+02  0.51100000000E-03 0. -1.
         23    2    1    2    0    0 -0.35527136788E-14  0.00000000000E+00 -0.44408920985E-15  0.91188000000E+02  0.91188000000E+02 0.  0.
    9900012    2    3    3    0    0  0.23828499946E+02 -0.27890828519E+02 -0.31754173844E+01  0.54367095601E+02  0.40000026043E+02 0.  0.
        -12    1    3    3    0    0 -0.23828499946E+02  0.27890828519E+02  0.31754173844E+01  0.36820904399E+02  0.00000000000E+00 0.  1.
         11    1    4    4    0    0 -0.26888058125E+01 -0.31238752163E+01 -0.47365157327E+01  0.62787621878E+01  0.51100000000E-03 0. -1.
        -11    1    4    4    0    0  0.69682246753E+00  0.56663210724E+01 -0.50639623692E+01  0.76312824077E+01  0.51100000000E-03 0.  1.
        -12    1    4    4    0    0  0.25820483291E+02 -0.30433274376E+02  0.66250607175E+01  0.40457051006E+02  0.00000000000E+00 0.  1.
</event>
<event>
 8    1  0.2511738E-006  0.9118800E+02  0.7816164E-02  0.1184000E+00
        -11   -1    0    0    0    0  0.00000000000E+00  0.00000000000E+00  0.45593999997E+02  0.45594000000E+02  0.51100000000E-03 0. -1.
         11   -1    0    0    0    0 -0.00000000000E+00 -0.00000000000E+00 -0.45593999997E+02  0.45594000000E+02  0.51100000000E-03 0.  1.
         23    2    1    2    0    0  0.00000000000E+00  0.00000000000E+00  0.00000000000E+00  0.91188000000E+02  0.91188000000E+02 0.  0.
    9900012    2    3    3    0    0  0.97208359865E+01  0.76109503100E+01  0.34689464539E+02  0.54367079766E+02  0.39999989943E+02 0.  0.
        -12    1    3    3    0    0 -0.97208359865E+01 -0.76109503100E+01 -0.34689464539E+02  0.36820920234E+02  0.00000000000E+00 0.  1.
         11    1    4    4    0    0  0.21515280030E+02  0.86511070542E+01  0.31103427169E+02  0.38796547656E+02  0.51100000000E-03 0. -1.
        -11    1    4    4    0    0 -0.59748672412E+01  0.25939626649E+01  0.54142622167E+01  0.84700600038E+01  0.51100000000E-03 0.  1.
         12    1    4    4    0    0 -0.58195768028E+01 -0.36341194091E+01 -0.18282248476E+01  0.71004721066E+01  0.00000000000E+00 0. -1.
</event>
<event>
 8    1  0.2511738E-006  0.9118800E+02  0.7816164E-02  0.1184000E+00
        -11   -1    0    0    0    0  0.00000000000E+00  0.00000000000E+00  0.45593999997E+02  0.45594000000E+02  0.51100000000E-03 0. -1.
         11   -1    0    0    0    0 -0.00000000000E+00 -0.00000000000E+00 -0.45593999997E+02  0.45594000000E+02  0.51100000000E-03 0.  1.
         23    2    1    2    0    0  0.71054273576E-14  0.00000000000E+00  0.00000000000E+00  0.91188000000E+02  0.91188000000E+02 0.  0.
    9900012    2    3    3    0    0 -0.34271043375E+02 -0.44984638789E+01 -0.12690124406E+02  0.54367084086E+02  0.39999999791E+02 0.  0.
         12    1    3    3    0    0  0.34271043375E+02  0.44984638789E+01  0.12690124406E+02  0.36820915914E+02  0.00000000000E+00 0. -1.
         11    1    4    4    0    0  0.19746250814E+01  0.29058187110E+01 -0.15498681154E+02  0.15891886118E+02  0.51100000000E-03 0. -1.
        -11    1    4    4    0    0 -0.68345129901E+01 -0.28125564466E+01 -0.32894298740E+01  0.80895853253E+01  0.51100000000E-03 0.  1.
         12    1    4    4    0    0 -0.29411155467E+02 -0.45917261432E+01  0.60979866225E+01  0.30385612643E+02  0.00000000000E+00 0. -1.
</event>
<event>
 8    1  0.2511738E-006  0.9118800E+02  0.7816164E-02  0.1184000E+00
        -11   -1    0    0    0    0  0.00000000000E+00  0.00000000000E+00  0.45593999997E+02  0.45594000000E+02  0.51100000000E-03 0.  1.
         11   -1    0    0    0    0 -0.00000000000E+00 -0.00000000000E+00 -0.45593999997E+02  0.45594000000E+02  0.51100000000E-03 0. -1.
         23    2    1    2    0    0  0.35527136788E-14 -0.35527136788E-14  0.00000000000E+00  0.91188000000E+02  0.91188000000E+02 0.  0.
    9900012    2    3    3    0    0 -0.25991539644E+02 -0.18326789896E+02  0.18556632122E+02  0.54367082621E+02  0.39999996450E+02 0.  0.
         12    1    3    3    0    0  0.25991539644E+02  0.18326789896E+02 -0.18556632122E+02  0.36820917379E+02  0.00000000000E+00 0. -1.
         11    1    4    4    0    0  0.65523118964E+01 -0.57577905635E+01  0.54086144350E+01  0.10263432843E+02  0.51100000000E-03 0. -1.
        -11    1    4    4    0    0 -0.54967174160E+01  0.44856877333E+01 -0.36565567943E+01  0.79815853465E+01  0.51100000000E-03 0.  1.
        -12    1    4    4    0    0 -0.27047134124E+02 -0.17054687066E+02  0.16804574481E+02  0.36122064431E+02  0.00000000000E+00 0.  1.
</event>
<event>
 8    1  0.2511738E-006  0.9118800E+02  0.7816164E-02  0.1184000E+00
        -11   -1    0    0    0    0  0.00000000000E+00  0.00000000000E+00  0.45593999997E+02  0.45594000000E+02  0.51100000000E-03 0. -1.
         11   -1    0    0    0    0 -0.00000000000E+00 -0.00000000000E+00 -0.45593999997E+02  0.45594000000E+02  0.51100000000E-03 0.  1.
         23    2    1    2    0    0  0.00000000000E+00  0.00000000000E+00  0.53290705182E-14  0.91188000000E+02  0.91188000000E+02 0.  0.
    9900012    2    3    3    0    0 -0.23812145188E+02  0.24829932669E+02  0.13123829284E+02  0.54367099551E+02  0.40000035047E+02 0.  0.
        -12    1    3    3    0    0  0.23812145188E+02 -0.24829932669E+02 -0.13123829284E+02  0.36820900449E+02  0.00000000000E+00 0.  1.
         11    1    4    4    0    0 -0.64382462177E+01 -0.99230743968E+00 -0.47745349407E+01  0.80766250733E+01  0.51100000000E-03 0. -1.
        -11    1    4    4    0    0  0.78619017099E+01  0.62419688463E+01  0.82429528491E+00  0.10072295496E+02  0.51100000000E-03 0.  1.
         12    1    4    4    0    0 -0.25235800680E+02  0.19580271262E+02  0.17074068939E+02  0.36218178982E+02  0.00000000000E+00 0. -1.
</event>
<event>
 8    1  0.2511738E-006  0.9118800E+02  0.7816164E-02  0.1184000E+00
        -11   -1    0    0    0    0  0.00000000000E+00  0.00000000000E+00  0.45593999997E+02  0.45594000000E+02  0.51100000000E-03 0. -1.
         11   -1    0    0    0    0 -0.00000000000E+00 -0.00000000000E+00 -0.45593999997E+02  0.45594000000E+02  0.51100000000E-03 0.  1.
         23    2    1    2    0    0  0.00000000000E+00 -0.35527136788E-14  0.00000000000E+00  0.91188000000E+02  0.91188000000E+02 0.  0.
    9900012    2    3    3    0    0  0.46449863475E+01  0.22761339850E+02  0.28567916201E+02  0.54367077605E+02  0.39999985017E+02 0.  0.
        -12    1    3    3    0    0 -0.46449863475E+01 -0.22761339850E+02 -0.28567916201E+02  0.36820922395E+02  0.00000000000E+00 0.  1.
         11    1    4    4    0    0 -0.10581504981E+01 -0.53379802160E+01  0.20100872904E+02  0.20824476153E+02  0.51100000000E-03 0. -1.
        -11    1    4    4    0    0 -0.44926135026E+01  0.31398221652E+01  0.10681111740E+01  0.55841669973E+01  0.51100000000E-03 0.  1.
         12    1    4    4    0    0  0.10195750348E+02  0.24959497901E+02  0.73989321224E+01  0.27958434455E+02  0.00000000000E+00 0. -1.
</event>
<event>
 8    1  0.2511738E-006  0.9118800E+02  0.7816164E-02  0.1184000E+00
        -11   -1    0    0    0    0  0.00000000000E+00  0.00000000000E+00  0.45593999997E+02  0.45594000000E+02  0.51100000000E-03 0. -1.
         11   -1    0    0    0    0 -0.00000000000E+00 -0.00000000000E+00 -0.45593999997E+02  0.45594000000E+02  0.51100000000E-03 0.  1.
         23    2    1    2    0    0  0.00000000000E+00 -0.35527136788E-14  0.00000000000E+00  0.91188000000E+02  0.91188000000E+02 0.  0.
    9900012    2    3    3    0    0  0.24651154439E+02 -0.23240892361E+02 -0.14420844789E+02  0.54367092117E+02  0.40000018099E+02 0.  0.
         12    1    3    3    0    0 -0.24651154439E+02  0.23240892361E+02  0.14420844789E+02  0.36820907883E+02  0.00000000000E+00 0. -1.
         11    1    4    4    0    0  0.73678646277E+01 -0.64666475091E+00 -0.92673909689E+01  0.11856986974E+02  0.51100000000E-03 0. -1.
        -11    1    4    4    0    0  0.57806398309E+01  0.45418149163E+01 -0.10235403388E+02  0.12601879319E+02  0.51100000000E-03 0.  1.
         12    1    4    4    0    0  0.11502649980E+02 -0.27136042526E+02  0.50819495678E+01  0.29908225824E+02  0.00000000000E+00 0. -1.
</event>
<event>
 8    1  0.2511738E-006  0.9118800E+02  0.7816164E-02  0.1184000E+00
        -11   -1    0    0    0    0  0.00000000000E+00  0.00000000000E+00  0.45593999997E+02  0.45594000000E+02  0.51100000000E-03 0.  1.
         11   -1    0    0    0    0 -0.00000000000E+00 -0.00000000000E+00 -0.45593999997E+02  0.45594000000E+02  0.51100000000E-03 0. -1.
         23    2    1    2    0    0 -0.35527136788E-14 -0.17763568394E-14  0.71054273576E-14  0.91188000000E+02  0.91188000000E+02 0.  0.
    9900012    2    3    3    0    0  0.21488914079E+02  0.14944174542E+02 -0.25897194224E+02  0.54367266035E+02  0.40000414578E+02 0.  0.
        -12    1    3    3    0    0 -0.21488914079E+02 -0.14944174542E+02  0.25897194224E+02  0.36820733965E+02  0.00000000000E+00 0.  1.
         11    1    4    4    0    0  0.19085260366E+02  0.73879583715E+01 -0.97903538105E+01  0.22686562545E+02  0.51100000000E-03 0. -1.
        -11    1    4    4    0    0  0.57678712226E+01 -0.13311120002E+00  0.58244934070E+01  0.81982181443E+01  0.51100000000E-03 0.  1.
        -12    1    4    4    0    0 -0.33642175091E+01  0.76893273701E+01 -0.21931333821E+02  0.23482485346E+02  0.00000000000E+00 0.  1.
</event>
<event>
 8    1  0.2511738E-006  0.9118800E+02  0.7816164E-02  0.1184000E+00
        -11   -1    0    0    0    0  0.00000000000E+00  0.00000000000E+00  0.45593999997E+02  0.45594000000E+02  0.51100000000E-03 0.  1.
         11   -1    0    0    0    0 -0.00000000000E+00 -0.00000000000E+00 -0.45593999997E+02  0.45594000000E+02  0.51100000000E-03 0. -1.
         23    2    1    2    0    0 -0.17763568394E-14  0.00000000000E+00  0.00000000000E+00  0.91188000000E+02  0.91188000000E+02 0.  0.
    9900012    2    3    3    0    0 -0.13902642236E+02  0.22683152213E+02 -0.25455519161E+02  0.54366914856E+02  0.39999613995E+02 0.  0.
        -12    1    3    3    0    0  0.13902642236E+02 -0.22683152213E+02  0.25455519161E+02  0.36821085144E+02  0.00000000000E+00 0.  1.
         11    1    4    4    0    0 -0.22917608809E+00  0.21987923871E+02  0.12796316801E+01  0.22026320058E+02  0.51100000000E-03 0.  1.
        -11    1    4    4    0    0 -0.93749159358E+01  0.98853525840E-01 -0.26368220784E+02  0.27985387051E+02  0.51100000000E-03 0. -1.
         12    1    4    4    0    0 -0.42985502119E+01  0.59637481665E+00 -0.36693005658E+00  0.43552077462E+01  0.00000000000E+00 0. -1.
</event>
<event>
 8    1  0.2511738E-006  0.9118800E+02  0.7816164E-02  0.1184000E+00
        -11   -1    0    0    0    0  0.00000000000E+00  0.00000000000E+00  0.45593999997E+02  0.45594000000E+02  0.51100000000E-03 0.  1.
         11   -1    0    0    0    0 -0.00000000000E+00 -0.00000000000E+00 -0.45593999997E+02  0.45594000000E+02  0.51100000000E-03 0. -1.
         23    2    1    2    0    0 -0.19984014443E-14  0.00000000000E+00 -0.17763568394E-14  0.91188000000E+02  0.91188000000E+02 0.  0.
    9900012    2    3    3    0    0  0.13828270642E+01 -0.35023957452E+02  0.11277779746E+02  0.54367107530E+02  0.40000053236E+02 0.  0.
         12    1    3    3    0    0 -0.13828270642E+01  0.35023957452E+02 -0.11277779746E+02  0.36820892470E+02  0.00000000000E+00 0. -1.
         11    1    4    4    0    0 -0.10820591027E+02 -0.19848608868E+02  0.90117640689E+01  0.24336481999E+02  0.51100000000E-03 0. -1.
        -11    1    4    4    0    0  0.79700312650E+01 -0.78287118007E+00  0.10272784856E+02  0.13025528573E+02  0.51100000000E-03 0.  1.
         12    1    4    4    0    0  0.42333868266E+01 -0.14392477404E+02 -0.80067691793E+01  0.17005096958E+02  0.00000000000E+00 0. -1.
</event>
<event>
 8    1  0.2511738E-006  0.9118800E+02  0.7816164E-02  0.1184000E+00
        -11   -1    0    0    0    0  0.00000000000E+00  0.00000000000E+00  0.45593999997E+02  0.45594000000E+02  0.51100000000E-03 0. -1.
         11   -1    0    0    0    0 -0.00000000000E+00 -0.00000000000E+00 -0.45593999997E+02  0.45594000000E+02  0.51100000000E-03 0.  1.
         23    2    1    2    0    0  0.00000000000E+00  0.00000000000E+00  0.00000000000E+00  0.91188000000E+02  0.91188000000E+02 0.  0.
    9900012    2    3    3    0    0 -0.29865934338E+02 -0.71730592947E+01 -0.20306488696E+02  0.54367078004E+02  0.39999985925E+02 0.  0.
         12    1    3    3    0    0  0.29865934338E+02  0.71730592947E+01  0.20306488696E+02  0.36820921996E+02  0.00000000000E+00 0. -1.
         11    1    4    4    0    0 -0.26332457417E+02 -0.16649835109E+02 -0.11802901932E+01  0.31177049379E+02  0.51100000000E-03 0. -1.
        -11    1    4    4    0    0 -0.14742464894E+01  0.21844918962E+01 -0.13493256439E+02  0.13748213598E+02  0.51100000000E-03 0.  1.
         12    1    4    4    0    0 -0.20592304316E+01  0.72922839179E+01 -0.56329420633E+01  0.94418150267E+01  0.00000000000E+00 0. -1.
</event>
<event>
 8    1  0.2511738E-006  0.9118800E+02  0.7816164E-02  0.1184000E+00
        -11   -1    0    0    0    0  0.00000000000E+00  0.00000000000E+00  0.45593999997E+02  0.45594000000E+02  0.51100000000E-03 0.  1.
         11   -1    0    0    0    0 -0.00000000000E+00 -0.00000000000E+00 -0.45593999997E+02  0.45594000000E+02  0.51100000000E-03 0. -1.
         23    2    1    2    0    0  0.00000000000E+00 -0.88817841970E-15 -0.17763568394E-14  0.91188000000E+02  0.91188000000E+02 0.  0.
    9900012    2    3    3    0    0 -0.34077462151E+02  0.22606767254E+01 -0.13762126466E+02  0.54367079170E+02  0.39999988584E+02 0.  0.
        -12    1    3    3    0    0  0.34077462151E+02 -0.22606767254E+01  0.13762126466E+02  0.36820920830E+02  0.00000000000E+00 0.  1.
         11    1    4    4    0    0 -0.20461970494E+02  0.12030826115E+02 -0.20966660113E+02  0.31670709655E+02  0.51100000000E-03 0. -1.
        -11    1    4    4    0    0 -0.52976064194E+01 -0.16466128649E+01 -0.37707144373E+01  0.67077757365E+01  0.51100000000E-03 0.  1.
        -12    1    4    4    0    0 -0.83178852374E+01 -0.81235365250E+01  0.10975248085E+02  0.15988593778E+02  0.00000000000E+00 0.  1.
</event>
<event>
 8    1  0.2511738E-006  0.9118800E+02  0.7816164E-02  0.1184000E+00
        -11   -1    0    0    0    0  0.00000000000E+00  0.00000000000E+00  0.45593999997E+02  0.45594000000E+02  0.51100000000E-03 0.  1.
         11   -1    0    0    0    0 -0.00000000000E+00 -0.00000000000E+00 -0.45593999997E+02  0.45594000000E+02  0.51100000000E-03 0. -1.
         23    2    1    2    0    0  0.00000000000E+00  0.35527136788E-14 -0.88817841970E-15  0.91188000000E+02  0.91188000000E+02 0.  0.
    9900012    2    3    3    0    0 -0.32486743890E+02  0.16119556624E+02  0.63679573015E+01  0.54367088624E+02  0.40000010137E+02 0.  0.
         12    1    3    3    0    0  0.32486743890E+02 -0.16119556624E+02 -0.63679573015E+01  0.36820911376E+02  0.00000000000E+00 0. -1.
         11    1    4    4    0    0 -0.16101174034E+02  0.26687109639E+00 -0.60602421128E+01  0.17205974549E+02  0.51100000000E-03 0. -1.
        -11    1    4    4    0    0 -0.18015568415E+02  0.19533136662E+02  0.27931138647E+01  0.26719012304E+02  0.51100000000E-03 0.  1.
        -12    1    4    4    0    0  0.16299985589E+01 -0.36804511343E+01  0.96350855496E+01  0.10442101771E+02  0.00000000000E+00 0.  1.
</event>
<event>
 8    1  0.2511738E-006  0.9118800E+02  0.7816164E-02  0.1184000E+00
        -11   -1    0    0    0    0  0.00000000000E+00  0.00000000000E+00  0.45593999997E+02  0.45594000000E+02  0.51100000000E-03 0. -1.
         11   -1    0    0    0    0 -0.00000000000E+00 -0.00000000000E+00 -0.45593999997E+02  0.45594000000E+02  0.51100000000E-03 0.  1.
         23    2    1    2    0    0  0.17763568394E-14  0.00000000000E+00  0.00000000000E+00  0.91188000000E+02  0.91188000000E+02 0.  0.
    9900012    2    3    3    0    0  0.98779249758E+01  0.29799982284E+02  0.19239694715E+02  0.54367106493E+02  0.40000050871E+02 0.  0.
        -12    1    3    3    0    0 -0.98779249758E+01 -0.29799982284E+02 -0.19239694715E+02  0.36820893507E+02  0.00000000000E+00 0.  1.
         11    1    4    4    0    0 -0.11238360183E+02  0.17587715471E+02  0.15433751990E+02  0.25958219813E+02  0.51100000000E-03 0. -1.
        -11    1    4    4    0    0  0.16211282249E+02  0.52689074695E+01 -0.32595866384E+01  0.17354882984E+02  0.51100000000E-03 0.  1.
         12    1    4    4    0    0  0.49050029097E+01  0.69433593435E+01  0.70655293635E+01  0.11054003696E+02  0.00000000000E+00 0. -1.
</event>
<event>
 8    1  0.2511738E-006  0.9118800E+02  0.7816164E-02  0.1184000E+00
        -11   -1    0    0    0    0  0.00000000000E+00  0.00000000000E+00  0.45593999997E+02  0.45594000000E+02  0.51100000000E-03 0.  1.
         11   -1    0    0    0    0 -0.00000000000E+00 -0.00000000000E+00 -0.45593999997E+02  0.45594000000E+02  0.51100000000E-03 0. -1.
         23    2    1    2    0    0 -0.71054273576E-14  0.88817841970E-15  0.35527136788E-14  0.91188000000E+02  0.91188000000E+02 0.  0.
    9900012    2    3    3    0    0  0.27648844440E+02 -0.69604920852E+01 -0.23299627367E+02  0.54367086318E+02  0.40000004878E+02 0.  0.
        -12    1    3    3    0    0 -0.27648844440E+02  0.69604920852E+01  0.23299627367E+02  0.36820913682E+02  0.00000000000E+00 0.  1.
         11    1    4    4    0    0  0.25574493155E+02 -0.33464135380E+01 -0.22425316274E+02  0.34178180085E+02  0.51100000000E-03 0. -1.
        -11    1    4    4    0    0  0.94134287060E+01 -0.10508852104E+00 -0.54275070739E+01  0.10866531963E+02  0.51100000000E-03 0.  1.
        -12    1    4    4    0    0 -0.73390774204E+01 -0.35089900262E+01  0.45531959807E+01  0.93223742697E+01  0.00000000000E+00 0.  1.
</event>
<event>
 8    1  0.2511738E-006  0.9118800E+02  0.7816164E-02  0.1184000E+00
        -11   -1    0    0    0    0  0.00000000000E+00  0.00000000000E+00  0.45593999997E+02  0.45594000000E+02  0.51100000000E-03 0. -1.
         11   -1    0    0    0    0 -0.00000000000E+00 -0.00000000000E+00 -0.45593999997E+02  0.45594000000E+02  0.51100000000E-03 0.  1.
         23    2    1    2    0    0 -0.26645352591E-14  0.35527136788E-14  0.00000000000E+00  0.91188000000E+02  0.91188000000E+02 0.  0.
    9900012    2    3    3    0    0  0.68104814968E+01  0.26160875775E+02  0.25000154274E+02  0.54367057681E+02  0.39999939596E+02 0.  0.
        -12    1    3    3    0    0 -0.68104814968E+01 -0.26160875775E+02 -0.25000154274E+02  0.36820942319E+02  0.00000000000E+00 0.  1.
         11    1    4    4    0    0 -0.84457996593E+01  0.30098791801E+02  0.22051647225E+02  0.38256292886E+02  0.51100000000E-03 0. -1.
        -11    1    4    4    0    0  0.70447326381E+01 -0.21531543620E+01  0.21274110965E+01  0.76674774133E+01  0.51100000000E-03 0.  1.
         12    1    4    4    0    0  0.82115485179E+01 -0.17847616639E+01  0.82109595159E+00  0.84432873823E+01  0.00000000000E+00 0. -1.
</event>
<event>
 8    1  0.2511738E-006  0.9118800E+02  0.7816164E-02  0.1184000E+00
        -11   -1    0    0    0    0  0.00000000000E+00  0.00000000000E+00  0.45593999997E+02  0.45594000000E+02  0.51100000000E-03 0. -1.
         11   -1    0    0    0    0 -0.00000000000E+00 -0.00000000000E+00 -0.45593999997E+02  0.45594000000E+02  0.51100000000E-03 0.  1.
         23    2    1    2    0    0  0.53290705182E-14  0.35527136788E-14  0.00000000000E+00  0.91188000000E+02  0.91188000000E+02 0.  0.
    9900012    2    3    3    0    0 -0.70899859646E+01  0.27801323003E+02 -0.23078111656E+02  0.54367072536E+02  0.39999973461E+02 0.  0.
         12    1    3    3    0    0  0.70899859646E+01 -0.27801323003E+02  0.23078111656E+02  0.36820927464E+02  0.00000000000E+00 0. -1.
         11    1    4    4    0    0  0.12438010810E+02 -0.14132897637E+01 -0.20224134655E+01  0.12680365032E+02  0.51100000000E-03 0. -1.
        -11    1    4    4    0    0 -0.10728255799E+01  0.40457292925E+01 -0.52145759972E+01  0.66866047681E+01  0.51100000000E-03 0.  1.
         12    1    4    4    0    0 -0.18455171195E+02  0.25168883474E+02 -0.15841122193E+02  0.35000102736E+02  0.00000000000E+00 0. -1.
</event>
<event>
 8    1  0.2511738E-006  0.9118800E+02  0.7816164E-02  0.1184000E+00
        -11   -1    0    0    0    0  0.00000000000E+00  0.00000000000E+00  0.45593999997E+02  0.45594000000E+02  0.51100000000E-03 0. -1.
         11   -1    0    0    0    0 -0.00000000000E+00 -0.00000000000E+00 -0.45593999997E+02  0.45594000000E+02  0.51100000000E-03 0.  1.
         23    2    1    2    0    0  0.00000000000E+00 -0.35527136788E-14 -0.35527136788E-14  0.91188000000E+02  0.91188000000E+02 0.  0.
    9900012    2    3    3    0    0  0.11027673924E+02 -0.31821229212E+02 -0.14885574118E+02  0.54367074732E+02  0.39999978466E+02 0.  0.
         12    1    3    3    0    0 -0.11027673924E+02  0.31821229212E+02  0.14885574118E+02  0.36820925268E+02  0.00000000000E+00 0. -1.
         11    1    4    4    0    0  0.73852352727E+00 -0.16841506927E+01  0.99829764254E+01  0.10150940800E+02  0.51100000000E-03 0. -1.
        -11    1    4    4    0    0 -0.27521507260E+01 -0.74704070515E+01  0.23737306728E+00  0.79647762912E+01  0.51100000000E-03 0.  1.
        -12    1    4    4    0    0  0.13041301123E+02 -0.22666671468E+02 -0.25105923611E+02  0.36251357641E+02  0.00000000000E+00 0.  1.
</event>
<event>
 8    1  0.2511738E-006  0.9118800E+02  0.7816164E-02  0.1184000E+00
        -11   -1    0    0    0    0  0.00000000000E+00  0.00000000000E+00  0.45593999997E+02  0.45594000000E+02  0.51100000000E-03 0. -1.
         11   -1    0    0    0    0 -0.00000000000E+00 -0.00000000000E+00 -0.45593999997E+02  0.45594000000E+02  0.51100000000E-03 0.  1.
         23    2    1    2    0    0  0.00000000000E+00 -0.22204460493E-15  0.88817841970E-15  0.91188000000E+02  0.91188000000E+02 0.  0.
    9900012    2    3    3    0    0  0.36233849674E+02  0.19020657022E+01 -0.62665576027E+01  0.54367089360E+02  0.40000011814E+02 0.  0.
         12    1    3    3    0    0 -0.36233849674E+02 -0.19020657022E+01  0.62665576027E+01  0.36820910640E+02  0.00000000000E+00 0. -1.
         11    1    4    4    0    0  0.98461526417E+01  0.15916331038E+02  0.68057963545E+01  0.19914697583E+02  0.51100000000E-03 0.  1.
        -11    1    4    4    0    0  0.33441706970E+01 -0.45710008066E+01  0.11422859106E+01  0.57777455281E+01  0.51100000000E-03 0. -1.
        -12    1    4    4    0    0  0.23043526336E+02 -0.94432645287E+01 -0.14214639868E+02  0.28674646249E+02  0.00000000000E+00 0.  1.
</event>
<event>
 8    1  0.2511738E-006  0.9118800E+02  0.7816164E-02  0.1184000E+00
        -11   -1    0    0    0    0  0.00000000000E+00  0.00000000000E+00  0.45593999997E+02  0.45594000000E+02  0.51100000000E-03 0. -1.
         11   -1    0    0    0    0 -0.00000000000E+00 -0.00000000000E+00 -0.45593999997E+02  0.45594000000E+02  0.51100000000E-03 0.  1.
         23    2    1    2    0    0  0.71054273576E-14  0.26645352591E-14  0.11102230246E-14  0.91188000000E+02  0.91188000000E+02 0.  0.
    9900012    2    3    3    0    0  0.36319458105E+02  0.57249657775E+01  0.19753852475E+01  0.54367076369E+02  0.39999982199E+02 0.  0.
         12    1    3    3    0    0 -0.36319458105E+02 -0.57249657775E+01 -0.19753852475E+01  0.36820923631E+02  0.00000000000E+00 0. -1.
         11    1    4    4    0    0 -0.94427248100E+00  0.16158427411E+01 -0.56136742869E+01  0.59174265980E+01  0.51100000000E-03 0. -1.
        -11    1    4    4    0    0  0.31970478896E+02 -0.72842733677E+01 -0.16870323931E+01  0.32833188055E+02  0.51100000000E-03 0.  1.
        -12    1    4    4    0    0  0.52932516898E+01  0.11393396404E+02  0.92760919275E+01  0.15616461716E+02  0.00000000000E+00 0.  1.
</event>
<event>
 8    1  0.2511738E-006  0.9118800E+02  0.7816164E-02  0.1184000E+00
        -11   -1    0    0    0    0  0.00000000000E+00  0.00000000000E+00  0.45593999997E+02  0.45594000000E+02  0.51100000000E-03 0.  1.
         11   -1    0    0    0    0 -0.00000000000E+00 -0.00000000000E+00 -0.45593999997E+02  0.45594000000E+02  0.51100000000E-03 0. -1.
         23    2    1    2    0    0 -0.35527136788E-14  0.00000000000E+00  0.00000000000E+00  0.91188000000E+02  0.91188000000E+02 0.  0.
    9900012    2    3    3    0    0 -0.81861805684E+01  0.27752052848E+02  0.22772585081E+02  0.54367073601E+02  0.39999975889E+02 0.  0.
         12    1    3    3    0    0  0.81861805684E+01 -0.27752052848E+02 -0.22772585081E+02  0.36820926399E+02  0.00000000000E+00 0. -1.
         11    1    4    4    0    0  0.10854705741E+02  0.81220934755E+01  0.20496339064E+02  0.24574233547E+02  0.51100000000E-03 0. -1.
        -11    1    4    4    0    0 -0.16819556768E+02  0.17840211388E+02  0.58629870450E+01  0.25210022801E+02  0.51100000000E-03 0.  1.
        -12    1    4    4    0    0 -0.22213295406E+01  0.17897479842E+01 -0.35867410278E+01  0.45828172532E+01  0.00000000000E+00 0.  1.
</event>
<event>
 8    1  0.2511738E-006  0.9118800E+02  0.7816164E-02  0.1184000E+00
        -11   -1    0    0    0    0  0.00000000000E+00  0.00000000000E+00  0.45593999997E+02  0.45594000000E+02  0.51100000000E-03 0. -1.
         11   -1    0    0    0    0 -0.00000000000E+00 -0.00000000000E+00 -0.45593999997E+02  0.45594000000E+02  0.51100000000E-03 0.  1.
         23    2    1    2    0    0  0.00000000000E+00  0.00000000000E+00  0.00000000000E+00  0.91188000000E+02  0.91188000000E+02 0.  0.
    9900012    2    3    3    0    0 -0.29957274348E+02 -0.20307492824E+02 -0.67784808005E+01  0.54367077237E+02  0.39999984177E+02 0.  0.
         12    1    3    3    0    0  0.29957274348E+02  0.20307492824E+02  0.67784808005E+01  0.36820922763E+02  0.00000000000E+00 0. -1.
         11    1    4    4    0    0  0.25650099542E+00 -0.16284229614E+01  0.14897446208E+01  0.22219121041E+01  0.51100000000E-03 0. -1.
        -11    1    4    4    0    0 -0.15461312918E+02 -0.73337918214E+01  0.14716889298E+02  0.22570412723E+02  0.51100000000E-03 0.  1.
         12    1    4    4    0    0 -0.14752462426E+02 -0.11345278041E+02 -0.22985114719E+02  0.29574752410E+02  0.00000000000E+00 0. -1.
</event>
<event>
 8    1  0.2511738E-006  0.9118800E+02  0.7816164E-02  0.1184000E+00
        -11   -1    0    0    0    0  0.00000000000E+00  0.00000000000E+00  0.45593999997E+02  0.45594000000E+02  0.51100000000E-03 0.  1.
         11   -1    0    0    0    0 -0.00000000000E+00 -0.00000000000E+00 -0.45593999997E+02  0.45594000000E+02  0.51100000000E-03 0. -1.
         23    2    1    2    0    0  0.00000000000E+00  0.00000000000E+00  0.17763568394E-14  0.91188000000E+02  0.91188000000E+02 0.  0.
    9900012    2    3    3    0    0  0.19713429048E+02 -0.27183581354E+02  0.15106789586E+02  0.54367062048E+02  0.39999949552E+02 0.  0.
         12    1    3    3    0    0 -0.19713429048E+02  0.27183581354E+02 -0.15106789586E+02  0.36820937952E+02  0.00000000000E+00 0. -1.
         11    1    4    4    0    0  0.83555976559E+01 -0.17164645314E+02  0.18657704308E+02  0.26693650766E+02  0.51100000000E-03 0.  1.
        -11    1    4    4    0    0  0.14917832806E+02 -0.14710248676E+02 -0.51432119898E+01  0.21572801894E+02  0.51100000000E-03 0. -1.
         12    1    4    4    0    0 -0.35600014137E+01  0.46913126361E+01  0.15922972685E+01  0.61006093881E+01  0.00000000000E+00 0. -1.
</event>
<event>
 8    1  0.2511738E-006  0.9118800E+02  0.7816164E-02  0.1184000E+00
        -11   -1    0    0    0    0  0.00000000000E+00  0.00000000000E+00  0.45593999997E+02  0.45594000000E+02  0.51100000000E-03 0.  1.
         11   -1    0    0    0    0 -0.00000000000E+00 -0.00000000000E+00 -0.45593999997E+02  0.45594000000E+02  0.51100000000E-03 0. -1.
         23    2    1    2    0    0  0.00000000000E+00  0.35527136788E-14  0.00000000000E+00  0.91188000000E+02  0.91188000000E+02 0.  0.
    9900012    2    3    3    0    0  0.16977211215E+02 -0.19078839758E+02  0.26524552276E+02  0.54367086098E+02  0.40000004378E+02 0.  0.
         12    1    3    3    0    0 -0.16977211215E+02  0.19078839758E+02 -0.26524552276E+02  0.36820913902E+02  0.00000000000E+00 0. -1.
         11    1    4    4    0    0  0.60133356183E+01  0.50320623227E+01 -0.41956699824E+01  0.88930030552E+01  0.51100000000E-03 0. -1.
        -11    1    4    4    0    0  0.12152569333E+02 -0.58835774531E+01  0.60950272543E+01  0.14813871288E+02  0.51100000000E-03 0.  1.
        -12    1    4    4    0    0 -0.11886937366E+01 -0.18227324628E+02  0.24625195004E+02  0.30660211755E+02  0.00000000000E+00 0.  1.
</event>
<event>
 8    1  0.2511738E-006  0.9118800E+02  0.7816164E-02  0.1184000E+00
        -11   -1    0    0    0    0  0.00000000000E+00  0.00000000000E+00  0.45593999997E+02  0.45594000000E+02  0.51100000000E-03 0. -1.
         11   -1    0    0    0    0 -0.00000000000E+00 -0.00000000000E+00 -0.45593999997E+02  0.45594000000E+02  0.51100000000E-03 0.  1.
         23    2    1    2    0    0  0.35527136788E-14 -0.35527136788E-14 -0.88817841970E-15  0.91188000000E+02  0.91188000000E+02 0.  0.
    9900012    2    3    3    0    0 -0.25061599176E+02  0.26498341916E+02  0.50531247985E+01  0.54367082742E+02  0.39999996726E+02 0.  0.
        -12    1    3    3    0    0  0.25061599176E+02 -0.26498341916E+02 -0.50531247985E+01  0.36820917258E+02  0.00000000000E+00 0.  1.
         11    1    4    4    0    0 -0.55737299020E+01  0.26957038615E+02 -0.10420155555E+00  0.27527427307E+02  0.51100000000E-03 0. -1.
        -11    1    4    4    0    0 -0.46521103976E+01 -0.14253328233E+01  0.10068306281E+02  0.11182329652E+02  0.51100000000E-03 0.  1.
        -12    1    4    4    0    0 -0.14835758876E+02  0.96663612343E+00 -0.49109799270E+01  0.15657325783E+02  0.00000000000E+00 0.  1.
</event>
<event>
 8    1  0.2511738E-006  0.9118800E+02  0.7816164E-02  0.1184000E+00
        -11   -1    0    0    0    0  0.00000000000E+00  0.00000000000E+00  0.45593999997E+02  0.45594000000E+02  0.51100000000E-03 0. -1.
         11   -1    0    0    0    0 -0.00000000000E+00 -0.00000000000E+00 -0.45593999997E+02  0.45594000000E+02  0.51100000000E-03 0.  1.
         23    2    1    2    0    0 -0.13322676296E-14  0.00000000000E+00  0.00000000000E+00  0.91188000000E+02  0.91188000000E+02 0.  0.
    9900012    2    3    3    0    0 -0.36879701512E+01 -0.10104644913E+02  0.35214702108E+02  0.54367079082E+02  0.39999988383E+02 0.  0.
        -12    1    3    3    0    0  0.36879701512E+01  0.10104644913E+02 -0.35214702108E+02  0.36820920918E+02  0.00000000000E+00 0.  1.
         11    1    4    4    0    0  0.15913479770E+02 -0.68501671303E+00  0.16920631607E+02  0.23238241338E+02  0.51100000000E-03 0. -1.
        -11    1    4    4    0    0 -0.63986961783E+01 -0.94594586034E+01  0.11777784069E+02  0.16405513332E+02  0.51100000000E-03 0.  1.
        -12    1    4    4    0    0 -0.13202753743E+02  0.39830403216E-01  0.65162864327E+01  0.14723324411E+02  0.00000000000E+00 0.  1.
</event>
<event>
 8    1  0.2511738E-006  0.9118800E+02  0.7816164E-02  0.1184000E+00
        -11   -1    0    0    0    0  0.00000000000E+00  0.00000000000E+00  0.45593999997E+02  0.45594000000E+02  0.51100000000E-03 0. -1.
         11   -1    0    0    0    0 -0.00000000000E+00 -0.00000000000E+00 -0.45593999997E+02  0.45594000000E+02  0.51100000000E-03 0.  1.
         23    2    1    2    0    0  0.00000000000E+00  0.00000000000E+00 -0.35527136788E-14  0.91188000000E+02  0.91188000000E+02 0.  0.
    9900012    2    3    3    0    0 -0.26716171740E+02  0.12772987048E+01  0.25306368567E+02  0.54366842841E+02  0.39999449822E+02 0.  0.
        -12    1    3    3    0    0  0.26716171740E+02 -0.12772987048E+01 -0.25306368567E+02  0.36821157159E+02  0.00000000000E+00 0.  1.
         11    1    4    4    0    0 -0.26350266828E+02 -0.20453269196E+01  0.10591095118E+02  0.28472639853E+02  0.51100000000E-03 0. -1.
        -11    1    4    4    0    0 -0.23813612395E+01  0.11287730458E+02  0.36255275876E+01  0.12092484889E+02  0.51100000000E-03 0.  1.
        -12    1    4    4    0    0  0.20154563277E+01 -0.79651048333E+01  0.11089745862E+02  0.13801718100E+02  0.00000000000E+00 0.  1.
</event>
<event>
 8    1  0.2511738E-006  0.9118800E+02  0.7816164E-02  0.1184000E+00
        -11   -1    0    0    0    0  0.00000000000E+00  0.00000000000E+00  0.45593999997E+02  0.45594000000E+02  0.51100000000E-03 0.  1.
         11   -1    0    0    0    0 -0.00000000000E+00 -0.00000000000E+00 -0.45593999997E+02  0.45594000000E+02  0.51100000000E-03 0. -1.
         23    2    1    2    0    0 -0.35527136788E-14  0.00000000000E+00  0.00000000000E+00  0.91188000000E+02  0.91188000000E+02 0.  0.
    9900012    2    3    3    0    0  0.27622243014E+02  0.23824820432E+02 -0.50168853646E+01  0.54367088597E+02  0.40000010075E+02 0.  0.
        -12    1    3    3    0    0 -0.27622243014E+02 -0.23824820432E+02  0.50168853646E+01  0.36820911403E+02  0.00000000000E+00 0.  1.
         11    1    4    4    0    0  0.16976409514E+02  0.13521459003E+02  0.96311234607E+01  0.23744196616E+02  0.51100000000E-03 0. -1.
        -11    1    4    4    0    0  0.20235506848E+01  0.15942944131E+02 -0.11787511227E+02  0.19930319769E+02  0.51100000000E-03 0.  1.
         12    1    4    4    0    0  0.86222828156E+01 -0.56395827013E+01 -0.28604975984E+01  0.10692572212E+02  0.00000000000E+00 0. -1.
</event>
<event>
 8    1  0.2511738E-006  0.9118800E+02  0.7816164E-02  0.1184000E+00
        -11   -1    0    0    0    0  0.00000000000E+00  0.00000000000E+00  0.45593999997E+02  0.45594000000E+02  0.51100000000E-03 0. -1.
         11   -1    0    0    0    0 -0.00000000000E+00 -0.00000000000E+00 -0.45593999997E+02  0.45594000000E+02  0.51100000000E-03 0.  1.
         23    2    1    2    0    0  0.00000000000E+00  0.00000000000E+00  0.00000000000E+00  0.91188000000E+02  0.91188000000E+02 0.  0.
    9900012    2    3    3    0    0  0.16382652326E+02  0.29152494669E+02  0.15411936977E+02  0.54366986379E+02  0.39999777048E+02 0.  0.
         12    1    3    3    0    0 -0.16382652326E+02 -0.29152494669E+02 -0.15411936977E+02  0.36821013621E+02  0.00000000000E+00 0. -1.
         11    1    4    4    0    0 -0.66279875269E+01  0.33907695226E+01  0.65724597306E+01  0.99310001402E+01  0.51100000000E-03 0. -1.
        -11    1    4    4    0    0  0.80049074901E+01  0.14753485643E+02  0.17200679139E+02  0.24033460959E+02  0.51100000000E-03 0.  1.
         12    1    4    4    0    0  0.15005732363E+02  0.11008239503E+02 -0.83612018923E+01  0.20402525280E+02  0.00000000000E+00 0. -1.
</event>
<event>
 8    1  0.2511738E-006  0.9118800E+02  0.7816164E-02  0.1184000E+00
        -11   -1    0    0    0    0  0.00000000000E+00  0.00000000000E+00  0.45593999997E+02  0.45594000000E+02  0.51100000000E-03 0.  1.
         11   -1    0    0    0    0 -0.00000000000E+00 -0.00000000000E+00 -0.45593999997E+02  0.45594000000E+02  0.51100000000E-03 0. -1.
         23    2    1    2    0    0  0.88817841970E-15  0.00000000000E+00  0.00000000000E+00  0.91188000000E+02  0.91188000000E+02 0.  0.
    9900012    2    3    3    0    0 -0.57673039386E+01  0.24901751670E+02  0.26503223784E+02  0.54367083364E+02  0.39999998145E+02 0.  0.
         12    1    3    3    0    0  0.57673039386E+01 -0.24901751670E+02 -0.26503223784E+02  0.36820916636E+02  0.00000000000E+00 0. -1.
         11    1    4    4    0    0 -0.32237047535E+01 -0.17910062460E+01  0.24617340754E+01  0.44339723308E+01  0.51100000000E-03 0. -1.
        -11    1    4    4    0    0 -0.14629183713E+02  0.15562813033E+02  0.67653709137E+00  0.21369882271E+02  0.51100000000E-03 0.  1.
        -12    1    4    4    0    0  0.12085584528E+02  0.11129944883E+02  0.23364952618E+02  0.28563228762E+02  0.00000000000E+00 0.  1.
</event>
<event>
 8    1  0.2511738E-006  0.9118800E+02  0.7816164E-02  0.1184000E+00
        -11   -1    0    0    0    0  0.00000000000E+00  0.00000000000E+00  0.45593999997E+02  0.45594000000E+02  0.51100000000E-03 0. -1.
         11   -1    0    0    0    0 -0.00000000000E+00 -0.00000000000E+00 -0.45593999997E+02  0.45594000000E+02  0.51100000000E-03 0.  1.
         23    2    1    2    0    0 -0.44408920985E-15 -0.17763568394E-14  0.00000000000E+00  0.91188000000E+02  0.91188000000E+02 0.  0.
    9900012    2    3    3    0    0  0.26064003032E+01 -0.14290529922E+02  0.33834380664E+02  0.54367110781E+02  0.40000060647E+02 0.  0.
        -12    1    3    3    0    0 -0.26064003032E+01  0.14290529922E+02 -0.33834380664E+02  0.36820889219E+02  0.00000000000E+00 0.  1.
         11    1    4    4    0    0  0.11821159305E+02 -0.14693688522E+02  0.28336486846E+02  0.34038225229E+02  0.51100000000E-03 0. -1.
        -11    1    4    4    0    0  0.25341043987E+01  0.18109587391E+01 -0.40606233565E+01  0.51176087153E+01  0.51100000000E-03 0.  1.
         12    1    4    4    0    0 -0.11748863400E+02 -0.14078001387E+01  0.95585171742E+01  0.15211276836E+02  0.00000000000E+00 0. -1.
</event>
<event>
 8    1  0.2511738E-006  0.9118800E+02  0.7816164E-02  0.1184000E+00
        -11   -1    0    0    0    0  0.00000000000E+00  0.00000000000E+00  0.45593999997E+02  0.45594000000E+02  0.51100000000E-03 0.  1.
         11   -1    0    0    0    0 -0.00000000000E+00 -0.00000000000E+00 -0.45593999997E+02  0.45594000000E+02  0.51100000000E-03 0. -1.
         23    2    1    2    0    0  0.00000000000E+00  0.17763568394E-14  0.00000000000E+00  0.91188000000E+02  0.91188000000E+02 0.  0.
    9900012    2    3    3    0    0  0.19854724785E+02  0.13332664724E+02  0.27996309829E+02  0.54367307326E+02  0.40000508708E+02 0.  0.
         12    1    3    3    0    0 -0.19854724785E+02 -0.13332664724E+02 -0.27996309829E+02  0.36820692674E+02  0.00000000000E+00 0. -1.
         11    1    4    4    0    0  0.25515760648E+02 -0.63698632866E+00  0.15263949491E+02  0.29739669591E+02  0.51100000000E-03 0.  1.
        -11    1    4    4    0    0 -0.46736306265E+01  0.40534603373E+01  0.13276936215E+02  0.14647539024E+02  0.51100000000E-03 0. -1.
         12    1    4    4    0    0 -0.98740523708E+00  0.99161907150E+01 -0.54457587722E+00  0.99800987111E+01  0.00000000000E+00 0. -1.
</event>
<event>
 8    1  0.2511738E-006  0.9118800E+02  0.7816164E-02  0.1184000E+00
        -11   -1    0    0    0    0  0.00000000000E+00  0.00000000000E+00  0.45593999997E+02  0.45594000000E+02  0.51100000000E-03 0. -1.
         11   -1    0    0    0    0 -0.00000000000E+00 -0.00000000000E+00 -0.45593999997E+02  0.45594000000E+02  0.51100000000E-03 0.  1.
         23    2    1    2    0    0  0.00000000000E+00 -0.35527136788E-14  0.00000000000E+00  0.91188000000E+02  0.91188000000E+02 0.  0.
    9900012    2    3    3    0    0  0.61177915186E+01 -0.20335806892E+02  0.30080020438E+02  0.54367081427E+02  0.39999993729E+02 0.  0.
        -12    1    3    3    0    0 -0.61177915186E+01  0.20335806892E+02 -0.30080020438E+02  0.36820918573E+02  0.00000000000E+00 0.  1.
         11    1    4    4    0    0  0.99477448116E+01 -0.15082481473E+02  0.16652367269E+02  0.24571125537E+02  0.51100000000E-03 0. -1.
        -11    1    4    4    0    0 -0.20658585161E+01 -0.12068279815E+02 -0.23969218811E+01  0.12476232760E+02  0.51100000000E-03 0.  1.
        -12    1    4    4    0    0 -0.17640947768E+01  0.68149543965E+01  0.15824575050E+02  0.17319723130E+02  0.00000000000E+00 0.  1.
</event>
<event>
 8    1  0.2511738E-006  0.9118800E+02  0.7816164E-02  0.1184000E+00
        -11   -1    0    0    0    0  0.00000000000E+00  0.00000000000E+00  0.45593999997E+02  0.45594000000E+02  0.51100000000E-03 0. -1.
         11   -1    0    0    0    0 -0.00000000000E+00 -0.00000000000E+00 -0.45593999997E+02  0.45594000000E+02  0.51100000000E-03 0.  1.
         23    2    1    2    0    0  0.00000000000E+00  0.00000000000E+00  0.00000000000E+00  0.91188000000E+02  0.91188000000E+02 0.  0.
    9900012    2    3    3    0    0 -0.74356159895E+01  0.27023209143E+02  0.23879644050E+02  0.54367087226E+02  0.40000006950E+02 0.  0.
        -12    1    3    3    0    0  0.74356159895E+01 -0.27023209143E+02 -0.23879644050E+02  0.36820912774E+02  0.00000000000E+00 0.  1.
         11    1    4    4    0    0 -0.11670806963E+02  0.79969376106E+01  0.21051549966E+02  0.25363881851E+02  0.51100000000E-03 0. -1.
        -11    1    4    4    0    0  0.38629659200E+01  0.22267688008E+02  0.70437003927E+01  0.23672476643E+02  0.51100000000E-03 0.  1.
         12    1    4    4    0    0  0.37222505370E+00 -0.32414164762E+01 -0.42156063086E+01  0.53307287318E+01  0.00000000000E+00 0. -1.
</event>
<event>
 8    1  0.2511738E-006  0.9118800E+02  0.7816164E-02  0.1184000E+00
        -11   -1    0    0    0    0  0.00000000000E+00  0.00000000000E+00  0.45593999997E+02  0.45594000000E+02  0.51100000000E-03 0.  1.
         11   -1    0    0    0    0 -0.00000000000E+00 -0.00000000000E+00 -0.45593999997E+02  0.45594000000E+02  0.51100000000E-03 0. -1.
         23    2    1    2    0    0 -0.35527136788E-14  0.44408920985E-15  0.00000000000E+00  0.91188000000E+02  0.91188000000E+02 0.  0.
    9900012    2    3    3    0    0  0.26405460387E+02 -0.39013585655E+01  0.25363579767E+02  0.54367080464E+02  0.39999991533E+02 0.  0.
         12    1    3    3    0    0 -0.26405460387E+02  0.39013585655E+01 -0.25363579767E+02  0.36820919536E+02  0.00000000000E+00 0. -1.
         11    1    4    4    0    0  0.23457096129E+02  0.61731709600E+01  0.20461861589E+02  0.31733754560E+02  0.51100000000E-03 0. -1.
        -11    1    4    4    0    0  0.89182751349E+01 -0.78203007098E+01  0.91385915020E+01  0.14973529626E+02  0.51100000000E-03 0.  1.
         12    1    4    4    0    0 -0.59699108772E+01 -0.22542288157E+01 -0.42368733246E+01  0.76597962769E+01  0.00000000000E+00 0. -1.
</event>
<event>
 8    1  0.2511738E-006  0.9118800E+02  0.7816164E-02  0.1184000E+00
        -11   -1    0    0    0    0  0.00000000000E+00  0.00000000000E+00  0.45593999997E+02  0.45594000000E+02  0.51100000000E-03 0. -1.
         11   -1    0    0    0    0 -0.00000000000E+00 -0.00000000000E+00 -0.45593999997E+02  0.45594000000E+02  0.51100000000E-03 0.  1.
         23    2    1    2    0    0  0.55511151231E-15  0.00000000000E+00  0.00000000000E+00  0.91188000000E+02  0.91188000000E+02 0.  0.
    9900012    2    3    3    0    0  0.79954541723E+00 -0.36426740873E+02  0.53135225399E+01  0.54367078701E+02  0.39999987515E+02 0.  0.
        -12    1    3    3    0    0 -0.79954541723E+00  0.36426740873E+02 -0.53135225399E+01  0.36820921299E+02  0.00000000000E+00 0.  1.
         11    1    4    4    0    0 -0.14713507109E+01 -0.45094060219E+01 -0.14091711011E+02  0.14868622501E+02  0.51100000000E-03 0. -1.
        -11    1    4    4    0    0  0.27904503338E+01 -0.41039567218E+01  0.80395936950E+01  0.94479701990E+01  0.51100000000E-03 0.  1.
         12    1    4    4    0    0 -0.51955420566E+00 -0.27813378130E+02  0.11365639856E+02  0.30050486001E+02  0.00000000000E+00 0. -1.
</event>
<event>
 8    1  0.2511738E-006  0.9118800E+02  0.7816164E-02  0.1184000E+00
        -11   -1    0    0    0    0  0.00000000000E+00  0.00000000000E+00  0.45593999997E+02  0.45594000000E+02  0.51100000000E-03 0. -1.
         11   -1    0    0    0    0 -0.00000000000E+00 -0.00000000000E+00 -0.45593999997E+02  0.45594000000E+02  0.51100000000E-03 0.  1.
         23    2    1    2    0    0  0.00000000000E+00  0.35527136788E-14  0.00000000000E+00  0.91188000000E+02  0.91188000000E+02 0.  0.
    9900012    2    3    3    0    0 -0.73626053916E+01 -0.15538223756E+02 -0.32559718345E+02  0.54367087270E+02  0.40000007048E+02 0.  0.
         12    1    3    3    0    0  0.73626053916E+01  0.15538223756E+02  0.32559718345E+02  0.36820912730E+02  0.00000000000E+00 0. -1.
         11    1    4    4    0    0 -0.11566901291E+02  0.10348770580E+01  0.19092559841E+01  0.11769003130E+02  0.51100000000E-03 0. -1.
        -11    1    4    4    0    0 -0.65345619004E+00 -0.15468354019E+02 -0.34278489200E+02  0.37612654827E+02  0.51100000000E-03 0.  1.
        -12    1    4    4    0    0  0.48577520897E+01 -0.11047467947E+01 -0.19048512879E+00  0.49854293124E+01  0.00000000000E+00 0.  1.
</event>
<event>
 8    1  0.2511738E-006  0.9118800E+02  0.7816164E-02  0.1184000E+00
        -11   -1    0    0    0    0  0.00000000000E+00  0.00000000000E+00  0.45593999997E+02  0.45594000000E+02  0.51100000000E-03 0. -1.
         11   -1    0    0    0    0 -0.00000000000E+00 -0.00000000000E+00 -0.45593999997E+02  0.45594000000E+02  0.51100000000E-03 0.  1.
         23    2    1    2    0    0  0.17763568394E-14  0.00000000000E+00 -0.17763568394E-14  0.91188000000E+02  0.91188000000E+02 0.  0.
    9900012    2    3    3    0    0  0.54085909282E+01 -0.34115687002E+02 -0.12753311166E+02  0.54367083375E+02  0.39999998170E+02 0.  0.
         12    1    3    3    0    0 -0.54085909282E+01  0.34115687002E+02  0.12753311166E+02  0.36820916625E+02  0.00000000000E+00 0. -1.
         11    1    4    4    0    0  0.16420429378E+02 -0.60571223309E+01  0.70369654215E+00  0.17516118891E+02  0.51100000000E-03 0. -1.
        -11    1    4    4    0    0 -0.68369288532E+01 -0.15477775331E+02  0.13538825984E+01  0.16974631769E+02  0.51100000000E-03 0.  1.
        -12    1    4    4    0    0 -0.41749095970E+01 -0.12580789340E+02 -0.14810890306E+02  0.19876332716E+02  0.00000000000E+00 0.  1.
</event>
<event>
 8    1  0.2511738E-006  0.9118800E+02  0.7816164E-02  0.1184000E+00
        -11   -1    0    0    0    0  0.00000000000E+00  0.00000000000E+00  0.45593999997E+02  0.45594000000E+02  0.51100000000E-03 0. -1.
         11   -1    0    0    0    0 -0.00000000000E+00 -0.00000000000E+00 -0.45593999997E+02  0.45594000000E+02  0.51100000000E-03 0.  1.
         23    2    1    2    0    0  0.35527136788E-14  0.00000000000E+00  0.35527136788E-14  0.91188000000E+02  0.91188000000E+02 0.  0.
    9900012    2    3    3    0    0  0.16593700569E+02  0.82863869284E+01  0.31808246153E+02  0.54367087053E+02  0.40000006555E+02 0.  0.
        -12    1    3    3    0    0 -0.16593700569E+02 -0.82863869284E+01 -0.31808246153E+02  0.36820912947E+02  0.00000000000E+00 0.  1.
         11    1    4    4    0    0  0.83703270434E+01 -0.13845130699E+02  0.22043420791E+02  0.27343416380E+02  0.51100000000E-03 0. -1.
        -11    1    4    4    0    0  0.79028393644E+01  0.11016373958E+02  0.26266752805E+01  0.13809952516E+02  0.51100000000E-03 0.  1.
         12    1    4    4    0    0  0.32053416085E+00  0.11115143669E+02  0.71381500820E+01  0.13213718157E+02  0.00000000000E+00 0. -1.
</event>
<event>
 8    1  0.2511738E-006  0.9118800E+02  0.7816164E-02  0.1184000E+00
        -11   -1    0    0    0    0  0.00000000000E+00  0.00000000000E+00  0.45593999997E+02  0.45594000000E+02  0.51100000000E-03 0. -1.
         11   -1    0    0    0    0 -0.00000000000E+00 -0.00000000000E+00 -0.45593999997E+02  0.45594000000E+02  0.51100000000E-03 0.  1.
         23    2    1    2    0    0  0.00000000000E+00  0.88817841970E-15  0.88817841970E-15  0.91188000000E+02  0.91188000000E+02 0.  0.
    9900012    2    3    3    0    0 -0.35892445632E+02  0.59956406279E+01  0.56191810406E+01  0.54366938696E+02  0.39999668344E+02 0.  0.
         12    1    3    3    0    0  0.35892445632E+02 -0.59956406279E+01 -0.56191810406E+01  0.36821061304E+02  0.00000000000E+00 0. -1.
         11    1    4    4    0    0 -0.17961520761E+01 -0.25338558114E+01  0.94156475746E+01  0.99146864329E+01  0.51100000000E-03 0. -1.
        -11    1    4    4    0    0 -0.21748248220E+02 -0.76434933392E+01  0.24121296059E+01  0.23178172071E+02  0.51100000000E-03 0.  1.
         12    1    4    4    0    0 -0.12348045336E+02  0.16172989779E+02 -0.62085961399E+01  0.21274080192E+02  0.00000000000E+00 0. -1.
</event>
