<event>
 8    1  0.2502431E-006  0.9118800E+02  0.7816164E-02  0.1184000E+00
        -11   -1    0    0    0    0  0.00000000000E+00  0.00000000000E+00  0.45593999997E+02  0.45594000000E+02  0.51100000000E-03 0. -1.
         11   -1    0    0    0    0 -0.00000000000E+00 -0.00000000000E+00 -0.45593999997E+02  0.45594000000E+02  0.51100000000E-03 0.  1.
         23    2    1    2    0    0  0.35527136788E-14  0.00000000000E+00 -0.17763568394E-14  0.91188000000E+02  0.91188000000E+02 0.  0.
    9900012    2    3    3    0    0 -0.31671119837E+02 -0.13116709137E+02  0.13441373746E+02  0.54367103507E+02  0.40000044066E+02 0.  0.
        -12    1    3    3    0    0  0.31671119837E+02  0.13116709137E+02 -0.13441373746E+02  0.36820896493E+02  0.00000000000E+00 0.  1.
         11    1    4    4    0    0 -0.27001496224E+02 -0.15630201218E+02  0.19658231638E+02  0.36875873682E+02  0.51100000000E-03 0. -1.
        -11    1    4    4    0    0  0.13716822749E+01  0.66918761410E+01  0.13305528753E+01  0.69593886057E+01  0.51100000000E-03 0.  1.
         12    1    4    4    0    0 -0.60413058878E+01 -0.41783840604E+01 -0.75474107669E+01  0.10531841219E+02  0.00000000000E+00 0. -1.
</event>
<event>
 8    1  0.2502431E-006  0.9118800E+02  0.7816164E-02  0.1184000E+00
        -11   -1    0    0    0    0  0.00000000000E+00  0.00000000000E+00  0.45593999997E+02  0.45594000000E+02  0.51100000000E-03 0.  1.
         11   -1    0    0    0    0 -0.00000000000E+00 -0.00000000000E+00 -0.45593999997E+02  0.45594000000E+02  0.51100000000E-03 0. -1.
         23    2    1    2    0    0  0.00000000000E+00  0.00000000000E+00 -0.17763568394E-14  0.91188000000E+02  0.91188000000E+02 0.  0.
    9900012    2    3    3    0    0 -0.27116644442E+02 -0.22979093912E+02 -0.96136479872E+01  0.54367171785E+02  0.40000199717E+02 0.  0.
         12    1    3    3    0    0  0.27116644442E+02  0.22979093912E+02  0.96136479872E+01  0.36820828215E+02  0.00000000000E+00 0. -1.
         11    1    4    4    0    0  0.86640243377E-01 -0.42804527556E+01 -0.24990999980E+01  0.49573464057E+01  0.51100000000E-03 0. -1.
        -11    1    4    4    0    0 -0.12828636573E+02 -0.24818566071E+02 -0.15213990276E+02  0.31811957477E+02  0.51100000000E-03 0.  1.
         12    1    4    4    0    0 -0.14374648113E+02  0.61199249147E+01  0.80994422870E+01  0.17597867902E+02  0.00000000000E+00 0. -1.
</event>
<event>
 8    1  0.2502431E-006  0.9118800E+02  0.7816164E-02  0.1184000E+00
        -11   -1    0    0    0    0  0.00000000000E+00  0.00000000000E+00  0.45593999997E+02  0.45594000000E+02  0.51100000000E-03 0. -1.
         11   -1    0    0    0    0 -0.00000000000E+00 -0.00000000000E+00 -0.45593999997E+02  0.45594000000E+02  0.51100000000E-03 0.  1.
         23    2    1    2    0    0 -0.71054273576E-14  0.00000000000E+00  0.17763568394E-14  0.91188000000E+02  0.91188000000E+02 0.  0.
    9900012    2    3    3    0    0 -0.35865961021E+02  0.27732004857E+01  0.78565538230E+01  0.54367038051E+02  0.39999894844E+02 0.  0.
         12    1    3    3    0    0  0.35865961021E+02 -0.27732004857E+01 -0.78565538230E+01  0.36820961949E+02  0.00000000000E+00 0. -1.
         11    1    4    4    0    0 -0.85561864676E+01 -0.12576789557E+02  0.10102543164E+02  0.18260485785E+02  0.51100000000E-03 0. -1.
        -11    1    4    4    0    0  0.14496930269E+01 -0.11937672910E+01 -0.22467043256E+01  0.29282026578E+01  0.51100000000E-03 0.  1.
        -12    1    4    4    0    0 -0.28759467580E+02  0.16543757334E+02  0.71498429497E-03  0.33178349608E+02  0.00000000000E+00 0.  1.
</event>
<event>
 8    1  0.2502431E-006  0.9118800E+02  0.7816164E-02  0.1184000E+00
        -11   -1    0    0    0    0  0.00000000000E+00  0.00000000000E+00  0.45593999997E+02  0.45594000000E+02  0.51100000000E-03 0. -1.
         11   -1    0    0    0    0 -0.00000000000E+00 -0.00000000000E+00 -0.45593999997E+02  0.45594000000E+02  0.51100000000E-03 0.  1.
         23    2    1    2    0    0  0.00000000000E+00  0.00000000000E+00  0.35527136788E-14  0.91188000000E+02  0.91188000000E+02 0.  0.
    9900012    2    3    3    0    0 -0.23143531767E+02 -0.66674888024E+01 -0.27851427123E+02  0.54367075753E+02  0.39999980795E+02 0.  0.
         12    1    3    3    0    0  0.23143531767E+02  0.66674888024E+01  0.27851427123E+02  0.36820924247E+02  0.00000000000E+00 0. -1.
         11    1    4    4    0    0  0.73719650741E+01 -0.12924068011E+02 -0.90283471711E+01  0.17403690870E+02  0.51100000000E-03 0. -1.
        -11    1    4    4    0    0 -0.19499149203E+02  0.79930515728E+00 -0.11759132810E+02  0.22784488431E+02  0.51100000000E-03 0.  1.
         12    1    4    4    0    0 -0.11016347638E+02  0.54572740515E+01 -0.70639471423E+01  0.14178896452E+02  0.00000000000E+00 0. -1.
</event>
<event>
 8    1  0.2502431E-006  0.9118800E+02  0.7816164E-02  0.1184000E+00
        -11   -1    0    0    0    0  0.00000000000E+00  0.00000000000E+00  0.45593999997E+02  0.45594000000E+02  0.51100000000E-03 0. -1.
         11   -1    0    0    0    0 -0.00000000000E+00 -0.00000000000E+00 -0.45593999997E+02  0.45594000000E+02  0.51100000000E-03 0.  1.
         23    2    1    2    0    0  0.00000000000E+00 -0.35527136788E-14 -0.35527136788E-14  0.91188000000E+02  0.91188000000E+02 0.  0.
    9900012    2    3    3    0    0 -0.39141339265E+01  0.19349487881E+02  0.31081479541E+02  0.54367061716E+02  0.39999948794E+02 0.  0.
        -12    1    3    3    0    0  0.39141339265E+01 -0.19349487881E+02 -0.31081479541E+02  0.36820938284E+02  0.00000000000E+00 0.  1.
         11    1    4    4    0    0  0.66134956991E+00  0.20999030936E+01  0.86138873833E+01  0.88907835633E+01  0.51100000000E-03 0. -1.
        -11    1    4    4    0    0 -0.17661508932E+02  0.18247778679E+01  0.42569487520E+01  0.18258705457E+02  0.51100000000E-03 0.  1.
         12    1    4    4    0    0  0.13086025436E+02  0.15424806920E+02  0.18210643406E+02  0.27217572696E+02  0.00000000000E+00 0. -1.
</event>
<event>
 8    1  0.2502431E-006  0.9118800E+02  0.7816164E-02  0.1184000E+00
        -11   -1    0    0    0    0  0.00000000000E+00  0.00000000000E+00  0.45593999997E+02  0.45594000000E+02  0.51100000000E-03 0. -1.
         11   -1    0    0    0    0 -0.00000000000E+00 -0.00000000000E+00 -0.45593999997E+02  0.45594000000E+02  0.51100000000E-03 0.  1.
         23    2    1    2    0    0 -0.17763568394E-14 -0.35527136788E-14  0.35527136788E-14  0.91188000000E+02  0.91188000000E+02 0.  0.
    9900012    2    3    3    0    0  0.13718617065E+02  0.20184748585E+02 -0.27570908065E+02  0.54367088806E+02  0.40000010551E+02 0.  0.
        -12    1    3    3    0    0 -0.13718617065E+02 -0.20184748585E+02  0.27570908065E+02  0.36820911194E+02  0.00000000000E+00 0.  1.
         11    1    4    4    0    0  0.10974489468E+02  0.16609658978E+01 -0.36302927121E+01  0.11678067144E+02  0.51100000000E-03 0. -1.
        -11    1    4    4    0    0 -0.14716436794E+01 -0.56094327880E+01  0.27853778846E+01  0.64334906189E+01  0.51100000000E-03 0.  1.
        -12    1    4    4    0    0  0.42157712769E+01  0.24133215476E+02 -0.26725993237E+02  0.36255531043E+02  0.00000000000E+00 0.  1.
</event>
<event>
 8    1  0.2502431E-006  0.9118800E+02  0.7816164E-02  0.1184000E+00
        -11   -1    0    0    0    0  0.00000000000E+00  0.00000000000E+00  0.45593999997E+02  0.45594000000E+02  0.51100000000E-03 0. -1.
         11   -1    0    0    0    0 -0.00000000000E+00 -0.00000000000E+00 -0.45593999997E+02  0.45594000000E+02  0.51100000000E-03 0.  1.
         23    2    1    2    0    0  0.00000000000E+00  0.00000000000E+00 -0.17763568394E-14  0.91188000000E+02  0.91188000000E+02 0.  0.
    9900012    2    3    3    0    0  0.99175752179E+01  0.34370220596E+02  0.87240974053E+01  0.54367078806E+02  0.39999987755E+02 0.  0.
         12    1    3    3    0    0 -0.99175752179E+01 -0.34370220596E+02 -0.87240974053E+01  0.36820921194E+02  0.00000000000E+00 0. -1.
         11    1    4    4    0    0  0.11337046836E+02  0.23467044407E+02  0.16787329298E+02  0.31000729498E+02  0.51100000000E-03 0. -1.
        -11    1    4    4    0    0 -0.69371984840E+01 -0.10528748369E+00 -0.85891393251E+01  0.11041246436E+02  0.51100000000E-03 0.  1.
         12    1    4    4    0    0  0.55177268658E+01  0.11008463672E+02  0.52590743265E+00  0.12325102873E+02  0.00000000000E+00 0. -1.
</event>
<event>
 8    1  0.2502431E-006  0.9118800E+02  0.7816164E-02  0.1184000E+00
        -11   -1    0    0    0    0  0.00000000000E+00  0.00000000000E+00  0.45593999997E+02  0.45594000000E+02  0.51100000000E-03 0.  1.
         11   -1    0    0    0    0 -0.00000000000E+00 -0.00000000000E+00 -0.45593999997E+02  0.45594000000E+02  0.51100000000E-03 0. -1.
         23    2    1    2    0    0  0.00000000000E+00  0.00000000000E+00  0.00000000000E+00  0.91188000000E+02  0.91188000000E+02 0.  0.
    9900012    2    3    3    0    0  0.11276722919E+02 -0.24469124038E+02 -0.25097378463E+02  0.54367069584E+02  0.39999966732E+02 0.  0.
        -12    1    3    3    0    0 -0.11276722919E+02  0.24469124038E+02  0.25097378463E+02  0.36820930416E+02  0.00000000000E+00 0.  1.
         11    1    4    4    0    0  0.87597382896E+01 -0.54481185547E+01 -0.94624446093E+01  0.13998316646E+02  0.51100000000E-03 0. -1.
        -11    1    4    4    0    0 -0.51596778929E+01 -0.20216951900E+02  0.21356902941E+01  0.20973998031E+02  0.51100000000E-03 0.  1.
        -12    1    4    4    0    0  0.76766625219E+01  0.11959464177E+01 -0.17770624148E+02  0.19394754907E+02  0.00000000000E+00 0.  1.
</event>
<event>
 8    1  0.2502431E-006  0.9118800E+02  0.7816164E-02  0.1184000E+00
        -11   -1    0    0    0    0  0.00000000000E+00  0.00000000000E+00  0.45593999997E+02  0.45594000000E+02  0.51100000000E-03 0.  1.
         11   -1    0    0    0    0 -0.00000000000E+00 -0.00000000000E+00 -0.45593999997E+02  0.45594000000E+02  0.51100000000E-03 0. -1.
         23    2    1    2    0    0  0.00000000000E+00  0.00000000000E+00  0.00000000000E+00  0.91188000000E+02  0.91188000000E+02 0.  0.
    9900012    2    3    3    0    0  0.24140837292E+02  0.26023948175E+02  0.97853815426E+01  0.54367087522E+02  0.40000007624E+02 0.  0.
         12    1    3    3    0    0 -0.24140837292E+02 -0.26023948175E+02 -0.97853815426E+01  0.36820912478E+02  0.00000000000E+00 0. -1.
         11    1    4    4    0    0 -0.18035704432E+01 -0.48651792143E+00 -0.58606312426E+01  0.61511433778E+01  0.51100000000E-03 0.  1.
        -11    1    4    4    0    0  0.61660994603E+01 -0.47919052958E+01 -0.49202586552E+00  0.78246551766E+01  0.51100000000E-03 0. -1.
         12    1    4    4    0    0  0.19778308275E+02  0.31302371392E+02  0.16138038651E+02  0.40391288968E+02  0.00000000000E+00 0. -1.
</event>
<event>
 8    1  0.2502431E-006  0.9118800E+02  0.7816164E-02  0.1184000E+00
        -11   -1    0    0    0    0  0.00000000000E+00  0.00000000000E+00  0.45593999997E+02  0.45594000000E+02  0.51100000000E-03 0. -1.
         11   -1    0    0    0    0 -0.00000000000E+00 -0.00000000000E+00 -0.45593999997E+02  0.45594000000E+02  0.51100000000E-03 0.  1.
         23    2    1    2    0    0  0.00000000000E+00  0.17763568394E-14  0.35527136788E-14  0.91188000000E+02  0.91188000000E+02 0.  0.
    9900012    2    3    3    0    0 -0.15402127334E+02 -0.11500053217E+02 -0.31405461945E+02  0.54367084879E+02  0.40000001599E+02 0.  0.
         12    1    3    3    0    0  0.15402127334E+02  0.11500053217E+02  0.31405461945E+02  0.36820915121E+02  0.00000000000E+00 0. -1.
         11    1    4    4    0    0  0.22484234551E+00 -0.15182242303E+01  0.88488724469E+01  0.89809856217E+01  0.51100000000E-03 0. -1.
        -11    1    4    4    0    0 -0.14842279129E+02 -0.46204694851E+01 -0.29696489094E+02  0.33519001369E+02  0.51100000000E-03 0.  1.
        -12    1    4    4    0    0 -0.78469055055E+00 -0.53613595016E+01 -0.10557845297E+02  0.11867097888E+02  0.00000000000E+00 0.  1.
</event>
<event>
 8    1  0.2502431E-006  0.9118800E+02  0.7816164E-02  0.1184000E+00
        -11   -1    0    0    0    0  0.00000000000E+00  0.00000000000E+00  0.45593999997E+02  0.45594000000E+02  0.51100000000E-03 0. -1.
         11   -1    0    0    0    0 -0.00000000000E+00 -0.00000000000E+00 -0.45593999997E+02  0.45594000000E+02  0.51100000000E-03 0.  1.
         23    2    1    2    0    0 -0.35527136788E-14  0.00000000000E+00 -0.35527136788E-14  0.91188000000E+02  0.91188000000E+02 0.  0.
    9900012    2    3    3    0    0 -0.18373023493E+02  0.16329330213E+02 -0.27414670044E+02  0.54367093560E+02  0.40000021388E+02 0.  0.
         12    1    3    3    0    0  0.18373023493E+02 -0.16329330213E+02  0.27414670044E+02  0.36820906440E+02  0.00000000000E+00 0. -1.
         11    1    4    4    0    0 -0.23063589067E+01  0.85569283340E+01  0.25574788496E+01  0.92239369169E+01  0.51100000000E-03 0. -1.
        -11    1    4    4    0    0 -0.11552832756E+02  0.79468851265E+01  0.79642731348E+00  0.14044757906E+02  0.51100000000E-03 0.  1.
        -12    1    4    4    0    0 -0.45138318301E+01 -0.17448324764E+00 -0.30768576207E+02  0.31098398737E+02  0.00000000000E+00 0.  1.
</event>
<event>
 8    1  0.2502431E-006  0.9118800E+02  0.7816164E-02  0.1184000E+00
        -11   -1    0    0    0    0  0.00000000000E+00  0.00000000000E+00  0.45593999997E+02  0.45594000000E+02  0.51100000000E-03 0.  1.
         11   -1    0    0    0    0 -0.00000000000E+00 -0.00000000000E+00 -0.45593999997E+02  0.45594000000E+02  0.51100000000E-03 0. -1.
         23    2    1    2    0    0  0.17763568394E-14  0.00000000000E+00  0.00000000000E+00  0.91188000000E+02  0.91188000000E+02 0.  0.
    9900012    2    3    3    0    0 -0.14124203348E+02 -0.10784855492E+02  0.32248622604E+02  0.54367083553E+02  0.39999998575E+02 0.  0.
         12    1    3    3    0    0  0.14124203348E+02  0.10784855492E+02 -0.32248622604E+02  0.36820916447E+02  0.00000000000E+00 0. -1.
         11    1    4    4    0    0 -0.61242794428E+01 -0.10143557203E+02 -0.49466348348E+01  0.12840083639E+02  0.51100000000E-03 0. -1.
        -11    1    4    4    0    0  0.49647778653E+00 -0.48782104520E+01  0.27586560257E+02  0.28018953130E+02  0.51100000000E-03 0.  1.
        -12    1    4    4    0    0 -0.84964016915E+01  0.42369121624E+01  0.96086971811E+01  0.13508046783E+02  0.00000000000E+00 0.  1.
</event>
<event>
 8    1  0.2502431E-006  0.9118800E+02  0.7816164E-02  0.1184000E+00
        -11   -1    0    0    0    0  0.00000000000E+00  0.00000000000E+00  0.45593999997E+02  0.45594000000E+02  0.51100000000E-03 0. -1.
         11   -1    0    0    0    0 -0.00000000000E+00 -0.00000000000E+00 -0.45593999997E+02  0.45594000000E+02  0.51100000000E-03 0.  1.
         23    2    1    2    0    0  0.00000000000E+00  0.00000000000E+00  0.00000000000E+00  0.91188000000E+02  0.91188000000E+02 0.  0.
    9900012    2    3    3    0    0  0.31689153133E+02  0.17324823114E+02  0.71713591532E+01  0.54367077764E+02  0.39999985379E+02 0.  0.
         12    1    3    3    0    0 -0.31689153133E+02 -0.17324823114E+02 -0.71713591532E+01  0.36820922236E+02  0.00000000000E+00 0. -1.
         11    1    4    4    0    0  0.19635361233E+02  0.10860318990E+02  0.24112489382E+01  0.22567854595E+02  0.51100000000E-03 0. -1.
        -11    1    4    4    0    0  0.17827810630E+02  0.13298385611E+02  0.15542169787E+01  0.22295593340E+02  0.51100000000E-03 0.  1.
         12    1    4    4    0    0 -0.57740187300E+01 -0.68338814875E+01  0.32058932364E+01  0.95036298288E+01  0.00000000000E+00 0. -1.
</event>
<event>
 8    1  0.2502431E-006  0.9118800E+02  0.7816164E-02  0.1184000E+00
        -11   -1    0    0    0    0  0.00000000000E+00  0.00000000000E+00  0.45593999997E+02  0.45594000000E+02  0.51100000000E-03 0. -1.
         11   -1    0    0    0    0 -0.00000000000E+00 -0.00000000000E+00 -0.45593999997E+02  0.45594000000E+02  0.51100000000E-03 0.  1.
         23    2    1    2    0    0  0.00000000000E+00  0.17763568394E-14  0.00000000000E+00  0.91188000000E+02  0.91188000000E+02 0.  0.
    9900012    2    3    3    0    0 -0.34521791548E+02 -0.46358541525E+01  0.11938793126E+02  0.54367081805E+02  0.39999994591E+02 0.  0.
        -12    1    3    3    0    0  0.34521791548E+02  0.46358541525E+01 -0.11938793126E+02  0.36820918195E+02  0.00000000000E+00 0.  1.
         11    1    4    4    0    0 -0.41526255715E+01  0.85649767260E+01 -0.34589739585E+01  0.10127567653E+02  0.51100000000E-03 0. -1.
        -11    1    4    4    0    0 -0.12412745077E+02  0.70383863940E+01  0.71063037062E+01  0.15940974751E+02  0.51100000000E-03 0.  1.
         12    1    4    4    0    0 -0.17956420899E+02 -0.20239217272E+02  0.82914633782E+01  0.28298539402E+02  0.00000000000E+00 0. -1.
</event>
<event>
 8    1  0.2502431E-006  0.9118800E+02  0.7816164E-02  0.1184000E+00
        -11   -1    0    0    0    0  0.00000000000E+00  0.00000000000E+00  0.45593999997E+02  0.45594000000E+02  0.51100000000E-03 0.  1.
         11   -1    0    0    0    0 -0.00000000000E+00 -0.00000000000E+00 -0.45593999997E+02  0.45594000000E+02  0.51100000000E-03 0. -1.
         23    2    1    2    0    0  0.00000000000E+00 -0.88817841970E-15 -0.17763568394E-14  0.91188000000E+02  0.91188000000E+02 0.  0.
    9900012    2    3    3    0    0  0.35747453462E+02  0.46674692186E+01 -0.74909267866E+01  0.54367086350E+02  0.40000004951E+02 0.  0.
        -12    1    3    3    0    0 -0.35747453462E+02 -0.46674692186E+01  0.74909267866E+01  0.36820913650E+02  0.00000000000E+00 0.  1.
         11    1    4    4    0    0  0.99349687187E+01 -0.37276466005E+01 -0.13961595939E+02  0.17536393986E+02  0.51100000000E-03 0. -1.
        -11    1    4    4    0    0  0.16579982637E+02  0.63039177824E+01 -0.80641369101E+01  0.19485007262E+02  0.51100000000E-03 0.  1.
        -12    1    4    4    0    0  0.92325021066E+01  0.20911980368E+01  0.14534806062E+02  0.17345685102E+02  0.00000000000E+00 0.  1.
</event>
<event>
 8    1  0.2502431E-006  0.9118800E+02  0.7816164E-02  0.1184000E+00
        -11   -1    0    0    0    0  0.00000000000E+00  0.00000000000E+00  0.45593999997E+02  0.45594000000E+02  0.51100000000E-03 0. -1.
         11   -1    0    0    0    0 -0.00000000000E+00 -0.00000000000E+00 -0.45593999997E+02  0.45594000000E+02  0.51100000000E-03 0.  1.
         23    2    1    2    0    0 -0.88817841970E-15 -0.44408920985E-15  0.00000000000E+00  0.91188000000E+02  0.91188000000E+02 0.  0.
    9900012    2    3    3    0    0  0.70200406254E+01 -0.20720587186E+01 -0.36086079448E+02  0.54367088446E+02  0.40000009731E+02 0.  0.
         12    1    3    3    0    0 -0.70200406254E+01  0.20720587186E+01  0.36086079448E+02  0.36820911554E+02  0.00000000000E+00 0. -1.
         11    1    4    4    0    0  0.80334752606E+01  0.64340080052E+01 -0.12072046440E+02  0.15864031307E+02  0.51100000000E-03 0. -1.
        -11    1    4    4    0    0  0.12233769504E+01  0.10546520110E+02 -0.11205247828E+02  0.15436428238E+02  0.51100000000E-03 0.  1.
         12    1    4    4    0    0 -0.22368115857E+01 -0.19052586834E+02 -0.12808785179E+02  0.23066628902E+02  0.00000000000E+00 0. -1.
</event>
<event>
 8    1  0.2502431E-006  0.9118800E+02  0.7816164E-02  0.1184000E+00
        -11   -1    0    0    0    0  0.00000000000E+00  0.00000000000E+00  0.45593999997E+02  0.45594000000E+02  0.51100000000E-03 0. -1.
         11   -1    0    0    0    0 -0.00000000000E+00 -0.00000000000E+00 -0.45593999997E+02  0.45594000000E+02  0.51100000000E-03 0.  1.
         23    2    1    2    0    0  0.00000000000E+00  0.00000000000E+00 -0.35527136788E-14  0.91188000000E+02  0.91188000000E+02 0.  0.
    9900012    2    3    3    0    0  0.12840374064E+02  0.26269888728E+02  0.22378507240E+02  0.54367084121E+02  0.39999999870E+02 0.  0.
        -12    1    3    3    0    0 -0.12840374064E+02 -0.26269888728E+02 -0.22378507240E+02  0.36820915879E+02  0.00000000000E+00 0.  1.
         11    1    4    4    0    0  0.11404275299E+02  0.81472178125E+01  0.19845158940E+02  0.24295369657E+02  0.51100000000E-03 0. -1.
        -11    1    4    4    0    0  0.76090977319E+01  0.84259016862E+00 -0.61037489748E+01  0.97910202887E+01  0.51100000000E-03 0.  1.
        -12    1    4    4    0    0 -0.61729989672E+01  0.17280080747E+02  0.86370972751E+01  0.20280694175E+02  0.00000000000E+00 0.  1.
</event>
<event>
 8    1  0.2502431E-006  0.9118800E+02  0.7816164E-02  0.1184000E+00
        -11   -1    0    0    0    0  0.00000000000E+00  0.00000000000E+00  0.45593999997E+02  0.45594000000E+02  0.51100000000E-03 0. -1.
         11   -1    0    0    0    0 -0.00000000000E+00 -0.00000000000E+00 -0.45593999997E+02  0.45594000000E+02  0.51100000000E-03 0.  1.
         23    2    1    2    0    0 -0.35527136788E-14  0.26645352591E-14  0.35527136788E-14  0.91188000000E+02  0.91188000000E+02 0.  0.
    9900012    2    3    3    0    0 -0.25733536130E+02  0.66847792375E+01 -0.25473090219E+02  0.54367089087E+02  0.40000011191E+02 0.  0.
         12    1    3    3    0    0  0.25733536130E+02 -0.66847792375E+01  0.25473090219E+02  0.36820910913E+02  0.00000000000E+00 0. -1.
         11    1    4    4    0    0 -0.71953172223E+01 -0.21896308575E+01  0.10645535044E+01  0.75960744892E+01  0.51100000000E-03 0. -1.
        -11    1    4    4    0    0 -0.52638685157E+01 -0.27858436713E+01 -0.28388056799E+02  0.29006051193E+02  0.51100000000E-03 0.  1.
        -12    1    4    4    0    0 -0.13274350392E+02  0.11660253766E+02  0.18504130758E+01  0.17764963405E+02  0.00000000000E+00 0.  1.
</event>
<event>
 8    1  0.2502431E-006  0.9118800E+02  0.7816164E-02  0.1184000E+00
        -11   -1    0    0    0    0  0.00000000000E+00  0.00000000000E+00  0.45593999997E+02  0.45594000000E+02  0.51100000000E-03 0.  1.
         11   -1    0    0    0    0 -0.00000000000E+00 -0.00000000000E+00 -0.45593999997E+02  0.45594000000E+02  0.51100000000E-03 0. -1.
         23    2    1    2    0    0 -0.35527136788E-14 -0.35527136788E-14  0.00000000000E+00  0.91188000000E+02  0.91188000000E+02 0.  0.
    9900012    2    3    3    0    0 -0.27386283398E+02 -0.19759247306E+02  0.14674572765E+02  0.54367089388E+02  0.40000011878E+02 0.  0.
        -12    1    3    3    0    0  0.27386283398E+02  0.19759247306E+02 -0.14674572765E+02  0.36820910612E+02  0.00000000000E+00 0.  1.
         11    1    4    4    0    0 -0.23289692386E+02 -0.53192280913E+01  0.14906761097E+02  0.28158755043E+02  0.51100000000E-03 0. -1.
        -11    1    4    4    0    0 -0.73686271914E+00 -0.21046431473E+01 -0.99200805063E+01  0.10167619532E+02  0.51100000000E-03 0.  1.
        -12    1    4    4    0    0 -0.33597282933E+01 -0.12335376067E+02  0.96878921736E+01  0.16040714812E+02  0.00000000000E+00 0.  1.
</event>
<event>
 8    1  0.2502431E-006  0.9118800E+02  0.7816164E-02  0.1184000E+00
        -11   -1    0    0    0    0  0.00000000000E+00  0.00000000000E+00  0.45593999997E+02  0.45594000000E+02  0.51100000000E-03 0. -1.
         11   -1    0    0    0    0 -0.00000000000E+00 -0.00000000000E+00 -0.45593999997E+02  0.45594000000E+02  0.51100000000E-03 0.  1.
         23    2    1    2    0    0  0.71054273576E-14  0.17763568394E-14  0.88817841970E-15  0.91188000000E+02  0.91188000000E+02 0.  0.
    9900012    2    3    3    0    0 -0.35329724113E+02 -0.10239036812E+02 -0.16587552059E+01  0.54367099012E+02  0.40000033817E+02 0.  0.
        -12    1    3    3    0    0  0.35329724113E+02  0.10239036812E+02  0.16587552059E+01  0.36820900988E+02  0.00000000000E+00 0.  1.
         11    1    4    4    0    0 -0.24172043637E+02 -0.13179554774E+02  0.42698105869E+01  0.27860718590E+02  0.51100000000E-03 0. -1.
        -11    1    4    4    0    0 -0.95430793449E+00 -0.12340031606E+01  0.83346193391E+01  0.84793482782E+01  0.51100000000E-03 0.  1.
        -12    1    4    4    0    0 -0.10203372541E+02  0.41745211219E+01 -0.14263185132E+02  0.18027032144E+02  0.00000000000E+00 0.  1.
</event>
<event>
 8    1  0.2502431E-006  0.9118800E+02  0.7816164E-02  0.1184000E+00
        -11   -1    0    0    0    0  0.00000000000E+00  0.00000000000E+00  0.45593999997E+02  0.45594000000E+02  0.51100000000E-03 0.  1.
         11   -1    0    0    0    0 -0.00000000000E+00 -0.00000000000E+00 -0.45593999997E+02  0.45594000000E+02  0.51100000000E-03 0. -1.
         23    2    1    2    0    0  0.00000000000E+00  0.00000000000E+00  0.00000000000E+00  0.91188000000E+02  0.91188000000E+02 0.  0.
    9900012    2    3    3    0    0 -0.24463757884E+02 -0.25769953512E+02  0.96547374781E+01  0.54367083260E+02  0.39999997908E+02 0.  0.
        -12    1    3    3    0    0  0.24463757884E+02  0.25769953512E+02 -0.96547374781E+01  0.36820916740E+02  0.00000000000E+00 0.  1.
         11    1    4    4    0    0 -0.30801282254E+01 -0.10087017317E+02  0.37957160728E+01  0.11209039611E+02  0.51100000000E-03 0. -1.
        -11    1    4    4    0    0 -0.34189672802E+01 -0.22311840227E+02 -0.15513150895E+01  0.22625519449E+02  0.51100000000E-03 0.  1.
         12    1    4    4    0    0 -0.17964662378E+02  0.66289040324E+01  0.74103364948E+01  0.20532524200E+02  0.00000000000E+00 0. -1.
</event>
<event>
 8    1  0.2502431E-006  0.9118800E+02  0.7816164E-02  0.1184000E+00
        -11   -1    0    0    0    0  0.00000000000E+00  0.00000000000E+00  0.45593999997E+02  0.45594000000E+02  0.51100000000E-03 0. -1.
         11   -1    0    0    0    0 -0.00000000000E+00 -0.00000000000E+00 -0.45593999997E+02  0.45594000000E+02  0.51100000000E-03 0.  1.
         23    2    1    2    0    0 -0.17763568394E-14  0.00000000000E+00  0.88817841970E-15  0.91188000000E+02  0.91188000000E+02 0.  0.
    9900012    2    3    3    0    0 -0.15562949880E+02  0.33178189067E+02 -0.35752408205E+01  0.54367082227E+02  0.39999995553E+02 0.  0.
         12    1    3    3    0    0  0.15562949880E+02 -0.33178189067E+02  0.35752408205E+01  0.36820917773E+02  0.00000000000E+00 0. -1.
         11    1    4    4    0    0 -0.20537642245E+02  0.25660616018E+02 -0.76563066883E+01  0.33747310942E+02  0.51100000000E-03 0. -1.
        -11    1    4    4    0    0 -0.14451339108E+01 -0.16319004964E+01 -0.54886209085E+01  0.59056304481E+01  0.51100000000E-03 0.  1.
         12    1    4    4    0    0  0.64198262766E+01  0.91494735451E+01  0.95696867763E+01  0.14714140837E+02  0.00000000000E+00 0. -1.
</event>
<event>
 8    1  0.2502431E-006  0.9118800E+02  0.7816164E-02  0.1184000E+00
        -11   -1    0    0    0    0  0.00000000000E+00  0.00000000000E+00  0.45593999997E+02  0.45594000000E+02  0.51100000000E-03 0.  1.
         11   -1    0    0    0    0 -0.00000000000E+00 -0.00000000000E+00 -0.45593999997E+02  0.45594000000E+02  0.51100000000E-03 0. -1.
         23    2    1    2    0    0  0.88817841970E-15  0.35527136788E-14  0.00000000000E+00  0.91188000000E+02  0.91188000000E+02 0.  0.
    9900012    2    3    3    0    0  0.57541127001E+01 -0.18812354383E+02 -0.31124998681E+02  0.54367081580E+02  0.39999994078E+02 0.  0.
        -12    1    3    3    0    0 -0.57541127001E+01  0.18812354383E+02  0.31124998681E+02  0.36820918420E+02  0.00000000000E+00 0.  1.
         11    1    4    4    0    0  0.12223956628E+02 -0.10031934481E+02 -0.10859912250E+02  0.19183391760E+02  0.51100000000E-03 0. -1.
        -11    1    4    4    0    0 -0.67608965176E+01 -0.57014841223E+01  0.47085180505E+01  0.10019320606E+02  0.51100000000E-03 0.  1.
         12    1    4    4    0    0  0.29105258948E+00 -0.30789357798E+01 -0.24973604481E+02  0.25164369214E+02  0.00000000000E+00 0. -1.
</event>
<event>
 8    1  0.2502431E-006  0.9118800E+02  0.7816164E-02  0.1184000E+00
        -11   -1    0    0    0    0  0.00000000000E+00  0.00000000000E+00  0.45593999997E+02  0.45594000000E+02  0.51100000000E-03 0. -1.
         11   -1    0    0    0    0 -0.00000000000E+00 -0.00000000000E+00 -0.45593999997E+02  0.45594000000E+02  0.51100000000E-03 0.  1.
         23    2    1    2    0    0  0.00000000000E+00  0.00000000000E+00  0.17763568394E-14  0.91188000000E+02  0.91188000000E+02 0.  0.
    9900012    2    3    3    0    0 -0.33745492318E+02 -0.11328992303E+02  0.94164547488E+01  0.54367164343E+02  0.40000182753E+02 0.  0.
        -12    1    3    3    0    0  0.33745492318E+02  0.11328992303E+02 -0.94164547488E+01  0.36820835657E+02  0.00000000000E+00 0.  1.
         11    1    4    4    0    0 -0.57408542322E+01 -0.13759609984E+02 -0.44575256068E+01  0.15561292010E+02  0.51100000000E-03 0. -1.
        -11    1    4    4    0    0 -0.11575026610E+02 -0.53598798305E+01  0.16040622890E+02  0.20494173216E+02  0.51100000000E-03 0.  1.
        -12    1    4    4    0    0 -0.16429611476E+02  0.77904975110E+01 -0.21666425343E+01  0.18311699118E+02  0.00000000000E+00 0.  1.
</event>
<event>
 8    1  0.2502431E-006  0.9118800E+02  0.7816164E-02  0.1184000E+00
        -11   -1    0    0    0    0  0.00000000000E+00  0.00000000000E+00  0.45593999997E+02  0.45594000000E+02  0.51100000000E-03 0.  1.
         11   -1    0    0    0    0 -0.00000000000E+00 -0.00000000000E+00 -0.45593999997E+02  0.45594000000E+02  0.51100000000E-03 0. -1.
         23    2    1    2    0    0  0.00000000000E+00  0.00000000000E+00  0.17763568394E-14  0.91188000000E+02  0.91188000000E+02 0.  0.
    9900012    2    3    3    0    0  0.11745078283E+02  0.33172958996E+02 -0.10834559042E+02  0.54367085534E+02  0.40000003093E+02 0.  0.
        -12    1    3    3    0    0 -0.11745078283E+02 -0.33172958996E+02  0.10834559042E+02  0.36820914466E+02  0.00000000000E+00 0.  1.
         11    1    4    4    0    0  0.14606768564E+02  0.22012455661E+02 -0.10592648784E+02  0.28462433147E+02  0.51100000000E-03 0. -1.
        -11    1    4    4    0    0 -0.42244565834E+01 -0.21483758795E+01 -0.88197222906E+01  0.10012444951E+02  0.51100000000E-03 0.  1.
        -12    1    4    4    0    0  0.13627663022E+01  0.13308879215E+02  0.85778120326E+01  0.15892207437E+02  0.00000000000E+00 0.  1.
</event>
<event>
 8    1  0.2502431E-006  0.9118800E+02  0.7816164E-02  0.1184000E+00
        -11   -1    0    0    0    0  0.00000000000E+00  0.00000000000E+00  0.45593999997E+02  0.45594000000E+02  0.51100000000E-03 0.  1.
         11   -1    0    0    0    0 -0.00000000000E+00 -0.00000000000E+00 -0.45593999997E+02  0.45594000000E+02  0.51100000000E-03 0. -1.
         23    2    1    2    0    0  0.00000000000E+00  0.00000000000E+00 -0.35527136788E-14  0.91188000000E+02  0.91188000000E+02 0.  0.
    9900012    2    3    3    0    0 -0.13783583218E+02  0.19902531169E+02  0.27743132357E+02  0.54367091453E+02  0.40000016585E+02 0.  0.
         12    1    3    3    0    0  0.13783583218E+02 -0.19902531169E+02 -0.27743132357E+02  0.36820908547E+02  0.00000000000E+00 0. -1.
         11    1    4    4    0    0 -0.43036617368E+01 -0.82934482498E+01 -0.32091873174E+01  0.98793558351E+01  0.51100000000E-03 0. -1.
        -11    1    4    4    0    0 -0.99375412361E+01  0.12421132455E+02  0.12671579363E+02  0.20337359246E+02  0.51100000000E-03 0.  1.
         12    1    4    4    0    0  0.45761975462E+00  0.15774846964E+02  0.18280740311E+02  0.24150376372E+02  0.00000000000E+00 0. -1.
</event>
<event>
 8    1  0.2502431E-006  0.9118800E+02  0.7816164E-02  0.1184000E+00
        -11   -1    0    0    0    0  0.00000000000E+00  0.00000000000E+00  0.45593999997E+02  0.45594000000E+02  0.51100000000E-03 0. -1.
         11   -1    0    0    0    0 -0.00000000000E+00 -0.00000000000E+00 -0.45593999997E+02  0.45594000000E+02  0.51100000000E-03 0.  1.
         23    2    1    2    0    0  0.00000000000E+00  0.00000000000E+00  0.00000000000E+00  0.91188000000E+02  0.91188000000E+02 0.  0.
    9900012    2    3    3    0    0  0.36591912662E+02  0.34234654657E+01 -0.22565088512E+01  0.54367081757E+02  0.39999994481E+02 0.  0.
        -12    1    3    3    0    0 -0.36591912662E+02 -0.34234654657E+01  0.22565088512E+01  0.36820918243E+02  0.00000000000E+00 0.  1.
         11    1    4    4    0    0  0.15705818704E+02  0.17678944673E+02  0.57468533624E+00  0.23654768851E+02  0.51100000000E-03 0. -1.
        -11    1    4    4    0    0  0.18755575038E+02 -0.41916036772E+01 -0.56766647450E+01  0.20039103255E+02  0.51100000000E-03 0.  1.
        -12    1    4    4    0    0  0.21305189204E+01 -0.10063875530E+02  0.28454705576E+01  0.10673209651E+02  0.00000000000E+00 0.  1.
</event>
<event>
 8    1  0.2502431E-006  0.9118800E+02  0.7816164E-02  0.1184000E+00
        -11   -1    0    0    0    0  0.00000000000E+00  0.00000000000E+00  0.45593999997E+02  0.45594000000E+02  0.51100000000E-03 0.  1.
         11   -1    0    0    0    0 -0.00000000000E+00 -0.00000000000E+00 -0.45593999997E+02  0.45594000000E+02  0.51100000000E-03 0. -1.
         23    2    1    2    0    0 -0.17763568394E-14  0.13322676296E-14  0.00000000000E+00  0.91188000000E+02  0.91188000000E+02 0.  0.
    9900012    2    3    3    0    0  0.65273086323E+01 -0.79835768769E+00 -0.36228942942E+02  0.54367089641E+02  0.40000012455E+02 0.  0.
        -12    1    3    3    0    0 -0.65273086323E+01  0.79835768769E+00  0.36228942942E+02  0.36820910359E+02  0.00000000000E+00 0.  1.
         11    1    4    4    0    0  0.56222973468E+01  0.10998500977E+02 -0.27553235943E+02  0.30195331798E+02  0.51100000000E-03 0. -1.
        -11    1    4    4    0    0 -0.79205445364E+01 -0.30301418357E+01 -0.80869135111E+01  0.11718146427E+02  0.51100000000E-03 0.  1.
        -12    1    4    4    0    0  0.88255558219E+01 -0.87667168287E+01 -0.58879348701E+00  0.12453611416E+02  0.00000000000E+00 0.  1.
</event>
<event>
 8    1  0.2502431E-006  0.9118800E+02  0.7816164E-02  0.1184000E+00
        -11   -1    0    0    0    0  0.00000000000E+00  0.00000000000E+00  0.45593999997E+02  0.45594000000E+02  0.51100000000E-03 0. -1.
         11   -1    0    0    0    0 -0.00000000000E+00 -0.00000000000E+00 -0.45593999997E+02  0.45594000000E+02  0.51100000000E-03 0.  1.
         23    2    1    2    0    0 -0.35527136788E-14  0.00000000000E+00  0.00000000000E+00  0.91188000000E+02  0.91188000000E+02 0.  0.
    9900012    2    3    3    0    0  0.31630455088E+02  0.15807019461E+02 -0.10268002393E+02  0.54367089821E+02  0.40000012864E+02 0.  0.
         12    1    3    3    0    0 -0.31630455088E+02 -0.15807019461E+02  0.10268002393E+02  0.36820910179E+02  0.00000000000E+00 0. -1.
         11    1    4    4    0    0 -0.49494698306E+01  0.60713392875E+01 -0.23430716909E+01  0.81760869343E+01  0.51100000000E-03 0. -1.
        -11    1    4    4    0    0  0.53431567464E+01  0.12241469552E+02  0.15658440667E+01  0.13448225485E+02  0.51100000000E-03 0.  1.
        -12    1    4    4    0    0  0.31236768172E+02 -0.25057893777E+01 -0.94907747683E+01  0.32742777401E+02  0.00000000000E+00 0.  1.
</event>
<event>
 8    1  0.2502431E-006  0.9118800E+02  0.7816164E-02  0.1184000E+00
        -11   -1    0    0    0    0  0.00000000000E+00  0.00000000000E+00  0.45593999997E+02  0.45594000000E+02  0.51100000000E-03 0.  1.
         11   -1    0    0    0    0 -0.00000000000E+00 -0.00000000000E+00 -0.45593999997E+02  0.45594000000E+02  0.51100000000E-03 0. -1.
         23    2    1    2    0    0  0.00000000000E+00  0.00000000000E+00  0.00000000000E+00  0.91188000000E+02  0.91188000000E+02 0.  0.
    9900012    2    3    3    0    0 -0.45416447443E+01  0.99046141077E+01 -0.35171748805E+02  0.54367084319E+02  0.40000000322E+02 0.  0.
        -12    1    3    3    0    0  0.45416447443E+01 -0.99046141077E+01  0.35171748805E+02  0.36820915681E+02  0.00000000000E+00 0.  1.
         11    1    4    4    0    0  0.27979039307E+01  0.93356349468E+01 -0.11877085773E+02  0.15363837834E+02  0.51100000000E-03 0. -1.
        -11    1    4    4    0    0  0.92215916648E+01  0.66942758056E+01 -0.16566572701E+02  0.20107272632E+02  0.51100000000E-03 0.  1.
        -12    1    4    4    0    0 -0.16561140340E+02 -0.61252966447E+01 -0.67280903308E+01  0.18895973853E+02  0.00000000000E+00 0.  1.
</event>
<event>
 8    1  0.2502431E-006  0.9118800E+02  0.7816164E-02  0.1184000E+00
        -11   -1    0    0    0    0  0.00000000000E+00  0.00000000000E+00  0.45593999997E+02  0.45594000000E+02  0.51100000000E-03 0. -1.
         11   -1    0    0    0    0 -0.00000000000E+00 -0.00000000000E+00 -0.45593999997E+02  0.45594000000E+02  0.51100000000E-03 0.  1.
         23    2    1    2    0    0  0.00000000000E+00  0.00000000000E+00  0.35527136788E-14  0.91188000000E+02  0.91188000000E+02 0.  0.
    9900012    2    3    3    0    0 -0.16104279197E+02  0.21109763749E+02 -0.25510966990E+02  0.54367090577E+02  0.40000014589E+02 0.  0.
         12    1    3    3    0    0  0.16104279197E+02 -0.21109763749E+02  0.25510966990E+02  0.36820909423E+02  0.00000000000E+00 0. -1.
         11    1    4    4    0    0 -0.11816241756E+01 -0.20484270349E+01  0.34931092986E+01  0.42183055653E+01  0.51100000000E-03 0. -1.
        -11    1    4    4    0    0 -0.11035958534E+02  0.27279846782E+02 -0.11236451583E+02  0.31499845486E+02  0.51100000000E-03 0.  1.
         12    1    4    4    0    0 -0.38866964874E+01 -0.41216559983E+01 -0.17767624705E+02  0.18648939526E+02  0.00000000000E+00 0. -1.
</event>
<event>
 8    1  0.2502431E-006  0.9118800E+02  0.7816164E-02  0.1184000E+00
        -11   -1    0    0    0    0  0.00000000000E+00  0.00000000000E+00  0.45593999997E+02  0.45594000000E+02  0.51100000000E-03 0. -1.
         11   -1    0    0    0    0 -0.00000000000E+00 -0.00000000000E+00 -0.45593999997E+02  0.45594000000E+02  0.51100000000E-03 0.  1.
         23    2    1    2    0    0 -0.35527136788E-14  0.71054273576E-14 -0.17763568394E-14  0.91188000000E+02  0.91188000000E+02 0.  0.
    9900012    2    3    3    0    0 -0.26021124462E+02  0.21800737985E+02 -0.14262155598E+02  0.54367079626E+02  0.39999989623E+02 0.  0.
        -12    1    3    3    0    0  0.26021124462E+02 -0.21800737985E+02  0.14262155598E+02  0.36820920374E+02  0.00000000000E+00 0.  1.
         11    1    4    4    0    0 -0.65668484159E+01 -0.11542977660E+01 -0.69507630742E+01  0.96316669910E+01  0.51100000000E-03 0. -1.
        -11    1    4    4    0    0  0.45329257521E+00  0.96839370785E+01 -0.16474439249E+02  0.19115210183E+02  0.51100000000E-03 0.  1.
         12    1    4    4    0    0 -0.19907568621E+02  0.13271098672E+02  0.91630467259E+01  0.25620202452E+02  0.00000000000E+00 0. -1.
</event>
<event>
 8    1  0.2502431E-006  0.9118800E+02  0.7816164E-02  0.1184000E+00
        -11   -1    0    0    0    0  0.00000000000E+00  0.00000000000E+00  0.45593999997E+02  0.45594000000E+02  0.51100000000E-03 0. -1.
         11   -1    0    0    0    0 -0.00000000000E+00 -0.00000000000E+00 -0.45593999997E+02  0.45594000000E+02  0.51100000000E-03 0.  1.
         23    2    1    2    0    0  0.00000000000E+00  0.00000000000E+00 -0.35527136788E-14  0.91188000000E+02  0.91188000000E+02 0.  0.
    9900012    2    3    3    0    0  0.23256871570E+02  0.13544659927E+02  0.25128480019E+02  0.54367076657E+02  0.39999982856E+02 0.  0.
        -12    1    3    3    0    0 -0.23256871570E+02 -0.13544659927E+02 -0.25128480019E+02  0.36820923343E+02  0.00000000000E+00 0.  1.
         11    1    4    4    0    0  0.55675448078E+01  0.64029604955E+01  0.25697344836E+01  0.88656073606E+01  0.51100000000E-03 0. -1.
        -11    1    4    4    0    0  0.20734885714E+02  0.14601459472E+02  0.45401686499E+01  0.25763370043E+02  0.51100000000E-03 0.  1.
         12    1    4    4    0    0 -0.30455589527E+01 -0.74597600407E+01  0.18018576885E+02  0.19738099254E+02  0.00000000000E+00 0. -1.
</event>
<event>
 8    1  0.2502431E-006  0.9118800E+02  0.7816164E-02  0.1184000E+00
        -11   -1    0    0    0    0  0.00000000000E+00  0.00000000000E+00  0.45593999997E+02  0.45594000000E+02  0.51100000000E-03 0. -1.
         11   -1    0    0    0    0 -0.00000000000E+00 -0.00000000000E+00 -0.45593999997E+02  0.45594000000E+02  0.51100000000E-03 0.  1.
         23    2    1    2    0    0  0.00000000000E+00  0.00000000000E+00  0.35527136788E-14  0.91188000000E+02  0.91188000000E+02 0.  0.
    9900012    2    3    3    0    0 -0.13160901113E+02  0.19328258028E+02  0.28442730133E+02  0.54367085102E+02  0.40000002108E+02 0.  0.
        -12    1    3    3    0    0  0.13160901113E+02 -0.19328258028E+02 -0.28442730133E+02  0.36820914898E+02  0.00000000000E+00 0.  1.
         11    1    4    4    0    0 -0.37928468111E+00 -0.79485167589E+00 -0.36363313900E+01  0.37414639241E+01  0.51100000000E-03 0. -1.
        -11    1    4    4    0    0 -0.45177667515E+01  0.53636502181E+01 -0.58262486595E+01  0.91172437604E+01  0.51100000000E-03 0.  1.
         12    1    4    4    0    0 -0.82638496800E+01  0.14759459486E+02  0.37905310182E+02  0.41508377418E+02  0.00000000000E+00 0. -1.
</event>
<event>
 8    1  0.2502431E-006  0.9118800E+02  0.7816164E-02  0.1184000E+00
        -11   -1    0    0    0    0  0.00000000000E+00  0.00000000000E+00  0.45593999997E+02  0.45594000000E+02  0.51100000000E-03 0. -1.
         11   -1    0    0    0    0 -0.00000000000E+00 -0.00000000000E+00 -0.45593999997E+02  0.45594000000E+02  0.51100000000E-03 0.  1.
         23    2    1    2    0    0  0.00000000000E+00 -0.66613381478E-15  0.35527136788E-14  0.91188000000E+02  0.91188000000E+02 0.  0.
    9900012    2    3    3    0    0  0.29507965730E+02 -0.19621840932E+01  0.21936409768E+02  0.54367132527E+02  0.40000110222E+02 0.  0.
        -12    1    3    3    0    0 -0.29507965730E+02  0.19621840932E+01 -0.21936409768E+02  0.36820867473E+02  0.00000000000E+00 0.  1.
         11    1    4    4    0    0  0.73936880977E+01 -0.25196464988E+01  0.47055291511E+01  0.91190595468E+01  0.51100000000E-03 0. -1.
        -11    1    4    4    0    0 -0.55874235873E+01  0.55062298606E+01  0.15113712597E+02  0.17028275848E+02  0.51100000000E-03 0.  1.
        -12    1    4    4    0    0  0.27701701220E+02 -0.49487674550E+01  0.21171680203E+01  0.28219797133E+02  0.00000000000E+00 0.  1.
</event>
<event>
 8    1  0.2502431E-006  0.9118800E+02  0.7816164E-02  0.1184000E+00
        -11   -1    0    0    0    0  0.00000000000E+00  0.00000000000E+00  0.45593999997E+02  0.45594000000E+02  0.51100000000E-03 0. -1.
         11   -1    0    0    0    0 -0.00000000000E+00 -0.00000000000E+00 -0.45593999997E+02  0.45594000000E+02  0.51100000000E-03 0.  1.
         23    2    1    2    0    0 -0.35527136788E-14 -0.10547118734E-14 -0.35527136788E-14  0.91188000000E+02  0.91188000000E+02 0.  0.
    9900012    2    3    3    0    0  0.31390429044E+02 -0.35930537350E+00  0.19242777431E+02  0.54367182258E+02  0.40000223593E+02 0.  0.
        -12    1    3    3    0    0 -0.31390429044E+02  0.35930537350E+00 -0.19242777431E+02  0.36820817742E+02  0.00000000000E+00 0.  1.
         11    1    4    4    0    0  0.33340984081E+01  0.27477181613E+01  0.60067079188E+01  0.73991018084E+01  0.51100000000E-03 0. -1.
        -11    1    4    4    0    0  0.19284316593E+01  0.11056493866E+02  0.13096702798E+02  0.17247855801E+02  0.51100000000E-03 0.  1.
        -12    1    4    4    0    0  0.26127898977E+02 -0.14163517401E+02  0.13936671384E+00  0.29720224649E+02  0.00000000000E+00 0.  1.
</event>
<event>
 8    1  0.2502431E-006  0.9118800E+02  0.7816164E-02  0.1184000E+00
        -11   -1    0    0    0    0  0.00000000000E+00  0.00000000000E+00  0.45593999997E+02  0.45594000000E+02  0.51100000000E-03 0.  1.
         11   -1    0    0    0    0 -0.00000000000E+00 -0.00000000000E+00 -0.45593999997E+02  0.45594000000E+02  0.51100000000E-03 0. -1.
         23    2    1    2    0    0  0.00000000000E+00  0.35527136788E-14 -0.35527136788E-14  0.91188000000E+02  0.91188000000E+02 0.  0.
    9900012    2    3    3    0    0  0.73040078736E+01  0.17073371712E+02 -0.31795150680E+02  0.54367079868E+02  0.39999990174E+02 0.  0.
        -12    1    3    3    0    0 -0.73040078736E+01 -0.17073371712E+02  0.31795150680E+02  0.36820920132E+02  0.00000000000E+00 0.  1.
         11    1    4    4    0    0  0.40429972288E+01  0.15459179911E+02 -0.11735569759E+01  0.16022150491E+02  0.51100000000E-03 0. -1.
        -11    1    4    4    0    0  0.69353186681E+01  0.29454791521E+01 -0.60655853811E-01  0.75351291865E+01  0.51100000000E-03 0.  1.
         12    1    4    4    0    0 -0.36743080233E+01 -0.13312873516E+01 -0.30560937850E+02  0.30809800190E+02  0.00000000000E+00 0. -1.
</event>
<event>
 8    1  0.2502431E-006  0.9118800E+02  0.7816164E-02  0.1184000E+00
        -11   -1    0    0    0    0  0.00000000000E+00  0.00000000000E+00  0.45593999997E+02  0.45594000000E+02  0.51100000000E-03 0.  1.
         11   -1    0    0    0    0 -0.00000000000E+00 -0.00000000000E+00 -0.45593999997E+02  0.45594000000E+02  0.51100000000E-03 0. -1.
         23    2    1    2    0    0  0.17763568394E-14  0.17763568394E-14 -0.71054273576E-14  0.91188000000E+02  0.91188000000E+02 0.  0.
    9900012    2    3    3    0    0  0.14403446208E+02  0.90184902264E+01 -0.32664911649E+02  0.54366961426E+02  0.39999720162E+02 0.  0.
        -12    1    3    3    0    0 -0.14403446208E+02 -0.90184902264E+01  0.32664911649E+02  0.36821038574E+02  0.00000000000E+00 0.  1.
         11    1    4    4    0    0  0.15051377313E+01 -0.14448465741E+02 -0.49565219608E+01  0.15348964528E+02  0.51100000000E-03 0. -1.
        -11    1    4    4    0    0  0.88646836539E+01  0.97696479717E+01 -0.13322227171E+02  0.18748609944E+02  0.51100000000E-03 0.  1.
         12    1    4    4    0    0  0.40336248226E+01  0.13697307996E+02 -0.14386162517E+02  0.20269386955E+02  0.00000000000E+00 0. -1.
</event>
<event>
 8    1  0.2502431E-006  0.9118800E+02  0.7816164E-02  0.1184000E+00
        -11   -1    0    0    0    0  0.00000000000E+00  0.00000000000E+00  0.45593999997E+02  0.45594000000E+02  0.51100000000E-03 0.  1.
         11   -1    0    0    0    0 -0.00000000000E+00 -0.00000000000E+00 -0.45593999997E+02  0.45594000000E+02  0.51100000000E-03 0. -1.
         23    2    1    2    0    0  0.00000000000E+00 -0.17763568394E-14  0.71054273576E-14  0.91188000000E+02  0.91188000000E+02 0.  0.
    9900012    2    3    3    0    0  0.14098032913E+01  0.14830969225E+02 -0.33672472164E+02  0.54367074223E+02  0.39999977306E+02 0.  0.
        -12    1    3    3    0    0 -0.14098032913E+01 -0.14830969225E+02  0.33672472164E+02  0.36820925777E+02  0.00000000000E+00 0.  1.
         11    1    4    4    0    0 -0.14060731906E+02  0.90929856051E+01 -0.48952663003E+01  0.17445635596E+02  0.51100000000E-03 0. -1.
        -11    1    4    4    0    0  0.31207291009E+01  0.95825398183E-01  0.17011464512E+01  0.35555635471E+01  0.51100000000E-03 0.  1.
         12    1    4    4    0    0  0.12349806097E+02  0.56421582213E+01 -0.30478352314E+02  0.33365875080E+02  0.00000000000E+00 0. -1.
</event>
<event>
 8    1  0.2502431E-006  0.9118800E+02  0.7816164E-02  0.1184000E+00
        -11   -1    0    0    0    0  0.00000000000E+00  0.00000000000E+00  0.45593999997E+02  0.45594000000E+02  0.51100000000E-03 0. -1.
         11   -1    0    0    0    0 -0.00000000000E+00 -0.00000000000E+00 -0.45593999997E+02  0.45594000000E+02  0.51100000000E-03 0.  1.
         23    2    1    2    0    0  0.17763568394E-14 -0.35527136788E-14 -0.35527136788E-14  0.91188000000E+02  0.91188000000E+02 0.  0.
    9900012    2    3    3    0    0  0.33820182800E+01  0.23523216941E+02 -0.28124713407E+02  0.54367091712E+02  0.40000017177E+02 0.  0.
         12    1    3    3    0    0 -0.33820182800E+01 -0.23523216941E+02  0.28124713407E+02  0.36820908288E+02  0.00000000000E+00 0. -1.
         11    1    4    4    0    0 -0.14582803486E+02  0.10519964986E+02 -0.11719117200E+02  0.21463120207E+02  0.51100000000E-03 0. -1.
        -11    1    4    4    0    0  0.39760051591E+00 -0.37150462959E+01 -0.20982135552E+00  0.37421491704E+01  0.51100000000E-03 0.  1.
        -12    1    4    4    0    0  0.17567221250E+02  0.16718298251E+02 -0.16195774851E+02  0.29161822335E+02  0.00000000000E+00 0.  1.
</event>
<event>
 8    1  0.2502431E-006  0.9118800E+02  0.7816164E-02  0.1184000E+00
        -11   -1    0    0    0    0  0.00000000000E+00  0.00000000000E+00  0.45593999997E+02  0.45594000000E+02  0.51100000000E-03 0.  1.
         11   -1    0    0    0    0 -0.00000000000E+00 -0.00000000000E+00 -0.45593999997E+02  0.45594000000E+02  0.51100000000E-03 0. -1.
         23    2    1    2    0    0  0.00000000000E+00  0.00000000000E+00  0.35527136788E-14  0.91188000000E+02  0.91188000000E+02 0.  0.
    9900012    2    3    3    0    0 -0.19451448043E+02 -0.18338102057E+02 -0.25320636850E+02  0.54367089249E+02  0.40000011562E+02 0.  0.
        -12    1    3    3    0    0  0.19451448043E+02  0.18338102057E+02  0.25320636850E+02  0.36820910751E+02  0.00000000000E+00 0.  1.
         11    1    4    4    0    0 -0.12679878843E+02 -0.20295380476E+02 -0.15704600891E+02  0.28623701465E+02  0.51100000000E-03 0. -1.
        -11    1    4    4    0    0 -0.10392972136E+02  0.66401301426E+01 -0.13789659218E+02  0.18500267559E+02  0.51100000000E-03 0.  1.
         12    1    4    4    0    0  0.36214029363E+01 -0.46828517242E+01  0.41736232593E+01  0.72431202260E+01  0.00000000000E+00 0. -1.
</event>
<event>
 8    1  0.2502431E-006  0.9118800E+02  0.7816164E-02  0.1184000E+00
        -11   -1    0    0    0    0  0.00000000000E+00  0.00000000000E+00  0.45593999997E+02  0.45594000000E+02  0.51100000000E-03 0.  1.
         11   -1    0    0    0    0 -0.00000000000E+00 -0.00000000000E+00 -0.45593999997E+02  0.45594000000E+02  0.51100000000E-03 0. -1.
         23    2    1    2    0    0  0.00000000000E+00  0.00000000000E+00  0.71054273576E-14  0.91188000000E+02  0.91188000000E+02 0.  0.
    9900012    2    3    3    0    0 -0.88445493206E+01  0.23689357330E+02  0.26764992871E+02  0.54367128924E+02  0.40000102008E+02 0.  0.
         12    1    3    3    0    0  0.88445493206E+01 -0.23689357330E+02 -0.26764992871E+02  0.36820871076E+02  0.00000000000E+00 0. -1.
         11    1    4    4    0    0 -0.13240045339E+01 -0.82173869077E+00 -0.21022238177E+01  0.26167895832E+01  0.51100000000E-03 0. -1.
        -11    1    4    4    0    0 -0.83064483936E+01  0.23227654095E+02  0.19001290900E+01  0.24741291205E+02  0.51100000000E-03 0.  1.
        -12    1    4    4    0    0  0.78590360694E+00  0.12834419263E+01  0.26967087599E+02  0.27009048136E+02  0.00000000000E+00 0.  1.
</event>
<event>
 8    1  0.2502431E-006  0.9118800E+02  0.7816164E-02  0.1184000E+00
        -11   -1    0    0    0    0  0.00000000000E+00  0.00000000000E+00  0.45593999997E+02  0.45594000000E+02  0.51100000000E-03 0. -1.
         11   -1    0    0    0    0 -0.00000000000E+00 -0.00000000000E+00 -0.45593999997E+02  0.45594000000E+02  0.51100000000E-03 0.  1.
         23    2    1    2    0    0  0.00000000000E+00  0.00000000000E+00  0.00000000000E+00  0.91188000000E+02  0.91188000000E+02 0.  0.
    9900012    2    3    3    0    0 -0.65980572187E+01 -0.35823695327E+02 -0.53767449099E+01  0.54367069922E+02  0.39999967502E+02 0.  0.
         12    1    3    3    0    0  0.65980572187E+01  0.35823695327E+02  0.53767449099E+01  0.36820930078E+02  0.00000000000E+00 0. -1.
         11    1    4    4    0    0 -0.50900181663E+01  0.20440679440E+01 -0.14147364218E+01  0.56646251507E+01  0.51100000000E-03 0. -1.
        -11    1    4    4    0    0 -0.14234260074E+02 -0.10655266568E+02 -0.55289156682E+01  0.18620359132E+02  0.51100000000E-03 0.  1.
         12    1    4    4    0    0  0.12726221021E+02 -0.27212496703E+02  0.15669071801E+01  0.30082085639E+02  0.00000000000E+00 0. -1.
</event>
<event>
 8    1  0.2502431E-006  0.9118800E+02  0.7816164E-02  0.1184000E+00
        -11   -1    0    0    0    0  0.00000000000E+00  0.00000000000E+00  0.45593999997E+02  0.45594000000E+02  0.51100000000E-03 0.  1.
         11   -1    0    0    0    0 -0.00000000000E+00 -0.00000000000E+00 -0.45593999997E+02  0.45594000000E+02  0.51100000000E-03 0. -1.
         23    2    1    2    0    0  0.35527136788E-14  0.00000000000E+00  0.00000000000E+00  0.91188000000E+02  0.91188000000E+02 0.  0.
    9900012    2    3    3    0    0 -0.13344843923E+02  0.26318904346E+02 -0.22022938412E+02  0.54367090158E+02  0.40000013633E+02 0.  0.
        -12    1    3    3    0    0  0.13344843923E+02 -0.26318904346E+02  0.22022938412E+02  0.36820909842E+02  0.00000000000E+00 0.  1.
         11    1    4    4    0    0  0.43033130677E+00  0.15434749913E+02 -0.88803052244E+01  0.17812257326E+02  0.51100000000E-03 0. -1.
        -11    1    4    4    0    0  0.90967531475E+01  0.15531931142E+01 -0.52774737772E+01  0.10630853983E+02  0.51100000000E-03 0.  1.
         12    1    4    4    0    0 -0.22871928377E+02  0.93309613187E+01 -0.78651594109E+01  0.25923978849E+02  0.00000000000E+00 0. -1.
</event>
<event>
 8    1  0.2502431E-006  0.9118800E+02  0.7816164E-02  0.1184000E+00
        -11   -1    0    0    0    0  0.00000000000E+00  0.00000000000E+00  0.45593999997E+02  0.45594000000E+02  0.51100000000E-03 0. -1.
         11   -1    0    0    0    0 -0.00000000000E+00 -0.00000000000E+00 -0.45593999997E+02  0.45594000000E+02  0.51100000000E-03 0.  1.
         23    2    1    2    0    0 -0.71054273576E-14  0.22204460493E-14 -0.35527136788E-14  0.91188000000E+02  0.91188000000E+02 0.  0.
    9900012    2    3    3    0    0  0.33087829988E+02 -0.22840350937E+01 -0.15992474241E+02  0.54367074673E+02  0.39999978332E+02 0.  0.
        -12    1    3    3    0    0 -0.33087829988E+02  0.22840350937E+01  0.15992474241E+02  0.36820925327E+02  0.00000000000E+00 0.  1.
         11    1    4    4    0    0  0.31194135507E+00 -0.43984873949E+01  0.15694996822E+01  0.46805264966E+01  0.51100000000E-03 0. -1.
        -11    1    4    4    0    0  0.27482266277E+02  0.62871618635E+01 -0.26364902549E+02  0.38599371118E+02  0.51100000000E-03 0.  1.
        -12    1    4    4    0    0  0.52936223555E+01 -0.41727095624E+01  0.88029286258E+01  0.11087177058E+02  0.00000000000E+00 0.  1.
</event>
<event>
 8    1  0.2502431E-006  0.9118800E+02  0.7816164E-02  0.1184000E+00
        -11   -1    0    0    0    0  0.00000000000E+00  0.00000000000E+00  0.45593999997E+02  0.45594000000E+02  0.51100000000E-03 0.  1.
         11   -1    0    0    0    0 -0.00000000000E+00 -0.00000000000E+00 -0.45593999997E+02  0.45594000000E+02  0.51100000000E-03 0. -1.
         23    2    1    2    0    0  0.35527136788E-14  0.00000000000E+00  0.00000000000E+00  0.91188000000E+02  0.91188000000E+02 0.  0.
    9900012    2    3    3    0    0  0.15809580331E+02  0.26027714589E+02 -0.20697712030E+02  0.54367081486E+02  0.39999993863E+02 0.  0.
        -12    1    3    3    0    0 -0.15809580331E+02 -0.26027714589E+02  0.20697712030E+02  0.36820918514E+02  0.00000000000E+00 0.  1.
         11    1    4    4    0    0  0.18808464358E+02  0.13294879167E+02 -0.21771318817E+02  0.31693886901E+02  0.51100000000E-03 0. -1.
        -11    1    4    4    0    0  0.40560550206E+01  0.13216814896E+02  0.48565651599E+01  0.14653395639E+02  0.51100000000E-03 0.  1.
        -12    1    4    4    0    0 -0.70549390473E+01 -0.48397947370E+00 -0.37829583721E+01  0.80197989462E+01  0.00000000000E+00 0.  1.
</event>
<event>
 8    1  0.2502431E-006  0.9118800E+02  0.7816164E-02  0.1184000E+00
        -11   -1    0    0    0    0  0.00000000000E+00  0.00000000000E+00  0.45593999997E+02  0.45594000000E+02  0.51100000000E-03 0.  1.
         11   -1    0    0    0    0 -0.00000000000E+00 -0.00000000000E+00 -0.45593999997E+02  0.45594000000E+02  0.51100000000E-03 0. -1.
         23    2    1    2    0    0  0.00000000000E+00  0.00000000000E+00 -0.71054273576E-14  0.91188000000E+02  0.91188000000E+02 0.  0.
    9900012    2    3    3    0    0 -0.49479948001E+01 -0.69427190058E+01 -0.35820329001E+02  0.54367082447E+02  0.39999996054E+02 0.  0.
        -12    1    3    3    0    0  0.49479948001E+01  0.69427190058E+01  0.35820329001E+02  0.36820917553E+02  0.00000000000E+00 0.  1.
         11    1    4    4    0    0 -0.48244288375E+01 -0.87863530461E+01 -0.60277768711E+01  0.11696546829E+02  0.51100000000E-03 0. -1.
        -11    1    4    4    0    0 -0.87407460399E+01 -0.60877074163E+01 -0.29043275451E+02  0.30934974901E+02  0.51100000000E-03 0.  1.
        -12    1    4    4    0    0  0.86171800773E+01  0.79313414567E+01 -0.74927667850E+00  0.11735560716E+02  0.00000000000E+00 0.  1.
</event>
<event>
 8    1  0.2502431E-006  0.9118800E+02  0.7816164E-02  0.1184000E+00
        -11   -1    0    0    0    0  0.00000000000E+00  0.00000000000E+00  0.45593999997E+02  0.45594000000E+02  0.51100000000E-03 0.  1.
         11   -1    0    0    0    0 -0.00000000000E+00 -0.00000000000E+00 -0.45593999997E+02  0.45594000000E+02  0.51100000000E-03 0. -1.
         23    2    1    2    0    0  0.35527136788E-14 -0.44408920985E-15  0.00000000000E+00  0.91188000000E+02  0.91188000000E+02 0.  0.
    9900012    2    3    3    0    0 -0.31143129864E+02  0.16356152965E+01  0.19575748685E+02  0.54367085947E+02  0.40000004033E+02 0.  0.
        -12    1    3    3    0    0  0.31143129864E+02 -0.16356152965E+01 -0.19575748685E+02  0.36820914053E+02  0.00000000000E+00 0.  1.
         11    1    4    4    0    0 -0.24734820331E+01  0.83601171002E+01  0.57746538006E+01  0.10457356170E+02  0.51100000000E-03 0. -1.
        -11    1    4    4    0    0 -0.82915918063E+01 -0.22198442267E+01  0.20309114027E+02  0.22048544530E+02  0.51100000000E-03 0.  1.
         12    1    4    4    0    0 -0.20378056025E+02 -0.45046575770E+01 -0.65080191418E+01  0.21861185246E+02  0.00000000000E+00 0. -1.
</event>
<event>
 8    1  0.2502431E-006  0.9118800E+02  0.7816164E-02  0.1184000E+00
        -11   -1    0    0    0    0  0.00000000000E+00  0.00000000000E+00  0.45593999997E+02  0.45594000000E+02  0.51100000000E-03 0.  1.
         11   -1    0    0    0    0 -0.00000000000E+00 -0.00000000000E+00 -0.45593999997E+02  0.45594000000E+02  0.51100000000E-03 0. -1.
         23    2    1    2    0    0  0.00000000000E+00  0.00000000000E+00  0.00000000000E+00  0.91188000000E+02  0.91188000000E+02 0.  0.
    9900012    2    3    3    0    0 -0.13025226271E+02  0.15997632370E+02 -0.30499137353E+02  0.54367107288E+02  0.40000052683E+02 0.  0.
        -12    1    3    3    0    0  0.13025226271E+02 -0.15997632370E+02  0.30499137353E+02  0.36820892712E+02  0.00000000000E+00 0.  1.
         11    1    4    4    0    0 -0.24962425132E+01 -0.37222802441E+01 -0.83855125460E+01  0.95080711935E+01  0.51100000000E-03 0. -1.
        -11    1    4    4    0    0 -0.20196784985E+02  0.86642469083E+01 -0.20552778443E+02  0.30089798939E+02  0.51100000000E-03 0.  1.
        -12    1    4    4    0    0  0.96678012273E+01  0.11055665706E+02 -0.15608463645E+01  0.14769237155E+02  0.00000000000E+00 0.  1.
</event>
<event>
 8    1  0.2502431E-006  0.9118800E+02  0.7816164E-02  0.1184000E+00
        -11   -1    0    0    0    0  0.00000000000E+00  0.00000000000E+00  0.45593999997E+02  0.45594000000E+02  0.51100000000E-03 0.  1.
         11   -1    0    0    0    0 -0.00000000000E+00 -0.00000000000E+00 -0.45593999997E+02  0.45594000000E+02  0.51100000000E-03 0. -1.
         23    2    1    2    0    0  0.00000000000E+00  0.00000000000E+00  0.35527136788E-14  0.91188000000E+02  0.91188000000E+02 0.  0.
    9900012    2    3    3    0    0  0.17943887596E+02  0.10016947255E+02  0.30552541815E+02  0.54367080053E+02  0.39999990597E+02 0.  0.
         12    1    3    3    0    0 -0.17943887596E+02 -0.10016947255E+02 -0.30552541815E+02  0.36820919947E+02  0.00000000000E+00 0. -1.
         11    1    4    4    0    0 -0.55809401960E+01 -0.47921794203E+01 -0.18653965905E+01  0.75889117644E+01  0.51100000000E-03 0. -1.
        -11    1    4    4    0    0  0.13579549569E+02 -0.11994094609E+01  0.20015831500E+02  0.24217271944E+02  0.51100000000E-03 0.  1.
        -12    1    4    4    0    0  0.99452782234E+01  0.16008536136E+02  0.12402106906E+02  0.22560896344E+02  0.00000000000E+00 0.  1.
</event>
<event>
 8    1  0.2502431E-006  0.9118800E+02  0.7816164E-02  0.1184000E+00
        -11   -1    0    0    0    0  0.00000000000E+00  0.00000000000E+00  0.45593999997E+02  0.45594000000E+02  0.51100000000E-03 0.  1.
         11   -1    0    0    0    0 -0.00000000000E+00 -0.00000000000E+00 -0.45593999997E+02  0.45594000000E+02  0.51100000000E-03 0. -1.
         23    2    1    2    0    0  0.00000000000E+00 -0.35527136788E-14 -0.35527136788E-14  0.91188000000E+02  0.91188000000E+02 0.  0.
    9900012    2    3    3    0    0  0.13055524649E+02  0.13753328828E+02 -0.31562324983E+02  0.54367066606E+02  0.39999959941E+02 0.  0.
        -12    1    3    3    0    0 -0.13055524649E+02 -0.13753328828E+02  0.31562324983E+02  0.36820933394E+02  0.00000000000E+00 0.  1.
         11    1    4    4    0    0 -0.30941976031E+01 -0.41211103161E+01  0.17506381537E+01  0.54426412017E+01  0.51100000000E-03 0. -1.
        -11    1    4    4    0    0 -0.23758029711E+01 -0.38583890343E+01  0.62070568778E+00  0.45734977325E+01  0.51100000000E-03 0.  1.
         12    1    4    4    0    0  0.18525525224E+02  0.21732828178E+02 -0.33933668824E+02  0.44350927671E+02  0.00000000000E+00 0. -1.
</event>
<event>
 8    1  0.2502431E-006  0.9118800E+02  0.7816164E-02  0.1184000E+00
        -11   -1    0    0    0    0  0.00000000000E+00  0.00000000000E+00  0.45593999997E+02  0.45594000000E+02  0.51100000000E-03 0.  1.
         11   -1    0    0    0    0 -0.00000000000E+00 -0.00000000000E+00 -0.45593999997E+02  0.45594000000E+02  0.51100000000E-03 0. -1.
         23    2    1    2    0    0 -0.35527136788E-14  0.26645352591E-14  0.00000000000E+00  0.91188000000E+02  0.91188000000E+02 0.  0.
    9900012    2    3    3    0    0 -0.27588226303E+02  0.46817845176E+01  0.23932188732E+02  0.54367095688E+02  0.40000026241E+02 0.  0.
         12    1    3    3    0    0  0.27588226303E+02 -0.46817845176E+01 -0.23932188732E+02  0.36820904312E+02  0.00000000000E+00 0. -1.
         11    1    4    4    0    0 -0.13570373992E+02 -0.83874693636E+01  0.28719418759E+02  0.32852849293E+02  0.51100000000E-03 0. -1.
        -11    1    4    4    0    0 -0.15888711207E+01  0.30916321042E+01  0.21976790408E+01  0.41124802654E+01  0.51100000000E-03 0.  1.
         12    1    4    4    0    0 -0.12428981190E+02  0.99776217770E+01 -0.69849090669E+01  0.17401766129E+02  0.00000000000E+00 0. -1.
</event>
<event>
 8    1  0.2502431E-006  0.9118800E+02  0.7816164E-02  0.1184000E+00
        -11   -1    0    0    0    0  0.00000000000E+00  0.00000000000E+00  0.45593999997E+02  0.45594000000E+02  0.51100000000E-03 0. -1.
         11   -1    0    0    0    0 -0.00000000000E+00 -0.00000000000E+00 -0.45593999997E+02  0.45594000000E+02  0.51100000000E-03 0.  1.
         23    2    1    2    0    0  0.17763568394E-14 -0.35527136788E-14  0.00000000000E+00  0.91188000000E+02  0.91188000000E+02 0.  0.
    9900012    2    3    3    0    0 -0.40852901512E+01  0.29478482796E+02  0.21682012995E+02  0.54367078894E+02  0.39999987954E+02 0.  0.
        -12    1    3    3    0    0  0.40852901512E+01 -0.29478482796E+02 -0.21682012995E+02  0.36820921106E+02  0.00000000000E+00 0.  1.
         11    1    4    4    0    0 -0.19538756577E+02  0.25842352901E+02  0.95647788210E+01  0.33779804709E+02  0.51100000000E-03 0. -1.
        -11    1    4    4    0    0  0.76752210375E+01  0.16483414332E+01  0.29118281197E+01  0.83728603664E+01  0.51100000000E-03 0.  1.
         12    1    4    4    0    0  0.77782453885E+01  0.19877884622E+01  0.92054060548E+01  0.12214413818E+02  0.00000000000E+00 0. -1.
</event>
<event>
 8    1  0.2502431E-006  0.9118800E+02  0.7816164E-02  0.1184000E+00
        -11   -1    0    0    0    0  0.00000000000E+00  0.00000000000E+00  0.45593999997E+02  0.45594000000E+02  0.51100000000E-03 0.  1.
         11   -1    0    0    0    0 -0.00000000000E+00 -0.00000000000E+00 -0.45593999997E+02  0.45594000000E+02  0.51100000000E-03 0. -1.
         23    2    1    2    0    0  0.66613381478E-15 -0.11102230246E-14  0.00000000000E+00  0.91188000000E+02  0.91188000000E+02 0.  0.
    9900012    2    3    3    0    0  0.11723833195E+01 -0.17489791393E+01 -0.36760676841E+02  0.54367071543E+02  0.39999971196E+02 0.  0.
        -12    1    3    3    0    0 -0.11723833195E+01  0.17489791393E+01  0.36760676841E+02  0.36820928457E+02  0.00000000000E+00 0.  1.
         11    1    4    4    0    0  0.78691631724E+01  0.41199369836E+01 -0.54793045573E+01  0.10436493112E+02  0.51100000000E-03 0. -1.
        -11    1    4    4    0    0  0.15344672859E+01  0.80206932868E+01 -0.25509102577E+02  0.26784331711E+02  0.51100000000E-03 0.  1.
        -12    1    4    4    0    0 -0.82312471388E+01 -0.13889609410E+02 -0.57722697060E+01  0.17146246720E+02  0.00000000000E+00 0.  1.
</event>
<event>
 8    1  0.2502431E-006  0.9118800E+02  0.7816164E-02  0.1184000E+00
        -11   -1    0    0    0    0  0.00000000000E+00  0.00000000000E+00  0.45593999997E+02  0.45594000000E+02  0.51100000000E-03 0. -1.
         11   -1    0    0    0    0 -0.00000000000E+00 -0.00000000000E+00 -0.45593999997E+02  0.45594000000E+02  0.51100000000E-03 0.  1.
         23    2    1    2    0    0  0.00000000000E+00  0.00000000000E+00  0.00000000000E+00  0.91188000000E+02  0.91188000000E+02 0.  0.
    9900012    2    3    3    0    0 -0.94381436365E+01 -0.10811405992E+02  0.33908924205E+02  0.54367079376E+02  0.39999989053E+02 0.  0.
        -12    1    3    3    0    0  0.94381436365E+01  0.10811405992E+02 -0.33908924205E+02  0.36820920624E+02  0.00000000000E+00 0.  1.
         11    1    4    4    0    0 -0.13511680629E+02 -0.13228337897E+01  0.30627231450E+02  0.33501383691E+02  0.51100000000E-03 0. -1.
        -11    1    4    4    0    0  0.10657855904E+02 -0.90026475545E+01  0.15290347141E+01  0.14034796147E+02  0.51100000000E-03 0.  1.
        -12    1    4    4    0    0 -0.65843189111E+01 -0.48592464816E+00  0.17526580410E+01  0.68308995378E+01  0.00000000000E+00 0.  1.
</event>
<event>
 8    1  0.2502431E-006  0.9118800E+02  0.7816164E-02  0.1184000E+00
        -11   -1    0    0    0    0  0.00000000000E+00  0.00000000000E+00  0.45593999997E+02  0.45594000000E+02  0.51100000000E-03 0.  1.
         11   -1    0    0    0    0 -0.00000000000E+00 -0.00000000000E+00 -0.45593999997E+02  0.45594000000E+02  0.51100000000E-03 0. -1.
         23    2    1    2    0    0 -0.35527136788E-14  0.00000000000E+00  0.00000000000E+00  0.91188000000E+02  0.91188000000E+02 0.  0.
    9900012    2    3    3    0    0 -0.30283826503E+02 -0.13454381915E+02 -0.16051439050E+02  0.54367092407E+02  0.40000018760E+02 0.  0.
        -12    1    3    3    0    0  0.30283826503E+02  0.13454381915E+02  0.16051439050E+02  0.36820907593E+02  0.00000000000E+00 0.  1.
         11    1    4    4    0    0 -0.16624373872E+02 -0.11063007554E+02 -0.24444005750E+02  0.31563734889E+02  0.51100000000E-03 0. -1.
        -11    1    4    4    0    0 -0.15304947463E+02 -0.19696739285E+01  0.12725948952E+01  0.15483556770E+02  0.51100000000E-03 0.  1.
         12    1    4    4    0    0  0.16454948311E+01 -0.42170043259E+00  0.71199718048E+01  0.73198007483E+01  0.00000000000E+00 0. -1.
</event>
<event>
 8    1  0.2502431E-006  0.9118800E+02  0.7816164E-02  0.1184000E+00
        -11   -1    0    0    0    0  0.00000000000E+00  0.00000000000E+00  0.45593999997E+02  0.45594000000E+02  0.51100000000E-03 0.  1.
         11   -1    0    0    0    0 -0.00000000000E+00 -0.00000000000E+00 -0.45593999997E+02  0.45594000000E+02  0.51100000000E-03 0. -1.
         23    2    1    2    0    0  0.00000000000E+00 -0.17763568394E-14  0.00000000000E+00  0.91188000000E+02  0.91188000000E+02 0.  0.
    9900012    2    3    3    0    0  0.32735934549E+02  0.15770091761E+02  0.59533986940E+01  0.54367079847E+02  0.39999990126E+02 0.  0.
         12    1    3    3    0    0 -0.32735934549E+02 -0.15770091761E+02 -0.59533986940E+01  0.36820920153E+02  0.00000000000E+00 0. -1.
         11    1    4    4    0    0  0.12261728700E+02  0.16135346334E+02  0.13012027097E+01  0.20307449884E+02  0.51100000000E-03 0. -1.
        -11    1    4    4    0    0  0.19515641557E+02 -0.11441659102E+02  0.30596479978E+01  0.22828343666E+02  0.51100000000E-03 0.  1.
        -12    1    4    4    0    0  0.95856429128E+00  0.11076404529E+02  0.15925479864E+01  0.11231286297E+02  0.00000000000E+00 0.  1.
</event>
<event>
 8    1  0.2502431E-006  0.9118800E+02  0.7816164E-02  0.1184000E+00
        -11   -1    0    0    0    0  0.00000000000E+00  0.00000000000E+00  0.45593999997E+02  0.45594000000E+02  0.51100000000E-03 0.  1.
         11   -1    0    0    0    0 -0.00000000000E+00 -0.00000000000E+00 -0.45593999997E+02  0.45594000000E+02  0.51100000000E-03 0. -1.
         23    2    1    2    0    0  0.35527136788E-14  0.00000000000E+00  0.00000000000E+00  0.91188000000E+02  0.91188000000E+02 0.  0.
    9900012    2    3    3    0    0  0.31885723180E+02 -0.74578749989E+01  0.16836272874E+02  0.54367091178E+02  0.40000015959E+02 0.  0.
         12    1    3    3    0    0 -0.31885723180E+02  0.74578749989E+01 -0.16836272874E+02  0.36820908822E+02  0.00000000000E+00 0. -1.
         11    1    4    4    0    0  0.44678744147E+01 -0.16710513727E+02  0.33714218469E+01  0.17622986589E+02  0.51100000000E-03 0. -1.
        -11    1    4    4    0    0  0.25830283335E+01 -0.42767498803E+01 -0.81526131948E+00  0.50623390039E+01  0.51100000000E-03 0.  1.
         12    1    4    4    0    0  0.24834820431E+02  0.13529388608E+02  0.14280112346E+02  0.31681765585E+02  0.00000000000E+00 0. -1.
</event>
<event>
 8    1  0.2502431E-006  0.9118800E+02  0.7816164E-02  0.1184000E+00
        -11   -1    0    0    0    0  0.00000000000E+00  0.00000000000E+00  0.45593999997E+02  0.45594000000E+02  0.51100000000E-03 0. -1.
         11   -1    0    0    0    0 -0.00000000000E+00 -0.00000000000E+00 -0.45593999997E+02  0.45594000000E+02  0.51100000000E-03 0.  1.
         23    2    1    2    0    0  0.35527136788E-14  0.00000000000E+00  0.44408920985E-15  0.91188000000E+02  0.91188000000E+02 0.  0.
    9900012    2    3    3    0    0  0.31897519654E+02  0.18248683695E+02 -0.23049223187E+01  0.54367097192E+02  0.40000029670E+02 0.  0.
        -12    1    3    3    0    0 -0.31897519654E+02 -0.18248683695E+02  0.23049223187E+01  0.36820902808E+02  0.00000000000E+00 0.  1.
         11    1    4    4    0    0  0.16664252574E+02  0.16219559482E+02  0.62745732571E+00  0.23262956102E+02  0.51100000000E-03 0. -1.
        -11    1    4    4    0    0  0.11746323504E+02 -0.11499298063E+02 -0.45079881737E+01  0.17044997197E+02  0.51100000000E-03 0.  1.
        -12    1    4    4    0    0  0.34869435764E+01  0.13528422276E+02  0.15756085293E+01  0.14059143894E+02  0.00000000000E+00 0.  1.
</event>
<event>
 8    1  0.2502431E-006  0.9118800E+02  0.7816164E-02  0.1184000E+00
        -11   -1    0    0    0    0  0.00000000000E+00  0.00000000000E+00  0.45593999997E+02  0.45594000000E+02  0.51100000000E-03 0.  1.
         11   -1    0    0    0    0 -0.00000000000E+00 -0.00000000000E+00 -0.45593999997E+02  0.45594000000E+02  0.51100000000E-03 0. -1.
         23    2    1    2    0    0  0.00000000000E+00  0.17763568394E-14  0.00000000000E+00  0.91188000000E+02  0.91188000000E+02 0.  0.
    9900012    2    3    3    0    0 -0.26846649816E+02  0.12181225499E+02  0.22060258086E+02  0.54367084098E+02  0.39999999818E+02 0.  0.
         12    1    3    3    0    0  0.26846649816E+02 -0.12181225499E+02 -0.22060258086E+02  0.36820915902E+02  0.00000000000E+00 0. -1.
         11    1    4    4    0    0 -0.15871261104E+02  0.55973030694E+01  0.35851911337E+01  0.17206984815E+02  0.51100000000E-03 0. -1.
        -11    1    4    4    0    0 -0.18500207446E+02  0.72560023598E+01  0.21266413492E+02  0.29106143490E+02  0.51100000000E-03 0.  1.
         12    1    4    4    0    0  0.75248187342E+01 -0.67207993009E+00 -0.27913465391E+01  0.80539557930E+01  0.00000000000E+00 0. -1.
</event>
<event>
 8    1  0.2502431E-006  0.9118800E+02  0.7816164E-02  0.1184000E+00
        -11   -1    0    0    0    0  0.00000000000E+00  0.00000000000E+00  0.45593999997E+02  0.45594000000E+02  0.51100000000E-03 0.  1.
         11   -1    0    0    0    0 -0.00000000000E+00 -0.00000000000E+00 -0.45593999997E+02  0.45594000000E+02  0.51100000000E-03 0. -1.
         23    2    1    2    0    0  0.00000000000E+00 -0.88817841970E-15  0.00000000000E+00  0.91188000000E+02  0.91188000000E+02 0.  0.
    9900012    2    3    3    0    0  0.23389053965E+02 -0.50374684889E+01  0.27988474485E+02  0.54367100525E+02  0.40000037267E+02 0.  0.
         12    1    3    3    0    0 -0.23389053965E+02  0.50374684889E+01 -0.27988474485E+02  0.36820899475E+02  0.00000000000E+00 0. -1.
         11    1    4    4    0    0 -0.60888482537E+01  0.28516557972E+01 -0.37868476807E+01  0.77166203393E+01  0.51100000000E-03 0. -1.
        -11    1    4    4    0    0  0.25135086775E+02 -0.18685444872E-01  0.24270701051E+02  0.34940518973E+02  0.51100000000E-03 0.  1.
         12    1    4    4    0    0  0.43428154432E+01 -0.78704388413E+01  0.75046211146E+01  0.11709961213E+02  0.00000000000E+00 0. -1.
</event>
<event>
 8    1  0.2502431E-006  0.9118800E+02  0.7816164E-02  0.1184000E+00
        -11   -1    0    0    0    0  0.00000000000E+00  0.00000000000E+00  0.45593999997E+02  0.45594000000E+02  0.51100000000E-03 0. -1.
         11   -1    0    0    0    0 -0.00000000000E+00 -0.00000000000E+00 -0.45593999997E+02  0.45594000000E+02  0.51100000000E-03 0.  1.
         23    2    1    2    0    0  0.00000000000E+00  0.00000000000E+00  0.00000000000E+00  0.91188000000E+02  0.91188000000E+02 0.  0.
    9900012    2    3    3    0    0 -0.30089983398E+02 -0.80410251701E+01 -0.19639593928E+02  0.54367097834E+02  0.40000031132E+02 0.  0.
         12    1    3    3    0    0  0.30089983398E+02  0.80410251701E+01  0.19639593928E+02  0.36820902166E+02  0.00000000000E+00 0. -1.
         11    1    4    4    0    0  0.22466942965E+00 -0.14335751883E+02 -0.14156700804E+02  0.20148856948E+02  0.51100000000E-03 0. -1.
        -11    1    4    4    0    0 -0.53082772521E+00  0.37057058911E+01 -0.15995385551E+01  0.40709406868E+01  0.51100000000E-03 0.  1.
         12    1    4    4    0    0 -0.29783825103E+02  0.25890208222E+01 -0.38833545687E+01  0.30147300199E+02  0.00000000000E+00 0. -1.
</event>
<event>
 8    1  0.2502431E-006  0.9118800E+02  0.7816164E-02  0.1184000E+00
        -11   -1    0    0    0    0  0.00000000000E+00  0.00000000000E+00  0.45593999997E+02  0.45594000000E+02  0.51100000000E-03 0.  1.
         11   -1    0    0    0    0 -0.00000000000E+00 -0.00000000000E+00 -0.45593999997E+02  0.45594000000E+02  0.51100000000E-03 0. -1.
         23    2    1    2    0    0  0.69388939039E-15 -0.17763568394E-14  0.00000000000E+00  0.91188000000E+02  0.91188000000E+02 0.  0.
    9900012    2    3    3    0    0  0.21534179290E+00 -0.97825948340E+01  0.35496965910E+02  0.54367080367E+02  0.39999991313E+02 0.  0.
         12    1    3    3    0    0 -0.21534179290E+00  0.97825948340E+01 -0.35496965910E+02  0.36820919633E+02  0.00000000000E+00 0. -1.
         11    1    4    4    0    0  0.17188452674E+00 -0.31272307411E+00 -0.57772295067E+01  0.57882398919E+01  0.51100000000E-03 0. -1.
        -11    1    4    4    0    0  0.11651333044E+02 -0.38142866420E+01  0.15604063205E+02  0.19844120869E+02  0.51100000000E-03 0.  1.
         12    1    4    4    0    0 -0.11607875778E+02 -0.56555851179E+01  0.25670132212E+02  0.28734719607E+02  0.00000000000E+00 0. -1.
</event>
<event>
 8    1  0.2502431E-006  0.9118800E+02  0.7816164E-02  0.1184000E+00
        -11   -1    0    0    0    0  0.00000000000E+00  0.00000000000E+00  0.45593999997E+02  0.45594000000E+02  0.51100000000E-03 0. -1.
         11   -1    0    0    0    0 -0.00000000000E+00 -0.00000000000E+00 -0.45593999997E+02  0.45594000000E+02  0.51100000000E-03 0.  1.
         23    2    1    2    0    0  0.00000000000E+00  0.35527136788E-14  0.00000000000E+00  0.91188000000E+02  0.91188000000E+02 0.  0.
    9900012    2    3    3    0    0 -0.28619169073E+02 -0.12200903705E+02  0.19694188164E+02  0.54367082886E+02  0.39999997056E+02 0.  0.
        -12    1    3    3    0    0  0.28619169073E+02  0.12200903705E+02 -0.19694188164E+02  0.36820917114E+02  0.00000000000E+00 0.  1.
         11    1    4    4    0    0 -0.66985737426E+01 -0.22565111268E+01  0.60494178409E+01  0.93036653597E+01  0.51100000000E-03 0. -1.
        -11    1    4    4    0    0 -0.14809624441E+02  0.11445978755E+02  0.63447381471E-02  0.18717249965E+02  0.51100000000E-03 0.  1.
        -12    1    4    4    0    0 -0.71109708898E+01 -0.21390371333E+02  0.13638425585E+02  0.26346167562E+02  0.00000000000E+00 0.  1.
</event>
<event>
 8    1  0.2502431E-006  0.9118800E+02  0.7816164E-02  0.1184000E+00
        -11   -1    0    0    0    0  0.00000000000E+00  0.00000000000E+00  0.45593999997E+02  0.45594000000E+02  0.51100000000E-03 0. -1.
         11   -1    0    0    0    0 -0.00000000000E+00 -0.00000000000E+00 -0.45593999997E+02  0.45594000000E+02  0.51100000000E-03 0.  1.
         23    2    1    2    0    0 -0.88817841970E-15  0.00000000000E+00  0.00000000000E+00  0.91188000000E+02  0.91188000000E+02 0.  0.
    9900012    2    3    3    0    0  0.77802683554E+01 -0.16226356018E+02 -0.32124026938E+02  0.54367077795E+02  0.39999985450E+02 0.  0.
         12    1    3    3    0    0 -0.77802683554E+01  0.16226356018E+02  0.32124026938E+02  0.36820922205E+02  0.00000000000E+00 0. -1.
         11    1    4    4    0    0  0.41636416001E+01 -0.13152421235E+02 -0.32733977945E+02  0.35522322673E+02  0.51100000000E-03 0. -1.
        -11    1    4    4    0    0  0.65445465228E+01 -0.36124662771E+00 -0.74060779308E+01  0.98899736548E+01  0.51100000000E-03 0.  1.
         12    1    4    4    0    0 -0.29279197675E+01 -0.27126881559E+01  0.80160289381E+01  0.89547814676E+01  0.00000000000E+00 0. -1.
</event>
<event>
 8    1  0.2502431E-006  0.9118800E+02  0.7816164E-02  0.1184000E+00
        -11   -1    0    0    0    0  0.00000000000E+00  0.00000000000E+00  0.45593999997E+02  0.45594000000E+02  0.51100000000E-03 0.  1.
         11   -1    0    0    0    0 -0.00000000000E+00 -0.00000000000E+00 -0.45593999997E+02  0.45594000000E+02  0.51100000000E-03 0. -1.
         23    2    1    2    0    0  0.00000000000E+00 -0.88817841970E-15 -0.88817841970E-15  0.91188000000E+02  0.91188000000E+02 0.  0.
    9900012    2    3    3    0    0  0.36269307946E+02 -0.42373827005E+01 -0.47286920201E+01  0.54367100510E+02  0.40000037232E+02 0.  0.
         12    1    3    3    0    0 -0.36269307946E+02  0.42373827005E+01  0.47286920201E+01  0.36820899490E+02  0.00000000000E+00 0. -1.
         11    1    4    4    0    0  0.12064302017E+02 -0.10203017643E+01  0.16123140727E+01  0.12214252158E+02  0.51100000000E-03 0. -1.
        -11    1    4    4    0    0  0.17393726435E+02  0.56297315784E+01  0.11141269998E+02  0.21409425363E+02  0.51100000000E-03 0.  1.
         12    1    4    4    0    0  0.68112794947E+01 -0.88468125147E+01 -0.17482276090E+02  0.20743422990E+02  0.00000000000E+00 0. -1.
</event>
<event>
 8    1  0.2502431E-006  0.9118800E+02  0.7816164E-02  0.1184000E+00
        -11   -1    0    0    0    0  0.00000000000E+00  0.00000000000E+00  0.45593999997E+02  0.45594000000E+02  0.51100000000E-03 0.  1.
         11   -1    0    0    0    0 -0.00000000000E+00 -0.00000000000E+00 -0.45593999997E+02  0.45594000000E+02  0.51100000000E-03 0. -1.
         23    2    1    2    0    0 -0.17763568394E-14  0.00000000000E+00  0.88817841970E-15  0.91188000000E+02  0.91188000000E+02 0.  0.
    9900012    2    3    3    0    0 -0.13076356152E+02  0.34171015473E+02 -0.41389360491E+01  0.54367079584E+02  0.39999989529E+02 0.  0.
         12    1    3    3    0    0  0.13076356152E+02 -0.34171015473E+02  0.41389360491E+01  0.36820920416E+02  0.00000000000E+00 0. -1.
         11    1    4    4    0    0 -0.90144863823E+01  0.22701165374E+02 -0.17043279467E+02  0.29783842085E+02  0.51100000000E-03 0. -1.
        -11    1    4    4    0    0  0.11887912968E+01  0.75603584530E+01 -0.23315599931E+01  0.80005260420E+01  0.51100000000E-03 0.  1.
        -12    1    4    4    0    0 -0.52506610661E+01  0.39094916454E+01  0.15235903411E+02  0.16582711458E+02  0.00000000000E+00 0.  1.
</event>
<event>
 8    1  0.2502431E-006  0.9118800E+02  0.7816164E-02  0.1184000E+00
        -11   -1    0    0    0    0  0.00000000000E+00  0.00000000000E+00  0.45593999997E+02  0.45594000000E+02  0.51100000000E-03 0.  1.
         11   -1    0    0    0    0 -0.00000000000E+00 -0.00000000000E+00 -0.45593999997E+02  0.45594000000E+02  0.51100000000E-03 0. -1.
         23    2    1    2    0    0  0.00000000000E+00 -0.22204460493E-15  0.00000000000E+00  0.91188000000E+02  0.91188000000E+02 0.  0.
    9900012    2    3    3    0    0  0.15437139235E+02 -0.13926150966E+01  0.33399624661E+02  0.54367087843E+02  0.40000008356E+02 0.  0.
         12    1    3    3    0    0 -0.15437139235E+02  0.13926150966E+01 -0.33399624661E+02  0.36820912157E+02  0.00000000000E+00 0. -1.
         11    1    4    4    0    0 -0.41831518206E+01 -0.73218636886E+01  0.15214245108E+01  0.85687326853E+01  0.51100000000E-03 0. -1.
        -11    1    4    4    0    0 -0.59436153573E+01  0.31539859359E+01  0.38112727502E+01  0.77330453921E+01  0.51100000000E-03 0.  1.
        -12    1    4    4    0    0  0.25563906413E+02  0.27752626560E+01  0.28066927400E+02  0.38065309766E+02  0.00000000000E+00 0.  1.
</event>
<event>
 8    1  0.2502431E-006  0.9118800E+02  0.7816164E-02  0.1184000E+00
        -11   -1    0    0    0    0  0.00000000000E+00  0.00000000000E+00  0.45593999997E+02  0.45594000000E+02  0.51100000000E-03 0.  1.
         11   -1    0    0    0    0 -0.00000000000E+00 -0.00000000000E+00 -0.45593999997E+02  0.45594000000E+02  0.51100000000E-03 0. -1.
         23    2    1    2    0    0  0.00000000000E+00  0.17763568394E-14  0.00000000000E+00  0.91188000000E+02  0.91188000000E+02 0.  0.
    9900012    2    3    3    0    0 -0.33042238303E+02 -0.11600447926E+02 -0.11376723598E+02  0.54366949716E+02  0.39999693467E+02 0.  0.
         12    1    3    3    0    0  0.33042238303E+02  0.11600447926E+02  0.11376723598E+02  0.36821050284E+02  0.00000000000E+00 0. -1.
         11    1    4    4    0    0 -0.30738164544E+01  0.78711976753E+01 -0.45805177886E+01  0.96117242944E+01  0.51100000000E-03 0. -1.
        -11    1    4    4    0    0 -0.22919660600E+02 -0.16516111281E+02  0.68906951502E+01  0.29078762934E+02  0.51100000000E-03 0.  1.
        -12    1    4    4    0    0 -0.70487612486E+01 -0.29555343202E+01 -0.13686900960E+02  0.15676462488E+02  0.00000000000E+00 0.  1.
</event>
<event>
 8    1  0.2502431E-006  0.9118800E+02  0.7816164E-02  0.1184000E+00
        -11   -1    0    0    0    0  0.00000000000E+00  0.00000000000E+00  0.45593999997E+02  0.45594000000E+02  0.51100000000E-03 0.  1.
         11   -1    0    0    0    0 -0.00000000000E+00 -0.00000000000E+00 -0.45593999997E+02  0.45594000000E+02  0.51100000000E-03 0. -1.
         23    2    1    2    0    0 -0.35527136788E-14  0.35527136788E-14 -0.35527136788E-14  0.91188000000E+02  0.91188000000E+02 0.  0.
    9900012    2    3    3    0    0  0.18614619236E+02 -0.23287323183E+02  0.21609681606E+02  0.54367057461E+02  0.39999939094E+02 0.  0.
         12    1    3    3    0    0 -0.18614619236E+02  0.23287323183E+02 -0.21609681606E+02  0.36820942539E+02  0.00000000000E+00 0. -1.
         11    1    4    4    0    0  0.16245117057E+01 -0.10515360329E+01  0.39577356718E+01  0.44055009045E+01  0.51100000000E-03 0.  1.
        -11    1    4    4    0    0  0.28488728753E+01  0.43092892753E+01  0.19162718187E+02  0.19846808794E+02  0.51100000000E-03 0. -1.
         12    1    4    4    0    0  0.14141234655E+02 -0.26545076426E+02 -0.15107722527E+01  0.30114747763E+02  0.00000000000E+00 0. -1.
</event>
<event>
 8    1  0.2502431E-006  0.9118800E+02  0.7816164E-02  0.1184000E+00
        -11   -1    0    0    0    0  0.00000000000E+00  0.00000000000E+00  0.45593999997E+02  0.45594000000E+02  0.51100000000E-03 0.  1.
         11   -1    0    0    0    0 -0.00000000000E+00 -0.00000000000E+00 -0.45593999997E+02  0.45594000000E+02  0.51100000000E-03 0. -1.
         23    2    1    2    0    0  0.17763568394E-14  0.00000000000E+00 -0.35527136788E-14  0.91188000000E+02  0.91188000000E+02 0.  0.
    9900012    2    3    3    0    0 -0.14473049512E+02  0.13043763664E+02 -0.31243757169E+02  0.54367064451E+02  0.39999955028E+02 0.  0.
        -12    1    3    3    0    0  0.14473049512E+02 -0.13043763664E+02  0.31243757169E+02  0.36820935549E+02  0.00000000000E+00 0.  1.
         11    1    4    4    0    0 -0.14505959605E+02  0.30886758509E+01 -0.36062089674E+02  0.38992782595E+02  0.51100000000E-03 0. -1.
        -11    1    4    4    0    0  0.11109146102E+01 -0.63959962788E+00  0.45440091150E+01  0.47213597674E+01  0.51100000000E-03 0.  1.
         12    1    4    4    0    0 -0.10780045172E+01  0.10594687441E+02  0.27432338968E+00  0.10652922089E+02  0.00000000000E+00 0. -1.
</event>
<event>
 8    1  0.2502431E-006  0.9118800E+02  0.7816164E-02  0.1184000E+00
        -11   -1    0    0    0    0  0.00000000000E+00  0.00000000000E+00  0.45593999997E+02  0.45594000000E+02  0.51100000000E-03 0.  1.
         11   -1    0    0    0    0 -0.00000000000E+00 -0.00000000000E+00 -0.45593999997E+02  0.45594000000E+02  0.51100000000E-03 0. -1.
         23    2    1    2    0    0  0.35527136788E-14  0.35527136788E-14 -0.14432899320E-14  0.91188000000E+02  0.91188000000E+02 0.  0.
    9900012    2    3    3    0    0  0.18393491833E+02 -0.31882329703E+02  0.98776602396E+00  0.54367093292E+02  0.40000020777E+02 0.  0.
         12    1    3    3    0    0 -0.18393491833E+02  0.31882329703E+02 -0.98776602396E+00  0.36820906708E+02  0.00000000000E+00 0. -1.
         11    1    4    4    0    0 -0.12452052088E+01 -0.33058374777E+01  0.67178377340E+01  0.75900224982E+01  0.51100000000E-03 0. -1.
        -11    1    4    4    0    0  0.19205521916E+02 -0.25133319805E+02  0.79901173780E+01  0.32624803639E+02  0.51100000000E-03 0.  1.
         12    1    4    4    0    0  0.43317512604E+00 -0.34431724200E+01 -0.13720189088E+02  0.14152267155E+02  0.00000000000E+00 0. -1.
</event>
<event>
 8    1  0.2502431E-006  0.9118800E+02  0.7816164E-02  0.1184000E+00
        -11   -1    0    0    0    0  0.00000000000E+00  0.00000000000E+00  0.45593999997E+02  0.45594000000E+02  0.51100000000E-03 0. -1.
         11   -1    0    0    0    0 -0.00000000000E+00 -0.00000000000E+00 -0.45593999997E+02  0.45594000000E+02  0.51100000000E-03 0.  1.
         23    2    1    2    0    0  0.35527136788E-14  0.35527136788E-14  0.17763568394E-14  0.91188000000E+02  0.91188000000E+02 0.  0.
    9900012    2    3    3    0    0  0.15081221698E+02  0.31117754275E+02  0.12649938161E+02  0.54367098130E+02  0.40000031808E+02 0.  0.
        -12    1    3    3    0    0 -0.15081221698E+02 -0.31117754275E+02 -0.12649938161E+02  0.36820901870E+02  0.00000000000E+00 0.  1.
         11    1    4    4    0    0  0.28804599449E+01  0.17788801233E+02  0.40562716490E+01  0.18471378908E+02  0.51100000000E-03 0. -1.
        -11    1    4    4    0    0 -0.42057453374E+01  0.13955498528E+02  0.12291090991E+02  0.19066073298E+02  0.51100000000E-03 0.  1.
        -12    1    4    4    0    0  0.16406507091E+02 -0.62654548646E+00 -0.36974244786E+01  0.16829645924E+02  0.00000000000E+00 0.  1.
</event>
<event>
 8    1  0.2502431E-006  0.9118800E+02  0.7816164E-02  0.1184000E+00
        -11   -1    0    0    0    0  0.00000000000E+00  0.00000000000E+00  0.45593999997E+02  0.45594000000E+02  0.51100000000E-03 0.  1.
         11   -1    0    0    0    0 -0.00000000000E+00 -0.00000000000E+00 -0.45593999997E+02  0.45594000000E+02  0.51100000000E-03 0. -1.
         23    2    1    2    0    0  0.00000000000E+00  0.00000000000E+00  0.44408920985E-15  0.91188000000E+02  0.91188000000E+02 0.  0.
    9900012    2    3    3    0    0 -0.12605807941E+02 -0.34416041799E+02 -0.35221687027E+01  0.54367136358E+02  0.40000118955E+02 0.  0.
        -12    1    3    3    0    0  0.12605807941E+02  0.34416041799E+02  0.35221687027E+01  0.36820863642E+02  0.00000000000E+00 0.  1.
         11    1    4    4    0    0 -0.18829697401E+02 -0.13703556574E+02  0.82052694149E+01  0.24691525133E+02  0.51100000000E-03 0. -1.
        -11    1    4    4    0    0 -0.33814539288E+01 -0.70206543229E+01  0.19923292594E+01  0.80432079380E+01  0.51100000000E-03 0.  1.
         12    1    4    4    0    0  0.96053433887E+01 -0.13691830902E+02 -0.13719767377E+02  0.21632403287E+02  0.00000000000E+00 0. -1.
</event>
<event>
 8    1  0.2502431E-006  0.9118800E+02  0.7816164E-02  0.1184000E+00
        -11   -1    0    0    0    0  0.00000000000E+00  0.00000000000E+00  0.45593999997E+02  0.45594000000E+02  0.51100000000E-03 0.  1.
         11   -1    0    0    0    0 -0.00000000000E+00 -0.00000000000E+00 -0.45593999997E+02  0.45594000000E+02  0.51100000000E-03 0. -1.
         23    2    1    2    0    0  0.88817841970E-15  0.00000000000E+00 -0.88817841970E-15  0.91188000000E+02  0.91188000000E+02 0.  0.
    9900012    2    3    3    0    0  0.71103968388E+01 -0.35335756341E+02  0.75237028569E+01  0.54367088495E+02  0.40000009843E+02 0.  0.
         12    1    3    3    0    0 -0.71103968388E+01  0.35335756341E+02 -0.75237028569E+01  0.36820911505E+02  0.00000000000E+00 0. -1.
         11    1    4    4    0    0 -0.11440254738E+02 -0.16177392270E+02 -0.16962838972E+01  0.19886297505E+02  0.51100000000E-03 0. -1.
        -11    1    4    4    0    0  0.12392085389E+02 -0.20867388270E+02  0.12497260652E+02  0.27298227004E+02  0.51100000000E-03 0.  1.
         12    1    4    4    0    0  0.61585661881E+01  0.17090242001E+01 -0.32772738982E+01  0.71825639860E+01  0.00000000000E+00 0. -1.
</event>
<event>
 8    1  0.2502431E-006  0.9118800E+02  0.7816164E-02  0.1184000E+00
        -11   -1    0    0    0    0  0.00000000000E+00  0.00000000000E+00  0.45593999997E+02  0.45594000000E+02  0.51100000000E-03 0.  1.
         11   -1    0    0    0    0 -0.00000000000E+00 -0.00000000000E+00 -0.45593999997E+02  0.45594000000E+02  0.51100000000E-03 0. -1.
         23    2    1    2    0    0 -0.35527136788E-14  0.00000000000E+00  0.35527136788E-14  0.91188000000E+02  0.91188000000E+02 0.  0.
    9900012    2    3    3    0    0 -0.23887379522E+02 -0.48325773881E+01  0.27601060752E+02  0.54367092090E+02  0.40000018038E+02 0.  0.
        -12    1    3    3    0    0  0.23887379522E+02  0.48325773881E+01 -0.27601060752E+02  0.36820907910E+02  0.00000000000E+00 0.  1.
         11    1    4    4    0    0 -0.25702745080E+02 -0.54976318996E+01  0.30543204666E+02  0.40295687271E+02  0.51100000000E-03 0. -1.
        -11    1    4    4    0    0  0.58572624848E+01  0.18030305611E+01  0.29776594817E+01  0.68135819706E+01  0.51100000000E-03 0.  1.
        -12    1    4    4    0    0 -0.40418969272E+01 -0.11379760496E+01 -0.59198033953E+01  0.72578228484E+01  0.00000000000E+00 0.  1.
</event>
<event>
 8    1  0.2502431E-006  0.9118800E+02  0.7816164E-02  0.1184000E+00
        -11   -1    0    0    0    0  0.00000000000E+00  0.00000000000E+00  0.45593999997E+02  0.45594000000E+02  0.51100000000E-03 0. -1.
         11   -1    0    0    0    0 -0.00000000000E+00 -0.00000000000E+00 -0.45593999997E+02  0.45594000000E+02  0.51100000000E-03 0.  1.
         23    2    1    2    0    0 -0.17763568394E-14 -0.88817841970E-15  0.14210854715E-13  0.91188000000E+02  0.91188000000E+02 0.  0.
    9900012    2    3    3    0    0 -0.77473521648E+01 -0.64887781989E+01  0.35406974615E+02  0.54367088014E+02  0.40000008745E+02 0.  0.
        -12    1    3    3    0    0  0.77473521648E+01  0.64887781989E+01 -0.35406974615E+02  0.36820911986E+02  0.00000000000E+00 0.  1.
         11    1    4    4    0    0 -0.27533720487E+00 -0.64258493531E+01  0.41551589241E+02  0.42046425760E+02  0.51100000000E-03 0. -1.
        -11    1    4    4    0    0  0.60501854078E+00 -0.12191773082E+01  0.82351151761E+00  0.15907898115E+01  0.51100000000E-03 0.  1.
        -12    1    4    4    0    0 -0.80770335007E+01  0.11562484625E+01 -0.69681261434E+01  0.10729872442E+02  0.00000000000E+00 0.  1.
</event>
<event>
 8    1  0.2502431E-006  0.9118800E+02  0.7816164E-02  0.1184000E+00
        -11   -1    0    0    0    0  0.00000000000E+00  0.00000000000E+00  0.45593999997E+02  0.45594000000E+02  0.51100000000E-03 0.  1.
         11   -1    0    0    0    0 -0.00000000000E+00 -0.00000000000E+00 -0.45593999997E+02  0.45594000000E+02  0.51100000000E-03 0. -1.
         23    2    1    2    0    0  0.00000000000E+00  0.00000000000E+00  0.00000000000E+00  0.91188000000E+02  0.91188000000E+02 0.  0.
    9900012    2    3    3    0    0 -0.53782968728E+01  0.13850179576E+02  0.33689956503E+02  0.54367262355E+02  0.40000406189E+02 0.  0.
         12    1    3    3    0    0  0.53782968728E+01 -0.13850179576E+02 -0.33689956503E+02  0.36820737645E+02  0.00000000000E+00 0. -1.
         11    1    4    4    0    0 -0.34649262136E+01  0.15004066416E+02  0.65551772745E+01  0.16736130737E+02  0.51100000000E-03 0. -1.
        -11    1    4    4    0    0 -0.42927519051E+00 -0.13444607026E+02  0.16673268499E+02  0.21422876043E+02  0.51100000000E-03 0.  1.
        -12    1    4    4    0    0 -0.14840954688E+01  0.12290720185E+02  0.10461510730E+02  0.16208255575E+02  0.00000000000E+00 0.  1.
</event>
<event>
 8    1  0.2502431E-006  0.9118800E+02  0.7816164E-02  0.1184000E+00
        -11   -1    0    0    0    0  0.00000000000E+00  0.00000000000E+00  0.45593999997E+02  0.45594000000E+02  0.51100000000E-03 0.  1.
         11   -1    0    0    0    0 -0.00000000000E+00 -0.00000000000E+00 -0.45593999997E+02  0.45594000000E+02  0.51100000000E-03 0. -1.
         23    2    1    2    0    0  0.88817841970E-15  0.00000000000E+00  0.35527136788E-14  0.91188000000E+02  0.91188000000E+02 0.  0.
    9900012    2    3    3    0    0 -0.36566592853E+01  0.20339032961E+02 -0.30475130246E+02  0.54367068692E+02  0.39999964697E+02 0.  0.
        -12    1    3    3    0    0  0.36566592853E+01 -0.20339032961E+02  0.30475130246E+02  0.36820931308E+02  0.00000000000E+00 0.  1.
         11    1    4    4    0    0  0.62621593584E+01 -0.56107177581E+01 -0.10279192720E+02  0.13279932110E+02  0.51100000000E-03 0. -1.
        -11    1    4    4    0    0 -0.25067653551E+01 -0.30343797375E+01  0.14135186928E+01  0.41820292076E+01  0.51100000000E-03 0.  1.
        -12    1    4    4    0    0 -0.74120532885E+01  0.28984130457E+02 -0.21609456218E+02  0.36905107375E+02  0.00000000000E+00 0.  1.
</event>
<event>
 8    1  0.2502431E-006  0.9118800E+02  0.7816164E-02  0.1184000E+00
        -11   -1    0    0    0    0  0.00000000000E+00  0.00000000000E+00  0.45593999997E+02  0.45594000000E+02  0.51100000000E-03 0.  1.
         11   -1    0    0    0    0 -0.00000000000E+00 -0.00000000000E+00 -0.45593999997E+02  0.45594000000E+02  0.51100000000E-03 0. -1.
         23    2    1    2    0    0  0.00000000000E+00  0.00000000000E+00  0.00000000000E+00  0.91188000000E+02  0.91188000000E+02 0.  0.
    9900012    2    3    3    0    0  0.32921729685E+02  0.16302414856E+02 -0.24867090082E+01  0.54366909070E+02  0.39999600806E+02 0.  0.
        -12    1    3    3    0    0 -0.32921729685E+02 -0.16302414856E+02  0.24867090082E+01  0.36821090930E+02  0.00000000000E+00 0.  1.
         11    1    4    4    0    0  0.21497096152E+02 -0.72502078208E+01  0.38635976462E+01  0.23013431805E+02  0.51100000000E-03 0. -1.
        -11    1    4    4    0    0  0.60394754636E+01  0.22462290738E+02 -0.41266120839E+00  0.23263706897E+02  0.51100000000E-03 0.  1.
         12    1    4    4    0    0  0.53851580685E+01  0.10903319388E+01 -0.59376454461E+01  0.80897703678E+01  0.00000000000E+00 0. -1.
</event>
<event>
 8    1  0.2502431E-006  0.9118800E+02  0.7816164E-02  0.1184000E+00
        -11   -1    0    0    0    0  0.00000000000E+00  0.00000000000E+00  0.45593999997E+02  0.45594000000E+02  0.51100000000E-03 0.  1.
         11   -1    0    0    0    0 -0.00000000000E+00 -0.00000000000E+00 -0.45593999997E+02  0.45594000000E+02  0.51100000000E-03 0. -1.
         23    2    1    2    0    0  0.00000000000E+00  0.17763568394E-14 -0.17763568394E-14  0.91188000000E+02  0.91188000000E+02 0.  0.
    9900012    2    3    3    0    0  0.35388647908E+02  0.10081870796E+02 -0.13341705187E+01  0.54367074829E+02  0.39999978687E+02 0.  0.
        -12    1    3    3    0    0 -0.35388647908E+02 -0.10081870796E+02  0.13341705187E+01  0.36820925171E+02  0.00000000000E+00 0.  1.
         11    1    4    4    0    0  0.81836865567E+01  0.10571935481E+02 -0.16080508157E+02  0.20912228201E+02  0.51100000000E-03 0. -1.
        -11    1    4    4    0    0  0.20181132500E+02 -0.94938389496E+00  0.39799825851E+01  0.20591738644E+02  0.51100000000E-03 0.  1.
        -12    1    4    4    0    0  0.70238288516E+01  0.45931920928E+00  0.10766355053E+02  0.12863107984E+02  0.00000000000E+00 0.  1.
</event>
<event>
 8    1  0.2502431E-006  0.9118800E+02  0.7816164E-02  0.1184000E+00
        -11   -1    0    0    0    0  0.00000000000E+00  0.00000000000E+00  0.45593999997E+02  0.45594000000E+02  0.51100000000E-03 0. -1.
         11   -1    0    0    0    0 -0.00000000000E+00 -0.00000000000E+00 -0.45593999997E+02  0.45594000000E+02  0.51100000000E-03 0.  1.
         23    2    1    2    0    0  0.00000000000E+00  0.17763568394E-14  0.00000000000E+00  0.91188000000E+02  0.91188000000E+02 0.  0.
    9900012    2    3    3    0    0 -0.20858848192E+02  0.10446147048E+02 -0.28487977904E+02  0.54367103472E+02  0.40000043985E+02 0.  0.
         12    1    3    3    0    0  0.20858848192E+02 -0.10446147048E+02  0.28487977904E+02  0.36820896528E+02  0.00000000000E+00 0. -1.
         11    1    4    4    0    0  0.17602050416E+00 -0.10563853578E+02 -0.14280810963E+02  0.17764220997E+02  0.51100000000E-03 0. -1.
        -11    1    4    4    0    0 -0.95883508004E+00  0.10673248167E+02 -0.73832301683E+01  0.13013442248E+02  0.51100000000E-03 0.  1.
        -12    1    4    4    0    0 -0.20076033616E+02  0.10336752458E+02 -0.68239367729E+01  0.23589440227E+02  0.00000000000E+00 0.  1.
</event>
<event>
 8    1  0.2502431E-006  0.9118800E+02  0.7816164E-02  0.1184000E+00
        -11   -1    0    0    0    0  0.00000000000E+00  0.00000000000E+00  0.45593999997E+02  0.45594000000E+02  0.51100000000E-03 0. -1.
         11   -1    0    0    0    0 -0.00000000000E+00 -0.00000000000E+00 -0.45593999997E+02  0.45594000000E+02  0.51100000000E-03 0.  1.
         23    2    1    2    0    0 -0.44408920985E-14  0.00000000000E+00  0.00000000000E+00  0.91188000000E+02  0.91188000000E+02 0.  0.
    9900012    2    3    3    0    0  0.62644249404E+01 -0.35279296033E+02 -0.84797431458E+01  0.54367112012E+02  0.40000063453E+02 0.  0.
        -12    1    3    3    0    0 -0.62644249404E+01  0.35279296033E+02  0.84797431458E+01  0.36820887988E+02  0.00000000000E+00 0.  1.
         11    1    4    4    0    0 -0.99643790223E+01 -0.27113916931E+02 -0.11450293819E+02  0.31073502690E+02  0.51100000000E-03 0. -1.
        -11    1    4    4    0    0  0.18138255976E+02 -0.94679628973E+01  0.14191801714E+01  0.20509820182E+02  0.51100000000E-03 0.  1.
         12    1    4    4    0    0 -0.19094520138E+01  0.13025837956E+01  0.15513705014E+01  0.27837891389E+01  0.00000000000E+00 0. -1.
</event>
<event>
 8    1  0.2502431E-006  0.9118800E+02  0.7816164E-02  0.1184000E+00
        -11   -1    0    0    0    0  0.00000000000E+00  0.00000000000E+00  0.45593999997E+02  0.45594000000E+02  0.51100000000E-03 0.  1.
         11   -1    0    0    0    0 -0.00000000000E+00 -0.00000000000E+00 -0.45593999997E+02  0.45594000000E+02  0.51100000000E-03 0. -1.
         23    2    1    2    0    0  0.00000000000E+00  0.35527136788E-14  0.00000000000E+00  0.91188000000E+02  0.91188000000E+02 0.  0.
    9900012    2    3    3    0    0 -0.27920192166E+02 -0.17566525592E+02 -0.16360307261E+02  0.54367087388E+02  0.40000007318E+02 0.  0.
         12    1    3    3    0    0  0.27920192166E+02  0.17566525592E+02  0.16360307261E+02  0.36820912612E+02  0.00000000000E+00 0. -1.
         11    1    4    4    0    0 -0.13790310678E+02 -0.38021612902E+01  0.11869344532E+01  0.14354020786E+02  0.51100000000E-03 0.  1.
        -11    1    4    4    0    0 -0.69051730003E+01  0.43729888042E+00  0.75779287586E+01  0.10261464272E+02  0.51100000000E-03 0. -1.
         12    1    4    4    0    0 -0.72247084870E+01 -0.14201663182E+02 -0.25125170473E+02  0.29751602329E+02  0.00000000000E+00 0. -1.
</event>
<event>
 8    1  0.2502431E-006  0.9118800E+02  0.7816164E-02  0.1184000E+00
        -11   -1    0    0    0    0  0.00000000000E+00  0.00000000000E+00  0.45593999997E+02  0.45594000000E+02  0.51100000000E-03 0. -1.
         11   -1    0    0    0    0 -0.00000000000E+00 -0.00000000000E+00 -0.45593999997E+02  0.45594000000E+02  0.51100000000E-03 0.  1.
         23    2    1    2    0    0 -0.88817841970E-15 -0.88817841970E-15  0.00000000000E+00  0.91188000000E+02  0.91188000000E+02 0.  0.
    9900012    2    3    3    0    0 -0.44828730514E+01  0.69383691662E+01  0.35882391593E+02  0.54367039340E+02  0.39999897784E+02 0.  0.
        -12    1    3    3    0    0  0.44828730514E+01 -0.69383691662E+01 -0.35882391593E+02  0.36820960660E+02  0.00000000000E+00 0.  1.
         11    1    4    4    0    0  0.97960955896E+01  0.13033213324E+02  0.23455727662E+02  0.28565701440E+02  0.51100000000E-03 0. -1.
        -11    1    4    4    0    0  0.20579643921E+01 -0.32768414538E+01  0.76105302052E+01  0.85377442933E+01  0.51100000000E-03 0.  1.
        -12    1    4    4    0    0 -0.16336933033E+02 -0.28180027040E+01  0.48161337259E+01  0.17263593607E+02  0.00000000000E+00 0.  1.
</event>
<event>
 8    1  0.2502431E-006  0.9118800E+02  0.7816164E-02  0.1184000E+00
        -11   -1    0    0    0    0  0.00000000000E+00  0.00000000000E+00  0.45593999997E+02  0.45594000000E+02  0.51100000000E-03 0.  1.
         11   -1    0    0    0    0 -0.00000000000E+00 -0.00000000000E+00 -0.45593999997E+02  0.45594000000E+02  0.51100000000E-03 0. -1.
         23    2    1    2    0    0  0.00000000000E+00  0.00000000000E+00 -0.88817841970E-15  0.91188000000E+02  0.91188000000E+02 0.  0.
    9900012    2    3    3    0    0  0.20782322654E+02 -0.29938554204E+02  0.52495561160E+01  0.54367084718E+02  0.40000001233E+02 0.  0.
         12    1    3    3    0    0 -0.20782322654E+02  0.29938554204E+02 -0.52495561160E+01  0.36820915282E+02  0.00000000000E+00 0. -1.
         11    1    4    4    0    0  0.14454410857E+01 -0.13247970393E+02  0.57609218274E+01  0.14518479261E+02  0.51100000000E-03 0. -1.
        -11    1    4    4    0    0  0.56121273680E+00 -0.15924442264E+02  0.95055603012E+01  0.18554204323E+02  0.51100000000E-03 0.  1.
         12    1    4    4    0    0  0.18775668832E+02 -0.76614154691E+00 -0.10016926013E+02  0.21294401135E+02  0.00000000000E+00 0. -1.
</event>
<event>
 8    1  0.2502431E-006  0.9118800E+02  0.7816164E-02  0.1184000E+00
        -11   -1    0    0    0    0  0.00000000000E+00  0.00000000000E+00  0.45593999997E+02  0.45594000000E+02  0.51100000000E-03 0.  1.
         11   -1    0    0    0    0 -0.00000000000E+00 -0.00000000000E+00 -0.45593999997E+02  0.45594000000E+02  0.51100000000E-03 0. -1.
         23    2    1    2    0    0 -0.71054273576E-14  0.00000000000E+00  0.17763568394E-14  0.91188000000E+02  0.91188000000E+02 0.  0.
    9900012    2    3    3    0    0  0.32079923276E+02 -0.17016629240E+02 -0.60904242596E+01  0.54367076387E+02  0.39999982239E+02 0.  0.
        -12    1    3    3    0    0 -0.32079923276E+02  0.17016629240E+02  0.60904242596E+01  0.36820923613E+02  0.00000000000E+00 0.  1.
         11    1    4    4    0    0  0.74142530280E+01 -0.10501001788E+02  0.70890115219E+01  0.14679791250E+02  0.51100000000E-03 0. -1.
        -11    1    4    4    0    0 -0.59299410821E+00  0.76268751881E+01 -0.63553501053E+01  0.99454181596E+01  0.51100000000E-03 0.  1.
         12    1    4    4    0    0  0.25258664356E+02 -0.14142502640E+02 -0.68240856762E+01  0.29741866977E+02  0.00000000000E+00 0. -1.
</event>
<event>
 8    1  0.2502431E-006  0.9118800E+02  0.7816164E-02  0.1184000E+00
        -11   -1    0    0    0    0  0.00000000000E+00  0.00000000000E+00  0.45593999997E+02  0.45594000000E+02  0.51100000000E-03 0.  1.
         11   -1    0    0    0    0 -0.00000000000E+00 -0.00000000000E+00 -0.45593999997E+02  0.45594000000E+02  0.51100000000E-03 0. -1.
         23    2    1    2    0    0  0.17763568394E-14  0.00000000000E+00  0.00000000000E+00  0.91188000000E+02  0.91188000000E+02 0.  0.
    9900012    2    3    3    0    0 -0.59938939736E+01  0.29090015194E+02 -0.21762826348E+02  0.54367131466E+02  0.40000107802E+02 0.  0.
        -12    1    3    3    0    0  0.59938939736E+01 -0.29090015194E+02  0.21762826348E+02  0.36820868534E+02  0.00000000000E+00 0.  1.
         11    1    4    4    0    0 -0.25261971344E+01  0.82084391245E+01 -0.80775564050E+01  0.11790125638E+02  0.51100000000E-03 0. -1.
        -11    1    4    4    0    0  0.13457933041E+02  0.18927535277E+02 -0.67893574051E+01  0.24196341204E+02  0.51100000000E-03 0.  1.
        -12    1    4    4    0    0 -0.16925629881E+02  0.19540407925E+01 -0.68959125383E+01  0.18380664624E+02  0.00000000000E+00 0.  1.
</event>
<event>
 8    1  0.2502431E-006  0.9118800E+02  0.7816164E-02  0.1184000E+00
        -11   -1    0    0    0    0  0.00000000000E+00  0.00000000000E+00  0.45593999997E+02  0.45594000000E+02  0.51100000000E-03 0.  1.
         11   -1    0    0    0    0 -0.00000000000E+00 -0.00000000000E+00 -0.45593999997E+02  0.45594000000E+02  0.51100000000E-03 0. -1.
         23    2    1    2    0    0 -0.17208456882E-14  0.00000000000E+00  0.00000000000E+00  0.91188000000E+02  0.91188000000E+02 0.  0.
    9900012    2    3    3    0    0 -0.30183101966E+00 -0.32196280459E+02 -0.17863049690E+02  0.54367080380E+02  0.39999991343E+02 0.  0.
        -12    1    3    3    0    0  0.30183101966E+00  0.32196280459E+02  0.17863049690E+02  0.36820919620E+02  0.00000000000E+00 0.  1.
         11    1    4    4    0    0  0.16912556824E+01 -0.83459330331E+00 -0.10662910053E+02  0.10828413680E+02  0.51100000000E-03 0. -1.
        -11    1    4    4    0    0  0.12832952513E+02 -0.21620684548E+02 -0.53250902398E+01  0.25700102273E+02  0.51100000000E-03 0.  1.
        -12    1    4    4    0    0 -0.14826039215E+02 -0.97410026079E+01 -0.18750493980E+01  0.17838564428E+02  0.00000000000E+00 0.  1.
</event>
<event>
 8    1  0.2502431E-006  0.9118800E+02  0.7816164E-02  0.1184000E+00
        -11   -1    0    0    0    0  0.00000000000E+00  0.00000000000E+00  0.45593999997E+02  0.45594000000E+02  0.51100000000E-03 0.  1.
         11   -1    0    0    0    0 -0.00000000000E+00 -0.00000000000E+00 -0.45593999997E+02  0.45594000000E+02  0.51100000000E-03 0. -1.
         23    2    1    2    0    0  0.00000000000E+00  0.00000000000E+00  0.00000000000E+00  0.91188000000E+02  0.91188000000E+02 0.  0.
    9900012    2    3    3    0    0  0.15484484317E+01 -0.31005019026E+02 -0.19800731536E+02  0.54367111000E+02  0.40000061148E+02 0.  0.
        -12    1    3    3    0    0 -0.15484484317E+01  0.31005019026E+02  0.19800731536E+02  0.36820889000E+02  0.00000000000E+00 0.  1.
         11    1    4    4    0    0  0.58839877337E+01 -0.29171137749E+02 -0.18555350051E+02  0.35069610847E+02  0.51100000000E-03 0. -1.
        -11    1    4    4    0    0 -0.28566468123E+01 -0.53924338156E+01  0.75424094979E+01  0.97018923288E+01  0.51100000000E-03 0.  1.
         12    1    4    4    0    0 -0.14788924896E+01  0.35585525381E+01 -0.87877909827E+01  0.95956078243E+01  0.00000000000E+00 0. -1.
</event>
<event>
 8    1  0.2502431E-006  0.9118800E+02  0.7816164E-02  0.1184000E+00
        -11   -1    0    0    0    0  0.00000000000E+00  0.00000000000E+00  0.45593999997E+02  0.45594000000E+02  0.51100000000E-03 0. -1.
         11   -1    0    0    0    0 -0.00000000000E+00 -0.00000000000E+00 -0.45593999997E+02  0.45594000000E+02  0.51100000000E-03 0.  1.
         23    2    1    2    0    0  0.00000000000E+00  0.00000000000E+00  0.00000000000E+00  0.91188000000E+02  0.91188000000E+02 0.  0.
    9900012    2    3    3    0    0  0.34254009933E+02  0.13089330302E+02 -0.33330676236E+01  0.54367121357E+02  0.40000084758E+02 0.  0.
         12    1    3    3    0    0 -0.34254009933E+02 -0.13089330302E+02  0.33330676236E+01  0.36820878643E+02  0.00000000000E+00 0. -1.
         11    1    4    4    0    0  0.12576189117E+02 -0.12620607053E+02 -0.22559875058E+01  0.17959112868E+02  0.51100000000E-03 0. -1.
        -11    1    4    4    0    0  0.78727128134E+01  0.17737448928E+02 -0.48980296973E+01  0.20014679530E+02  0.51100000000E-03 0.  1.
        -12    1    4    4    0    0  0.13805108003E+02  0.79724884266E+01  0.38209495795E+01  0.16393328959E+02  0.00000000000E+00 0.  1.
</event>
<event>
 8    1  0.2502431E-006  0.9118800E+02  0.7816164E-02  0.1184000E+00
        -11   -1    0    0    0    0  0.00000000000E+00  0.00000000000E+00  0.45593999997E+02  0.45594000000E+02  0.51100000000E-03 0.  1.
         11   -1    0    0    0    0 -0.00000000000E+00 -0.00000000000E+00 -0.45593999997E+02  0.45594000000E+02  0.51100000000E-03 0. -1.
         23    2    1    2    0    0  0.00000000000E+00  0.35527136788E-14  0.35527136788E-14  0.91188000000E+02  0.91188000000E+02 0.  0.
    9900012    2    3    3    0    0  0.91395834845E+01  0.25483598621E+02  0.24956627392E+02  0.54367095126E+02  0.40000024959E+02 0.  0.
         12    1    3    3    0    0 -0.91395834845E+01 -0.25483598621E+02 -0.24956627392E+02  0.36820904874E+02  0.00000000000E+00 0. -1.
         11    1    4    4    0    0  0.10373437885E+02  0.74861835196E+01 -0.51700939513E+01  0.13797863203E+02  0.51100000000E-03 0. -1.
        -11    1    4    4    0    0 -0.28920227987E+01 -0.28737957223E+01  0.24740336778E+00  0.40845693052E+01  0.51100000000E-03 0.  1.
        -12    1    4    4    0    0  0.16581683983E+01  0.20871210824E+02  0.29879317975E+02  0.36484662618E+02  0.00000000000E+00 0.  1.
</event>
<event>
 8    1  0.2502431E-006  0.9118800E+02  0.7816164E-02  0.1184000E+00
        -11   -1    0    0    0    0  0.00000000000E+00  0.00000000000E+00  0.45593999997E+02  0.45594000000E+02  0.51100000000E-03 0.  1.
         11   -1    0    0    0    0 -0.00000000000E+00 -0.00000000000E+00 -0.45593999997E+02  0.45594000000E+02  0.51100000000E-03 0. -1.
         23    2    1    2    0    0  0.00000000000E+00  0.00000000000E+00  0.00000000000E+00  0.91188000000E+02  0.91188000000E+02 0.  0.
    9900012    2    3    3    0    0 -0.13321293729E+02 -0.23078183277E+02 -0.25411030818E+02  0.54367083428E+02  0.39999998290E+02 0.  0.
        -12    1    3    3    0    0  0.13321293729E+02  0.23078183277E+02  0.25411030818E+02  0.36820916572E+02  0.00000000000E+00 0.  1.
         11    1    4    4    0    0 -0.12049588720E+02 -0.12871333448E+02 -0.41729317501E+01  0.18118420812E+02  0.51100000000E-03 0. -1.
        -11    1    4    4    0    0  0.67886361508E+01  0.68542204123E+01 -0.11513656020E+02  0.15020991760E+02  0.51100000000E-03 0.  1.
         12    1    4    4    0    0 -0.80603411599E+01 -0.17061070241E+02 -0.97244430479E+01  0.21227670856E+02  0.00000000000E+00 0. -1.
</event>
<event>
 8    1  0.2502431E-006  0.9118800E+02  0.7816164E-02  0.1184000E+00
        -11   -1    0    0    0    0  0.00000000000E+00  0.00000000000E+00  0.45593999997E+02  0.45594000000E+02  0.51100000000E-03 0. -1.
         11   -1    0    0    0    0 -0.00000000000E+00 -0.00000000000E+00 -0.45593999997E+02  0.45594000000E+02  0.51100000000E-03 0.  1.
         23    2    1    2    0    0 -0.99920072216E-15  0.00000000000E+00  0.17763568394E-14  0.91188000000E+02  0.91188000000E+02 0.  0.
    9900012    2    3    3    0    0 -0.65670215970E+00 -0.33285252373E+02  0.15730243325E+02  0.54367084228E+02  0.40000000115E+02 0.  0.
        -12    1    3    3    0    0  0.65670215970E+00  0.33285252373E+02 -0.15730243325E+02  0.36820915772E+02  0.00000000000E+00 0.  1.
         11    1    4    4    0    0  0.53581302826E+01 -0.26878998189E+02  0.11912804975E+02  0.29884862830E+02  0.51100000000E-03 0. -1.
        -11    1    4    4    0    0  0.27946673017E+01  0.68822429386E+01 -0.16837189522E+01  0.76164521245E+01  0.51100000000E-03 0.  1.
        -12    1    4    4    0    0 -0.88094997441E+01 -0.13288497123E+02  0.55011573015E+01  0.16865769273E+02  0.00000000000E+00 0.  1.
</event>
<event>
 8    1  0.2502431E-006  0.9118800E+02  0.7816164E-02  0.1184000E+00
        -11   -1    0    0    0    0  0.00000000000E+00  0.00000000000E+00  0.45593999997E+02  0.45594000000E+02  0.51100000000E-03 0. -1.
         11   -1    0    0    0    0 -0.00000000000E+00 -0.00000000000E+00 -0.45593999997E+02  0.45594000000E+02  0.51100000000E-03 0.  1.
         23    2    1    2    0    0 -0.35527136788E-14  0.00000000000E+00  0.00000000000E+00  0.91188000000E+02  0.91188000000E+02 0.  0.
    9900012    2    3    3    0    0  0.27731540218E+02  0.27384165150E+01  0.24067482477E+02  0.54367068987E+02  0.39999965369E+02 0.  0.
        -12    1    3    3    0    0 -0.27731540218E+02 -0.27384165150E+01 -0.24067482477E+02  0.36820931013E+02  0.00000000000E+00 0.  1.
         11    1    4    4    0    0  0.27005799470E+02 -0.49230553636E+01  0.19093146224E+02  0.33437971113E+02  0.51100000000E-03 0. -1.
        -11    1    4    4    0    0 -0.12026334922E+01 -0.14796847324E+01 -0.61287307214E+01  0.64184994150E+01  0.51100000000E-03 0.  1.
        -12    1    4    4    0    0  0.19283742399E+01  0.91411566111E+01  0.11103066974E+02  0.14510598459E+02  0.00000000000E+00 0.  1.
</event>
<event>
 8    1  0.2502431E-006  0.9118800E+02  0.7816164E-02  0.1184000E+00
        -11   -1    0    0    0    0  0.00000000000E+00  0.00000000000E+00  0.45593999997E+02  0.45594000000E+02  0.51100000000E-03 0.  1.
         11   -1    0    0    0    0 -0.00000000000E+00 -0.00000000000E+00 -0.45593999997E+02  0.45594000000E+02  0.51100000000E-03 0. -1.
         23    2    1    2    0    0  0.35527136788E-14  0.00000000000E+00  0.00000000000E+00  0.91188000000E+02  0.91188000000E+02 0.  0.
    9900012    2    3    3    0    0  0.27983449412E+02 -0.23300666214E+02  0.54577241989E+01  0.54367065188E+02  0.39999956709E+02 0.  0.
         12    1    3    3    0    0 -0.27983449412E+02  0.23300666214E+02 -0.54577241989E+01  0.36820934812E+02  0.00000000000E+00 0. -1.
         11    1    4    4    0    0  0.16407975750E+01  0.33265642700E+01 -0.20003665088E+01  0.42142274446E+01  0.51100000000E-03 0. -1.
        -11    1    4    4    0    0 -0.13309285698E+01 -0.21140681724E+02  0.54321619714E+01  0.21867971524E+02  0.51100000000E-03 0.  1.
        -12    1    4    4    0    0  0.27673580407E+02 -0.54865487595E+01  0.20259287363E+01  0.28284866219E+02  0.00000000000E+00 0.  1.
</event>
<event>
 8    1  0.2502431E-006  0.9118800E+02  0.7816164E-02  0.1184000E+00
        -11   -1    0    0    0    0  0.00000000000E+00  0.00000000000E+00  0.45593999997E+02  0.45594000000E+02  0.51100000000E-03 0. -1.
         11   -1    0    0    0    0 -0.00000000000E+00 -0.00000000000E+00 -0.45593999997E+02  0.45594000000E+02  0.51100000000E-03 0.  1.
         23    2    1    2    0    0  0.00000000000E+00  0.00000000000E+00  0.00000000000E+00  0.91188000000E+02  0.91188000000E+02 0.  0.
    9900012    2    3    3    0    0 -0.19187405170E+02  0.79729128048E+01  0.30398298105E+02  0.54367076825E+02  0.39999983238E+02 0.  0.
        -12    1    3    3    0    0  0.19187405170E+02 -0.79729128048E+01 -0.30398298105E+02  0.36820923175E+02  0.00000000000E+00 0.  1.
         11    1    4    4    0    0 -0.40498993812E+00  0.12513923768E+02  0.26487625003E+02  0.29297723179E+02  0.51100000000E-03 0. -1.
        -11    1    4    4    0    0 -0.16675023740E+02 -0.45396429652E+01 -0.32676083401E+01  0.17588122114E+02  0.51100000000E-03 0.  1.
         12    1    4    4    0    0 -0.21073914925E+01 -0.13679980127E-02  0.71782814422E+01  0.74812315321E+01  0.00000000000E+00 0. -1.
</event>
<event>
 8    1  0.2502431E-006  0.9118800E+02  0.7816164E-02  0.1184000E+00
        -11   -1    0    0    0    0  0.00000000000E+00  0.00000000000E+00  0.45593999997E+02  0.45594000000E+02  0.51100000000E-03 0. -1.
         11   -1    0    0    0    0 -0.00000000000E+00 -0.00000000000E+00 -0.45593999997E+02  0.45594000000E+02  0.51100000000E-03 0.  1.
         23    2    1    2    0    0  0.00000000000E+00  0.35527136788E-14  0.00000000000E+00  0.91188000000E+02  0.91188000000E+02 0.  0.
    9900012    2    3    3    0    0  0.17074488821E+02 -0.29703640832E+02 -0.13488277257E+02  0.54367108233E+02  0.40000054838E+02 0.  0.
         12    1    3    3    0    0 -0.17074488821E+02  0.29703640832E+02  0.13488277257E+02  0.36820891767E+02  0.00000000000E+00 0. -1.
         11    1    4    4    0    0  0.59142567746E+01  0.53418305685E+01 -0.15505064517E+00  0.79710493652E+01  0.51100000000E-03 0. -1.
        -11    1    4    4    0    0 -0.18936070279E+01 -0.36122498196E+01  0.59981017466E+01  0.72533661951E+01  0.51100000000E-03 0.  1.
        -12    1    4    4    0    0  0.13053839075E+02 -0.31433221581E+02 -0.19331328358E+02  0.39142692672E+02  0.00000000000E+00 0.  1.
</event>
<event>
 8    1  0.2502431E-006  0.9118800E+02  0.7816164E-02  0.1184000E+00
        -11   -1    0    0    0    0  0.00000000000E+00  0.00000000000E+00  0.45593999997E+02  0.45594000000E+02  0.51100000000E-03 0.  1.
         11   -1    0    0    0    0 -0.00000000000E+00 -0.00000000000E+00 -0.45593999997E+02  0.45594000000E+02  0.51100000000E-03 0. -1.
         23    2    1    2    0    0  0.00000000000E+00  0.00000000000E+00  0.35527136788E-14  0.91188000000E+02  0.91188000000E+02 0.  0.
    9900012    2    3    3    0    0 -0.22567414442E+02  0.16809041884E+02  0.23747583478E+02  0.54367084684E+02  0.40000001154E+02 0.  0.
         12    1    3    3    0    0  0.22567414442E+02 -0.16809041884E+02 -0.23747583478E+02  0.36820915316E+02  0.00000000000E+00 0. -1.
         11    1    4    4    0    0 -0.12670742782E+02 -0.56375750512E+01  0.48314773821E+01  0.14685814552E+02  0.51100000000E-03 0. -1.
        -11    1    4    4    0    0 -0.16098797728E+02  0.19046338687E+02  0.71336540595E+01  0.25938838181E+02  0.51100000000E-03 0.  1.
         12    1    4    4    0    0  0.62021260681E+01  0.34002782477E+01  0.11782452037E+02  0.13742431951E+02  0.00000000000E+00 0. -1.
</event>
<event>
 8    1  0.2502431E-006  0.9118800E+02  0.7816164E-02  0.1184000E+00
        -11   -1    0    0    0    0  0.00000000000E+00  0.00000000000E+00  0.45593999997E+02  0.45594000000E+02  0.51100000000E-03 0. -1.
         11   -1    0    0    0    0 -0.00000000000E+00 -0.00000000000E+00 -0.45593999997E+02  0.45594000000E+02  0.51100000000E-03 0.  1.
         23    2    1    2    0    0  0.00000000000E+00 -0.69258834778E-15  0.00000000000E+00  0.91188000000E+02  0.91188000000E+02 0.  0.
    9900012    2    3    3    0    0 -0.22976060772E+01 -0.21993515295E-02  0.36749153364E+02  0.54367091925E+02  0.40000017661E+02 0.  0.
        -12    1    3    3    0    0  0.22976060772E+01  0.21993515295E-02 -0.36749153364E+02  0.36820908075E+02  0.00000000000E+00 0.  1.
         11    1    4    4    0    0  0.30349068039E+01  0.22717071549E+01  0.82814270252E+01  0.91078727780E+01  0.51100000000E-03 0.  1.
        -11    1    4    4    0    0 -0.46553411862E+01  0.11922425507E+02 -0.69464276332E+00  0.12817915601E+02  0.51100000000E-03 0. -1.
         12    1    4    4    0    0 -0.67717169482E+00 -0.14196332013E+02  0.29162369102E+02  0.32441303546E+02  0.00000000000E+00 0. -1.
</event>
<event>
 8    1  0.2502431E-006  0.9118800E+02  0.7816164E-02  0.1184000E+00
        -11   -1    0    0    0    0  0.00000000000E+00  0.00000000000E+00  0.45593999997E+02  0.45594000000E+02  0.51100000000E-03 0. -1.
         11   -1    0    0    0    0 -0.00000000000E+00 -0.00000000000E+00 -0.45593999997E+02  0.45594000000E+02  0.51100000000E-03 0.  1.
         23    2    1    2    0    0  0.00000000000E+00  0.22204460493E-14  0.00000000000E+00  0.91188000000E+02  0.91188000000E+02 0.  0.
    9900012    2    3    3    0    0  0.21493293658E+02 -0.34447085424E+01  0.29697718406E+02  0.54367052595E+02  0.39999928001E+02 0.  0.
         12    1    3    3    0    0 -0.21493293658E+02  0.34447085424E+01 -0.29697718406E+02  0.36820947405E+02  0.00000000000E+00 0. -1.
         11    1    4    4    0    0  0.31818750933E+01 -0.71619646898E+01  0.12985986937E+02  0.15167528616E+02  0.51100000000E-03 0. -1.
        -11    1    4    4    0    0  0.13400946207E+02  0.16772023303E+02  0.11065777860E+02  0.24152382177E+02  0.51100000000E-03 0.  1.
        -12    1    4    4    0    0  0.49104723583E+01 -0.13054767155E+02  0.56459536100E+01  0.15047141803E+02  0.00000000000E+00 0.  1.
</event>
<event>
 8    1  0.2502431E-006  0.9118800E+02  0.7816164E-02  0.1184000E+00
        -11   -1    0    0    0    0  0.00000000000E+00  0.00000000000E+00  0.45593999997E+02  0.45594000000E+02  0.51100000000E-03 0. -1.
         11   -1    0    0    0    0 -0.00000000000E+00 -0.00000000000E+00 -0.45593999997E+02  0.45594000000E+02  0.51100000000E-03 0.  1.
         23    2    1    2    0    0  0.00000000000E+00  0.17763568394E-14  0.35527136788E-14  0.91188000000E+02  0.91188000000E+02 0.  0.
    9900012    2    3    3    0    0 -0.17141346550E+02 -0.12454743731E+02 -0.30113670724E+02  0.54367087906E+02  0.40000008500E+02 0.  0.
         12    1    3    3    0    0  0.17141346550E+02  0.12454743731E+02  0.30113670724E+02  0.36820912094E+02  0.00000000000E+00 0. -1.
         11    1    4    4    0    0 -0.34243050333E+01 -0.22836493468E+01  0.67912136226E+01  0.79411272518E+01  0.51100000000E-03 0. -1.
        -11    1    4    4    0    0 -0.70541951030E-01 -0.13048416958E+02 -0.11265197924E+02  0.17238643967E+02  0.51100000000E-03 0.  1.
         12    1    4    4    0    0 -0.13646499566E+02  0.28773225742E+01 -0.25639686423E+02  0.29187316688E+02  0.00000000000E+00 0. -1.
</event>
<event>
 8    1  0.2502431E-006  0.9118800E+02  0.7816164E-02  0.1184000E+00
        -11   -1    0    0    0    0  0.00000000000E+00  0.00000000000E+00  0.45593999997E+02  0.45594000000E+02  0.51100000000E-03 0.  1.
         11   -1    0    0    0    0 -0.00000000000E+00 -0.00000000000E+00 -0.45593999997E+02  0.45594000000E+02  0.51100000000E-03 0. -1.
         23    2    1    2    0    0  0.17763568394E-14  0.00000000000E+00  0.71054273576E-14  0.91188000000E+02  0.91188000000E+02 0.  0.
    9900012    2    3    3    0    0  0.12720584957E+02  0.15547922647E+02  0.30858192960E+02  0.54367092175E+02  0.40000018231E+02 0.  0.
         12    1    3    3    0    0 -0.12720584957E+02 -0.15547922647E+02 -0.30858192960E+02  0.36820907825E+02  0.00000000000E+00 0. -1.
         11    1    4    4    0    0  0.10196876873E+02  0.74688277082E+01  0.97301162676E+01  0.15951014016E+02  0.51100000000E-03 0. -1.
        -11    1    4    4    0    0  0.11146134393E+02  0.15139729731E+02  0.62189822158E+01  0.19802107673E+02  0.51100000000E-03 0.  1.
        -12    1    4    4    0    0 -0.86224263087E+01 -0.70606347922E+01  0.14909094477E+02  0.18613970486E+02  0.00000000000E+00 0.  1.
</event>
<event>
 8    1  0.2502431E-006  0.9118800E+02  0.7816164E-02  0.1184000E+00
        -11   -1    0    0    0    0  0.00000000000E+00  0.00000000000E+00  0.45593999997E+02  0.45594000000E+02  0.51100000000E-03 0. -1.
         11   -1    0    0    0    0 -0.00000000000E+00 -0.00000000000E+00 -0.45593999997E+02  0.45594000000E+02  0.51100000000E-03 0.  1.
         23    2    1    2    0    0  0.35527136788E-14  0.00000000000E+00 -0.17763568394E-14  0.91188000000E+02  0.91188000000E+02 0.  0.
    9900012    2    3    3    0    0 -0.23437731491E+02  0.27070806088E+02 -0.85804547270E+01  0.54367081991E+02  0.39999995015E+02 0.  0.
        -12    1    3    3    0    0  0.23437731491E+02 -0.27070806088E+02  0.85804547270E+01  0.36820918009E+02  0.00000000000E+00 0.  1.
         11    1    4    4    0    0 -0.17455651074E+02 -0.18117894137E+01  0.11181097780E+01  0.17585007962E+02  0.51100000000E-03 0. -1.
        -11    1    4    4    0    0  0.27290927900E+01  0.16318578370E+01 -0.74314715192E+01  0.80831724377E+01  0.51100000000E-03 0.  1.
         12    1    4    4    0    0 -0.87111732070E+01  0.27250737665E+02 -0.22670929858E+01  0.28698901591E+02  0.00000000000E+00 0. -1.
</event>
<event>
 8    1  0.2502431E-006  0.9118800E+02  0.7816164E-02  0.1184000E+00
        -11   -1    0    0    0    0  0.00000000000E+00  0.00000000000E+00  0.45593999997E+02  0.45594000000E+02  0.51100000000E-03 0.  1.
         11   -1    0    0    0    0 -0.00000000000E+00 -0.00000000000E+00 -0.45593999997E+02  0.45594000000E+02  0.51100000000E-03 0. -1.
         23    2    1    2    0    0  0.35527136788E-14 -0.35527136788E-14  0.17763568394E-14  0.91188000000E+02  0.91188000000E+02 0.  0.
    9900012    2    3    3    0    0 -0.25950243979E+02  0.23461113261E+02 -0.11486582879E+02  0.54367074099E+02  0.39999977022E+02 0.  0.
         12    1    3    3    0    0  0.25950243979E+02 -0.23461113261E+02  0.11486582879E+02  0.36820925901E+02  0.00000000000E+00 0. -1.
         11    1    4    4    0    0 -0.18064512691E+02  0.56887882515E+01  0.11618745972E+02  0.22219005125E+02  0.51100000000E-03 0. -1.
        -11    1    4    4    0    0 -0.68241174975E+01  0.16061626033E+02 -0.12785341660E+02  0.21633524264E+02  0.51100000000E-03 0.  1.
         12    1    4    4    0    0 -0.10616137903E+01  0.17106989770E+01 -0.10319987191E+02  0.10514544710E+02  0.00000000000E+00 0. -1.
</event>
<event>
 8    1  0.2502431E-006  0.9118800E+02  0.7816164E-02  0.1184000E+00
        -11   -1    0    0    0    0  0.00000000000E+00  0.00000000000E+00  0.45593999997E+02  0.45594000000E+02  0.51100000000E-03 0. -1.
         11   -1    0    0    0    0 -0.00000000000E+00 -0.00000000000E+00 -0.45593999997E+02  0.45594000000E+02  0.51100000000E-03 0.  1.
         23    2    1    2    0    0  0.71054273576E-14  0.11102230246E-15  0.00000000000E+00  0.91188000000E+02  0.91188000000E+02 0.  0.
    9900012    2    3    3    0    0 -0.35390737582E+02 -0.26115639066E+00 -0.10159114909E+02  0.54367080335E+02  0.39999991239E+02 0.  0.
        -12    1    3    3    0    0  0.35390737582E+02  0.26115639066E+00  0.10159114909E+02  0.36820919665E+02  0.00000000000E+00 0.  1.
         11    1    4    4    0    0 -0.29315418649E+02  0.67494419063E+01  0.46885506907E+01  0.30445545560E+02  0.51100000000E-03 0. -1.
        -11    1    4    4    0    0  0.25547839919E+01 -0.69215173711E+01 -0.13219108946E+02  0.15138664590E+02  0.51100000000E-03 0.  1.
        -12    1    4    4    0    0 -0.86301029254E+01 -0.89080925844E-01 -0.16285566537E+01  0.87828701851E+01  0.00000000000E+00 0.  1.
</event>
<event>
 8    1  0.2502431E-006  0.9118800E+02  0.7816164E-02  0.1184000E+00
        -11   -1    0    0    0    0  0.00000000000E+00  0.00000000000E+00  0.45593999997E+02  0.45594000000E+02  0.51100000000E-03 0.  1.
         11   -1    0    0    0    0 -0.00000000000E+00 -0.00000000000E+00 -0.45593999997E+02  0.45594000000E+02  0.51100000000E-03 0. -1.
         23    2    1    2    0    0 -0.17763568394E-14  0.00000000000E+00  0.71054273576E-14  0.91188000000E+02  0.91188000000E+02 0.  0.
    9900012    2    3    3    0    0 -0.60272147263E+01 -0.48569615607E+01  0.35997973995E+02  0.54367197120E+02  0.40000257473E+02 0.  0.
         12    1    3    3    0    0  0.60272147263E+01  0.48569615607E+01 -0.35997973995E+02  0.36820802880E+02  0.00000000000E+00 0. -1.
         11    1    4    4    0    0 -0.18679392873E+02 -0.28502365884E+01  0.17509270617E+02  0.25760786566E+02  0.51100000000E-03 0. -1.
        -11    1    4    4    0    0  0.40691446086E+01  0.10148320199E+01  0.19034188212E+02  0.19490719408E+02  0.51100000000E-03 0.  1.
        -12    1    4    4    0    0  0.85830335379E+01 -0.30215569922E+01 -0.54548483354E+00  0.91156911462E+01  0.00000000000E+00 0.  1.
</event>
<event>
 8    1  0.2502431E-006  0.9118800E+02  0.7816164E-02  0.1184000E+00
        -11   -1    0    0    0    0  0.00000000000E+00  0.00000000000E+00  0.45593999997E+02  0.45594000000E+02  0.51100000000E-03 0.  1.
         11   -1    0    0    0    0 -0.00000000000E+00 -0.00000000000E+00 -0.45593999997E+02  0.45594000000E+02  0.51100000000E-03 0. -1.
         23    2    1    2    0    0  0.00000000000E+00  0.00000000000E+00  0.88817841970E-15  0.91188000000E+02  0.91188000000E+02 0.  0.
    9900012    2    3    3    0    0 -0.34620656457E+02  0.11777516979E+02  0.42992314447E+01  0.54367039248E+02  0.39999897573E+02 0.  0.
        -12    1    3    3    0    0  0.34620656457E+02 -0.11777516979E+02 -0.42992314447E+01  0.36820960752E+02  0.00000000000E+00 0.  1.
         11    1    4    4    0    0 -0.21969460475E+02 -0.28762816129E+00  0.41744952033E+00  0.21975308596E+02  0.51100000000E-03 0. -1.
        -11    1    4    4    0    0 -0.15117219067E+02  0.60027321602E+01  0.13239406106E+02  0.20972481494E+02  0.51100000000E-03 0.  1.
         12    1    4    4    0    0  0.24660230854E+01  0.60624129802E+01 -0.93576241820E+01  0.11419249158E+02  0.00000000000E+00 0. -1.
</event>
<event>
 8    1  0.2502431E-006  0.9118800E+02  0.7816164E-02  0.1184000E+00
        -11   -1    0    0    0    0  0.00000000000E+00  0.00000000000E+00  0.45593999997E+02  0.45594000000E+02  0.51100000000E-03 0.  1.
         11   -1    0    0    0    0 -0.00000000000E+00 -0.00000000000E+00 -0.45593999997E+02  0.45594000000E+02  0.51100000000E-03 0. -1.
         23    2    1    2    0    0  0.35527136788E-14  0.00000000000E+00  0.00000000000E+00  0.91188000000E+02  0.91188000000E+02 0.  0.
    9900012    2    3    3    0    0  0.29572877678E+02  0.95296578971E+01  0.19758845273E+02  0.54367062473E+02  0.39999950521E+02 0.  0.
         12    1    3    3    0    0 -0.29572877678E+02 -0.95296578971E+01 -0.19758845273E+02  0.36820937527E+02  0.00000000000E+00 0. -1.
         11    1    4    4    0    0  0.32830271591E+01  0.53015323506E+01 -0.86638925417E+01  0.10674621625E+02  0.51100000000E-03 0. -1.
        -11    1    4    4    0    0  0.10125877540E+02  0.30603064562E+01  0.24976114014E+02  0.27123885103E+02  0.51100000000E-03 0.  1.
         12    1    4    4    0    0  0.16163972979E+02  0.11678190903E+01  0.34466238009E+01  0.16568555746E+02  0.00000000000E+00 0. -1.
</event>
<event>
 8    1  0.2502431E-006  0.9118800E+02  0.7816164E-02  0.1184000E+00
        -11   -1    0    0    0    0  0.00000000000E+00  0.00000000000E+00  0.45593999997E+02  0.45594000000E+02  0.51100000000E-03 0. -1.
         11   -1    0    0    0    0 -0.00000000000E+00 -0.00000000000E+00 -0.45593999997E+02  0.45594000000E+02  0.51100000000E-03 0.  1.
         23    2    1    2    0    0  0.71054273576E-14 -0.35527136788E-14 -0.22204460493E-15  0.91188000000E+02  0.91188000000E+02 0.  0.
    9900012    2    3    3    0    0 -0.33010410003E+02 -0.16238833309E+02 -0.15510408387E+01  0.54366910887E+02  0.39999604946E+02 0.  0.
         12    1    3    3    0    0  0.33010410003E+02  0.16238833309E+02  0.15510408387E+01  0.36821089113E+02  0.00000000000E+00 0. -1.
         11    1    4    4    0    0 -0.33094500520E+01 -0.45080895923E+01  0.86341962060E+01  0.10287112122E+02  0.51100000000E-03 0. -1.
        -11    1    4    4    0    0  0.52925742983E+01 -0.48736094567E+01 -0.10665600913E+01  0.72733047873E+01  0.51100000000E-03 0.  1.
        -12    1    4    4    0    0 -0.34993534250E+02 -0.68571342596E+01 -0.91186769534E+01  0.36806493978E+02  0.00000000000E+00 0.  1.
</event>
<event>
 8    1  0.2502431E-006  0.9118800E+02  0.7816164E-02  0.1184000E+00
        -11   -1    0    0    0    0  0.00000000000E+00  0.00000000000E+00  0.45593999997E+02  0.45594000000E+02  0.51100000000E-03 0.  1.
         11   -1    0    0    0    0 -0.00000000000E+00 -0.00000000000E+00 -0.45593999997E+02  0.45594000000E+02  0.51100000000E-03 0. -1.
         23    2    1    2    0    0  0.35527136788E-14 -0.35527136788E-14  0.17763568394E-14  0.91188000000E+02  0.91188000000E+02 0.  0.
    9900012    2    3    3    0    0 -0.31515650894E+02  0.16859569678E+02 -0.88486343890E+01  0.54367086492E+02  0.40000005276E+02 0.  0.
        -12    1    3    3    0    0  0.31515650894E+02 -0.16859569678E+02  0.88486343890E+01  0.36820913508E+02  0.00000000000E+00 0.  1.
         11    1    4    4    0    0 -0.14987351324E+02  0.12463321055E+02 -0.11478026807E+01  0.19526200928E+02  0.51100000000E-03 0. -1.
        -11    1    4    4    0    0 -0.16652347496E+02 -0.43514135643E+00  0.79521431955E+01  0.18458781292E+02  0.51100000000E-03 0.  1.
         12    1    4    4    0    0  0.12404792596E+00  0.48313899789E+01 -0.15652974904E+02  0.16382104271E+02  0.00000000000E+00 0. -1.
</event>
<event>
 8    1  0.2502431E-006  0.9118800E+02  0.7816164E-02  0.1184000E+00
        -11   -1    0    0    0    0  0.00000000000E+00  0.00000000000E+00  0.45593999997E+02  0.45594000000E+02  0.51100000000E-03 0. -1.
         11   -1    0    0    0    0 -0.00000000000E+00 -0.00000000000E+00 -0.45593999997E+02  0.45594000000E+02  0.51100000000E-03 0.  1.
         23    2    1    2    0    0 -0.35527136788E-14  0.00000000000E+00 -0.26645352591E-14  0.91188000000E+02  0.91188000000E+02 0.  0.
    9900012    2    3    3    0    0  0.19804642720E+02 -0.30059237287E+02 -0.77458887839E+01  0.54367076430E+02  0.39999982336E+02 0.  0.
         12    1    3    3    0    0 -0.19804642720E+02  0.30059237287E+02  0.77458887839E+01  0.36820923570E+02  0.00000000000E+00 0. -1.
         11    1    4    4    0    0  0.10806242560E+02 -0.69122662031E+01  0.12593276844E+02  0.17976232204E+02  0.51100000000E-03 0. -1.
        -11    1    4    4    0    0 -0.21948966565E+01 -0.12320736466E+02 -0.25920883387E+01  0.12780338048E+02  0.51100000000E-03 0.  1.
        -12    1    4    4    0    0  0.11193296817E+02 -0.10826234617E+02 -0.17747077290E+02  0.23610506177E+02  0.00000000000E+00 0.  1.
</event>
<event>
 8    1  0.2502431E-006  0.9118800E+02  0.7816164E-02  0.1184000E+00
        -11   -1    0    0    0    0  0.00000000000E+00  0.00000000000E+00  0.45593999997E+02  0.45594000000E+02  0.51100000000E-03 0. -1.
         11   -1    0    0    0    0 -0.00000000000E+00 -0.00000000000E+00 -0.45593999997E+02  0.45594000000E+02  0.51100000000E-03 0.  1.
         23    2    1    2    0    0  0.66613381478E-15  0.00000000000E+00  0.71054273576E-14  0.91188000000E+02  0.91188000000E+02 0.  0.
    9900012    2    3    3    0    0  0.12800778235E+01 -0.10086737975E+02 -0.35389279315E+02  0.54367055245E+02  0.39999934043E+02 0.  0.
         12    1    3    3    0    0 -0.12800778235E+01  0.10086737975E+02  0.35389279315E+02  0.36820944755E+02  0.00000000000E+00 0. -1.
         11    1    4    4    0    0 -0.30607208604E+01 -0.12853977524E+02 -0.99088917940E+01  0.16516019109E+02  0.51100000000E-03 0. -1.
        -11    1    4    4    0    0 -0.49132101960E+01  0.39715297521E+01 -0.27572784523E+02  0.28287296258E+02  0.51100000000E-03 0.  1.
         12    1    4    4    0    0  0.92540088798E+01 -0.12042902036E+01  0.20923970022E+01  0.95637398781E+01  0.00000000000E+00 0. -1.
</event>
<event>
 8    1  0.2502431E-006  0.9118800E+02  0.7816164E-02  0.1184000E+00
        -11   -1    0    0    0    0  0.00000000000E+00  0.00000000000E+00  0.45593999997E+02  0.45594000000E+02  0.51100000000E-03 0. -1.
         11   -1    0    0    0    0 -0.00000000000E+00 -0.00000000000E+00 -0.45593999997E+02  0.45594000000E+02  0.51100000000E-03 0.  1.
         23    2    1    2    0    0  0.00000000000E+00  0.00000000000E+00  0.35527136788E-14  0.91188000000E+02  0.91188000000E+02 0.  0.
    9900012    2    3    3    0    0  0.16158806994E+02  0.92331700390E+01 -0.31771455976E+02  0.54367029246E+02  0.39999874773E+02 0.  0.
         12    1    3    3    0    0 -0.16158806994E+02 -0.92331700390E+01  0.31771455976E+02  0.36820970754E+02  0.00000000000E+00 0. -1.
         11    1    4    4    0    0  0.91967150202E+01  0.36101531195E+01 -0.22706344400E+02  0.24762690665E+02  0.51100000000E-03 0. -1.
        -11    1    4    4    0    0 -0.17010454442E+01  0.36488105582E+01 -0.17134890828E+02  0.17601473179E+02  0.51100000000E-03 0.  1.
         12    1    4    4    0    0  0.86631374179E+01  0.19742063612E+01  0.80697792529E+01  0.12002865402E+02  0.00000000000E+00 0. -1.
</event>
<event>
 8    1  0.2502431E-006  0.9118800E+02  0.7816164E-02  0.1184000E+00
        -11   -1    0    0    0    0  0.00000000000E+00  0.00000000000E+00  0.45593999997E+02  0.45594000000E+02  0.51100000000E-03 0.  1.
         11   -1    0    0    0    0 -0.00000000000E+00 -0.00000000000E+00 -0.45593999997E+02  0.45594000000E+02  0.51100000000E-03 0. -1.
         23    2    1    2    0    0 -0.26645352591E-14 -0.35527136788E-14  0.00000000000E+00  0.91188000000E+02  0.91188000000E+02 0.  0.
    9900012    2    3    3    0    0  0.51199362877E+01  0.27519860556E+02  0.23921185347E+02  0.54367087722E+02  0.40000008079E+02 0.  0.
         12    1    3    3    0    0 -0.51199362877E+01 -0.27519860556E+02 -0.23921185347E+02  0.36820912278E+02  0.00000000000E+00 0. -1.
         11    1    4    4    0    0 -0.33905475441E+01  0.19625828864E+02  0.19271956827E+02  0.27714207394E+02  0.51100000000E-03 0. -1.
        -11    1    4    4    0    0  0.13495529065E+02  0.13259947167E+02  0.32898415000E+01  0.19203608020E+02  0.51100000000E-03 0.  1.
         12    1    4    4    0    0 -0.49850452327E+01 -0.53659154751E+01  0.13593870191E+01  0.74492723085E+01  0.00000000000E+00 0. -1.
</event>
<event>
 8    1  0.2502431E-006  0.9118800E+02  0.7816164E-02  0.1184000E+00
        -11   -1    0    0    0    0  0.00000000000E+00  0.00000000000E+00  0.45593999997E+02  0.45594000000E+02  0.51100000000E-03 0.  1.
         11   -1    0    0    0    0 -0.00000000000E+00 -0.00000000000E+00 -0.45593999997E+02  0.45594000000E+02  0.51100000000E-03 0. -1.
         23    2    1    2    0    0  0.00000000000E+00  0.00000000000E+00  0.00000000000E+00  0.91188000000E+02  0.91188000000E+02 0.  0.
    9900012    2    3    3    0    0 -0.20880353011E+02  0.85081214300E+01 -0.29110164346E+02  0.54367096421E+02  0.40000027910E+02 0.  0.
        -12    1    3    3    0    0  0.20880353011E+02 -0.85081214300E+01  0.29110164346E+02  0.36820903579E+02  0.00000000000E+00 0.  1.
         11    1    4    4    0    0 -0.20344121804E+02  0.67703352501E+00 -0.17308820209E+01  0.20428842826E+02  0.51100000000E-03 0.  1.
        -11    1    4    4    0    0 -0.54073510276E+01  0.31736564468E+01 -0.57100744086E+00  0.62958391130E+01  0.51100000000E-03 0. -1.
         12    1    4    4    0    0  0.48711198209E+01  0.46574314583E+01 -0.26808274884E+02  0.27642414482E+02  0.00000000000E+00 0. -1.
</event>
<event>
 8    1  0.2502431E-006  0.9118800E+02  0.7816164E-02  0.1184000E+00
        -11   -1    0    0    0    0  0.00000000000E+00  0.00000000000E+00  0.45593999997E+02  0.45594000000E+02  0.51100000000E-03 0.  1.
         11   -1    0    0    0    0 -0.00000000000E+00 -0.00000000000E+00 -0.45593999997E+02  0.45594000000E+02  0.51100000000E-03 0. -1.
         23    2    1    2    0    0  0.00000000000E+00  0.00000000000E+00  0.88817841970E-15  0.91188000000E+02  0.91188000000E+02 0.  0.
    9900012    2    3    3    0    0  0.29251301666E+02 -0.22084335838E+02  0.35243005778E+01  0.54367119604E+02  0.40000080762E+02 0.  0.
        -12    1    3    3    0    0 -0.29251301666E+02  0.22084335838E+02 -0.35243005778E+01  0.36820880396E+02  0.00000000000E+00 0.  1.
         11    1    4    4    0    0  0.13923457625E+02 -0.18097404635E+02 -0.16469722452E+02  0.28153693979E+02  0.51100000000E-03 0. -1.
        -11    1    4    4    0    0  0.86956803070E+01 -0.35989495546E+01  0.15695023797E+02  0.18300302351E+02  0.51100000000E-03 0.  1.
         12    1    4    4    0    0  0.66321637334E+01 -0.38798164874E+00  0.42989992326E+01  0.79131232739E+01  0.00000000000E+00 0. -1.
</event>
<event>
 8    1  0.2502431E-006  0.9118800E+02  0.7816164E-02  0.1184000E+00
        -11   -1    0    0    0    0  0.00000000000E+00  0.00000000000E+00  0.45593999997E+02  0.45594000000E+02  0.51100000000E-03 0. -1.
         11   -1    0    0    0    0 -0.00000000000E+00 -0.00000000000E+00 -0.45593999997E+02  0.45594000000E+02  0.51100000000E-03 0.  1.
         23    2    1    2    0    0  0.00000000000E+00 -0.88817841970E-15  0.17763568394E-14  0.91188000000E+02  0.91188000000E+02 0.  0.
    9900012    2    3    3    0    0 -0.34048330629E+02  0.63689131016E+01  0.12487073387E+02  0.54367097315E+02  0.40000029950E+02 0.  0.
         12    1    3    3    0    0  0.34048330629E+02 -0.63689131016E+01 -0.12487073387E+02  0.36820902685E+02  0.00000000000E+00 0. -1.
         11    1    4    4    0    0 -0.14935107379E+01 -0.14388394423E+01  0.11574024526E+02  0.11758353509E+02  0.51100000000E-03 0. -1.
        -11    1    4    4    0    0 -0.74251249386E+01  0.11760777598E+02  0.82013817808E+01  0.16146548654E+02  0.51100000000E-03 0.  1.
        -12    1    4    4    0    0 -0.25129694953E+02 -0.39530250540E+01 -0.72883329200E+01  0.26462195152E+02  0.00000000000E+00 0.  1.
</event>
<event>
 8    1  0.2502431E-006  0.9118800E+02  0.7816164E-02  0.1184000E+00
        -11   -1    0    0    0    0  0.00000000000E+00  0.00000000000E+00  0.45593999997E+02  0.45594000000E+02  0.51100000000E-03 0.  1.
         11   -1    0    0    0    0 -0.00000000000E+00 -0.00000000000E+00 -0.45593999997E+02  0.45594000000E+02  0.51100000000E-03 0. -1.
         23    2    1    2    0    0 -0.88817841970E-15  0.00000000000E+00  0.00000000000E+00  0.91188000000E+02  0.91188000000E+02 0.  0.
    9900012    2    3    3    0    0  0.29207165888E+01 -0.27234783498E+02 -0.24607229573E+02  0.54367085226E+02  0.40000002389E+02 0.  0.
        -12    1    3    3    0    0 -0.29207165888E+01  0.27234783498E+02  0.24607229573E+02  0.36820914774E+02  0.00000000000E+00 0.  1.
         11    1    4    4    0    0  0.16698909562E+02 -0.37440692883E+01 -0.18296501788E+02  0.25052616896E+02  0.51100000000E-03 0. -1.
        -11    1    4    4    0    0 -0.58687987784E+01 -0.30466346471E+01 -0.47112509468E+00  0.66292338087E+01  0.51100000000E-03 0.  1.
         12    1    4    4    0    0 -0.79093941948E+01 -0.20444079562E+02 -0.58396026905E+01  0.22685234521E+02  0.00000000000E+00 0. -1.
</event>
<event>
 8    1  0.2502431E-006  0.9118800E+02  0.7816164E-02  0.1184000E+00
        -11   -1    0    0    0    0  0.00000000000E+00  0.00000000000E+00  0.45593999997E+02  0.45594000000E+02  0.51100000000E-03 0.  1.
         11   -1    0    0    0    0 -0.00000000000E+00 -0.00000000000E+00 -0.45593999997E+02  0.45594000000E+02  0.51100000000E-03 0. -1.
         23    2    1    2    0    0  0.00000000000E+00 -0.17763568394E-14  0.35527136788E-14  0.91188000000E+02  0.91188000000E+02 0.  0.
    9900012    2    3    3    0    0  0.25365639120E+02 -0.12303327922E+02  0.23685477690E+02  0.54366954668E+02  0.39999704756E+02 0.  0.
         12    1    3    3    0    0 -0.25365639120E+02  0.12303327922E+02 -0.23685477690E+02  0.36821045332E+02  0.00000000000E+00 0. -1.
         11    1    4    4    0    0  0.41510442004E+01 -0.65030200148E+01 -0.14021448416E+01  0.78413294590E+01  0.51100000000E-03 0. -1.
        -11    1    4    4    0    0  0.21077338079E+02 -0.15025666536E+02  0.26668315027E+02  0.37164820220E+02  0.51100000000E-03 0.  1.
         12    1    4    4    0    0  0.13725684105E+00  0.92253586295E+01 -0.15806924956E+01  0.93608049894E+01  0.00000000000E+00 0. -1.
</event>
<event>
 8    1  0.2502431E-006  0.9118800E+02  0.7816164E-02  0.1184000E+00
        -11   -1    0    0    0    0  0.00000000000E+00  0.00000000000E+00  0.45593999997E+02  0.45594000000E+02  0.51100000000E-03 0. -1.
         11   -1    0    0    0    0 -0.00000000000E+00 -0.00000000000E+00 -0.45593999997E+02  0.45594000000E+02  0.51100000000E-03 0.  1.
         23    2    1    2    0    0 -0.88817841970E-15 -0.44408920985E-15  0.71054273576E-14  0.91188000000E+02  0.91188000000E+02 0.  0.
    9900012    2    3    3    0    0 -0.66752680485E+01 -0.22962730857E+01  0.36137887605E+02  0.54367095690E+02  0.40000026245E+02 0.  0.
        -12    1    3    3    0    0  0.66752680485E+01  0.22962730857E+01 -0.36137887605E+02  0.36820904310E+02  0.00000000000E+00 0.  1.
         11    1    4    4    0    0 -0.11350179109E+02  0.56112113638E+01  0.18459890896E+02  0.22384812506E+02  0.51100000000E-03 0. -1.
        -11    1    4    4    0    0 -0.18798682265E+01 -0.15810732273E+02  0.77825872372E+01  0.17722353792E+02  0.51100000000E-03 0.  1.
        -12    1    4    4    0    0  0.65547792869E+01  0.79032478234E+01  0.98954094721E+01  0.14259929392E+02  0.00000000000E+00 0.  1.
</event>
<event>
 8    1  0.2502431E-006  0.9118800E+02  0.7816164E-02  0.1184000E+00
        -11   -1    0    0    0    0  0.00000000000E+00  0.00000000000E+00  0.45593999997E+02  0.45594000000E+02  0.51100000000E-03 0.  1.
         11   -1    0    0    0    0 -0.00000000000E+00 -0.00000000000E+00 -0.45593999997E+02  0.45594000000E+02  0.51100000000E-03 0. -1.
         23    2    1    2    0    0  0.00000000000E+00  0.00000000000E+00  0.35527136788E-14  0.91188000000E+02  0.91188000000E+02 0.  0.
    9900012    2    3    3    0    0 -0.19883619457E+02 -0.23133881695E+02 -0.20621483068E+02  0.54367077023E+02  0.39999983689E+02 0.  0.
        -12    1    3    3    0    0  0.19883619457E+02  0.23133881695E+02  0.20621483068E+02  0.36820922977E+02  0.00000000000E+00 0.  1.
         11    1    4    4    0    0  0.17953608957E+01 -0.10353961847E+02 -0.76884254046E+00  0.10536553790E+02  0.51100000000E-03 0. -1.
        -11    1    4    4    0    0 -0.85301725960E+01 -0.11393526639E+02 -0.25696508191E+02  0.29374935357E+02  0.51100000000E-03 0.  1.
         12    1    4    4    0    0 -0.13148807756E+02 -0.13863932092E+01  0.58438676629E+01  0.14455587875E+02  0.00000000000E+00 0. -1.
</event>
<event>
 8    1  0.2502431E-006  0.9118800E+02  0.7816164E-02  0.1184000E+00
        -11   -1    0    0    0    0  0.00000000000E+00  0.00000000000E+00  0.45593999997E+02  0.45594000000E+02  0.51100000000E-03 0.  1.
         11   -1    0    0    0    0 -0.00000000000E+00 -0.00000000000E+00 -0.45593999997E+02  0.45594000000E+02  0.51100000000E-03 0. -1.
         23    2    1    2    0    0  0.00000000000E+00  0.00000000000E+00  0.35527136788E-14  0.91188000000E+02  0.91188000000E+02 0.  0.
    9900012    2    3    3    0    0 -0.46887860799E+01  0.18319984196E+02 -0.31593881892E+02  0.54367083270E+02  0.39999997930E+02 0.  0.
        -12    1    3    3    0    0  0.46887860799E+01 -0.18319984196E+02  0.31593881892E+02  0.36820916730E+02  0.00000000000E+00 0.  1.
         11    1    4    4    0    0 -0.11631242110E+02 -0.13587509170E+01 -0.95485220021E+01  0.15109807072E+02  0.51100000000E-03 0. -1.
        -11    1    4    4    0    0 -0.31489690873E+01 -0.17903206420E+01  0.30418360691E+01  0.47301185236E+01  0.51100000000E-03 0.  1.
         12    1    4    4    0    0  0.10091425118E+02  0.21469055755E+02 -0.25087195959E+02  0.34527157674E+02  0.00000000000E+00 0. -1.
</event>
<event>
 8    1  0.2502431E-006  0.9118800E+02  0.7816164E-02  0.1184000E+00
        -11   -1    0    0    0    0  0.00000000000E+00  0.00000000000E+00  0.45593999997E+02  0.45594000000E+02  0.51100000000E-03 0.  1.
         11   -1    0    0    0    0 -0.00000000000E+00 -0.00000000000E+00 -0.45593999997E+02  0.45594000000E+02  0.51100000000E-03 0. -1.
         23    2    1    2    0    0  0.00000000000E+00  0.00000000000E+00  0.26645352591E-14  0.91188000000E+02  0.91188000000E+02 0.  0.
    9900012    2    3    3    0    0 -0.33107215545E+02 -0.14187410512E+02  0.76436055394E+01  0.54366877749E+02  0.39999529402E+02 0.  0.
         12    1    3    3    0    0  0.33107215545E+02  0.14187410512E+02 -0.76436055394E+01  0.36821122251E+02  0.00000000000E+00 0. -1.
         11    1    4    4    0    0  0.65236166168E+00 -0.10589388941E+01  0.12929931390E+02  0.12989613287E+02  0.51100000000E-03 0.  1.
        -11    1    4    4    0    0 -0.16005701071E+02  0.27368175455E+01 -0.66073600417E+01  0.17530825538E+02  0.51100000000E-03 0. -1.
        -12    1    4    4    0    0 -0.17753876135E+02 -0.15865289163E+02  0.13210341909E+01  0.23846438925E+02  0.00000000000E+00 0.  1.
</event>
<event>
 8    1  0.2502431E-006  0.9118800E+02  0.7816164E-02  0.1184000E+00
        -11   -1    0    0    0    0  0.00000000000E+00  0.00000000000E+00  0.45593999997E+02  0.45594000000E+02  0.51100000000E-03 0.  1.
         11   -1    0    0    0    0 -0.00000000000E+00 -0.00000000000E+00 -0.45593999997E+02  0.45594000000E+02  0.51100000000E-03 0. -1.
         23    2    1    2    0    0  0.00000000000E+00  0.00000000000E+00  0.00000000000E+00  0.91188000000E+02  0.91188000000E+02 0.  0.
    9900012    2    3    3    0    0  0.13228229919E+02  0.29696926251E+02  0.17288441145E+02  0.54367031887E+02  0.39999880793E+02 0.  0.
        -12    1    3    3    0    0 -0.13228229919E+02 -0.29696926251E+02 -0.17288441145E+02  0.36820968113E+02  0.00000000000E+00 0.  1.
         11    1    4    4    0    0  0.23118008240E+02  0.92954471031E+01  0.90349173260E+01  0.26504289713E+02  0.51100000000E-03 0.  1.
        -11    1    4    4    0    0 -0.11083542667E+02  0.14779943123E+02  0.85419917845E+00  0.18493817704E+02  0.51100000000E-03 0. -1.
        -12    1    4    4    0    0  0.11937643452E+01  0.56215360248E+01  0.73993246403E+01  0.93689244699E+01  0.00000000000E+00 0.  1.
</event>
<event>
 8    1  0.2502431E-006  0.9118800E+02  0.7816164E-02  0.1184000E+00
        -11   -1    0    0    0    0  0.00000000000E+00  0.00000000000E+00  0.45593999997E+02  0.45594000000E+02  0.51100000000E-03 0.  1.
         11   -1    0    0    0    0 -0.00000000000E+00 -0.00000000000E+00 -0.45593999997E+02  0.45594000000E+02  0.51100000000E-03 0. -1.
         23    2    1    2    0    0  0.00000000000E+00  0.00000000000E+00  0.44408920985E-15  0.91188000000E+02  0.91188000000E+02 0.  0.
    9900012    2    3    3    0    0  0.33803250568E+02 -0.14289481978E+02  0.29885029468E+01  0.54367079397E+02  0.39999989102E+02 0.  0.
        -12    1    3    3    0    0 -0.33803250568E+02  0.14289481978E+02 -0.29885029468E+01  0.36820920603E+02  0.00000000000E+00 0.  1.
         11    1    4    4    0    0  0.14920309756E+02 -0.12956020549E+02 -0.34590093179E+01  0.20060878779E+02  0.51100000000E-03 0. -1.
        -11    1    4    4    0    0  0.59444569066E+01 -0.14187611242E+02  0.18188777060E+01  0.15489777178E+02  0.51100000000E-03 0.  1.
        -12    1    4    4    0    0  0.12938483906E+02  0.12854149813E+02  0.46286345587E+01  0.18816423440E+02  0.00000000000E+00 0.  1.
</event>
<event>
 8    1  0.2502431E-006  0.9118800E+02  0.7816164E-02  0.1184000E+00
        -11   -1    0    0    0    0  0.00000000000E+00  0.00000000000E+00  0.45593999997E+02  0.45594000000E+02  0.51100000000E-03 0.  1.
         11   -1    0    0    0    0 -0.00000000000E+00 -0.00000000000E+00 -0.45593999997E+02  0.45594000000E+02  0.51100000000E-03 0. -1.
         23    2    1    2    0    0  0.17763568394E-14  0.00000000000E+00 -0.71054273576E-14  0.91188000000E+02  0.91188000000E+02 0.  0.
    9900012    2    3    3    0    0 -0.14625023660E+02  0.47860044590E+01  0.33451203652E+02  0.54367079567E+02  0.39999989490E+02 0.  0.
         12    1    3    3    0    0  0.14625023660E+02 -0.47860044590E+01 -0.33451203652E+02  0.36820920433E+02  0.00000000000E+00 0. -1.
         11    1    4    4    0    0 -0.11542682972E+02  0.42876011568E+01  0.43530616862E+00  0.12320979896E+02  0.51100000000E-03 0. -1.
        -11    1    4    4    0    0 -0.81744289592E+01  0.70946461061E+01  0.34987844095E+01  0.11375270757E+02  0.51100000000E-03 0.  1.
         12    1    4    4    0    0  0.50920882713E+01 -0.65962428039E+01  0.29517113074E+02  0.30670828915E+02  0.00000000000E+00 0. -1.
</event>
<event>
 8    1  0.2502431E-006  0.9118800E+02  0.7816164E-02  0.1184000E+00
        -11   -1    0    0    0    0  0.00000000000E+00  0.00000000000E+00  0.45593999997E+02  0.45594000000E+02  0.51100000000E-03 0. -1.
         11   -1    0    0    0    0 -0.00000000000E+00 -0.00000000000E+00 -0.45593999997E+02  0.45594000000E+02  0.51100000000E-03 0.  1.
         23    2    1    2    0    0  0.00000000000E+00 -0.88817841970E-15  0.00000000000E+00  0.91188000000E+02  0.91188000000E+02 0.  0.
    9900012    2    3    3    0    0 -0.29822590205E+02 -0.33296707406E+01 -0.21337912634E+02  0.54367080547E+02  0.39999991724E+02 0.  0.
         12    1    3    3    0    0  0.29822590205E+02  0.33296707406E+01  0.21337912634E+02  0.36820919453E+02  0.00000000000E+00 0. -1.
         11    1    4    4    0    0 -0.21849518973E+02 -0.10249001897E+02 -0.35092011021E+01  0.24387661058E+02  0.51100000000E-03 0. -1.
        -11    1    4    4    0    0 -0.14059662447E+02  0.41973600800E+01 -0.49644150484E+01  0.15489911452E+02  0.51100000000E-03 0.  1.
         12    1    4    4    0    0  0.60865912150E+01  0.27219710761E+01 -0.12864296483E+02  0.14489508037E+02  0.00000000000E+00 0. -1.
</event>
<event>
 8    1  0.2502431E-006  0.9118800E+02  0.7816164E-02  0.1184000E+00
        -11   -1    0    0    0    0  0.00000000000E+00  0.00000000000E+00  0.45593999997E+02  0.45594000000E+02  0.51100000000E-03 0.  1.
         11   -1    0    0    0    0 -0.00000000000E+00 -0.00000000000E+00 -0.45593999997E+02  0.45594000000E+02  0.51100000000E-03 0. -1.
         23    2    1    2    0    0  0.88817841970E-15  0.88817841970E-15  0.00000000000E+00  0.91188000000E+02  0.91188000000E+02 0.  0.
    9900012    2    3    3    0    0 -0.50291370866E+01 -0.56918204032E+01 -0.36029219690E+02  0.54366895850E+02  0.39999570667E+02 0.  0.
        -12    1    3    3    0    0  0.50291370866E+01  0.56918204032E+01  0.36029219690E+02  0.36821104150E+02  0.00000000000E+00 0.  1.
         11    1    4    4    0    0  0.47857713360E+01 -0.33531566697E+01  0.28575740030E+00  0.58505490755E+01  0.51100000000E-03 0. -1.
        -11    1    4    4    0    0 -0.26269578250E+01 -0.14260595181E+01  0.54025281581E+01  0.61742905603E+01  0.51100000000E-03 0.  1.
         12    1    4    4    0    0 -0.71879505977E+01 -0.91260421552E+00 -0.41717505249E+02  0.42342056214E+02  0.00000000000E+00 0. -1.
</event>
<event>
 8    1  0.2502431E-006  0.9118800E+02  0.7816164E-02  0.1184000E+00
        -11   -1    0    0    0    0  0.00000000000E+00  0.00000000000E+00  0.45593999997E+02  0.45594000000E+02  0.51100000000E-03 0.  1.
         11   -1    0    0    0    0 -0.00000000000E+00 -0.00000000000E+00 -0.45593999997E+02  0.45594000000E+02  0.51100000000E-03 0. -1.
         23    2    1    2    0    0 -0.35527136788E-14  0.00000000000E+00  0.35527136788E-14  0.91188000000E+02  0.91188000000E+02 0.  0.
    9900012    2    3    3    0    0 -0.21920712384E+02  0.19391660663E+02  0.22343343275E+02  0.54367093936E+02  0.40000022245E+02 0.  0.
         12    1    3    3    0    0  0.21920712384E+02 -0.19391660663E+02 -0.22343343275E+02  0.36820906064E+02  0.00000000000E+00 0. -1.
         11    1    4    4    0    0  0.62316815046E+00  0.12417008951E+02  0.84656105157E+01  0.15041177198E+02  0.51100000000E-03 0. -1.
        -11    1    4    4    0    0  0.46345898634E+01  0.73243055983E+01  0.73693954110E+01  0.11376856538E+02  0.51100000000E-03 0.  1.
         12    1    4    4    0    0 -0.27178470398E+02 -0.34965388666E+00  0.65083373482E+01  0.27949060200E+02  0.00000000000E+00 0. -1.
</event>
<event>
 8    1  0.2502431E-006  0.9118800E+02  0.7816164E-02  0.1184000E+00
        -11   -1    0    0    0    0  0.00000000000E+00  0.00000000000E+00  0.45593999997E+02  0.45594000000E+02  0.51100000000E-03 0.  1.
         11   -1    0    0    0    0 -0.00000000000E+00 -0.00000000000E+00 -0.45593999997E+02  0.45594000000E+02  0.51100000000E-03 0. -1.
         23    2    1    2    0    0  0.88817841970E-15 -0.44408920985E-15  0.00000000000E+00  0.91188000000E+02  0.91188000000E+02 0.  0.
    9900012    2    3    3    0    0  0.63929860871E+01 -0.37393241539E+01  0.36068377492E+02  0.54367072918E+02  0.39999974332E+02 0.  0.
         12    1    3    3    0    0 -0.63929860871E+01  0.37393241539E+01 -0.36068377492E+02  0.36820927082E+02  0.00000000000E+00 0. -1.
         11    1    4    4    0    0 -0.67943118709E+01 -0.57088393223E+01 -0.26599415703E+01  0.92643839312E+01  0.51100000000E-03 0. -1.
        -11    1    4    4    0    0  0.92597061886E+01  0.95910249902E+01  0.30189589152E+02  0.33002139514E+02  0.51100000000E-03 0.  1.
        -12    1    4    4    0    0  0.39275917695E+01 -0.76215098218E+01  0.85387299100E+01  0.12100549473E+02  0.00000000000E+00 0.  1.
</event>
<event>
 8    1  0.2502431E-006  0.9118800E+02  0.7816164E-02  0.1184000E+00
        -11   -1    0    0    0    0  0.00000000000E+00  0.00000000000E+00  0.45593999997E+02  0.45594000000E+02  0.51100000000E-03 0.  1.
         11   -1    0    0    0    0 -0.00000000000E+00 -0.00000000000E+00 -0.45593999997E+02  0.45594000000E+02  0.51100000000E-03 0. -1.
         23    2    1    2    0    0  0.00000000000E+00  0.00000000000E+00 -0.17763568394E-14  0.91188000000E+02  0.91188000000E+02 0.  0.
    9900012    2    3    3    0    0 -0.84485041136E+01  0.32486991797E+02 -0.15132727472E+02  0.54367064400E+02  0.39999954912E+02 0.  0.
        -12    1    3    3    0    0  0.84485041136E+01 -0.32486991797E+02  0.15132727472E+02  0.36820935600E+02  0.00000000000E+00 0.  1.
         11    1    4    4    0    0 -0.69693678598E+01  0.24234891475E+02 -0.16763940432E+02  0.30280880969E+02  0.51100000000E-03 0. -1.
        -11    1    4    4    0    0  0.73097834476E+01  0.96410140337E+01 -0.48948761675E+01  0.13051509438E+02  0.51100000000E-03 0.  1.
         12    1    4    4    0    0 -0.87889197015E+01 -0.13889137123E+01  0.65260891281E+01  0.11034673993E+02  0.00000000000E+00 0. -1.
</event>
<event>
 8    1  0.2502431E-006  0.9118800E+02  0.7816164E-02  0.1184000E+00
        -11   -1    0    0    0    0  0.00000000000E+00  0.00000000000E+00  0.45593999997E+02  0.45594000000E+02  0.51100000000E-03 0.  1.
         11   -1    0    0    0    0 -0.00000000000E+00 -0.00000000000E+00 -0.45593999997E+02  0.45594000000E+02  0.51100000000E-03 0. -1.
         23    2    1    2    0    0  0.00000000000E+00  0.00000000000E+00  0.00000000000E+00  0.91188000000E+02  0.91188000000E+02 0.  0.
    9900012    2    3    3    0    0 -0.32621024675E+02 -0.16104022027E+02  0.56840883835E+01  0.54367086961E+02  0.40000006345E+02 0.  0.
         12    1    3    3    0    0  0.32621024675E+02  0.16104022027E+02 -0.56840883835E+01  0.36820913039E+02  0.00000000000E+00 0. -1.
         11    1    4    4    0    0 -0.25970419503E+02 -0.20344410653E+02 -0.77269030997E+01  0.33883074916E+02  0.51100000000E-03 0. -1.
        -11    1    4    4    0    0 -0.24602566073E+01 -0.11936835675E+01  0.13344302979E+02  0.13621606560E+02  0.51100000000E-03 0.  1.
         12    1    4    4    0    0 -0.41903485644E+01  0.54340721928E+01  0.66688504492E-01  0.68624054852E+01  0.00000000000E+00 0. -1.
</event>
<event>
 8    1  0.2502431E-006  0.9118800E+02  0.7816164E-02  0.1184000E+00
        -11   -1    0    0    0    0  0.00000000000E+00  0.00000000000E+00  0.45593999997E+02  0.45594000000E+02  0.51100000000E-03 0. -1.
         11   -1    0    0    0    0 -0.00000000000E+00 -0.00000000000E+00 -0.45593999997E+02  0.45594000000E+02  0.51100000000E-03 0.  1.
         23    2    1    2    0    0  0.00000000000E+00 -0.17763568394E-14 -0.35527136788E-14  0.91188000000E+02  0.91188000000E+02 0.  0.
    9900012    2    3    3    0    0  0.30336777508E+02 -0.13331824476E+02 -0.16053728892E+02  0.54367084412E+02  0.40000000534E+02 0.  0.
         12    1    3    3    0    0 -0.30336777508E+02  0.13331824476E+02  0.16053728892E+02  0.36820915588E+02  0.00000000000E+00 0. -1.
         11    1    4    4    0    0  0.10250208214E+02  0.34738227925E+01 -0.14224833007E+02  0.17874005918E+02  0.51100000000E-03 0.  1.
        -11    1    4    4    0    0 -0.49589781061E+01 -0.47016890302E+01  0.42124823994E+01  0.80275993808E+01  0.51100000000E-03 0. -1.
        -12    1    4    4    0    0  0.25045547400E+02 -0.12103958238E+02 -0.60413782845E+01  0.28465479113E+02  0.00000000000E+00 0.  1.
</event>
<event>
 8    1  0.2502431E-006  0.9118800E+02  0.7816164E-02  0.1184000E+00
        -11   -1    0    0    0    0  0.00000000000E+00  0.00000000000E+00  0.45593999997E+02  0.45594000000E+02  0.51100000000E-03 0.  1.
         11   -1    0    0    0    0 -0.00000000000E+00 -0.00000000000E+00 -0.45593999997E+02  0.45594000000E+02  0.51100000000E-03 0. -1.
         23    2    1    2    0    0  0.35527136788E-14  0.00000000000E+00  0.00000000000E+00  0.91188000000E+02  0.91188000000E+02 0.  0.
    9900012    2    3    3    0    0 -0.16763041983E+02  0.27960915639E+02 -0.17116333075E+02  0.54367065223E+02  0.39999956789E+02 0.  0.
        -12    1    3    3    0    0  0.16763041983E+02 -0.27960915639E+02  0.17116333075E+02  0.36820934777E+02  0.00000000000E+00 0.  1.
         11    1    4    4    0    0 -0.33903609520E+01  0.22089018343E+01 -0.63485563172E+01  0.75284767565E+01  0.51100000000E-03 0. -1.
        -11    1    4    4    0    0 -0.15557007438E+02  0.33120142638E+02 -0.13005469106E+02  0.38834347628E+02  0.51100000000E-03 0.  1.
         12    1    4    4    0    0  0.21843264069E+01 -0.73681288330E+01  0.22376923479E+01  0.80042408382E+01  0.00000000000E+00 0. -1.
</event>
<event>
 8    1  0.2502431E-006  0.9118800E+02  0.7816164E-02  0.1184000E+00
        -11   -1    0    0    0    0  0.00000000000E+00  0.00000000000E+00  0.45593999997E+02  0.45594000000E+02  0.51100000000E-03 0.  1.
         11   -1    0    0    0    0 -0.00000000000E+00 -0.00000000000E+00 -0.45593999997E+02  0.45594000000E+02  0.51100000000E-03 0. -1.
         23    2    1    2    0    0 -0.13322676296E-14  0.00000000000E+00 -0.44408920985E-15  0.91188000000E+02  0.91188000000E+02 0.  0.
    9900012    2    3    3    0    0 -0.32954763882E+01 -0.36580827458E+02  0.26013435466E+01  0.54367026487E+02  0.39999868483E+02 0.  0.
         12    1    3    3    0    0  0.32954763882E+01  0.36580827458E+02 -0.26013435466E+01  0.36820973513E+02  0.00000000000E+00 0. -1.
         11    1    4    4    0    0 -0.12140562118E+02 -0.28052078129E+02 -0.43746993942E+01  0.30877991045E+02  0.51100000000E-03 0. -1.
        -11    1    4    4    0    0  0.12459471667E+02 -0.61576640816E+00  0.22380191222E+00  0.12476685860E+02  0.51100000000E-03 0.  1.
        -12    1    4    4    0    0 -0.36143859371E+01 -0.79129829208E+01  0.67522410286E+01  0.11012349582E+02  0.00000000000E+00 0.  1.
</event>
<event>
 8    1  0.2502431E-006  0.9118800E+02  0.7816164E-02  0.1184000E+00
        -11   -1    0    0    0    0  0.00000000000E+00  0.00000000000E+00  0.45593999997E+02  0.45594000000E+02  0.51100000000E-03 0. -1.
         11   -1    0    0    0    0 -0.00000000000E+00 -0.00000000000E+00 -0.45593999997E+02  0.45594000000E+02  0.51100000000E-03 0.  1.
         23    2    1    2    0    0  0.35527136788E-14  0.00000000000E+00  0.35527136788E-14  0.91188000000E+02  0.91188000000E+02 0.  0.
    9900012    2    3    3    0    0  0.24943161034E+02  0.79477563892E+01  0.25893080526E+02  0.54367085656E+02  0.40000003371E+02 0.  0.
        -12    1    3    3    0    0 -0.24943161034E+02 -0.79477563892E+01 -0.25893080526E+02  0.36820914344E+02  0.00000000000E+00 0.  1.
         11    1    4    4    0    0  0.54167777930E+01 -0.10262083240E+01  0.10501121975E+02  0.11860360373E+02  0.51100000000E-03 0. -1.
        -11    1    4    4    0    0  0.20276981851E+02  0.24028367134E+01 -0.50394110413E+01  0.21031530642E+02  0.51100000000E-03 0.  1.
        -12    1    4    4    0    0 -0.75059861001E+00  0.65711279998E+01  0.20431369592E+02  0.21475194641E+02  0.00000000000E+00 0.  1.
</event>
<event>
 8    1  0.2502431E-006  0.9118800E+02  0.7816164E-02  0.1184000E+00
        -11   -1    0    0    0    0  0.00000000000E+00  0.00000000000E+00  0.45593999997E+02  0.45594000000E+02  0.51100000000E-03 0.  1.
         11   -1    0    0    0    0 -0.00000000000E+00 -0.00000000000E+00 -0.45593999997E+02  0.45594000000E+02  0.51100000000E-03 0. -1.
         23    2    1    2    0    0  0.00000000000E+00 -0.35527136788E-14  0.00000000000E+00  0.91188000000E+02  0.91188000000E+02 0.  0.
    9900012    2    3    3    0    0  0.33506600779E+02 -0.15112646394E+02  0.21667195183E+01  0.54367094929E+02  0.40000024509E+02 0.  0.
        -12    1    3    3    0    0 -0.33506600779E+02  0.15112646394E+02 -0.21667195183E+01  0.36820905071E+02  0.00000000000E+00 0.  1.
         11    1    4    4    0    0  0.19840627057E+02 -0.22431203696E+02  0.11047426378E+02  0.31919508316E+02  0.51100000000E-03 0. -1.
        -11    1    4    4    0    0  0.95732133370E+01  0.78550428475E+01  0.29422673474E+00  0.12386875367E+02  0.51100000000E-03 0.  1.
        -12    1    4    4    0    0  0.40927603848E+01 -0.53648554537E+00 -0.91749335942E+01  0.10060711246E+02  0.00000000000E+00 0.  1.
</event>
<event>
 8    1  0.2502431E-006  0.9118800E+02  0.7816164E-02  0.1184000E+00
        -11   -1    0    0    0    0  0.00000000000E+00  0.00000000000E+00  0.45593999997E+02  0.45594000000E+02  0.51100000000E-03 0.  1.
         11   -1    0    0    0    0 -0.00000000000E+00 -0.00000000000E+00 -0.45593999997E+02  0.45594000000E+02  0.51100000000E-03 0. -1.
         23    2    1    2    0    0  0.00000000000E+00  0.35527136788E-14  0.35527136788E-14  0.91188000000E+02  0.91188000000E+02 0.  0.
    9900012    2    3    3    0    0  0.76536222112E+01 -0.25126390352E+02  0.25804398124E+02  0.54367076769E+02  0.39999983110E+02 0.  0.
         12    1    3    3    0    0 -0.76536222112E+01  0.25126390352E+02 -0.25804398124E+02  0.36820923231E+02  0.00000000000E+00 0. -1.
         11    1    4    4    0    0  0.14282810863E+01 -0.18480002690E+02 -0.23145338256E+01  0.18679067251E+02  0.51100000000E-03 0. -1.
        -11    1    4    4    0    0  0.10040257985E+02 -0.37432207799E+01  0.28907563731E+02  0.30829624119E+02  0.51100000000E-03 0.  1.
        -12    1    4    4    0    0 -0.38149168597E+01 -0.29031668825E+01 -0.78863178174E+00  0.48583853986E+01  0.00000000000E+00 0.  1.
</event>
<event>
 8    1  0.2502431E-006  0.9118800E+02  0.7816164E-02  0.1184000E+00
        -11   -1    0    0    0    0  0.00000000000E+00  0.00000000000E+00  0.45593999997E+02  0.45594000000E+02  0.51100000000E-03 0.  1.
         11   -1    0    0    0    0 -0.00000000000E+00 -0.00000000000E+00 -0.45593999997E+02  0.45594000000E+02  0.51100000000E-03 0. -1.
         23    2    1    2    0    0  0.00000000000E+00  0.00000000000E+00 -0.35527136788E-14  0.91188000000E+02  0.91188000000E+02 0.  0.
    9900012    2    3    3    0    0  0.12705286694E+02 -0.18244605139E+02  0.29351137499E+02  0.54367092907E+02  0.40000019901E+02 0.  0.
         12    1    3    3    0    0 -0.12705286694E+02  0.18244605139E+02 -0.29351137499E+02  0.36820907093E+02  0.00000000000E+00 0. -1.
         11    1    4    4    0    0  0.74919666860E+01 -0.14149200895E+02 -0.41829088158E+01  0.16547694015E+02  0.51100000000E-03 0. -1.
        -11    1    4    4    0    0 -0.29076026860E+01  0.37190571688E+01  0.39294386634E+01  0.61421517464E+01  0.51100000000E-03 0.  1.
         12    1    4    4    0    0  0.81209226940E+01 -0.78144614124E+01  0.29604607651E+02  0.31677247146E+02  0.00000000000E+00 0. -1.
</event>
<event>
 8    1  0.2502431E-006  0.9118800E+02  0.7816164E-02  0.1184000E+00
        -11   -1    0    0    0    0  0.00000000000E+00  0.00000000000E+00  0.45593999997E+02  0.45594000000E+02  0.51100000000E-03 0. -1.
         11   -1    0    0    0    0 -0.00000000000E+00 -0.00000000000E+00 -0.45593999997E+02  0.45594000000E+02  0.51100000000E-03 0.  1.
         23    2    1    2    0    0  0.35527136788E-14  0.00000000000E+00 -0.35527136788E-14  0.91188000000E+02  0.91188000000E+02 0.  0.
    9900012    2    3    3    0    0  0.12142990931E+02  0.28920159095E+02 -0.19286053904E+02  0.54367086025E+02  0.40000004211E+02 0.  0.
         12    1    3    3    0    0 -0.12142990931E+02 -0.28920159095E+02  0.19286053904E+02  0.36820913975E+02  0.00000000000E+00 0. -1.
         11    1    4    4    0    0  0.57715969091E+01  0.21302325064E+02  0.32120647598E+01  0.22302864038E+02  0.51100000000E-03 0. -1.
        -11    1    4    4    0    0 -0.66364423136E+01 -0.15778479391E+00 -0.11713909892E+02  0.13464135615E+02  0.51100000000E-03 0.  1.
        -12    1    4    4    0    0  0.13007836335E+02  0.77756188242E+01 -0.10784208771E+02  0.18600086372E+02  0.00000000000E+00 0.  1.
</event>
<event>
 8    1  0.2502431E-006  0.9118800E+02  0.7816164E-02  0.1184000E+00
        -11   -1    0    0    0    0  0.00000000000E+00  0.00000000000E+00  0.45593999997E+02  0.45594000000E+02  0.51100000000E-03 0.  1.
         11   -1    0    0    0    0 -0.00000000000E+00 -0.00000000000E+00 -0.45593999997E+02  0.45594000000E+02  0.51100000000E-03 0. -1.
         23    2    1    2    0    0  0.35527136788E-14  0.00000000000E+00  0.00000000000E+00  0.91188000000E+02  0.91188000000E+02 0.  0.
    9900012    2    3    3    0    0  0.24920052022E+02  0.47185850842E+01  0.26692803275E+02  0.54367084956E+02  0.40000001775E+02 0.  0.
         12    1    3    3    0    0 -0.24920052022E+02 -0.47185850842E+01 -0.26692803275E+02  0.36820915044E+02  0.00000000000E+00 0. -1.
         11    1    4    4    0    0 -0.47240597633E+01 -0.61708426402E+01  0.17125705623E+02  0.18806536972E+02  0.51100000000E-03 0. -1.
        -11    1    4    4    0    0  0.68735869743E+01 -0.30812810098E+01  0.19432277348E+01  0.77792432052E+01  0.51100000000E-03 0.  1.
         12    1    4    4    0    0  0.22770524811E+02  0.13970708734E+02  0.76238699177E+01  0.27781304779E+02  0.00000000000E+00 0. -1.
</event>
<event>
 8    1  0.2502431E-006  0.9118800E+02  0.7816164E-02  0.1184000E+00
        -11   -1    0    0    0    0  0.00000000000E+00  0.00000000000E+00  0.45593999997E+02  0.45594000000E+02  0.51100000000E-03 0. -1.
         11   -1    0    0    0    0 -0.00000000000E+00 -0.00000000000E+00 -0.45593999997E+02  0.45594000000E+02  0.51100000000E-03 0.  1.
         23    2    1    2    0    0  0.17763568394E-14  0.00000000000E+00  0.35527136788E-14  0.91188000000E+02  0.91188000000E+02 0.  0.
    9900012    2    3    3    0    0 -0.63741311285E+01 -0.25169544660E+02 -0.26108319990E+02  0.54367083408E+02  0.39999998244E+02 0.  0.
         12    1    3    3    0    0  0.63741311285E+01  0.25169544660E+02  0.26108319990E+02  0.36820916592E+02  0.00000000000E+00 0. -1.
         11    1    4    4    0    0  0.38628231463E+01 -0.72005826491E+01  0.60867278309E+00  0.81939170098E+01  0.51100000000E-03 0. -1.
        -11    1    4    4    0    0  0.49434748314E+01 -0.14868871173E+02 -0.44818967677E+00  0.15675527028E+02  0.51100000000E-03 0.  1.
        -12    1    4    4    0    0 -0.15180429106E+02 -0.31000908382E+01 -0.26268803096E+02  0.30497639370E+02  0.00000000000E+00 0.  1.
</event>
<event>
 8    1  0.2502431E-006  0.9118800E+02  0.7816164E-02  0.1184000E+00
        -11   -1    0    0    0    0  0.00000000000E+00  0.00000000000E+00  0.45593999997E+02  0.45594000000E+02  0.51100000000E-03 0. -1.
         11   -1    0    0    0    0 -0.00000000000E+00 -0.00000000000E+00 -0.45593999997E+02  0.45594000000E+02  0.51100000000E-03 0.  1.
         23    2    1    2    0    0  0.88817841970E-15 -0.35527136788E-14  0.00000000000E+00  0.91188000000E+02  0.91188000000E+02 0.  0.
    9900012    2    3    3    0    0  0.67961093168E+01  0.25497444071E+02  0.25680224797E+02  0.54367072505E+02  0.39999973389E+02 0.  0.
        -12    1    3    3    0    0 -0.67961093168E+01 -0.25497444071E+02 -0.25680224797E+02  0.36820927495E+02  0.00000000000E+00 0.  1.
         11    1    4    4    0    0 -0.78568099472E+01  0.16860456635E+01  0.22170625299E+01  0.83359210078E+01  0.51100000000E-03 0.  1.
        -11    1    4    4    0    0  0.14295367858E+01  0.40406100903E+01  0.21767507526E+02  0.22185456711E+02  0.51100000000E-03 0. -1.
         12    1    4    4    0    0  0.13223382478E+02  0.19770788317E+02  0.16956547413E+01  0.23845694786E+02  0.00000000000E+00 0. -1.
</event>
<event>
 8    1  0.2502431E-006  0.9118800E+02  0.7816164E-02  0.1184000E+00
        -11   -1    0    0    0    0  0.00000000000E+00  0.00000000000E+00  0.45593999997E+02  0.45594000000E+02  0.51100000000E-03 0.  1.
         11   -1    0    0    0    0 -0.00000000000E+00 -0.00000000000E+00 -0.45593999997E+02  0.45594000000E+02  0.51100000000E-03 0. -1.
         23    2    1    2    0    0  0.00000000000E+00 -0.71054273576E-14  0.17763568394E-14  0.91188000000E+02  0.91188000000E+02 0.  0.
    9900012    2    3    3    0    0 -0.62136960629E+01 -0.35326178083E+02 -0.83205092413E+01  0.54367085417E+02  0.40000002824E+02 0.  0.
         12    1    3    3    0    0  0.62136960629E+01  0.35326178083E+02  0.83205092413E+01  0.36820914583E+02  0.00000000000E+00 0. -1.
         11    1    4    4    0    0  0.81284805765E+01 -0.31980871071E+02 -0.73239411326E+01  0.33800716337E+02  0.51100000000E-03 0. -1.
        -11    1    4    4    0    0  0.21204448113E+01 -0.24748212359E+01  0.19812403831E+01  0.38139664477E+01  0.51100000000E-03 0.  1.
        -12    1    4    4    0    0 -0.16462621451E+02 -0.87048577633E+00 -0.29778084918E+01  0.16752402632E+02  0.00000000000E+00 0.  1.
</event>
<event>
 8    1  0.2502431E-006  0.9118800E+02  0.7816164E-02  0.1184000E+00
        -11   -1    0    0    0    0  0.00000000000E+00  0.00000000000E+00  0.45593999997E+02  0.45594000000E+02  0.51100000000E-03 0.  1.
         11   -1    0    0    0    0 -0.00000000000E+00 -0.00000000000E+00 -0.45593999997E+02  0.45594000000E+02  0.51100000000E-03 0. -1.
         23    2    1    2    0    0  0.00000000000E+00 -0.71054273576E-14  0.00000000000E+00  0.91188000000E+02  0.91188000000E+02 0.  0.
    9900012    2    3    3    0    0  0.16246343049E+02 -0.31161345516E+02 -0.10991222476E+02  0.54367080832E+02  0.39999992372E+02 0.  0.
         12    1    3    3    0    0 -0.16246343049E+02  0.31161345516E+02  0.10991222476E+02  0.36820919168E+02  0.00000000000E+00 0. -1.
         11    1    4    4    0    0 -0.52641936342E+01 -0.47917659205E+01  0.18345963255E+01  0.73510883000E+01  0.51100000000E-03 0. -1.
        -11    1    4    4    0    0  0.90586513607E+01 -0.29242268430E+02 -0.27385123730E+01  0.30735466121E+02  0.51100000000E-03 0.  1.
         12    1    4    4    0    0  0.12451885323E+02  0.28726888340E+01 -0.10087306428E+02  0.16280526411E+02  0.00000000000E+00 0. -1.
</event>
<event>
 8    1  0.2502431E-006  0.9118800E+02  0.7816164E-02  0.1184000E+00
        -11   -1    0    0    0    0  0.00000000000E+00  0.00000000000E+00  0.45593999997E+02  0.45594000000E+02  0.51100000000E-03 0. -1.
         11   -1    0    0    0    0 -0.00000000000E+00 -0.00000000000E+00 -0.45593999997E+02  0.45594000000E+02  0.51100000000E-03 0.  1.
         23    2    1    2    0    0 -0.17763568394E-14  0.35527136788E-14  0.00000000000E+00  0.91188000000E+02  0.91188000000E+02 0.  0.
    9900012    2    3    3    0    0 -0.14607903869E+02  0.78566352445E+01  0.32873425795E+02  0.54367086156E+02  0.40000004511E+02 0.  0.
        -12    1    3    3    0    0  0.14607903869E+02 -0.78566352445E+01 -0.32873425795E+02  0.36820913844E+02  0.00000000000E+00 0.  1.
         11    1    4    4    0    0 -0.98250206004E+01  0.16591386615E+02  0.14682974562E+02  0.24236230768E+02  0.51100000000E-03 0. -1.
        -11    1    4    4    0    0  0.32895617501E+01 -0.48558443831E+01  0.20130145458E+02  0.20967193365E+02  0.51100000000E-03 0.  1.
        -12    1    4    4    0    0 -0.80724450183E+01 -0.38789069873E+01 -0.19396942252E+01  0.91636620232E+01  0.00000000000E+00 0.  1.
</event>
<event>
 8    1  0.2502431E-006  0.9118800E+02  0.7816164E-02  0.1184000E+00
        -11   -1    0    0    0    0  0.00000000000E+00  0.00000000000E+00  0.45593999997E+02  0.45594000000E+02  0.51100000000E-03 0. -1.
         11   -1    0    0    0    0 -0.00000000000E+00 -0.00000000000E+00 -0.45593999997E+02  0.45594000000E+02  0.51100000000E-03 0.  1.
         23    2    1    2    0    0  0.53290705182E-14  0.17763568394E-14 -0.71054273576E-14  0.91188000000E+02  0.91188000000E+02 0.  0.
    9900012    2    3    3    0    0 -0.11742528521E+02 -0.63059362602E+01 -0.34323871048E+02  0.54367082957E+02  0.39999997217E+02 0.  0.
         12    1    3    3    0    0  0.11742528521E+02  0.63059362602E+01  0.34323871048E+02  0.36820917043E+02  0.00000000000E+00 0. -1.
         11    1    4    4    0    0  0.95272528447E+01  0.22418432725E+01 -0.23169746312E+02  0.25152167948E+02  0.51100000000E-03 0. -1.
        -11    1    4    4    0    0 -0.46224661067E+01 -0.91430408680E+01 -0.54696315230E+01  0.11613752989E+02  0.51100000000E-03 0.  1.
         12    1    4    4    0    0 -0.16647315259E+02  0.59526133524E+00 -0.56844932124E+01  0.17601162021E+02  0.00000000000E+00 0. -1.
</event>
<event>
 8    1  0.2502431E-006  0.9118800E+02  0.7816164E-02  0.1184000E+00
        -11   -1    0    0    0    0  0.00000000000E+00  0.00000000000E+00  0.45593999997E+02  0.45594000000E+02  0.51100000000E-03 0.  1.
         11   -1    0    0    0    0 -0.00000000000E+00 -0.00000000000E+00 -0.45593999997E+02  0.45594000000E+02  0.51100000000E-03 0. -1.
         23    2    1    2    0    0  0.22204460493E-15  0.35527136788E-14  0.71054273576E-14  0.91188000000E+02  0.91188000000E+02 0.  0.
    9900012    2    3    3    0    0 -0.10477994591E+01  0.14735976209E+02  0.33727349416E+02  0.54367068762E+02  0.39999964858E+02 0.  0.
         12    1    3    3    0    0  0.10477994591E+01 -0.14735976209E+02 -0.33727349416E+02  0.36820931238E+02  0.00000000000E+00 0. -1.
         11    1    4    4    0    0 -0.27806618868E+01 -0.97095456641E+01  0.89810482160E+01  0.13515420262E+02  0.51100000000E-03 0. -1.
        -11    1    4    4    0    0 -0.54638394657E+01  0.24677342578E+02  0.18542083262E+02  0.31346987581E+02  0.51100000000E-03 0.  1.
         12    1    4    4    0    0  0.71967018934E+01 -0.23182070440E+00  0.62042179382E+01  0.95046609201E+01  0.00000000000E+00 0. -1.
</event>
<event>
 8    1  0.2502431E-006  0.9118800E+02  0.7816164E-02  0.1184000E+00
        -11   -1    0    0    0    0  0.00000000000E+00  0.00000000000E+00  0.45593999997E+02  0.45594000000E+02  0.51100000000E-03 0. -1.
         11   -1    0    0    0    0 -0.00000000000E+00 -0.00000000000E+00 -0.45593999997E+02  0.45594000000E+02  0.51100000000E-03 0.  1.
         23    2    1    2    0    0  0.00000000000E+00  0.00000000000E+00  0.00000000000E+00  0.91188000000E+02  0.91188000000E+02 0.  0.
    9900012    2    3    3    0    0 -0.11883293758E+02 -0.33629699993E+02  0.91438366030E+01  0.54367093710E+02  0.40000021731E+02 0.  0.
        -12    1    3    3    0    0  0.11883293758E+02  0.33629699993E+02 -0.91438366030E+01  0.36820906290E+02  0.00000000000E+00 0.  1.
         11    1    4    4    0    0 -0.48593069986E+01 -0.31220517969E+01  0.40501677131E+01  0.70543554414E+01  0.51100000000E-03 0. -1.
        -11    1    4    4    0    0  0.39363845152E+01  0.52847031285E+01  0.72757373584E+01  0.98162907749E+01  0.51100000000E-03 0.  1.
        -12    1    4    4    0    0 -0.10960371275E+02 -0.35792351325E+02 -0.21820684685E+01  0.37496447494E+02  0.00000000000E+00 0.  1.
</event>
<event>
 8    1  0.2502431E-006  0.9118800E+02  0.7816164E-02  0.1184000E+00
        -11   -1    0    0    0    0  0.00000000000E+00  0.00000000000E+00  0.45593999997E+02  0.45594000000E+02  0.51100000000E-03 0.  1.
         11   -1    0    0    0    0 -0.00000000000E+00 -0.00000000000E+00 -0.45593999997E+02  0.45594000000E+02  0.51100000000E-03 0. -1.
         23    2    1    2    0    0  0.00000000000E+00  0.71054273576E-14  0.35527136788E-14  0.91188000000E+02  0.91188000000E+02 0.  0.
    9900012    2    3    3    0    0 -0.10699823255E+02  0.27229335140E+02  0.22357500092E+02  0.54367072252E+02  0.39999972813E+02 0.  0.
         12    1    3    3    0    0  0.10699823255E+02 -0.27229335140E+02 -0.22357500092E+02  0.36820927748E+02  0.00000000000E+00 0. -1.
         11    1    4    4    0    0 -0.25282815095E+01  0.75107372216E+01  0.39635838470E+01  0.88607775153E+01  0.51100000000E-03 0. -1.
        -11    1    4    4    0    0 -0.18874355957E+02  0.48716236026E+01  0.18962844624E+02  0.27194916911E+02  0.51100000000E-03 0.  1.
         12    1    4    4    0    0  0.10702814212E+02  0.14846974316E+02 -0.56892837845E+00  0.18311377826E+02  0.00000000000E+00 0. -1.
</event>
<event>
 8    1  0.2502431E-006  0.9118800E+02  0.7816164E-02  0.1184000E+00
        -11   -1    0    0    0    0  0.00000000000E+00  0.00000000000E+00  0.45593999997E+02  0.45594000000E+02  0.51100000000E-03 0.  1.
         11   -1    0    0    0    0 -0.00000000000E+00 -0.00000000000E+00 -0.45593999997E+02  0.45594000000E+02  0.51100000000E-03 0. -1.
         23    2    1    2    0    0  0.00000000000E+00  0.17763568394E-14  0.17763568394E-14  0.91188000000E+02  0.91188000000E+02 0.  0.
    9900012    2    3    3    0    0 -0.32086594865E+02 -0.10953061728E+02  0.14361781175E+02  0.54367083529E+02  0.39999998520E+02 0.  0.
         12    1    3    3    0    0  0.32086594865E+02  0.10953061728E+02 -0.14361781175E+02  0.36820916471E+02  0.00000000000E+00 0. -1.
         11    1    4    4    0    0 -0.38516964227E+01 -0.40090985263E+01 -0.24984808889E+01  0.60951491647E+01  0.51100000000E-03 0. -1.
        -11    1    4    4    0    0 -0.11821055159E+02 -0.98402612472E+01 -0.87650969257E+01  0.17702966160E+02  0.51100000000E-03 0.  1.
        -12    1    4    4    0    0 -0.16413843283E+02  0.28962980452E+01  0.25625358990E+02  0.30568968204E+02  0.00000000000E+00 0.  1.
</event>
<event>
 8    1  0.2502431E-006  0.9118800E+02  0.7816164E-02  0.1184000E+00
        -11   -1    0    0    0    0  0.00000000000E+00  0.00000000000E+00  0.45593999997E+02  0.45594000000E+02  0.51100000000E-03 0.  1.
         11   -1    0    0    0    0 -0.00000000000E+00 -0.00000000000E+00 -0.45593999997E+02  0.45594000000E+02  0.51100000000E-03 0. -1.
         23    2    1    2    0    0 -0.17763568394E-14  0.00000000000E+00  0.00000000000E+00  0.91188000000E+02  0.91188000000E+02 0.  0.
    9900012    2    3    3    0    0 -0.15407112085E+02 -0.84946631249E+01  0.32345668658E+02  0.54367072726E+02  0.39999973892E+02 0.  0.
         12    1    3    3    0    0  0.15407112085E+02  0.84946631249E+01 -0.32345668658E+02  0.36820927274E+02  0.00000000000E+00 0. -1.
         11    1    4    4    0    0 -0.20008408757E+01  0.11156937309E+02  0.80853253382E+01  0.13923113890E+02  0.51100000000E-03 0. -1.
        -11    1    4    4    0    0 -0.15787603858E+02 -0.46568607701E+01  0.16828222429E+02  0.23539835560E+02  0.51100000000E-03 0.  1.
         12    1    4    4    0    0  0.23813326488E+01 -0.14994739664E+02  0.74321208914E+01  0.16904123275E+02  0.00000000000E+00 0. -1.
</event>
<event>
 8    1  0.2502431E-006  0.9118800E+02  0.7816164E-02  0.1184000E+00
        -11   -1    0    0    0    0  0.00000000000E+00  0.00000000000E+00  0.45593999997E+02  0.45594000000E+02  0.51100000000E-03 0.  1.
         11   -1    0    0    0    0 -0.00000000000E+00 -0.00000000000E+00 -0.45593999997E+02  0.45594000000E+02  0.51100000000E-03 0. -1.
         23    2    1    2    0    0  0.35527136788E-14  0.17763568394E-14  0.00000000000E+00  0.91188000000E+02  0.91188000000E+02 0.  0.
    9900012    2    3    3    0    0 -0.98160857517E+01 -0.12287503952E+02  0.33293259243E+02  0.54367090127E+02  0.40000013562E+02 0.  0.
         12    1    3    3    0    0  0.98160857517E+01  0.12287503952E+02 -0.33293259243E+02  0.36820909873E+02  0.00000000000E+00 0. -1.
         11    1    4    4    0    0 -0.22499052249E+02 -0.13768313479E+02  0.12494737042E+02  0.29187193461E+02  0.51100000000E-03 0. -1.
        -11    1    4    4    0    0  0.71950429800E+01 -0.21814839958E+01  0.12377794319E+02  0.14482310188E+02  0.51100000000E-03 0.  1.
         12    1    4    4    0    0  0.54879235170E+01  0.36622935233E+01  0.84207278825E+01  0.10697586478E+02  0.00000000000E+00 0. -1.
</event>
<event>
 8    1  0.2502431E-006  0.9118800E+02  0.7816164E-02  0.1184000E+00
        -11   -1    0    0    0    0  0.00000000000E+00  0.00000000000E+00  0.45593999997E+02  0.45594000000E+02  0.51100000000E-03 0.  1.
         11   -1    0    0    0    0 -0.00000000000E+00 -0.00000000000E+00 -0.45593999997E+02  0.45594000000E+02  0.51100000000E-03 0. -1.
         23    2    1    2    0    0 -0.35527136788E-14  0.35527136788E-14  0.10658141036E-13  0.91188000000E+02  0.91188000000E+02 0.  0.
    9900012    2    3    3    0    0 -0.21946611045E+02  0.10253120345E+02  0.27730832198E+02  0.54367091978E+02  0.40000017782E+02 0.  0.
         12    1    3    3    0    0  0.21946611045E+02 -0.10253120345E+02 -0.27730832198E+02  0.36820908022E+02  0.00000000000E+00 0. -1.
         11    1    4    4    0    0 -0.24478443226E+02 -0.38774670389E+01  0.19740327607E+02  0.31684530417E+02  0.51100000000E-03 0. -1.
        -11    1    4    4    0    0  0.27430136741E+00 -0.57279795792E+00 -0.37054768829E+01  0.37595076715E+01  0.51100000000E-03 0.  1.
        -12    1    4    4    0    0  0.22575308143E+01  0.14703385342E+02  0.11695981474E+02  0.18923053890E+02  0.00000000000E+00 0.  1.
</event>
<event>
 8    1  0.2502431E-006  0.9118800E+02  0.7816164E-02  0.1184000E+00
        -11   -1    0    0    0    0  0.00000000000E+00  0.00000000000E+00  0.45593999997E+02  0.45594000000E+02  0.51100000000E-03 0.  1.
         11   -1    0    0    0    0 -0.00000000000E+00 -0.00000000000E+00 -0.45593999997E+02  0.45594000000E+02  0.51100000000E-03 0. -1.
         23    2    1    2    0    0 -0.35527136788E-14  0.00000000000E+00  0.00000000000E+00  0.91188000000E+02  0.91188000000E+02 0.  0.
    9900012    2    3    3    0    0  0.17311198190E+02 -0.27704791816E+02 -0.16986668601E+02  0.54367082270E+02  0.39999995650E+02 0.  0.
        -12    1    3    3    0    0 -0.17311198190E+02  0.27704791816E+02  0.16986668601E+02  0.36820917730E+02  0.00000000000E+00 0.  1.
         11    1    4    4    0    0  0.21140712126E+01 -0.17154383747E+02 -0.59789768814E+01  0.18289077167E+02  0.51100000000E-03 0. -1.
        -11    1    4    4    0    0  0.50500048990E+00 -0.17323098298E+02 -0.96676317542E+01  0.19844592819E+02  0.51100000000E-03 0.  1.
         12    1    4    4    0    0  0.14692126487E+02  0.67726902289E+01 -0.13400599653E+01  0.16233412283E+02  0.00000000000E+00 0. -1.
</event>
<event>
 8    1  0.2502431E-006  0.9118800E+02  0.7816164E-02  0.1184000E+00
        -11   -1    0    0    0    0  0.00000000000E+00  0.00000000000E+00  0.45593999997E+02  0.45594000000E+02  0.51100000000E-03 0. -1.
         11   -1    0    0    0    0 -0.00000000000E+00 -0.00000000000E+00 -0.45593999997E+02  0.45594000000E+02  0.51100000000E-03 0.  1.
         23    2    1    2    0    0  0.00000000000E+00  0.00000000000E+00  0.00000000000E+00  0.91188000000E+02  0.91188000000E+02 0.  0.
    9900012    2    3    3    0    0  0.23868982055E+02  0.22538060289E+02  0.16675941227E+02  0.54367089069E+02  0.40000011151E+02 0.  0.
        -12    1    3    3    0    0 -0.23868982055E+02 -0.22538060289E+02 -0.16675941227E+02  0.36820910931E+02  0.00000000000E+00 0.  1.
         11    1    4    4    0    0  0.25207551997E+01  0.45813393284E+00  0.80809561868E+01  0.84773785235E+01  0.51100000000E-03 0. -1.
        -11    1    4    4    0    0  0.98521336214E+01 -0.75239907571E+01 -0.16828776219E+01  0.12510277821E+02  0.51100000000E-03 0.  1.
         12    1    4    4    0    0  0.11496093234E+02  0.29603917113E+02  0.10277862663E+02  0.33379432725E+02  0.00000000000E+00 0. -1.
</event>
<event>
 8    1  0.2502431E-006  0.9118800E+02  0.7816164E-02  0.1184000E+00
        -11   -1    0    0    0    0  0.00000000000E+00  0.00000000000E+00  0.45593999997E+02  0.45594000000E+02  0.51100000000E-03 0.  1.
         11   -1    0    0    0    0 -0.00000000000E+00 -0.00000000000E+00 -0.45593999997E+02  0.45594000000E+02  0.51100000000E-03 0. -1.
         23    2    1    2    0    0  0.00000000000E+00  0.00000000000E+00  0.00000000000E+00  0.91188000000E+02  0.91188000000E+02 0.  0.
    9900012    2    3    3    0    0 -0.69218413264E+01 -0.34815770047E+02 -0.97841765470E+01  0.54367084178E+02  0.40000000000E+02 0.  0.
         12    1    3    3    0    0  0.69218413264E+01  0.34815770047E+02  0.97841765470E+01  0.36820915822E+02  0.00000000000E+00 0. -1.
         11    1    4    4    0    0 -0.69681562930E+01  0.63325937346E+01 -0.61191558414E+01  0.11229470780E+02  0.51100000000E-03 0. -1.
        -11    1    4    4    0    0  0.47316129093E-02 -0.32646649869E+02  0.23376923046E+01  0.32730239468E+02  0.51100000000E-03 0.  1.
         12    1    4    4    0    0  0.41583353716E-01 -0.85017139126E+01 -0.60027130102E+01  0.10407373930E+02  0.00000000000E+00 0. -1.
</event>
<event>
 8    1  0.2502431E-006  0.9118800E+02  0.7816164E-02  0.1184000E+00
        -11   -1    0    0    0    0  0.00000000000E+00  0.00000000000E+00  0.45593999997E+02  0.45594000000E+02  0.51100000000E-03 0. -1.
         11   -1    0    0    0    0 -0.00000000000E+00 -0.00000000000E+00 -0.45593999997E+02  0.45594000000E+02  0.51100000000E-03 0.  1.
         23    2    1    2    0    0  0.00000000000E+00  0.00000000000E+00  0.35527136788E-14  0.91188000000E+02  0.91188000000E+02 0.  0.
    9900012    2    3    3    0    0  0.67897382222E+01 -0.25653487326E+02 -0.25526025994E+02  0.54367082573E+02  0.39999996342E+02 0.  0.
         12    1    3    3    0    0 -0.67897382222E+01  0.25653487326E+02  0.25526025994E+02  0.36820917427E+02  0.00000000000E+00 0. -1.
         11    1    4    4    0    0  0.21965600713E+01 -0.51818651857E+01 -0.77891179420E+01  0.96097326459E+01  0.51100000000E-03 0. -1.
        -11    1    4    4    0    0  0.32297966217E+01 -0.53027868018E+01 -0.26478646769E+02  0.27196872414E+02  0.51100000000E-03 0.  1.
         12    1    4    4    0    0  0.13633815291E+01 -0.15168835338E+02  0.87417387173E+01  0.17560477514E+02  0.00000000000E+00 0. -1.
</event>
<event>
 8    1  0.2502431E-006  0.9118800E+02  0.7816164E-02  0.1184000E+00
        -11   -1    0    0    0    0  0.00000000000E+00  0.00000000000E+00  0.45593999997E+02  0.45594000000E+02  0.51100000000E-03 0.  1.
         11   -1    0    0    0    0 -0.00000000000E+00 -0.00000000000E+00 -0.45593999997E+02  0.45594000000E+02  0.51100000000E-03 0. -1.
         23    2    1    2    0    0  0.00000000000E+00  0.00000000000E+00  0.00000000000E+00  0.91188000000E+02  0.91188000000E+02 0.  0.
    9900012    2    3    3    0    0  0.99318948457E+01 -0.78409814816E+01  0.34578267126E+02  0.54367080901E+02  0.39999992530E+02 0.  0.
         12    1    3    3    0    0 -0.99318948457E+01  0.78409814816E+01 -0.34578267126E+02  0.36820919099E+02  0.00000000000E+00 0. -1.
         11    1    4    4    0    0  0.19922868459E+02  0.43749046789E+01  0.69777300112E+01  0.21558042465E+02  0.51100000000E-03 0. -1.
        -11    1    4    4    0    0 -0.37091194029E+01 -0.63987563059E+01  0.58365905291E+01  0.94216473227E+01  0.51100000000E-03 0.  1.
         12    1    4    4    0    0 -0.62818542101E+01 -0.58171298546E+01  0.21763946586E+02  0.23387391113E+02  0.00000000000E+00 0. -1.
</event>
<event>
 8    1  0.2502431E-006  0.9118800E+02  0.7816164E-02  0.1184000E+00
        -11   -1    0    0    0    0  0.00000000000E+00  0.00000000000E+00  0.45593999997E+02  0.45594000000E+02  0.51100000000E-03 0.  1.
         11   -1    0    0    0    0 -0.00000000000E+00 -0.00000000000E+00 -0.45593999997E+02  0.45594000000E+02  0.51100000000E-03 0. -1.
         23    2    1    2    0    0 -0.35527136788E-14  0.00000000000E+00  0.00000000000E+00  0.91188000000E+02  0.91188000000E+02 0.  0.
    9900012    2    3    3    0    0 -0.31351007352E+02 -0.75544139440E+01  0.17771438303E+02  0.54367097629E+02  0.40000030665E+02 0.  0.
         12    1    3    3    0    0  0.31351007352E+02  0.75544139440E+01 -0.17771438303E+02  0.36820902371E+02  0.00000000000E+00 0. -1.
         11    1    4    4    0    0 -0.83364602203E+01 -0.88345891528E+01 -0.10108673654E+02  0.15802905360E+02  0.51100000000E-03 0. -1.
        -11    1    4    4    0    0 -0.17083330136E+02  0.37830519432E+01  0.26845024638E+02  0.32043829338E+02  0.51100000000E-03 0.  1.
         12    1    4    4    0    0 -0.59312169959E+01 -0.25028767345E+01  0.10350873194E+01  0.65203629316E+01  0.00000000000E+00 0. -1.
</event>
<event>
 8    1  0.2502431E-006  0.9118800E+02  0.7816164E-02  0.1184000E+00
        -11   -1    0    0    0    0  0.00000000000E+00  0.00000000000E+00  0.45593999997E+02  0.45594000000E+02  0.51100000000E-03 0.  1.
         11   -1    0    0    0    0 -0.00000000000E+00 -0.00000000000E+00 -0.45593999997E+02  0.45594000000E+02  0.51100000000E-03 0. -1.
         23    2    1    2    0    0  0.00000000000E+00 -0.71054273576E-14  0.17763568394E-14  0.91188000000E+02  0.91188000000E+02 0.  0.
    9900012    2    3    3    0    0  0.25503105164E+02 -0.21671348172E+02  0.15353247907E+02  0.54367110197E+02  0.40000059315E+02 0.  0.
         12    1    3    3    0    0 -0.25503105164E+02  0.21671348172E+02 -0.15353247907E+02  0.36820889803E+02  0.00000000000E+00 0. -1.
         11    1    4    4    0    0  0.13844348114E+02 -0.38594996435E+01 -0.93864300321E+01  0.17165860923E+02  0.51100000000E-03 0. -1.
        -11    1    4    4    0    0  0.38459594971E+01  0.32056189127E+01  0.70184869589E+01  0.86212850852E+01  0.51100000000E-03 0.  1.
        -12    1    4    4    0    0  0.78127975526E+01 -0.21017467442E+02  0.17721190981E+02  0.28579964189E+02  0.00000000000E+00 0.  1.
</event>
<event>
 8    1  0.2502431E-006  0.9118800E+02  0.7816164E-02  0.1184000E+00
        -11   -1    0    0    0    0  0.00000000000E+00  0.00000000000E+00  0.45593999997E+02  0.45594000000E+02  0.51100000000E-03 0.  1.
         11   -1    0    0    0    0 -0.00000000000E+00 -0.00000000000E+00 -0.45593999997E+02  0.45594000000E+02  0.51100000000E-03 0. -1.
         23    2    1    2    0    0  0.00000000000E+00  0.00000000000E+00  0.00000000000E+00  0.91188000000E+02  0.91188000000E+02 0.  0.
    9900012    2    3    3    0    0 -0.16874122664E+02  0.66826047096E+01  0.32037273657E+02  0.54367080338E+02  0.39999991247E+02 0.  0.
         12    1    3    3    0    0  0.16874122664E+02 -0.66826047096E+01 -0.32037273657E+02  0.36820919662E+02  0.00000000000E+00 0. -1.
         11    1    4    4    0    0 -0.25906491804E+02  0.52419352185E+01  0.84602176956E+01  0.27752468109E+02  0.51100000000E-03 0.  1.
        -11    1    4    4    0    0  0.69191015380E+01  0.39640803217E+01  0.10827382719E+02  0.13446937038E+02  0.51100000000E-03 0. -1.
        -12    1    4    4    0    0  0.21132676012E+01 -0.25234108307E+01  0.12749673242E+02  0.13167675192E+02  0.00000000000E+00 0.  1.
</event>
<event>
 8    1  0.2502431E-006  0.9118800E+02  0.7816164E-02  0.1184000E+00
        -11   -1    0    0    0    0  0.00000000000E+00  0.00000000000E+00  0.45593999997E+02  0.45594000000E+02  0.51100000000E-03 0.  1.
         11   -1    0    0    0    0 -0.00000000000E+00 -0.00000000000E+00 -0.45593999997E+02  0.45594000000E+02  0.51100000000E-03 0. -1.
         23    2    1    2    0    0 -0.35527136788E-14  0.00000000000E+00  0.35527136788E-14  0.91188000000E+02  0.91188000000E+02 0.  0.
    9900012    2    3    3    0    0  0.18769021759E+02 -0.53187802033E+01 -0.31228358653E+02  0.54367136556E+02  0.40000119405E+02 0.  0.
        -12    1    3    3    0    0 -0.18769021759E+02  0.53187802033E+01  0.31228358653E+02  0.36820863444E+02  0.00000000000E+00 0.  1.
         11    1    4    4    0    0  0.97609203243E+01 -0.74789168166E+00 -0.80037682761E+01  0.12644967949E+02  0.51100000000E-03 0. -1.
        -11    1    4    4    0    0  0.89151382974E+01 -0.16286519538E+02 -0.36696161314E+01  0.18926079688E+02  0.51100000000E-03 0.  1.
         12    1    4    4    0    0  0.92963136742E-01  0.11715631017E+02 -0.19554974246E+02  0.22796088919E+02  0.00000000000E+00 0. -1.
</event>
<event>
 8    1  0.2502431E-006  0.9118800E+02  0.7816164E-02  0.1184000E+00
        -11   -1    0    0    0    0  0.00000000000E+00  0.00000000000E+00  0.45593999997E+02  0.45594000000E+02  0.51100000000E-03 0. -1.
         11   -1    0    0    0    0 -0.00000000000E+00 -0.00000000000E+00 -0.45593999997E+02  0.45594000000E+02  0.51100000000E-03 0.  1.
         23    2    1    2    0    0  0.35527136788E-14 -0.35527136788E-14  0.00000000000E+00  0.91188000000E+02  0.91188000000E+02 0.  0.
    9900012    2    3    3    0    0 -0.29084405240E+02  0.19605555348E+02  0.11203051810E+02  0.54366962556E+02  0.39999722737E+02 0.  0.
        -12    1    3    3    0    0  0.29084405240E+02 -0.19605555348E+02 -0.11203051810E+02  0.36821037444E+02  0.00000000000E+00 0.  1.
         11    1    4    4    0    0 -0.31454891935E+02  0.15981132228E+01  0.14860502191E+02  0.34825259771E+02  0.51100000000E-03 0. -1.
        -11    1    4    4    0    0  0.51323912541E+00  0.15134131989E+01 -0.24164923765E+01  0.28971140083E+01  0.51100000000E-03 0.  1.
        -12    1    4    4    0    0  0.18572475697E+01  0.16494028926E+02 -0.12409580054E+01  0.16644588776E+02  0.00000000000E+00 0.  1.
</event>
<event>
 8    1  0.2502431E-006  0.9118800E+02  0.7816164E-02  0.1184000E+00
        -11   -1    0    0    0    0  0.00000000000E+00  0.00000000000E+00  0.45593999997E+02  0.45594000000E+02  0.51100000000E-03 0. -1.
         11   -1    0    0    0    0 -0.00000000000E+00 -0.00000000000E+00 -0.45593999997E+02  0.45594000000E+02  0.51100000000E-03 0.  1.
         23    2    1    2    0    0  0.00000000000E+00 -0.17763568394E-14  0.35527136788E-14  0.91188000000E+02  0.91188000000E+02 0.  0.
    9900012    2    3    3    0    0 -0.19315728455E+02 -0.10701731642E+02  0.29464471044E+02  0.54367089096E+02  0.40000011213E+02 0.  0.
        -12    1    3    3    0    0  0.19315728455E+02  0.10701731642E+02 -0.29464471044E+02  0.36820910904E+02  0.00000000000E+00 0.  1.
         11    1    4    4    0    0 -0.15984213815E+02 -0.41969621065E+01  0.13664966195E+02  0.21443900848E+02  0.51100000000E-03 0. -1.
        -11    1    4    4    0    0 -0.32780252866E+01  0.56794811209E+01 -0.53845734975E+01  0.84850213667E+01  0.51100000000E-03 0.  1.
         12    1    4    4    0    0 -0.53489353850E-01 -0.12184250657E+02  0.21184078346E+02  0.24438166882E+02  0.00000000000E+00 0. -1.
</event>
<event>
 8    1  0.2502431E-006  0.9118800E+02  0.7816164E-02  0.1184000E+00
        -11   -1    0    0    0    0  0.00000000000E+00  0.00000000000E+00  0.45593999997E+02  0.45594000000E+02  0.51100000000E-03 0.  1.
         11   -1    0    0    0    0 -0.00000000000E+00 -0.00000000000E+00 -0.45593999997E+02  0.45594000000E+02  0.51100000000E-03 0. -1.
         23    2    1    2    0    0 -0.35527136788E-14  0.35527136788E-14  0.35527136788E-14  0.91188000000E+02  0.91188000000E+02 0.  0.
    9900012    2    3    3    0    0  0.83224772480E+01 -0.29872902993E+02 -0.19852616421E+02  0.54367077422E+02  0.39999984598E+02 0.  0.
         12    1    3    3    0    0 -0.83224772480E+01  0.29872902993E+02  0.19852616421E+02  0.36820922578E+02  0.00000000000E+00 0. -1.
         11    1    4    4    0    0 -0.82209819800E+01 -0.82856056789E+01 -0.12956721301E+02  0.17438819723E+02  0.51100000000E-03 0. -1.
        -11    1    4    4    0    0  0.53243195052E+01 -0.24182204798E+02 -0.48850837409E+01  0.25238689556E+02  0.51100000000E-03 0.  1.
         12    1    4    4    0    0  0.11219139723E+02  0.25949074840E+01 -0.20108113787E+01  0.11689568143E+02  0.00000000000E+00 0. -1.
</event>
<event>
 8    1  0.2502431E-006  0.9118800E+02  0.7816164E-02  0.1184000E+00
        -11   -1    0    0    0    0  0.00000000000E+00  0.00000000000E+00  0.45593999997E+02  0.45594000000E+02  0.51100000000E-03 0. -1.
         11   -1    0    0    0    0 -0.00000000000E+00 -0.00000000000E+00 -0.45593999997E+02  0.45594000000E+02  0.51100000000E-03 0.  1.
         23    2    1    2    0    0  0.71054273576E-14  0.17763568394E-14  0.88817841970E-15  0.91188000000E+02  0.91188000000E+02 0.  0.
    9900012    2    3    3    0    0 -0.32601305116E+02 -0.15431790013E+02  0.74025837972E+01  0.54367034707E+02  0.39999887221E+02 0.  0.
         12    1    3    3    0    0  0.32601305116E+02  0.15431790013E+02 -0.74025837972E+01  0.36820965293E+02  0.00000000000E+00 0. -1.
         11    1    4    4    0    0 -0.12653995745E+02 -0.10940436262E+02 -0.24730112082E+01  0.16909539870E+02  0.51100000000E-03 0. -1.
        -11    1    4    4    0    0 -0.11018562597E+02 -0.89274089937E+01 -0.85128508735E+01  0.16540132505E+02  0.51100000000E-03 0.  1.
         12    1    4    4    0    0 -0.89287467736E+01  0.44360552425E+01  0.18388445879E+02  0.20917362331E+02  0.00000000000E+00 0. -1.
</event>
<event>
 8    1  0.2502431E-006  0.9118800E+02  0.7816164E-02  0.1184000E+00
        -11   -1    0    0    0    0  0.00000000000E+00  0.00000000000E+00  0.45593999997E+02  0.45594000000E+02  0.51100000000E-03 0.  1.
         11   -1    0    0    0    0 -0.00000000000E+00 -0.00000000000E+00 -0.45593999997E+02  0.45594000000E+02  0.51100000000E-03 0. -1.
         23    2    1    2    0    0  0.00000000000E+00  0.00000000000E+00  0.00000000000E+00  0.91188000000E+02  0.91188000000E+02 0.  0.
    9900012    2    3    3    0    0 -0.79965873456E+01  0.13996072007E+01 -0.35914832565E+02  0.54367088718E+02  0.40000010350E+02 0.  0.
        -12    1    3    3    0    0  0.79965873456E+01 -0.13996072007E+01  0.35914832565E+02  0.36820911282E+02  0.00000000000E+00 0.  1.
         11    1    4    4    0    0  0.21030124097E+01  0.36917802842E+01 -0.17627812880E+01  0.45999240203E+01  0.51100000000E-03 0. -1.
        -11    1    4    4    0    0 -0.14867210928E+02 -0.14866178306E+00  0.34930795591E+00  0.14872056933E+02  0.51100000000E-03 0.  1.
         12    1    4    4    0    0  0.47676111731E+01 -0.21435113004E+01 -0.34501359233E+02  0.34895107764E+02  0.00000000000E+00 0. -1.
</event>
<event>
 8    1  0.2502431E-006  0.9118800E+02  0.7816164E-02  0.1184000E+00
        -11   -1    0    0    0    0  0.00000000000E+00  0.00000000000E+00  0.45593999997E+02  0.45594000000E+02  0.51100000000E-03 0.  1.
         11   -1    0    0    0    0 -0.00000000000E+00 -0.00000000000E+00 -0.45593999997E+02  0.45594000000E+02  0.51100000000E-03 0. -1.
         23    2    1    2    0    0  0.17763568394E-14  0.00000000000E+00  0.35527136788E-14  0.91188000000E+02  0.91188000000E+02 0.  0.
    9900012    2    3    3    0    0 -0.11244702947E+02  0.16503284215E+02 -0.30935096317E+02  0.54367055982E+02  0.39999935723E+02 0.  0.
        -12    1    3    3    0    0  0.11244702947E+02 -0.16503284215E+02  0.30935096317E+02  0.36820944018E+02  0.00000000000E+00 0.  1.
         11    1    4    4    0    0  0.99827897277E+01  0.15402112765E+02 -0.26015680336E+02  0.31838605371E+02  0.51100000000E-03 0. -1.
        -11    1    4    4    0    0 -0.12253727492E+02 -0.19280105402E+01 -0.16756867306E+01  0.12517147773E+02  0.51100000000E-03 0.  1.
         12    1    4    4    0    0 -0.89737651819E+01  0.30291819905E+01 -0.32437292497E+01  0.10011302838E+02  0.00000000000E+00 0. -1.
</event>
<event>
 8    1  0.2502431E-006  0.9118800E+02  0.7816164E-02  0.1184000E+00
        -11   -1    0    0    0    0  0.00000000000E+00  0.00000000000E+00  0.45593999997E+02  0.45594000000E+02  0.51100000000E-03 0. -1.
         11   -1    0    0    0    0 -0.00000000000E+00 -0.00000000000E+00 -0.45593999997E+02  0.45594000000E+02  0.51100000000E-03 0.  1.
         23    2    1    2    0    0  0.00000000000E+00  0.35527136788E-14 -0.35527136788E-14  0.91188000000E+02  0.91188000000E+02 0.  0.
    9900012    2    3    3    0    0  0.14750619757E+02  0.22716865584E+02  0.24942786133E+02  0.54367090923E+02  0.40000015377E+02 0.  0.
        -12    1    3    3    0    0 -0.14750619757E+02 -0.22716865584E+02 -0.24942786133E+02  0.36820909077E+02  0.00000000000E+00 0.  1.
         11    1    4    4    0    0  0.36920334115E+01  0.25664142746E+02  0.22478323130E+01  0.26025604392E+02  0.51100000000E-03 0. -1.
        -11    1    4    4    0    0  0.69348375280E+01  0.18123176642E+01  0.31908338115E+01  0.78458834767E+01  0.51100000000E-03 0.  1.
         12    1    4    4    0    0  0.41237488178E+01 -0.47595948268E+01  0.19504120009E+02  0.20495603054E+02  0.00000000000E+00 0. -1.
</event>
<event>
 8    1  0.2502431E-006  0.9118800E+02  0.7816164E-02  0.1184000E+00
        -11   -1    0    0    0    0  0.00000000000E+00  0.00000000000E+00  0.45593999997E+02  0.45594000000E+02  0.51100000000E-03 0.  1.
         11   -1    0    0    0    0 -0.00000000000E+00 -0.00000000000E+00 -0.45593999997E+02  0.45594000000E+02  0.51100000000E-03 0. -1.
         23    2    1    2    0    0  0.00000000000E+00 -0.35527136788E-14  0.00000000000E+00  0.91188000000E+02  0.91188000000E+02 0.  0.
    9900012    2    3    3    0    0 -0.17895900902E+02 -0.31319912693E+02  0.73877528663E+01  0.54367094354E+02  0.40000023198E+02 0.  0.
        -12    1    3    3    0    0  0.17895900902E+02  0.31319912693E+02 -0.73877528663E+01  0.36820905646E+02  0.00000000000E+00 0.  1.
         11    1    4    4    0    0 -0.81920896344E+01 -0.31471019669E+02  0.27737464980E+01  0.32637847379E+02  0.51100000000E-03 0. -1.
        -11    1    4    4    0    0  0.32199363391E+01 -0.26779595682E+01 -0.41213140878E+01  0.58757712301E+01  0.51100000000E-03 0.  1.
         12    1    4    4    0    0 -0.12923747607E+02  0.28290665446E+01  0.87353204560E+01  0.15853475745E+02  0.00000000000E+00 0. -1.
</event>
<event>
 8    1  0.2502431E-006  0.9118800E+02  0.7816164E-02  0.1184000E+00
        -11   -1    0    0    0    0  0.00000000000E+00  0.00000000000E+00  0.45593999997E+02  0.45594000000E+02  0.51100000000E-03 0.  1.
         11   -1    0    0    0    0 -0.00000000000E+00 -0.00000000000E+00 -0.45593999997E+02  0.45594000000E+02  0.51100000000E-03 0. -1.
         23    2    1    2    0    0  0.35527136788E-14  0.00000000000E+00  0.00000000000E+00  0.91188000000E+02  0.91188000000E+02 0.  0.
    9900012    2    3    3    0    0  0.30010529262E+02 -0.11806363913E+02  0.17769746185E+02  0.54367000898E+02  0.39999810146E+02 0.  0.
         12    1    3    3    0    0 -0.30010529262E+02  0.11806363913E+02 -0.17769746185E+02  0.36820999102E+02  0.00000000000E+00 0. -1.
         11    1    4    4    0    0  0.31971946453E+01 -0.64771006112E+01 -0.75431692214E+01  0.10443863657E+02  0.51100000000E-03 0. -1.
        -11    1    4    4    0    0  0.25086148876E+02  0.16714700544E+01  0.26596713551E+02  0.36599096294E+02  0.51100000000E-03 0.  1.
        -12    1    4    4    0    0  0.17271857403E+01 -0.70007333564E+01 -0.12837981447E+01  0.73240409464E+01  0.00000000000E+00 0.  1.
</event>
<event>
 8    1  0.2502431E-006  0.9118800E+02  0.7816164E-02  0.1184000E+00
        -11   -1    0    0    0    0  0.00000000000E+00  0.00000000000E+00  0.45593999997E+02  0.45594000000E+02  0.51100000000E-03 0.  1.
         11   -1    0    0    0    0 -0.00000000000E+00 -0.00000000000E+00 -0.45593999997E+02  0.45594000000E+02  0.51100000000E-03 0. -1.
         23    2    1    2    0    0  0.00000000000E+00  0.71054273576E-14  0.17763568394E-14  0.91188000000E+02  0.91188000000E+02 0.  0.
    9900012    2    3    3    0    0 -0.34131960372E+01  0.35365255846E+02  0.96658134938E+01  0.54367093185E+02  0.40000020533E+02 0.  0.
        -12    1    3    3    0    0  0.34131960372E+01 -0.35365255846E+02 -0.96658134938E+01  0.36820906815E+02  0.00000000000E+00 0.  1.
         11    1    4    4    0    0 -0.15469039362E+02  0.22207780777E+02  0.85023304994E+00  0.27077658730E+02  0.51100000000E-03 0. -1.
        -11    1    4    4    0    0  0.12109625144E+00  0.10770066221E+01  0.10194462323E+02  0.10251910548E+02  0.51100000000E-03 0.  1.
        -12    1    4    4    0    0  0.11934747074E+02  0.12080468447E+02 -0.13788818792E+01  0.17037523906E+02  0.00000000000E+00 0.  1.
</event>
<event>
 8    1  0.2502431E-006  0.9118800E+02  0.7816164E-02  0.1184000E+00
        -11   -1    0    0    0    0  0.00000000000E+00  0.00000000000E+00  0.45593999997E+02  0.45594000000E+02  0.51100000000E-03 0. -1.
         11   -1    0    0    0    0 -0.00000000000E+00 -0.00000000000E+00 -0.45593999997E+02  0.45594000000E+02  0.51100000000E-03 0.  1.
         23    2    1    2    0    0 -0.35527136788E-14  0.00000000000E+00  0.00000000000E+00  0.91188000000E+02  0.91188000000E+02 0.  0.
    9900012    2    3    3    0    0 -0.12770606030E+02 -0.18226378372E+02  0.29334018337E+02  0.54367165154E+02  0.40000184601E+02 0.  0.
        -12    1    3    3    0    0  0.12770606030E+02  0.18226378372E+02 -0.29334018337E+02  0.36820834846E+02  0.00000000000E+00 0.  1.
         11    1    4    4    0    0  0.67516705609E+01 -0.11895722055E+02  0.63867928646E+01  0.15095839888E+02  0.51100000000E-03 0. -1.
        -11    1    4    4    0    0  0.48435651320E+01 -0.41617339953E+01  0.11131592472E+01  0.64822277657E+01  0.51100000000E-03 0.  1.
         12    1    4    4    0    0 -0.24365841723E+02 -0.21689223215E+01  0.21834066226E+02  0.32789097500E+02  0.00000000000E+00 0. -1.
</event>
<event>
 8    1  0.2502431E-006  0.9118800E+02  0.7816164E-02  0.1184000E+00
        -11   -1    0    0    0    0  0.00000000000E+00  0.00000000000E+00  0.45593999997E+02  0.45594000000E+02  0.51100000000E-03 0.  1.
         11   -1    0    0    0    0 -0.00000000000E+00 -0.00000000000E+00 -0.45593999997E+02  0.45594000000E+02  0.51100000000E-03 0. -1.
         23    2    1    2    0    0  0.00000000000E+00  0.97144514655E-16  0.00000000000E+00  0.91188000000E+02  0.91188000000E+02 0.  0.
    9900012    2    3    3    0    0 -0.18902522558E+02  0.43821161989E-01 -0.31598626186E+02  0.54367075837E+02  0.39999980986E+02 0.  0.
        -12    1    3    3    0    0  0.18902522558E+02 -0.43821161989E-01  0.31598626186E+02  0.36820924163E+02  0.00000000000E+00 0.  1.
         11    1    4    4    0    0  0.18666428413E+01 -0.84846010927E+01 -0.39201498457E+01  0.95310223099E+01  0.51100000000E-03 0. -1.
        -11    1    4    4    0    0 -0.11436274381E+02 -0.51643034803E+01  0.32647296926E-01  0.12548285471E+02  0.51100000000E-03 0.  1.
        -12    1    4    4    0    0 -0.93328910184E+01  0.13692725735E+02 -0.27711123637E+02  0.32287768056E+02  0.00000000000E+00 0.  1.
</event>
<event>
 8    1  0.2502431E-006  0.9118800E+02  0.7816164E-02  0.1184000E+00
        -11   -1    0    0    0    0  0.00000000000E+00  0.00000000000E+00  0.45593999997E+02  0.45594000000E+02  0.51100000000E-03 0.  1.
         11   -1    0    0    0    0 -0.00000000000E+00 -0.00000000000E+00 -0.45593999997E+02  0.45594000000E+02  0.51100000000E-03 0. -1.
         23    2    1    2    0    0  0.00000000000E+00  0.35527136788E-14  0.00000000000E+00  0.91188000000E+02  0.91188000000E+02 0.  0.
    9900012    2    3    3    0    0 -0.17873986195E+02 -0.19760501419E+02 -0.25413056565E+02  0.54367078735E+02  0.39999987591E+02 0.  0.
        -12    1    3    3    0    0  0.17873986195E+02  0.19760501419E+02  0.25413056565E+02  0.36820921265E+02  0.00000000000E+00 0.  1.
         11    1    4    4    0    0 -0.18038408872E+01  0.43094923172E+01 -0.29728656474E+01  0.55374629928E+01  0.51100000000E-03 0. -1.
        -11    1    4    4    0    0  0.53032905921E+01 -0.22850572012E+01  0.51129731232E+01  0.77129029513E+01  0.51100000000E-03 0.  1.
         12    1    4    4    0    0 -0.21373435900E+02 -0.21784936535E+02 -0.27553164041E+02  0.41116712790E+02  0.00000000000E+00 0. -1.
</event>
<event>
 8    1  0.2502431E-006  0.9118800E+02  0.7816164E-02  0.1184000E+00
        -11   -1    0    0    0    0  0.00000000000E+00  0.00000000000E+00  0.45593999997E+02  0.45594000000E+02  0.51100000000E-03 0.  1.
         11   -1    0    0    0    0 -0.00000000000E+00 -0.00000000000E+00 -0.45593999997E+02  0.45594000000E+02  0.51100000000E-03 0. -1.
         23    2    1    2    0    0  0.17763568394E-14 -0.88817841970E-15  0.00000000000E+00  0.91188000000E+02  0.91188000000E+02 0.  0.
    9900012    2    3    3    0    0 -0.87950158085E+01 -0.21389650518E+01  0.35691054237E+02  0.54367097959E+02  0.40000031416E+02 0.  0.
         12    1    3    3    0    0  0.87950158085E+01  0.21389650518E+01 -0.35691054237E+02  0.36820902041E+02  0.00000000000E+00 0. -1.
         11    1    4    4    0    0  0.56376699736E+00 -0.83064020289E+01 -0.63079157689E+01  0.10445283601E+02  0.51100000000E-03 0. -1.
        -11    1    4    4    0    0 -0.54585496351E+00 -0.39243555705E+00  0.11233103821E+02  0.11253203323E+02  0.51100000000E-03 0.  1.
         12    1    4    4    0    0 -0.88129278423E+01  0.65598725342E+01  0.30765866186E+02  0.32668611035E+02  0.00000000000E+00 0. -1.
</event>
<event>
 8    1  0.2502431E-006  0.9118800E+02  0.7816164E-02  0.1184000E+00
        -11   -1    0    0    0    0  0.00000000000E+00  0.00000000000E+00  0.45593999997E+02  0.45594000000E+02  0.51100000000E-03 0.  1.
         11   -1    0    0    0    0 -0.00000000000E+00 -0.00000000000E+00 -0.45593999997E+02  0.45594000000E+02  0.51100000000E-03 0. -1.
         23    2    1    2    0    0  0.00000000000E+00 -0.88817841970E-15  0.00000000000E+00  0.91188000000E+02  0.91188000000E+02 0.  0.
    9900012    2    3    3    0    0 -0.31411975273E+02 -0.49753396446E+01  0.18555251490E+02  0.54367305371E+02  0.40000504250E+02 0.  0.
         12    1    3    3    0    0  0.31411975273E+02  0.49753396446E+01 -0.18555251490E+02  0.36820694629E+02  0.00000000000E+00 0. -1.
         11    1    4    4    0    0 -0.11196873866E+02  0.14724006132E+02  0.51361746546E+01  0.19197568369E+02  0.51100000000E-03 0. -1.
        -11    1    4    4    0    0 -0.21534767214E+02 -0.18435521048E+02  0.15573960723E+02  0.32344441379E+02  0.51100000000E-03 0.  1.
        -12    1    4    4    0    0  0.13196658062E+01 -0.12638247289E+01 -0.21548838877E+01  0.28252956225E+01  0.00000000000E+00 0.  1.
</event>
<event>
 8    1  0.2502431E-006  0.9118800E+02  0.7816164E-02  0.1184000E+00
        -11   -1    0    0    0    0  0.00000000000E+00  0.00000000000E+00  0.45593999997E+02  0.45594000000E+02  0.51100000000E-03 0.  1.
         11   -1    0    0    0    0 -0.00000000000E+00 -0.00000000000E+00 -0.45593999997E+02  0.45594000000E+02  0.51100000000E-03 0. -1.
         23    2    1    2    0    0  0.00000000000E+00  0.00000000000E+00  0.35527136788E-14  0.91188000000E+02  0.91188000000E+02 0.  0.
    9900012    2    3    3    0    0 -0.24388833917E+02  0.33869368075E+01  0.27376906707E+02  0.54367060555E+02  0.39999946146E+02 0.  0.
         12    1    3    3    0    0  0.24388833917E+02 -0.33869368075E+01 -0.27376906707E+02  0.36820939445E+02  0.00000000000E+00 0. -1.
         11    1    4    4    0    0 -0.20621341781E+01  0.32026838686E+01 -0.44536029240E+01  0.58603891165E+01  0.51100000000E-03 0. -1.
        -11    1    4    4    0    0 -0.25782616183E+02  0.73229037217E+01  0.17146895525E+02  0.31817986149E+02  0.51100000000E-03 0.  1.
        -12    1    4    4    0    0  0.34559164440E+01 -0.71386507828E+01  0.14683614106E+02  0.16688685289E+02  0.00000000000E+00 0.  1.
</event>
<event>
 8    1  0.2502431E-006  0.9118800E+02  0.7816164E-02  0.1184000E+00
        -11   -1    0    0    0    0  0.00000000000E+00  0.00000000000E+00  0.45593999997E+02  0.45594000000E+02  0.51100000000E-03 0. -1.
         11   -1    0    0    0    0 -0.00000000000E+00 -0.00000000000E+00 -0.45593999997E+02  0.45594000000E+02  0.51100000000E-03 0.  1.
         23    2    1    2    0    0  0.00000000000E+00  0.71054273576E-14  0.35527136788E-14  0.91188000000E+02  0.91188000000E+02 0.  0.
    9900012    2    3    3    0    0 -0.62784311609E+01  0.32464494857E+02  0.16199302169E+02  0.54367088619E+02  0.40000010124E+02 0.  0.
         12    1    3    3    0    0  0.62784311609E+01 -0.32464494857E+02 -0.16199302169E+02  0.36820911381E+02  0.00000000000E+00 0. -1.
         11    1    4    4    0    0 -0.27386063558E+01 -0.23371535077E+01  0.67947126253E+01  0.76896275081E+01  0.51100000000E-03 0. -1.
        -11    1    4    4    0    0  0.37999299920E+00  0.38967333970E+02  0.11427773711E+02  0.40610239148E+02  0.51100000000E-03 0.  1.
         12    1    4    4    0    0 -0.39198178044E+01 -0.41656856047E+01 -0.20231841671E+01  0.60672219632E+01  0.00000000000E+00 0. -1.
</event>
<event>
 8    1  0.2502431E-006  0.9118800E+02  0.7816164E-02  0.1184000E+00
        -11   -1    0    0    0    0  0.00000000000E+00  0.00000000000E+00  0.45593999997E+02  0.45594000000E+02  0.51100000000E-03 0.  1.
         11   -1    0    0    0    0 -0.00000000000E+00 -0.00000000000E+00 -0.45593999997E+02  0.45594000000E+02  0.51100000000E-03 0. -1.
         23    2    1    2    0    0  0.00000000000E+00  0.00000000000E+00 -0.17763568394E-14  0.91188000000E+02  0.91188000000E+02 0.  0.
    9900012    2    3    3    0    0 -0.14117435006E+02  0.33988653087E+02 -0.11165990104E+01  0.54367118653E+02  0.40000078594E+02 0.  0.
         12    1    3    3    0    0  0.14117435006E+02 -0.33988653087E+02  0.11165990104E+01  0.36820881347E+02  0.00000000000E+00 0. -1.
         11    1    4    4    0    0  0.48094456692E+01  0.13527028239E+02  0.10801390792E+02  0.17966115438E+02  0.51100000000E-03 0. -1.
        -11    1    4    4    0    0 -0.74100051550E+01  0.95425454959E+01  0.51154340140E+01  0.13120061599E+02  0.51100000000E-03 0.  1.
         12    1    4    4    0    0 -0.11516875520E+02  0.10919079352E+02 -0.17033423817E+02  0.23280941616E+02  0.00000000000E+00 0. -1.
</event>
<event>
 8    1  0.2502431E-006  0.9118800E+02  0.7816164E-02  0.1184000E+00
        -11   -1    0    0    0    0  0.00000000000E+00  0.00000000000E+00  0.45593999997E+02  0.45594000000E+02  0.51100000000E-03 0. -1.
         11   -1    0    0    0    0 -0.00000000000E+00 -0.00000000000E+00 -0.45593999997E+02  0.45594000000E+02  0.51100000000E-03 0.  1.
         23    2    1    2    0    0  0.00000000000E+00  0.00000000000E+00  0.00000000000E+00  0.91188000000E+02  0.91188000000E+02 0.  0.
    9900012    2    3    3    0    0 -0.21341018680E+02  0.27395120096E+02  0.12241295142E+02  0.54367068587E+02  0.39999964459E+02 0.  0.
         12    1    3    3    0    0  0.21341018680E+02 -0.27395120096E+02 -0.12241295142E+02  0.36820931413E+02  0.00000000000E+00 0. -1.
         11    1    4    4    0    0 -0.12976196717E+02 -0.30859183482E+01  0.45297758583E+01  0.14086285631E+02  0.51100000000E-03 0. -1.
        -11    1    4    4    0    0  0.10487609950E+01  0.26391406897E+01 -0.68979727227E+01  0.74596910894E+01  0.51100000000E-03 0.  1.
         12    1    4    4    0    0 -0.94135829578E+01  0.27841897754E+02  0.14609492006E+02  0.32821091867E+02  0.00000000000E+00 0. -1.
</event>
<event>
 8    1  0.2502431E-006  0.9118800E+02  0.7816164E-02  0.1184000E+00
        -11   -1    0    0    0    0  0.00000000000E+00  0.00000000000E+00  0.45593999997E+02  0.45594000000E+02  0.51100000000E-03 0. -1.
         11   -1    0    0    0    0 -0.00000000000E+00 -0.00000000000E+00 -0.45593999997E+02  0.45594000000E+02  0.51100000000E-03 0.  1.
         23    2    1    2    0    0  0.17763568394E-14  0.53290705182E-14 -0.71054273576E-14  0.91188000000E+02  0.91188000000E+02 0.  0.
    9900012    2    3    3    0    0  0.11649694538E+02  0.10162921114E+02 -0.33418244726E+02  0.54367089786E+02  0.40000012785E+02 0.  0.
         12    1    3    3    0    0 -0.11649694538E+02 -0.10162921114E+02  0.33418244726E+02  0.36820910214E+02  0.00000000000E+00 0. -1.
         11    1    4    4    0    0  0.54991465372E+01  0.30174873540E+01 -0.57003848937E+00  0.62984749511E+01  0.51100000000E-03 0. -1.
        -11    1    4    4    0    0  0.29980506252E+01  0.20828288195E+02 -0.20253633880E+02  0.29206430495E+02  0.51100000000E-03 0.  1.
         12    1    4    4    0    0  0.31524973759E+01 -0.13682854435E+02 -0.12594572357E+02  0.18862184340E+02  0.00000000000E+00 0. -1.
</event>
<event>
 8    1  0.2502431E-006  0.9118800E+02  0.7816164E-02  0.1184000E+00
        -11   -1    0    0    0    0  0.00000000000E+00  0.00000000000E+00  0.45593999997E+02  0.45594000000E+02  0.51100000000E-03 0.  1.
         11   -1    0    0    0    0 -0.00000000000E+00 -0.00000000000E+00 -0.45593999997E+02  0.45594000000E+02  0.51100000000E-03 0. -1.
         23    2    1    2    0    0 -0.88817841970E-15  0.00000000000E+00  0.00000000000E+00  0.91188000000E+02  0.91188000000E+02 0.  0.
    9900012    2    3    3    0    0 -0.58376706726E+01  0.53247332914E+01 -0.35963179748E+02  0.54367061920E+02  0.39999949260E+02 0.  0.
        -12    1    3    3    0    0  0.58376706726E+01 -0.53247332914E+01  0.35963179748E+02  0.36820938080E+02  0.00000000000E+00 0.  1.
         11    1    4    4    0    0 -0.68950479680E+01  0.60464065900E+00 -0.28958673011E+02  0.29774351707E+02  0.51100000000E-03 0. -1.
        -11    1    4    4    0    0  0.85530969867E+01 -0.44333114375E+01  0.18569292078E+01  0.98111112883E+01  0.51100000000E-03 0.  1.
         12    1    4    4    0    0 -0.74957196913E+01  0.91534040700E+01 -0.88614359450E+01  0.14781598925E+02  0.00000000000E+00 0. -1.
</event>
<event>
 8    1  0.2502431E-006  0.9118800E+02  0.7816164E-02  0.1184000E+00
        -11   -1    0    0    0    0  0.00000000000E+00  0.00000000000E+00  0.45593999997E+02  0.45594000000E+02  0.51100000000E-03 0.  1.
         11   -1    0    0    0    0 -0.00000000000E+00 -0.00000000000E+00 -0.45593999997E+02  0.45594000000E+02  0.51100000000E-03 0. -1.
         23    2    1    2    0    0  0.00000000000E+00  0.00000000000E+00 -0.17763568394E-14  0.91188000000E+02  0.91188000000E+02 0.  0.
    9900012    2    3    3    0    0  0.23765020822E+02  0.25655245818E+02  0.11524406555E+02  0.54367084760E+02  0.40000001328E+02 0.  0.
        -12    1    3    3    0    0 -0.23765020822E+02 -0.25655245818E+02 -0.11524406555E+02  0.36820915240E+02  0.00000000000E+00 0.  1.
         11    1    4    4    0    0  0.79584989064E+01  0.61220327828E+01 -0.54447594286E+01  0.11422013646E+02  0.51100000000E-03 0. -1.
        -11    1    4    4    0    0  0.16487943128E+02  0.17091081143E+02 -0.19770691536E+01  0.23829941794E+02  0.51100000000E-03 0.  1.
        -12    1    4    4    0    0 -0.68142121261E+00  0.24421318926E+01  0.18946235137E+02  0.19115129320E+02  0.00000000000E+00 0.  1.
</event>
<event>
 8    1  0.2502431E-006  0.9118800E+02  0.7816164E-02  0.1184000E+00
        -11   -1    0    0    0    0  0.00000000000E+00  0.00000000000E+00  0.45593999997E+02  0.45594000000E+02  0.51100000000E-03 0.  1.
         11   -1    0    0    0    0 -0.00000000000E+00 -0.00000000000E+00 -0.45593999997E+02  0.45594000000E+02  0.51100000000E-03 0. -1.
         23    2    1    2    0    0  0.35527136788E-14 -0.35527136788E-14  0.00000000000E+00  0.91188000000E+02  0.91188000000E+02 0.  0.
    9900012    2    3    3    0    0 -0.29160452784E+02  0.21153941128E+02 -0.76134866403E+01  0.54366994981E+02  0.39999796657E+02 0.  0.
         12    1    3    3    0    0  0.29160452784E+02 -0.21153941128E+02  0.76134866403E+01  0.36821005019E+02  0.00000000000E+00 0. -1.
         11    1    4    4    0    0 -0.39362995662E+01  0.54401354721E+01 -0.63410070251E+01  0.92356861458E+01  0.51100000000E-03 0. -1.
        -11    1    4    4    0    0 -0.91549333526E+01  0.18344699773E+02  0.12321243643E+02  0.23919737867E+02  0.51100000000E-03 0.  1.
        -12    1    4    4    0    0 -0.16069219865E+02 -0.26308941168E+01 -0.13593723258E+02  0.21211570968E+02  0.00000000000E+00 0.  1.
</event>
<event>
 8    1  0.2502431E-006  0.9118800E+02  0.7816164E-02  0.1184000E+00
        -11   -1    0    0    0    0  0.00000000000E+00  0.00000000000E+00  0.45593999997E+02  0.45594000000E+02  0.51100000000E-03 0. -1.
         11   -1    0    0    0    0 -0.00000000000E+00 -0.00000000000E+00 -0.45593999997E+02  0.45594000000E+02  0.51100000000E-03 0.  1.
         23    2    1    2    0    0  0.00000000000E+00  0.22204460493E-15 -0.35527136788E-14  0.91188000000E+02  0.91188000000E+02 0.  0.
    9900012    2    3    3    0    0  0.31579732775E+02  0.19257181268E+01 -0.18835915312E+02  0.54367087218E+02  0.40000006931E+02 0.  0.
        -12    1    3    3    0    0 -0.31579732775E+02 -0.19257181268E+01  0.18835915312E+02  0.36820912782E+02  0.00000000000E+00 0.  1.
         11    1    4    4    0    0  0.10355225690E+02 -0.75652853392E+01 -0.19475954919E+02  0.23319027888E+02  0.51100000000E-03 0. -1.
        -11    1    4    4    0    0  0.37202769745E+01 -0.41994156294E+00  0.86275995895E+01  0.94049075818E+01  0.51100000000E-03 0.  1.
        -12    1    4    4    0    0  0.17504230111E+02  0.99109450289E+01 -0.79875599828E+01  0.21643151749E+02  0.00000000000E+00 0.  1.
</event>
<event>
 8    1  0.2502431E-006  0.9118800E+02  0.7816164E-02  0.1184000E+00
        -11   -1    0    0    0    0  0.00000000000E+00  0.00000000000E+00  0.45593999997E+02  0.45594000000E+02  0.51100000000E-03 0. -1.
         11   -1    0    0    0    0 -0.00000000000E+00 -0.00000000000E+00 -0.45593999997E+02  0.45594000000E+02  0.51100000000E-03 0.  1.
         23    2    1    2    0    0 -0.71054273576E-14  0.17763568394E-14 -0.35527136788E-14  0.91188000000E+02  0.91188000000E+02 0.  0.
    9900012    2    3    3    0    0  0.29007286914E+02 -0.11222286835E+02  0.19708303193E+02  0.54367087047E+02  0.40000006541E+02 0.  0.
        -12    1    3    3    0    0 -0.29007286914E+02  0.11222286835E+02 -0.19708303193E+02  0.36820912953E+02  0.00000000000E+00 0.  1.
         11    1    4    4    0    0  0.26876925846E+02  0.13764868088E+01 -0.30842104570E+01  0.27088303994E+02  0.51100000000E-03 0. -1.
        -11    1    4    4    0    0 -0.35356282212E-02  0.10205342788E+01  0.29177067623E+01  0.30910379691E+01  0.51100000000E-03 0.  1.
        -12    1    4    4    0    0  0.21338966963E+01 -0.13619307923E+02  0.19874806888E+02  0.24187745084E+02  0.00000000000E+00 0.  1.
</event>
<event>
 8    1  0.2502431E-006  0.9118800E+02  0.7816164E-02  0.1184000E+00
        -11   -1    0    0    0    0  0.00000000000E+00  0.00000000000E+00  0.45593999997E+02  0.45594000000E+02  0.51100000000E-03 0. -1.
         11   -1    0    0    0    0 -0.00000000000E+00 -0.00000000000E+00 -0.45593999997E+02  0.45594000000E+02  0.51100000000E-03 0.  1.
         23    2    1    2    0    0  0.22204460493E-15  0.17763568394E-14 -0.71054273576E-14  0.91188000000E+02  0.91188000000E+02 0.  0.
    9900012    2    3    3    0    0  0.16522754911E+01 -0.14624065509E+02  0.33751855357E+02  0.54367067823E+02  0.39999962716E+02 0.  0.
        -12    1    3    3    0    0 -0.16522754911E+01  0.14624065509E+02 -0.33751855357E+02  0.36820932177E+02  0.00000000000E+00 0.  1.
         11    1    4    4    0    0 -0.38025444289E+01 -0.11808698711E+02  0.69508275893E+01  0.14220362647E+02  0.51100000000E-03 0. -1.
        -11    1    4    4    0    0  0.81606461897E+01 -0.15179146379E+02  0.15586509593E+02  0.23236650201E+02  0.51100000000E-03 0.  1.
         12    1    4    4    0    0 -0.27058262697E+01  0.12363779581E+02  0.11214518175E+02  0.16910054975E+02  0.00000000000E+00 0. -1.
</event>
<event>
 8    1  0.2502431E-006  0.9118800E+02  0.7816164E-02  0.1184000E+00
        -11   -1    0    0    0    0  0.00000000000E+00  0.00000000000E+00  0.45593999997E+02  0.45594000000E+02  0.51100000000E-03 0.  1.
         11   -1    0    0    0    0 -0.00000000000E+00 -0.00000000000E+00 -0.45593999997E+02  0.45594000000E+02  0.51100000000E-03 0. -1.
         23    2    1    2    0    0  0.00000000000E+00 -0.88817841970E-15  0.00000000000E+00  0.91188000000E+02  0.91188000000E+02 0.  0.
    9900012    2    3    3    0    0 -0.13672528576E+02 -0.26676778384E+01  0.34084111101E+02  0.54367066114E+02  0.39999958819E+02 0.  0.
         12    1    3    3    0    0  0.13672528576E+02  0.26676778384E+01 -0.34084111101E+02  0.36820933886E+02  0.00000000000E+00 0. -1.
         11    1    4    4    0    0 -0.18284795506E+01  0.26997409984E+01 -0.15266673474E+00  0.32642374788E+01  0.51100000000E-03 0. -1.
        -11    1    4    4    0    0 -0.10395503384E+01  0.10011366261E+02  0.30262512203E+02  0.31892440552E+02  0.51100000000E-03 0.  1.
        -12    1    4    4    0    0 -0.10804498687E+02 -0.15378785097E+02  0.39742656330E+01  0.19210388083E+02  0.00000000000E+00 0.  1.
</event>
<event>
 8    1  0.2502431E-006  0.9118800E+02  0.7816164E-02  0.1184000E+00
        -11   -1    0    0    0    0  0.00000000000E+00  0.00000000000E+00  0.45593999997E+02  0.45594000000E+02  0.51100000000E-03 0. -1.
         11   -1    0    0    0    0 -0.00000000000E+00 -0.00000000000E+00 -0.45593999997E+02  0.45594000000E+02  0.51100000000E-03 0.  1.
         23    2    1    2    0    0  0.17763568394E-14  0.00000000000E+00  0.00000000000E+00  0.91188000000E+02  0.91188000000E+02 0.  0.
    9900012    2    3    3    0    0  0.11711934839E+02  0.48023028915E+01 -0.34576703002E+02  0.54367083102E+02  0.39999997548E+02 0.  0.
         12    1    3    3    0    0 -0.11711934839E+02 -0.48023028915E+01  0.34576703002E+02  0.36820916898E+02  0.00000000000E+00 0. -1.
         11    1    4    4    0    0  0.93132927356E+01 -0.26636544900E+01  0.45574833170E+00  0.96974318055E+01  0.51100000000E-03 0. -1.
        -11    1    4    4    0    0  0.18439675389E+01 -0.92457609175E+01 -0.60268736210E+01  0.11189616487E+02  0.51100000000E-03 0.  1.
        -12    1    4    4    0    0  0.55467456448E+00  0.16711718299E+02 -0.29005577713E+02  0.33480034809E+02  0.00000000000E+00 0.  1.
</event>
<event>
 8    1  0.2502431E-006  0.9118800E+02  0.7816164E-02  0.1184000E+00
        -11   -1    0    0    0    0  0.00000000000E+00  0.00000000000E+00  0.45593999997E+02  0.45594000000E+02  0.51100000000E-03 0. -1.
         11   -1    0    0    0    0 -0.00000000000E+00 -0.00000000000E+00 -0.45593999997E+02  0.45594000000E+02  0.51100000000E-03 0.  1.
         23    2    1    2    0    0  0.35527136788E-14  0.00000000000E+00  0.00000000000E+00  0.91188000000E+02  0.91188000000E+02 0.  0.
    9900012    2    3    3    0    0 -0.31970736386E+02  0.17406892144E+02 -0.55357357727E+01  0.54367187276E+02  0.40000235031E+02 0.  0.
         12    1    3    3    0    0  0.31970736386E+02 -0.17406892144E+02  0.55357357727E+01  0.36820812724E+02  0.00000000000E+00 0. -1.
         11    1    4    4    0    0 -0.54285692491E+01  0.30330320545E+01  0.59075013999E+01  0.85771335880E+01  0.51100000000E-03 0. -1.
        -11    1    4    4    0    0 -0.80106676059E+01  0.13950237578E+02 -0.19754351331E+02  0.25475759473E+02  0.51100000000E-03 0.  1.
        -12    1    4    4    0    0 -0.18531499531E+02  0.42362251138E+00  0.83111141580E+01  0.20314294215E+02  0.00000000000E+00 0.  1.
</event>
<event>
 8    1  0.2502431E-006  0.9118800E+02  0.7816164E-02  0.1184000E+00
        -11   -1    0    0    0    0  0.00000000000E+00  0.00000000000E+00  0.45593999997E+02  0.45594000000E+02  0.51100000000E-03 0. -1.
         11   -1    0    0    0    0 -0.00000000000E+00 -0.00000000000E+00 -0.45593999997E+02  0.45594000000E+02  0.51100000000E-03 0.  1.
         23    2    1    2    0    0 -0.17763568394E-14 -0.44408920985E-14  0.00000000000E+00  0.91188000000E+02  0.91188000000E+02 0.  0.
    9900012    2    3    3    0    0 -0.94180584472E+01 -0.77677989875E+01 -0.34738182943E+02  0.54367083659E+02  0.39999998818E+02 0.  0.
         12    1    3    3    0    0  0.94180584472E+01  0.77677989875E+01  0.34738182943E+02  0.36820916341E+02  0.00000000000E+00 0. -1.
         11    1    4    4    0    0  0.64427436633E+01  0.10502746657E+02 -0.50561355366E+01  0.13318451114E+02  0.51100000000E-03 0. -1.
        -11    1    4    4    0    0 -0.76369608234E+01 -0.72064701951E+01 -0.23889706935E+02  0.26095487752E+02  0.51100000000E-03 0.  1.
         12    1    4    4    0    0 -0.82238412871E+01 -0.11064075450E+02 -0.57923404709E+01  0.14953144793E+02  0.00000000000E+00 0. -1.
</event>
<event>
 8    1  0.2502431E-006  0.9118800E+02  0.7816164E-02  0.1184000E+00
        -11   -1    0    0    0    0  0.00000000000E+00  0.00000000000E+00  0.45593999997E+02  0.45594000000E+02  0.51100000000E-03 0.  1.
         11   -1    0    0    0    0 -0.00000000000E+00 -0.00000000000E+00 -0.45593999997E+02  0.45594000000E+02  0.51100000000E-03 0. -1.
         23    2    1    2    0    0 -0.88817841970E-15  0.00000000000E+00  0.00000000000E+00  0.91188000000E+02  0.91188000000E+02 0.  0.
    9900012    2    3    3    0    0 -0.40479079127E+01  0.11279269199E+02 -0.34816250256E+02  0.54367098951E+02  0.40000033679E+02 0.  0.
        -12    1    3    3    0    0  0.40479079127E+01 -0.11279269199E+02  0.34816250256E+02  0.36820901049E+02  0.00000000000E+00 0.  1.
         11    1    4    4    0    0  0.22677008538E+01  0.91459570023E+01  0.18854764312E+01  0.96096835684E+01  0.51100000000E-03 0.  1.
        -11    1    4    4    0    0  0.87909033986E+01  0.27978147021E+01 -0.75644676825E+01  0.11930168534E+02  0.51100000000E-03 0. -1.
        -12    1    4    4    0    0 -0.15106512165E+02 -0.66450250512E+00 -0.29137259005E+02  0.32827246849E+02  0.00000000000E+00 0.  1.
</event>
<event>
 8    1  0.2502431E-006  0.9118800E+02  0.7816164E-02  0.1184000E+00
        -11   -1    0    0    0    0  0.00000000000E+00  0.00000000000E+00  0.45593999997E+02  0.45594000000E+02  0.51100000000E-03 0. -1.
         11   -1    0    0    0    0 -0.00000000000E+00 -0.00000000000E+00 -0.45593999997E+02  0.45594000000E+02  0.51100000000E-03 0.  1.
         23    2    1    2    0    0  0.00000000000E+00  0.35527136788E-14 -0.13322676296E-14  0.91188000000E+02  0.91188000000E+02 0.  0.
    9900012    2    3    3    0    0 -0.32100022124E+02 -0.17941714826E+02  0.18586783471E+01  0.54367201035E+02  0.40000266398E+02 0.  0.
         12    1    3    3    0    0  0.32100022124E+02  0.17941714826E+02 -0.18586783471E+01  0.36820798965E+02  0.00000000000E+00 0. -1.
         11    1    4    4    0    0  0.37152514135E+01  0.12104874515E+01  0.10063159837E+02  0.10795163690E+02  0.51100000000E-03 0. -1.
        -11    1    4    4    0    0 -0.17537355531E+02 -0.11715851588E+02 -0.10755795855E+02  0.23675032464E+02  0.51100000000E-03 0.  1.
         12    1    4    4    0    0 -0.18277918007E+02 -0.74363506889E+01  0.25513143654E+01  0.19897004881E+02  0.00000000000E+00 0. -1.
</event>
<event>
 8    1  0.2502431E-006  0.9118800E+02  0.7816164E-02  0.1184000E+00
        -11   -1    0    0    0    0  0.00000000000E+00  0.00000000000E+00  0.45593999997E+02  0.45594000000E+02  0.51100000000E-03 0.  1.
         11   -1    0    0    0    0 -0.00000000000E+00 -0.00000000000E+00 -0.45593999997E+02  0.45594000000E+02  0.51100000000E-03 0. -1.
         23    2    1    2    0    0 -0.35527136788E-14 -0.71054273576E-14  0.17763568394E-14  0.91188000000E+02  0.91188000000E+02 0.  0.
    9900012    2    3    3    0    0  0.22907476314E+02  0.26969544692E+02 -0.10181411813E+02  0.54367218388E+02  0.40000305959E+02 0.  0.
         12    1    3    3    0    0 -0.22907476314E+02 -0.26969544692E+02  0.10181411813E+02  0.36820781612E+02  0.00000000000E+00 0. -1.
         11    1    4    4    0    0 -0.46756300604E+01  0.46017052898E+01 -0.41320809034E+01  0.77531478052E+01  0.51100000000E-03 0. -1.
        -11    1    4    4    0    0 -0.64310606250E+01  0.34029991456E+01 -0.97611584833E+00  0.73410998057E+01  0.51100000000E-03 0.  1.
        -12    1    4    4    0    0  0.34014166999E+02  0.18964840257E+02 -0.50732150616E+01  0.39272970777E+02  0.00000000000E+00 0.  1.
</event>
<event>
 8    1  0.2502431E-006  0.9118800E+02  0.7816164E-02  0.1184000E+00
        -11   -1    0    0    0    0  0.00000000000E+00  0.00000000000E+00  0.45593999997E+02  0.45594000000E+02  0.51100000000E-03 0.  1.
         11   -1    0    0    0    0 -0.00000000000E+00 -0.00000000000E+00 -0.45593999997E+02  0.45594000000E+02  0.51100000000E-03 0. -1.
         23    2    1    2    0    0  0.00000000000E+00  0.00000000000E+00  0.71054273576E-14  0.91188000000E+02  0.91188000000E+02 0.  0.
    9900012    2    3    3    0    0  0.97305886465E+01  0.57431781540E+01  0.35044441411E+02  0.54367064046E+02  0.39999954105E+02 0.  0.
         12    1    3    3    0    0 -0.97305886465E+01 -0.57431781540E+01 -0.35044441411E+02  0.36820935954E+02  0.00000000000E+00 0. -1.
         11    1    4    4    0    0 -0.71494595628E+01 -0.33272220852E+01 -0.53664709626E+01  0.95385632932E+01  0.51100000000E-03 0. -1.
        -11    1    4    4    0    0  0.94605964046E+01  0.37385601632E+01  0.23501298214E+02  0.25608411400E+02  0.51100000000E-03 0.  1.
         12    1    4    4    0    0  0.74194518048E+01  0.53318400760E+01  0.16909614160E+02  0.19220089352E+02  0.00000000000E+00 0. -1.
</event>
<event>
 8    1  0.2502431E-006  0.9118800E+02  0.7816164E-02  0.1184000E+00
        -11   -1    0    0    0    0  0.00000000000E+00  0.00000000000E+00  0.45593999997E+02  0.45594000000E+02  0.51100000000E-03 0. -1.
         11   -1    0    0    0    0 -0.00000000000E+00 -0.00000000000E+00 -0.45593999997E+02  0.45594000000E+02  0.51100000000E-03 0.  1.
         23    2    1    2    0    0  0.00000000000E+00 -0.35527136788E-14  0.00000000000E+00  0.91188000000E+02  0.91188000000E+02 0.  0.
    9900012    2    3    3    0    0 -0.28683177159E+02  0.22796156658E+02  0.36593948651E+01  0.54367074141E+02  0.39999977120E+02 0.  0.
         12    1    3    3    0    0  0.28683177159E+02 -0.22796156658E+02 -0.36593948651E+01  0.36820925859E+02  0.00000000000E+00 0. -1.
         11    1    4    4    0    0 -0.42175029723E+01  0.31307202701E+01 -0.76948694349E+01  0.93166386971E+01  0.51100000000E-03 0. -1.
        -11    1    4    4    0    0 -0.31605433493E+01  0.21402605992E+02  0.93898493788E+01  0.23584525628E+02  0.51100000000E-03 0.  1.
        -12    1    4    4    0    0 -0.21305130838E+02 -0.17371696039E+01  0.19644149212E+01  0.21465909816E+02  0.00000000000E+00 0.  1.
</event>
<event>
 8    1  0.2502431E-006  0.9118800E+02  0.7816164E-02  0.1184000E+00
        -11   -1    0    0    0    0  0.00000000000E+00  0.00000000000E+00  0.45593999997E+02  0.45594000000E+02  0.51100000000E-03 0.  1.
         11   -1    0    0    0    0 -0.00000000000E+00 -0.00000000000E+00 -0.45593999997E+02  0.45594000000E+02  0.51100000000E-03 0. -1.
         23    2    1    2    0    0  0.17763568394E-14  0.00000000000E+00  0.00000000000E+00  0.91188000000E+02  0.91188000000E+02 0.  0.
    9900012    2    3    3    0    0 -0.13755067945E+02 -0.28079698584E+02  0.19444999581E+02  0.54367090513E+02  0.40000014442E+02 0.  0.
        -12    1    3    3    0    0  0.13755067945E+02  0.28079698584E+02 -0.19444999581E+02  0.36820909487E+02  0.00000000000E+00 0.  1.
         11    1    4    4    0    0 -0.17748181457E+02 -0.17884670173E+02  0.45274408071E+01  0.25599943217E+02  0.51100000000E-03 0. -1.
        -11    1    4    4    0    0  0.38508146111E+01 -0.87762706978E+01  0.20700265786E+02  0.22811240747E+02  0.51100000000E-03 0.  1.
         12    1    4    4    0    0  0.14229890042E+00 -0.14187577138E+01 -0.57827070121E+01  0.59559065485E+01  0.00000000000E+00 0. -1.
</event>
<event>
 8    1  0.2502431E-006  0.9118800E+02  0.7816164E-02  0.1184000E+00
        -11   -1    0    0    0    0  0.00000000000E+00  0.00000000000E+00  0.45593999997E+02  0.45594000000E+02  0.51100000000E-03 0.  1.
         11   -1    0    0    0    0 -0.00000000000E+00 -0.00000000000E+00 -0.45593999997E+02  0.45594000000E+02  0.51100000000E-03 0. -1.
         23    2    1    2    0    0 -0.35527136788E-14  0.00000000000E+00  0.00000000000E+00  0.91188000000E+02  0.91188000000E+02 0.  0.
    9900012    2    3    3    0    0  0.21415545959E+02 -0.22711746843E+02 -0.19527859926E+02  0.54366995578E+02  0.39999798019E+02 0.  0.
        -12    1    3    3    0    0 -0.21415545959E+02  0.22711746843E+02  0.19527859926E+02  0.36821004422E+02  0.00000000000E+00 0.  1.
         11    1    4    4    0    0  0.32128148262E+00  0.46492806831E+01  0.42549305411E+01  0.63105837156E+01  0.51100000000E-03 0. -1.
        -11    1    4    4    0    0  0.19069623763E+02 -0.80159962308E+01 -0.56002053191E+01  0.21430563360E+02  0.51100000000E-03 0.  1.
        -12    1    4    4    0    0  0.20246407131E+01 -0.19345031295E+02 -0.18182585148E+02  0.26625848503E+02  0.00000000000E+00 0.  1.
</event>
<event>
 8    1  0.2502431E-006  0.9118800E+02  0.7816164E-02  0.1184000E+00
        -11   -1    0    0    0    0  0.00000000000E+00  0.00000000000E+00  0.45593999997E+02  0.45594000000E+02  0.51100000000E-03 0.  1.
         11   -1    0    0    0    0 -0.00000000000E+00 -0.00000000000E+00 -0.45593999997E+02  0.45594000000E+02  0.51100000000E-03 0. -1.
         23    2    1    2    0    0  0.88817841970E-15 -0.35527136788E-14  0.00000000000E+00  0.91188000000E+02  0.91188000000E+02 0.  0.
    9900012    2    3    3    0    0  0.68981483715E+01 -0.27391186543E+02 -0.23620309607E+02  0.54367074195E+02  0.39999977243E+02 0.  0.
        -12    1    3    3    0    0 -0.68981483715E+01  0.27391186543E+02  0.23620309607E+02  0.36820925805E+02  0.00000000000E+00 0.  1.
         11    1    4    4    0    0  0.39578441571E+01 -0.26430577696E+01 -0.51910039300E+00  0.47874575951E+01  0.51100000000E-03 0. -1.
        -11    1    4    4    0    0  0.74352520975E+01 -0.30899776706E+02 -0.81671157322E+01  0.32814340674E+02  0.51100000000E-03 0.  1.
         12    1    4    4    0    0 -0.44949478831E+01  0.61516479322E+01 -0.14934093482E+02  0.16765275926E+02  0.00000000000E+00 0. -1.
</event>
<event>
 8    1  0.2502431E-006  0.9118800E+02  0.7816164E-02  0.1184000E+00
        -11   -1    0    0    0    0  0.00000000000E+00  0.00000000000E+00  0.45593999997E+02  0.45594000000E+02  0.51100000000E-03 0. -1.
         11   -1    0    0    0    0 -0.00000000000E+00 -0.00000000000E+00 -0.45593999997E+02  0.45594000000E+02  0.51100000000E-03 0.  1.
         23    2    1    2    0    0 -0.35527136788E-14  0.00000000000E+00  0.17763568394E-14  0.91188000000E+02  0.91188000000E+02 0.  0.
    9900012    2    3    3    0    0 -0.27015272765E+02  0.19311835731E+02  0.15906177695E+02  0.54367103070E+02  0.40000043068E+02 0.  0.
        -12    1    3    3    0    0  0.27015272765E+02 -0.19311835731E+02 -0.15906177695E+02  0.36820896930E+02  0.00000000000E+00 0.  1.
         11    1    4    4    0    0 -0.11978331487E+02  0.19372663876E+02 -0.13950482522E+01  0.22819436687E+02  0.51100000000E-03 0. -1.
        -11    1    4    4    0    0  0.47862339176E+01 -0.15028082162E+01  0.83686910865E+01  0.97571234701E+01  0.51100000000E-03 0.  1.
         12    1    4    4    0    0 -0.19823175196E+02  0.14419800717E+01  0.89325348605E+01  0.21790542912E+02  0.00000000000E+00 0. -1.
</event>
<event>
 8    1  0.2502431E-006  0.9118800E+02  0.7816164E-02  0.1184000E+00
        -11   -1    0    0    0    0  0.00000000000E+00  0.00000000000E+00  0.45593999997E+02  0.45594000000E+02  0.51100000000E-03 0.  1.
         11   -1    0    0    0    0 -0.00000000000E+00 -0.00000000000E+00 -0.45593999997E+02  0.45594000000E+02  0.51100000000E-03 0. -1.
         23    2    1    2    0    0 -0.71054273576E-14 -0.35527136788E-14 -0.88817841970E-15  0.91188000000E+02  0.91188000000E+02 0.  0.
    9900012    2    3    3    0    0 -0.22287709926E+02 -0.29286658572E+02 -0.11529648653E+01  0.54367085942E+02  0.40000004022E+02 0.  0.
         12    1    3    3    0    0  0.22287709926E+02  0.29286658572E+02  0.11529648653E+01  0.36820914058E+02  0.00000000000E+00 0. -1.
         11    1    4    4    0    0 -0.11722823843E+01 -0.17808434632E+02 -0.88176657905E+01  0.19906426608E+02  0.51100000000E-03 0.  1.
        -11    1    4    4    0    0 -0.37898578206E+01 -0.13790766306E+02 -0.20738243002E+01  0.14451609084E+02  0.51100000000E-03 0. -1.
        -12    1    4    4    0    0 -0.17325569721E+02  0.23125423665E+01  0.97385252253E+01  0.20009050250E+02  0.00000000000E+00 0.  1.
</event>
<event>
 8    1  0.2502431E-006  0.9118800E+02  0.7816164E-02  0.1184000E+00
        -11   -1    0    0    0    0  0.00000000000E+00  0.00000000000E+00  0.45593999997E+02  0.45594000000E+02  0.51100000000E-03 0. -1.
         11   -1    0    0    0    0 -0.00000000000E+00 -0.00000000000E+00 -0.45593999997E+02  0.45594000000E+02  0.51100000000E-03 0.  1.
         23    2    1    2    0    0  0.00000000000E+00 -0.71054273576E-14  0.00000000000E+00  0.91188000000E+02  0.91188000000E+02 0.  0.
    9900012    2    3    3    0    0 -0.84880140733E+01  0.32366690406E+02 -0.15366591992E+02  0.54367066006E+02  0.39999958574E+02 0.  0.
         12    1    3    3    0    0  0.84880140733E+01 -0.32366690406E+02  0.15366591992E+02  0.36820933994E+02  0.00000000000E+00 0. -1.
         11    1    4    4    0    0 -0.42743825577E+00  0.12595217174E+02  0.74816329724E+01  0.14655955489E+02  0.51100000000E-03 0. -1.
        -11    1    4    4    0    0 -0.67755660191E+00  0.13306288701E+02  0.15498066881E+01  0.13413362852E+02  0.51100000000E-03 0.  1.
        -12    1    4    4    0    0 -0.73830192157E+01  0.64651845307E+01 -0.24398031652E+02  0.26297747665E+02  0.00000000000E+00 0.  1.
</event>
<event>
 8    1  0.2502431E-006  0.9118800E+02  0.7816164E-02  0.1184000E+00
        -11   -1    0    0    0    0  0.00000000000E+00  0.00000000000E+00  0.45593999997E+02  0.45594000000E+02  0.51100000000E-03 0.  1.
         11   -1    0    0    0    0 -0.00000000000E+00 -0.00000000000E+00 -0.45593999997E+02  0.45594000000E+02  0.51100000000E-03 0. -1.
         23    2    1    2    0    0  0.00000000000E+00  0.00000000000E+00  0.00000000000E+00  0.91188000000E+02  0.91188000000E+02 0.  0.
    9900012    2    3    3    0    0 -0.12683266771E+02  0.23150678739E+01  0.34490204093E+02  0.54366824386E+02  0.39999407748E+02 0.  0.
         12    1    3    3    0    0  0.12683266771E+02 -0.23150678739E+01 -0.34490204093E+02  0.36821175614E+02  0.00000000000E+00 0. -1.
         11    1    4    4    0    0 -0.19824831596E+02 -0.64647512104E+01  0.67852112603E+01  0.21928430134E+02  0.51100000000E-03 0. -1.
        -11    1    4    4    0    0  0.59881785691E+01  0.59270453119E+01  0.28100073052E+02  0.29336023154E+02  0.51100000000E-03 0.  1.
        -12    1    4    4    0    0  0.11533862559E+01  0.28527737725E+01 -0.39508021948E+00  0.31023710984E+01  0.00000000000E+00 0.  1.
</event>
<event>
 8    1  0.2502431E-006  0.9118800E+02  0.7816164E-02  0.1184000E+00
        -11   -1    0    0    0    0  0.00000000000E+00  0.00000000000E+00  0.45593999997E+02  0.45594000000E+02  0.51100000000E-03 0.  1.
         11   -1    0    0    0    0 -0.00000000000E+00 -0.00000000000E+00 -0.45593999997E+02  0.45594000000E+02  0.51100000000E-03 0. -1.
         23    2    1    2    0    0  0.00000000000E+00 -0.71054273576E-14  0.35527136788E-14  0.91188000000E+02  0.91188000000E+02 0.  0.
    9900012    2    3    3    0    0 -0.17580400149E+02  0.26010686182E+02 -0.19239042716E+02  0.54367258159E+02  0.40000396623E+02 0.  0.
        -12    1    3    3    0    0  0.17580400149E+02 -0.26010686182E+02  0.19239042716E+02  0.36820741841E+02  0.00000000000E+00 0.  1.
         11    1    4    4    0    0 -0.17339529524E+02  0.17137277564E+02 -0.18753620895E+02  0.30757826051E+02  0.51100000000E-03 0.  1.
        -11    1    4    4    0    0 -0.62552453164E+01  0.83840789064E+01 -0.85688897383E+01  0.13522083593E+02  0.51100000000E-03 0. -1.
        -12    1    4    4    0    0  0.60143746913E+01  0.48932971142E+00  0.80834679176E+01  0.10087348515E+02  0.00000000000E+00 0.  1.
</event>
<event>
 8    1  0.2502431E-006  0.9118800E+02  0.7816164E-02  0.1184000E+00
        -11   -1    0    0    0    0  0.00000000000E+00  0.00000000000E+00  0.45593999997E+02  0.45594000000E+02  0.51100000000E-03 0.  1.
         11   -1    0    0    0    0 -0.00000000000E+00 -0.00000000000E+00 -0.45593999997E+02  0.45594000000E+02  0.51100000000E-03 0. -1.
         23    2    1    2    0    0  0.88817841970E-15  0.00000000000E+00  0.00000000000E+00  0.91188000000E+02  0.91188000000E+02 0.  0.
    9900012    2    3    3    0    0  0.43990550853E+01 -0.51244792989E+01  0.36196238247E+02  0.54367086962E+02  0.40000006347E+02 0.  0.
         12    1    3    3    0    0 -0.43990550853E+01  0.51244792989E+01 -0.36196238247E+02  0.36820913038E+02  0.00000000000E+00 0. -1.
         11    1    4    4    0    0 -0.30341671117E+01  0.67456899287E+01  0.66486900605E-01  0.73969536598E+01  0.51100000000E-03 0. -1.
        -11    1    4    4    0    0  0.12689695524E+02  0.29486849937E+01  0.23223427268E+02  0.26628005747E+02  0.51100000000E-03 0.  1.
         12    1    4    4    0    0 -0.52564733275E+01 -0.14818854221E+02  0.12906324078E+02  0.20342127555E+02  0.00000000000E+00 0. -1.
</event>
<event>
 8    1  0.2502431E-006  0.9118800E+02  0.7816164E-02  0.1184000E+00
        -11   -1    0    0    0    0  0.00000000000E+00  0.00000000000E+00  0.45593999997E+02  0.45594000000E+02  0.51100000000E-03 0.  1.
         11   -1    0    0    0    0 -0.00000000000E+00 -0.00000000000E+00 -0.45593999997E+02  0.45594000000E+02  0.51100000000E-03 0. -1.
         23    2    1    2    0    0  0.00000000000E+00  0.00000000000E+00  0.35527136788E-14  0.91188000000E+02  0.91188000000E+02 0.  0.
    9900012    2    3    3    0    0  0.11560712914E+02 -0.17777120363E+02 -0.30101562307E+02  0.54367080066E+02  0.39999990627E+02 0.  0.
        -12    1    3    3    0    0 -0.11560712914E+02  0.17777120363E+02  0.30101562307E+02  0.36820919934E+02  0.00000000000E+00 0.  1.
         11    1    4    4    0    0  0.35396616131E+01  0.87287662626E+01 -0.20057675551E+01  0.96303514240E+01  0.51100000000E-03 0. -1.
        -11    1    4    4    0    0 -0.21093558693E+01 -0.23452597206E+02 -0.23277770865E+02  0.33110848895E+02  0.51100000000E-03 0.  1.
        -12    1    4    4    0    0  0.10130407170E+02 -0.30532894195E+01 -0.48180238868E+01  0.11625879747E+02  0.00000000000E+00 0.  1.
</event>
<event>
 8    1  0.2502431E-006  0.9118800E+02  0.7816164E-02  0.1184000E+00
        -11   -1    0    0    0    0  0.00000000000E+00  0.00000000000E+00  0.45593999997E+02  0.45594000000E+02  0.51100000000E-03 0. -1.
         11   -1    0    0    0    0 -0.00000000000E+00 -0.00000000000E+00 -0.45593999997E+02  0.45594000000E+02  0.51100000000E-03 0.  1.
         23    2    1    2    0    0  0.00000000000E+00 -0.44408920985E-15  0.71054273576E-14  0.91188000000E+02  0.91188000000E+02 0.  0.
    9900012    2    3    3    0    0 -0.10078759341E+02  0.36294463862E+01  0.35228181976E+02  0.54367094576E+02  0.40000023704E+02 0.  0.
        -12    1    3    3    0    0  0.10078759341E+02 -0.36294463862E+01 -0.35228181976E+02  0.36820905424E+02  0.00000000000E+00 0.  1.
         11    1    4    4    0    0  0.61093996632E+01  0.50123083702E+01  0.98690831300E+01  0.12643053489E+02  0.51100000000E-03 0. -1.
        -11    1    4    4    0    0 -0.11255614162E+02  0.26127352021E+01 -0.35801255168E+01  0.12096798518E+02  0.51100000000E-03 0.  1.
         12    1    4    4    0    0 -0.49325448428E+01 -0.39955971861E+01  0.28939224363E+02  0.29627242569E+02  0.00000000000E+00 0. -1.
</event>
<event>
 8    1  0.2502431E-006  0.9118800E+02  0.7816164E-02  0.1184000E+00
        -11   -1    0    0    0    0  0.00000000000E+00  0.00000000000E+00  0.45593999997E+02  0.45594000000E+02  0.51100000000E-03 0. -1.
         11   -1    0    0    0    0 -0.00000000000E+00 -0.00000000000E+00 -0.45593999997E+02  0.45594000000E+02  0.51100000000E-03 0.  1.
         23    2    1    2    0    0 -0.88817841970E-15  0.71054273576E-14  0.00000000000E+00  0.91188000000E+02  0.91188000000E+02 0.  0.
    9900012    2    3    3    0    0 -0.67122890178E+01 -0.35908585351E+02 -0.46149347805E+01  0.54367096307E+02  0.40000027650E+02 0.  0.
        -12    1    3    3    0    0  0.67122890178E+01  0.35908585351E+02  0.46149347805E+01  0.36820903693E+02  0.00000000000E+00 0.  1.
         11    1    4    4    0    0 -0.37528280050E+01 -0.13330522690E+02 -0.11107316406E+02  0.17752718981E+02  0.51100000000E-03 0. -1.
        -11    1    4    4    0    0 -0.15263019117E+02 -0.97516246099E+01  0.16164604404E+01  0.18184248120E+02  0.51100000000E-03 0.  1.
         12    1    4    4    0    0  0.12303558104E+02 -0.12826438051E+02  0.48759211855E+01  0.18430129205E+02  0.00000000000E+00 0. -1.
</event>
<event>
 8    1  0.2502431E-006  0.9118800E+02  0.7816164E-02  0.1184000E+00
        -11   -1    0    0    0    0  0.00000000000E+00  0.00000000000E+00  0.45593999997E+02  0.45594000000E+02  0.51100000000E-03 0. -1.
         11   -1    0    0    0    0 -0.00000000000E+00 -0.00000000000E+00 -0.45593999997E+02  0.45594000000E+02  0.51100000000E-03 0.  1.
         23    2    1    2    0    0  0.35527136788E-14  0.00000000000E+00  0.00000000000E+00  0.91188000000E+02  0.91188000000E+02 0.  0.
    9900012    2    3    3    0    0  0.27330109552E+02  0.18025576067E+02  0.16850049559E+02  0.54367075910E+02  0.39999981152E+02 0.  0.
        -12    1    3    3    0    0 -0.27330109552E+02 -0.18025576067E+02 -0.16850049559E+02  0.36820924090E+02  0.00000000000E+00 0.  1.
         11    1    4    4    0    0  0.12110993833E+02  0.31456980148E+01 -0.46729814993E+01  0.13356958635E+02  0.51100000000E-03 0. -1.
        -11    1    4    4    0    0 -0.64374592271E+01  0.68270843091E+01 -0.72589056494E-01  0.93837748746E+01  0.51100000000E-03 0.  1.
         12    1    4    4    0    0  0.21656574947E+02  0.80527937432E+01  0.21595620115E+02  0.31626342401E+02  0.00000000000E+00 0. -1.
</event>
<event>
 8    1  0.2502431E-006  0.9118800E+02  0.7816164E-02  0.1184000E+00
        -11   -1    0    0    0    0  0.00000000000E+00  0.00000000000E+00  0.45593999997E+02  0.45594000000E+02  0.51100000000E-03 0. -1.
         11   -1    0    0    0    0 -0.00000000000E+00 -0.00000000000E+00 -0.45593999997E+02  0.45594000000E+02  0.51100000000E-03 0.  1.
         23    2    1    2    0    0  0.19428902931E-15 -0.35527136788E-14  0.00000000000E+00  0.91188000000E+02  0.91188000000E+02 0.  0.
    9900012    2    3    3    0    0 -0.50992150550E-01 -0.20980157818E+02  0.30259154814E+02  0.54366999575E+02  0.39999807131E+02 0.  0.
        -12    1    3    3    0    0  0.50992150550E-01  0.20980157818E+02 -0.30259154814E+02  0.36821000425E+02  0.00000000000E+00 0.  1.
         11    1    4    4    0    0  0.95599727125E-02  0.33873549978E+01  0.18406898973E+02  0.18715987694E+02  0.51100000000E-03 0. -1.
        -11    1    4    4    0    0  0.68660540993E+01  0.55933339261E+00 -0.64584496732E+00  0.69190077845E+01  0.51100000000E-03 0.  1.
        -12    1    4    4    0    0 -0.69266062226E+01 -0.24926846208E+02  0.12498100808E+02  0.28732004097E+02  0.00000000000E+00 0.  1.
</event>
<event>
 8    1  0.2502431E-006  0.9118800E+02  0.7816164E-02  0.1184000E+00
        -11   -1    0    0    0    0  0.00000000000E+00  0.00000000000E+00  0.45593999997E+02  0.45594000000E+02  0.51100000000E-03 0.  1.
         11   -1    0    0    0    0 -0.00000000000E+00 -0.00000000000E+00 -0.45593999997E+02  0.45594000000E+02  0.51100000000E-03 0. -1.
         23    2    1    2    0    0 -0.35527136788E-14  0.00000000000E+00 -0.88817841970E-15  0.91188000000E+02  0.91188000000E+02 0.  0.
    9900012    2    3    3    0    0  0.89456809109E+01 -0.34894953516E+02  0.76219870902E+01  0.54367113603E+02  0.40000067081E+02 0.  0.
         12    1    3    3    0    0 -0.89456809109E+01  0.34894953516E+02 -0.76219870902E+01  0.36820886397E+02  0.00000000000E+00 0. -1.
         11    1    4    4    0    0 -0.11785094291E+02 -0.88557104568E+01  0.46296822017E+00  0.14748776050E+02  0.51100000000E-03 0. -1.
        -11    1    4    4    0    0  0.15814075031E+01  0.18901677946E+01 -0.33523681041E+01  0.41607638901E+01  0.51100000000E-03 0.  1.
        -12    1    4    4    0    0  0.19149367699E+02 -0.27929410854E+02  0.10511386974E+02  0.35457573663E+02  0.00000000000E+00 0.  1.
</event>
<event>
 8    1  0.2502431E-006  0.9118800E+02  0.7816164E-02  0.1184000E+00
        -11   -1    0    0    0    0  0.00000000000E+00  0.00000000000E+00  0.45593999997E+02  0.45594000000E+02  0.51100000000E-03 0. -1.
         11   -1    0    0    0    0 -0.00000000000E+00 -0.00000000000E+00 -0.45593999997E+02  0.45594000000E+02  0.51100000000E-03 0.  1.
         23    2    1    2    0    0  0.00000000000E+00 -0.19984014443E-14  0.00000000000E+00  0.91188000000E+02  0.91188000000E+02 0.  0.
    9900012    2    3    3    0    0  0.23758713854E+02 -0.16143290400E+01  0.28083758694E+02  0.54367081426E+02  0.39999993727E+02 0.  0.
        -12    1    3    3    0    0 -0.23758713854E+02  0.16143290400E+01 -0.28083758694E+02  0.36820918574E+02  0.00000000000E+00 0.  1.
         11    1    4    4    0    0  0.25312207399E+02  0.10785181283E+02  0.20482726454E+02  0.34301167065E+02  0.51100000000E-03 0. -1.
        -11    1    4    4    0    0 -0.69426006602E+01 -0.29478911393E+01  0.43663252318E+01  0.87151914717E+01  0.51100000000E-03 0.  1.
         12    1    4    4    0    0  0.53891071151E+01 -0.94516191839E+01  0.32347070076E+01  0.11350722890E+02  0.00000000000E+00 0. -1.
</event>
<event>
 8    1  0.2502431E-006  0.9118800E+02  0.7816164E-02  0.1184000E+00
        -11   -1    0    0    0    0  0.00000000000E+00  0.00000000000E+00  0.45593999997E+02  0.45594000000E+02  0.51100000000E-03 0.  1.
         11   -1    0    0    0    0 -0.00000000000E+00 -0.00000000000E+00 -0.45593999997E+02  0.45594000000E+02  0.51100000000E-03 0. -1.
         23    2    1    2    0    0  0.55511151231E-15  0.00000000000E+00  0.00000000000E+00  0.91188000000E+02  0.91188000000E+02 0.  0.
    9900012    2    3    3    0    0 -0.83309667191E+00  0.26109988676E+02 -0.25949075108E+02  0.54367081249E+02  0.39999993323E+02 0.  0.
        -12    1    3    3    0    0  0.83309667191E+00 -0.26109988676E+02  0.25949075108E+02  0.36820918751E+02  0.00000000000E+00 0.  1.
         11    1    4    4    0    0 -0.52636001211E+01  0.12429954311E+02 -0.14309992345E+02  0.19671937667E+02  0.51100000000E-03 0. -1.
        -11    1    4    4    0    0  0.82647843107E+01 -0.55265238080E+01  0.28385272501E+01  0.10339553294E+02  0.51100000000E-03 0.  1.
        -12    1    4    4    0    0 -0.38342808616E+01  0.19206558172E+02 -0.14477610013E+02  0.24355590288E+02  0.00000000000E+00 0.  1.
</event>
<event>
 8    1  0.2502431E-006  0.9118800E+02  0.7816164E-02  0.1184000E+00
        -11   -1    0    0    0    0  0.00000000000E+00  0.00000000000E+00  0.45593999997E+02  0.45594000000E+02  0.51100000000E-03 0. -1.
         11   -1    0    0    0    0 -0.00000000000E+00 -0.00000000000E+00 -0.45593999997E+02  0.45594000000E+02  0.51100000000E-03 0.  1.
         23    2    1    2    0    0  0.00000000000E+00  0.00000000000E+00 -0.17763568394E-14  0.91188000000E+02  0.91188000000E+02 0.  0.
    9900012    2    3    3    0    0  0.33826948723E+02 -0.13847260170E+02  0.44463500195E+01  0.54367094218E+02  0.40000022888E+02 0.  0.
         12    1    3    3    0    0 -0.33826948723E+02  0.13847260170E+02 -0.44463500195E+01  0.36820905782E+02  0.00000000000E+00 0. -1.
         11    1    4    4    0    0  0.14630017986E+02 -0.82574347160E+01  0.24656160409E+01  0.16979455736E+02  0.51100000000E-03 0. -1.
        -11    1    4    4    0    0  0.20758746158E+02  0.23960728051E+01 -0.97914957478E+01  0.23076830288E+02  0.51100000000E-03 0.  1.
         12    1    4    4    0    0 -0.15618154204E+01 -0.79858982595E+01  0.11772229726E+02  0.14310808194E+02  0.00000000000E+00 0. -1.
</event>
<event>
 8    1  0.2502431E-006  0.9118800E+02  0.7816164E-02  0.1184000E+00
        -11   -1    0    0    0    0  0.00000000000E+00  0.00000000000E+00  0.45593999997E+02  0.45594000000E+02  0.51100000000E-03 0.  1.
         11   -1    0    0    0    0 -0.00000000000E+00 -0.00000000000E+00 -0.45593999997E+02  0.45594000000E+02  0.51100000000E-03 0. -1.
         23    2    1    2    0    0 -0.35527136788E-14 -0.35527136788E-14  0.00000000000E+00  0.91188000000E+02  0.91188000000E+02 0.  0.
    9900012    2    3    3    0    0  0.25166704957E+02 -0.24466741823E+02 -0.11126331528E+02  0.54367085466E+02  0.40000002938E+02 0.  0.
        -12    1    3    3    0    0 -0.25166704957E+02  0.24466741823E+02  0.11126331528E+02  0.36820914534E+02  0.00000000000E+00 0.  1.
         11    1    4    4    0    0  0.23356509595E+02 -0.11019670543E+02 -0.17201804405E+02  0.31030013767E+02  0.51100000000E-03 0. -1.
        -11    1    4    4    0    0 -0.73192589467E+01 -0.43230402948E+01  0.60433364167E+01  0.10429867891E+02  0.51100000000E-03 0.  1.
        -12    1    4    4    0    0  0.91294543080E+01 -0.91240309858E+01  0.32136459980E-01  0.12907203808E+02  0.00000000000E+00 0.  1.
</event>
<event>
 8    1  0.2502431E-006  0.9118800E+02  0.7816164E-02  0.1184000E+00
        -11   -1    0    0    0    0  0.00000000000E+00  0.00000000000E+00  0.45593999997E+02  0.45594000000E+02  0.51100000000E-03 0.  1.
         11   -1    0    0    0    0 -0.00000000000E+00 -0.00000000000E+00 -0.45593999997E+02  0.45594000000E+02  0.51100000000E-03 0. -1.
         23    2    1    2    0    0  0.00000000000E+00  0.00000000000E+00 -0.88817841970E-15  0.91188000000E+02  0.91188000000E+02 0.  0.
    9900012    2    3    3    0    0 -0.18874911877E+02  0.31320258985E+02 -0.43080348746E+01  0.54367080868E+02  0.39999992455E+02 0.  0.
        -12    1    3    3    0    0  0.18874911877E+02 -0.31320258985E+02  0.43080348746E+01  0.36820919132E+02  0.00000000000E+00 0.  1.
         11    1    4    4    0    0 -0.17462666625E+01  0.78032256219E+01  0.18286481073E+00  0.79983258976E+01  0.51100000000E-03 0. -1.
        -11    1    4    4    0    0 -0.20986920576E+02  0.65046145553E+01 -0.14434727641E+02  0.26289203261E+02  0.51100000000E-03 0.  1.
        -12    1    4    4    0    0  0.38582753617E+01  0.17012418808E+02  0.99438279553E+01  0.20079551710E+02  0.00000000000E+00 0.  1.
</event>
<event>
 8    1  0.2502431E-006  0.9118800E+02  0.7816164E-02  0.1184000E+00
        -11   -1    0    0    0    0  0.00000000000E+00  0.00000000000E+00  0.45593999997E+02  0.45594000000E+02  0.51100000000E-03 0.  1.
         11   -1    0    0    0    0 -0.00000000000E+00 -0.00000000000E+00 -0.45593999997E+02  0.45594000000E+02  0.51100000000E-03 0. -1.
         23    2    1    2    0    0  0.17763568394E-14  0.00000000000E+00  0.00000000000E+00  0.91188000000E+02  0.91188000000E+02 0.  0.
    9900012    2    3    3    0    0 -0.10303712379E+02  0.23018607976E+02 -0.26828303232E+02  0.54367073121E+02  0.39999974794E+02 0.  0.
        -12    1    3    3    0    0  0.10303712379E+02 -0.23018607976E+02  0.26828303232E+02  0.36820926879E+02  0.00000000000E+00 0.  1.
         11    1    4    4    0    0  0.84251461692E+01  0.15475125047E+02 -0.82063280355E+01  0.19437242687E+02  0.51100000000E-03 0. -1.
        -11    1    4    4    0    0 -0.12346879612E+02  0.13567775514E+02 -0.55147050676E+01  0.19155728668E+02  0.51100000000E-03 0.  1.
         12    1    4    4    0    0 -0.63819789361E+01 -0.60242925853E+01 -0.13107270129E+02  0.15774101766E+02  0.00000000000E+00 0. -1.
</event>
<event>
 8    1  0.2502431E-006  0.9118800E+02  0.7816164E-02  0.1184000E+00
        -11   -1    0    0    0    0  0.00000000000E+00  0.00000000000E+00  0.45593999997E+02  0.45594000000E+02  0.51100000000E-03 0. -1.
         11   -1    0    0    0    0 -0.00000000000E+00 -0.00000000000E+00 -0.45593999997E+02  0.45594000000E+02  0.51100000000E-03 0.  1.
         23    2    1    2    0    0  0.35527136788E-14  0.35527136788E-14  0.71054273576E-14  0.91188000000E+02  0.91188000000E+02 0.  0.
    9900012    2    3    3    0    0  0.26117097481E+02  0.39321766467E+01  0.25655756634E+02  0.54367046149E+02  0.39999913306E+02 0.  0.
        -12    1    3    3    0    0 -0.26117097481E+02 -0.39321766467E+01 -0.25655756634E+02  0.36820953851E+02  0.00000000000E+00 0.  1.
         11    1    4    4    0    0  0.21956202442E+02  0.10127163629E+02  0.25027182777E+02  0.34799341185E+02  0.51100000000E-03 0. -1.
        -11    1    4    4    0    0  0.60654452251E+01 -0.93382035002E+01  0.63118375837E+01  0.12799647039E+02  0.51100000000E-03 0.  1.
        -12    1    4    4    0    0 -0.19045501858E+01  0.31432165176E+01 -0.56832637270E+01  0.67680579251E+01  0.00000000000E+00 0.  1.
</event>
<event>
 8    1  0.2502431E-006  0.9118800E+02  0.7816164E-02  0.1184000E+00
        -11   -1    0    0    0    0  0.00000000000E+00  0.00000000000E+00  0.45593999997E+02  0.45594000000E+02  0.51100000000E-03 0. -1.
         11   -1    0    0    0    0 -0.00000000000E+00 -0.00000000000E+00 -0.45593999997E+02  0.45594000000E+02  0.51100000000E-03 0.  1.
         23    2    1    2    0    0  0.00000000000E+00  0.35527136788E-14  0.00000000000E+00  0.91188000000E+02  0.91188000000E+02 0.  0.
    9900012    2    3    3    0    0  0.19436639328E+02 -0.14301073732E+02 -0.27811422404E+02  0.54367097317E+02  0.40000029955E+02 0.  0.
         12    1    3    3    0    0 -0.19436639328E+02  0.14301073732E+02  0.27811422404E+02  0.36820902683E+02  0.00000000000E+00 0. -1.
         11    1    4    4    0    0 -0.47147490540E+01 -0.12366936070E+02  0.10292237412E+00  0.13235579310E+02  0.51100000000E-03 0. -1.
        -11    1    4    4    0    0  0.22399664637E+01 -0.72741260872E+01 -0.80415121678E+01  0.11072320366E+02  0.51100000000E-03 0.  1.
         12    1    4    4    0    0  0.21911421918E+02  0.53399884256E+01 -0.19872832610E+02  0.30059197641E+02  0.00000000000E+00 0. -1.
</event>
<event>
 8    1  0.2502431E-006  0.9118800E+02  0.7816164E-02  0.1184000E+00
        -11   -1    0    0    0    0  0.00000000000E+00  0.00000000000E+00  0.45593999997E+02  0.45594000000E+02  0.51100000000E-03 0. -1.
         11   -1    0    0    0    0 -0.00000000000E+00 -0.00000000000E+00 -0.45593999997E+02  0.45594000000E+02  0.51100000000E-03 0.  1.
         23    2    1    2    0    0  0.00000000000E+00  0.00000000000E+00  0.35527136788E-14  0.91188000000E+02  0.91188000000E+02 0.  0.
    9900012    2    3    3    0    0 -0.39189237355E+01  0.27843776448E+02  0.23772780899E+02  0.54367096130E+02  0.40000027247E+02 0.  0.
        -12    1    3    3    0    0  0.39189237355E+01 -0.27843776448E+02 -0.23772780899E+02  0.36820903870E+02  0.00000000000E+00 0.  1.
         11    1    4    4    0    0 -0.98983624825E+01  0.25734374380E+01  0.11857516197E+02  0.15658890469E+02  0.51100000000E-03 0. -1.
        -11    1    4    4    0    0 -0.56462316591E+01  0.66887145561E+01  0.14189081827E+02  0.16671798875E+02  0.51100000000E-03 0.  1.
        -12    1    4    4    0    0  0.11625670406E+02  0.18581624454E+02 -0.22738171252E+01  0.22036406787E+02  0.00000000000E+00 0.  1.
</event>
<event>
 8    1  0.2502431E-006  0.9118800E+02  0.7816164E-02  0.1184000E+00
        -11   -1    0    0    0    0  0.00000000000E+00  0.00000000000E+00  0.45593999997E+02  0.45594000000E+02  0.51100000000E-03 0.  1.
         11   -1    0    0    0    0 -0.00000000000E+00 -0.00000000000E+00 -0.45593999997E+02  0.45594000000E+02  0.51100000000E-03 0. -1.
         23    2    1    2    0    0 -0.35527136788E-14  0.14432899320E-14  0.00000000000E+00  0.91188000000E+02  0.91188000000E+02 0.  0.
    9900012    2    3    3    0    0  0.28092785761E+02  0.12814975757E+00  0.23802550664E+02  0.54367048732E+02  0.39999919194E+02 0.  0.
         12    1    3    3    0    0 -0.28092785761E+02 -0.12814975757E+00 -0.23802550664E+02  0.36820951268E+02  0.00000000000E+00 0. -1.
         11    1    4    4    0    0  0.28508635905E+01 -0.95674424597E+01  0.88338334981E+01  0.13330416084E+02  0.51100000000E-03 0. -1.
        -11    1    4    4    0    0  0.61041071626E+01  0.12231073209E+02  0.16784161836E+02  0.21646416907E+02  0.51100000000E-03 0.  1.
         12    1    4    4    0    0  0.19137815008E+02 -0.25354809916E+01 -0.18154446705E+01  0.19390215742E+02  0.00000000000E+00 0. -1.
</event>
<event>
 8    1  0.2502431E-006  0.9118800E+02  0.7816164E-02  0.1184000E+00
        -11   -1    0    0    0    0  0.00000000000E+00  0.00000000000E+00  0.45593999997E+02  0.45594000000E+02  0.51100000000E-03 0. -1.
         11   -1    0    0    0    0 -0.00000000000E+00 -0.00000000000E+00 -0.45593999997E+02  0.45594000000E+02  0.51100000000E-03 0.  1.
         23    2    1    2    0    0  0.00000000000E+00 -0.13322676296E-14  0.00000000000E+00  0.91188000000E+02  0.91188000000E+02 0.  0.
    9900012    2    3    3    0    0 -0.28379249566E+02 -0.24765901124E+01 -0.23329517392E+02  0.54367059133E+02  0.39999942906E+02 0.  0.
         12    1    3    3    0    0  0.28379249566E+02  0.24765901124E+01  0.23329517392E+02  0.36820940867E+02  0.00000000000E+00 0. -1.
         11    1    4    4    0    0  0.33531460807E+01 -0.39160306821E+01 -0.51630750952E+01  0.72963161692E+01  0.51100000000E-03 0. -1.
        -11    1    4    4    0    0 -0.12747771743E+02  0.58731199233E+01 -0.23037099484E+02  0.26976048171E+02  0.51100000000E-03 0.  1.
        -12    1    4    4    0    0 -0.18984623904E+02 -0.44336793537E+01  0.48706571866E+01  0.20094694793E+02  0.00000000000E+00 0.  1.
</event>
<event>
 8    1  0.2502431E-006  0.9118800E+02  0.7816164E-02  0.1184000E+00
        -11   -1    0    0    0    0  0.00000000000E+00  0.00000000000E+00  0.45593999997E+02  0.45594000000E+02  0.51100000000E-03 0.  1.
         11   -1    0    0    0    0 -0.00000000000E+00 -0.00000000000E+00 -0.45593999997E+02  0.45594000000E+02  0.51100000000E-03 0. -1.
         23    2    1    2    0    0  0.00000000000E+00 -0.35527136788E-14  0.00000000000E+00  0.91188000000E+02  0.91188000000E+02 0.  0.
    9900012    2    3    3    0    0  0.20550971959E+02 -0.25011163251E+02  0.17546463052E+02  0.54367094236E+02  0.40000022930E+02 0.  0.
         12    1    3    3    0    0 -0.20550971959E+02  0.25011163251E+02 -0.17546463052E+02  0.36820905764E+02  0.00000000000E+00 0. -1.
         11    1    4    4    0    0  0.39945371048E+01 -0.84642837752E+01  0.23088991664E+01  0.96400955457E+01  0.51100000000E-03 0. -1.
        -11    1    4    4    0    0  0.77787624956E+01 -0.26002304966E+02  0.36493388927E+01  0.27385154448E+02  0.51100000000E-03 0.  1.
        -12    1    4    4    0    0  0.87776723589E+01  0.94554254903E+01  0.11588224993E+02  0.17341844242E+02  0.00000000000E+00 0.  1.
</event>
<event>
 8    1  0.2502431E-006  0.9118800E+02  0.7816164E-02  0.1184000E+00
        -11   -1    0    0    0    0  0.00000000000E+00  0.00000000000E+00  0.45593999997E+02  0.45594000000E+02  0.51100000000E-03 0.  1.
         11   -1    0    0    0    0 -0.00000000000E+00 -0.00000000000E+00 -0.45593999997E+02  0.45594000000E+02  0.51100000000E-03 0. -1.
         23    2    1    2    0    0 -0.88817841970E-15  0.00000000000E+00  0.00000000000E+00  0.91188000000E+02  0.91188000000E+02 0.  0.
    9900012    2    3    3    0    0 -0.49098107425E+01 -0.31198480662E+02  0.18929560983E+02  0.54367085886E+02  0.40000003895E+02 0.  0.
         12    1    3    3    0    0  0.49098107425E+01  0.31198480662E+02 -0.18929560983E+02  0.36820914114E+02  0.00000000000E+00 0. -1.
         11    1    4    4    0    0  0.14155714731E+01  0.34122787856E+01 -0.63206746737E+01  0.73210940233E+01  0.51100000000E-03 0. -1.
        -11    1    4    4    0    0  0.12599386283E+01 -0.58432548713E+01  0.14029036312E+02  0.15249424020E+02  0.51100000000E-03 0.  1.
         12    1    4    4    0    0 -0.75853208439E+01 -0.28767504577E+02  0.11221199344E+02  0.31796567843E+02  0.00000000000E+00 0. -1.
</event>
<event>
 8    1  0.2502431E-006  0.9118800E+02  0.7816164E-02  0.1184000E+00
        -11   -1    0    0    0    0  0.00000000000E+00  0.00000000000E+00  0.45593999997E+02  0.45594000000E+02  0.51100000000E-03 0. -1.
         11   -1    0    0    0    0 -0.00000000000E+00 -0.00000000000E+00 -0.45593999997E+02  0.45594000000E+02  0.51100000000E-03 0.  1.
         23    2    1    2    0    0  0.00000000000E+00  0.00000000000E+00 -0.35527136788E-14  0.91188000000E+02  0.91188000000E+02 0.  0.
    9900012    2    3    3    0    0 -0.16539652176E+02 -0.24917294382E+02  0.21479013920E+02  0.54367086209E+02  0.40000004630E+02 0.  0.
        -12    1    3    3    0    0  0.16539652176E+02  0.24917294382E+02 -0.21479013920E+02  0.36820913791E+02  0.00000000000E+00 0.  1.
         11    1    4    4    0    0 -0.25270647982E+02 -0.20490113959E+02  0.13513907559E+02  0.35228910248E+02  0.51100000000E-03 0. -1.
        -11    1    4    4    0    0  0.11376298738E+02 -0.10805603834E+01  0.16920549786E+01  0.11552092192E+02  0.51100000000E-03 0.  1.
        -12    1    4    4    0    0 -0.26453029316E+01 -0.33466200394E+01  0.62730513832E+01  0.75860837686E+01  0.00000000000E+00 0.  1.
</event>
<event>
 8    1  0.2502431E-006  0.9118800E+02  0.7816164E-02  0.1184000E+00
        -11   -1    0    0    0    0  0.00000000000E+00  0.00000000000E+00  0.45593999997E+02  0.45594000000E+02  0.51100000000E-03 0.  1.
         11   -1    0    0    0    0 -0.00000000000E+00 -0.00000000000E+00 -0.45593999997E+02  0.45594000000E+02  0.51100000000E-03 0. -1.
         23    2    1    2    0    0 -0.11657341759E-14  0.00000000000E+00 -0.10658141036E-13  0.91188000000E+02  0.91188000000E+02 0.  0.
    9900012    2    3    3    0    0  0.36069128319E+00 -0.25597317054E+02 -0.26465571810E+02  0.54367092491E+02  0.40000018952E+02 0.  0.
        -12    1    3    3    0    0 -0.36069128319E+00  0.25597317054E+02  0.26465571810E+02  0.36820907509E+02  0.00000000000E+00 0.  1.
         11    1    4    4    0    0  0.44828779384E+01 -0.28339850488E+02 -0.17522746321E+02  0.33619785234E+02  0.51100000000E-03 0. -1.
        -11    1    4    4    0    0  0.47913935257E+01 -0.29349095409E+01  0.15769031778E+01  0.58359035140E+01  0.51100000000E-03 0.  1.
        -12    1    4    4    0    0 -0.89135801809E+01  0.56774429747E+01 -0.10519728666E+02  0.14911403743E+02  0.00000000000E+00 0.  1.
</event>
<event>
 8    1  0.2502431E-006  0.9118800E+02  0.7816164E-02  0.1184000E+00
        -11   -1    0    0    0    0  0.00000000000E+00  0.00000000000E+00  0.45593999997E+02  0.45594000000E+02  0.51100000000E-03 0. -1.
         11   -1    0    0    0    0 -0.00000000000E+00 -0.00000000000E+00 -0.45593999997E+02  0.45594000000E+02  0.51100000000E-03 0.  1.
         23    2    1    2    0    0  0.00000000000E+00 -0.44408920985E-15  0.00000000000E+00  0.91188000000E+02  0.91188000000E+02 0.  0.
    9900012    2    3    3    0    0 -0.32900183170E+02 -0.13125688495E+01 -0.16481335695E+02  0.54367091322E+02  0.40000016286E+02 0.  0.
         12    1    3    3    0    0  0.32900183170E+02  0.13125688495E+01  0.16481335695E+02  0.36820908678E+02  0.00000000000E+00 0. -1.
         11    1    4    4    0    0 -0.44256001488E+01  0.92593223224E+01  0.31904703300E+01  0.10747096712E+02  0.51100000000E-03 0. -1.
        -11    1    4    4    0    0 -0.95240848515E+01  0.76340513686E+01 -0.93955272702E+01  0.15403339427E+02  0.51100000000E-03 0.  1.
         12    1    4    4    0    0 -0.18950498170E+02 -0.18205942541E+02 -0.10276278754E+02  0.28216655183E+02  0.00000000000E+00 0. -1.
</event>
<event>
 8    1  0.2502431E-006  0.9118800E+02  0.7816164E-02  0.1184000E+00
        -11   -1    0    0    0    0  0.00000000000E+00  0.00000000000E+00  0.45593999997E+02  0.45594000000E+02  0.51100000000E-03 0. -1.
         11   -1    0    0    0    0 -0.00000000000E+00 -0.00000000000E+00 -0.45593999997E+02  0.45594000000E+02  0.51100000000E-03 0.  1.
         23    2    1    2    0    0 -0.35527136788E-14  0.00000000000E+00  0.00000000000E+00  0.91188000000E+02  0.91188000000E+02 0.  0.
    9900012    2    3    3    0    0 -0.21935504931E+02 -0.11572582576E+02  0.27215580351E+02  0.54367097541E+02  0.40000030465E+02 0.  0.
         12    1    3    3    0    0  0.21935504931E+02  0.11572582576E+02 -0.27215580351E+02  0.36820902459E+02  0.00000000000E+00 0. -1.
         11    1    4    4    0    0  0.18306366682E+01  0.96912929805E+01 -0.25769400274E+01  0.10193773119E+02  0.51100000000E-03 0. -1.
        -11    1    4    4    0    0 -0.15060194311E+02 -0.14476813130E+02  0.15007124299E+02  0.25721612529E+02  0.51100000000E-03 0.  1.
        -12    1    4    4    0    0 -0.87059472883E+01 -0.67870624266E+01  0.14785396079E+02  0.18451711893E+02  0.00000000000E+00 0.  1.
</event>
<event>
 8    1  0.2502431E-006  0.9118800E+02  0.7816164E-02  0.1184000E+00
        -11   -1    0    0    0    0  0.00000000000E+00  0.00000000000E+00  0.45593999997E+02  0.45594000000E+02  0.51100000000E-03 0.  1.
         11   -1    0    0    0    0 -0.00000000000E+00 -0.00000000000E+00 -0.45593999997E+02  0.45594000000E+02  0.51100000000E-03 0. -1.
         23    2    1    2    0    0 -0.35527136788E-14  0.00000000000E+00  0.17763568394E-14  0.91188000000E+02  0.91188000000E+02 0.  0.
    9900012    2    3    3    0    0  0.27120233483E+02 -0.24795517982E+02  0.23374681271E+01  0.54366966155E+02  0.39999730942E+02 0.  0.
        -12    1    3    3    0    0 -0.27120233483E+02  0.24795517982E+02 -0.23374681271E+01  0.36821033845E+02  0.00000000000E+00 0.  1.
         11    1    4    4    0    0  0.14147075510E+02 -0.19963388244E+02 -0.12336611011E+02  0.27401981446E+02  0.51100000000E-03 0. -1.
        -11    1    4    4    0    0  0.77310127986E+01  0.62405169891E+01  0.92219011761E+01  0.13555665707E+02  0.51100000000E-03 0.  1.
         12    1    4    4    0    0  0.52421451750E+01 -0.11072646727E+02  0.54521779621E+01  0.13409319002E+02  0.00000000000E+00 0. -1.
</event>
<event>
 8    1  0.2502431E-006  0.9118800E+02  0.7816164E-02  0.1184000E+00
        -11   -1    0    0    0    0  0.00000000000E+00  0.00000000000E+00  0.45593999997E+02  0.45594000000E+02  0.51100000000E-03 0. -1.
         11   -1    0    0    0    0 -0.00000000000E+00 -0.00000000000E+00 -0.45593999997E+02  0.45594000000E+02  0.51100000000E-03 0.  1.
         23    2    1    2    0    0 -0.35527136788E-14  0.00000000000E+00  0.00000000000E+00  0.91188000000E+02  0.91188000000E+02 0.  0.
    9900012    2    3    3    0    0 -0.29955937064E+02  0.17775142904E+02  0.11935856141E+02  0.54367101960E+02  0.40000040538E+02 0.  0.
        -12    1    3    3    0    0  0.29955937064E+02 -0.17775142904E+02 -0.11935856141E+02  0.36820898040E+02  0.00000000000E+00 0.  1.
         11    1    4    4    0    0 -0.20853487632E+02  0.14164205736E+02  0.23913473074E+02  0.34746897204E+02  0.51100000000E-03 0. -1.
        -11    1    4    4    0    0 -0.70857068647E+01  0.69773450745E+01 -0.39791942976E+01  0.10710955773E+02  0.51100000000E-03 0.  1.
         12    1    4    4    0    0 -0.20167425671E+01 -0.33664079067E+01 -0.79984226354E+01  0.89092489824E+01  0.00000000000E+00 0. -1.
</event>
<event>
 8    1  0.2502431E-006  0.9118800E+02  0.7816164E-02  0.1184000E+00
        -11   -1    0    0    0    0  0.00000000000E+00  0.00000000000E+00  0.45593999997E+02  0.45594000000E+02  0.51100000000E-03 0. -1.
         11   -1    0    0    0    0 -0.00000000000E+00 -0.00000000000E+00 -0.45593999997E+02  0.45594000000E+02  0.51100000000E-03 0.  1.
         23    2    1    2    0    0  0.00000000000E+00  0.00000000000E+00 -0.71054273576E-14  0.91188000000E+02  0.91188000000E+02 0.  0.
    9900012    2    3    3    0    0 -0.47469251495E+01  0.12332359221E+02  0.34368112735E+02  0.54366979437E+02  0.39999761222E+02 0.  0.
        -12    1    3    3    0    0  0.47469251495E+01 -0.12332359221E+02 -0.34368112735E+02  0.36821020563E+02  0.00000000000E+00 0.  1.
         11    1    4    4    0    0 -0.58967456163E-01 -0.48665276186E+01  0.18317681772E+02  0.18953206430E+02  0.51100000000E-03 0. -1.
        -11    1    4    4    0    0 -0.10923193593E+02  0.13240336676E+02 -0.62499599679E+00  0.17175951031E+02  0.51100000000E-03 0.  1.
        -12    1    4    4    0    0  0.62352358998E+01  0.39585501639E+01  0.16675426960E+02  0.18237821976E+02  0.00000000000E+00 0.  1.
</event>
<event>
 8    1  0.2502431E-006  0.9118800E+02  0.7816164E-02  0.1184000E+00
        -11   -1    0    0    0    0  0.00000000000E+00  0.00000000000E+00  0.45593999997E+02  0.45594000000E+02  0.51100000000E-03 0.  1.
         11   -1    0    0    0    0 -0.00000000000E+00 -0.00000000000E+00 -0.45593999997E+02  0.45594000000E+02  0.51100000000E-03 0. -1.
         23    2    1    2    0    0  0.00000000000E+00  0.35527136788E-14  0.00000000000E+00  0.91188000000E+02  0.91188000000E+02 0.  0.
    9900012    2    3    3    0    0  0.92232442258E+01  0.19543005974E+02 -0.29812473742E+02  0.54367069713E+02  0.39999967025E+02 0.  0.
        -12    1    3    3    0    0 -0.92232442258E+01 -0.19543005974E+02  0.29812473742E+02  0.36820930287E+02  0.00000000000E+00 0.  1.
         11    1    4    4    0    0  0.83243822682E+01  0.17433844602E+02 -0.14832748988E+02  0.24356615540E+02  0.51100000000E-03 0. -1.
        -11    1    4    4    0    0 -0.12630752176E+01 -0.59590222550E+01 -0.19558397933E+02  0.20485024657E+02  0.51100000000E-03 0.  1.
        -12    1    4    4    0    0  0.21619371752E+01  0.80681836272E+01  0.45786731785E+01  0.95254295162E+01  0.00000000000E+00 0.  1.
</event>
<event>
 8    1  0.2502431E-006  0.9118800E+02  0.7816164E-02  0.1184000E+00
        -11   -1    0    0    0    0  0.00000000000E+00  0.00000000000E+00  0.45593999997E+02  0.45594000000E+02  0.51100000000E-03 0. -1.
         11   -1    0    0    0    0 -0.00000000000E+00 -0.00000000000E+00 -0.45593999997E+02  0.45594000000E+02  0.51100000000E-03 0.  1.
         23    2    1    2    0    0  0.13877787808E-15  0.00000000000E+00  0.00000000000E+00  0.91188000000E+02  0.91188000000E+02 0.  0.
    9900012    2    3    3    0    0  0.18866586544E+00 -0.35602750831E+02 -0.93908226708E+01  0.54367095449E+02  0.40000025695E+02 0.  0.
         12    1    3    3    0    0 -0.18866586544E+00  0.35602750831E+02  0.93908226708E+01  0.36820904551E+02  0.00000000000E+00 0. -1.
         11    1    4    4    0    0 -0.16095849144E+02 -0.20702951450E+02 -0.19805919511E+01  0.26298503819E+02  0.51100000000E-03 0. -1.
        -11    1    4    4    0    0  0.10609621959E+02 -0.43769797045E+01 -0.10676296957E+02  0.15674991114E+02  0.51100000000E-03 0.  1.
         12    1    4    4    0    0  0.56748930509E+01 -0.10522819676E+02  0.32660662373E+01  0.12393600516E+02  0.00000000000E+00 0. -1.
</event>
<event>
 8    1  0.2502431E-006  0.9118800E+02  0.7816164E-02  0.1184000E+00
        -11   -1    0    0    0    0  0.00000000000E+00  0.00000000000E+00  0.45593999997E+02  0.45594000000E+02  0.51100000000E-03 0. -1.
         11   -1    0    0    0    0 -0.00000000000E+00 -0.00000000000E+00 -0.45593999997E+02  0.45594000000E+02  0.51100000000E-03 0.  1.
         23    2    1    2    0    0  0.00000000000E+00  0.00000000000E+00 -0.88817841970E-15  0.91188000000E+02  0.91188000000E+02 0.  0.
    9900012    2    3    3    0    0 -0.15010071062E+02  0.33368545531E+02  0.41252033849E+01  0.54367090626E+02  0.40000014701E+02 0.  0.
         12    1    3    3    0    0  0.15010071062E+02 -0.33368545531E+02 -0.41252033849E+01  0.36820909374E+02  0.00000000000E+00 0. -1.
         11    1    4    4    0    0 -0.63346358539E+01  0.85959668602E+01  0.73104801552E+01  0.12940686922E+02  0.51100000000E-03 0. -1.
        -11    1    4    4    0    0 -0.17054271957E+02  0.21724459968E+01 -0.17366386577E+01  0.17279572555E+02  0.51100000000E-03 0.  1.
        -12    1    4    4    0    0  0.83788367489E+01  0.22600132674E+02 -0.14486381126E+01  0.24146831149E+02  0.00000000000E+00 0.  1.
</event>
<event>
 8    1  0.2502431E-006  0.9118800E+02  0.7816164E-02  0.1184000E+00
        -11   -1    0    0    0    0  0.00000000000E+00  0.00000000000E+00  0.45593999997E+02  0.45594000000E+02  0.51100000000E-03 0.  1.
         11   -1    0    0    0    0 -0.00000000000E+00 -0.00000000000E+00 -0.45593999997E+02  0.45594000000E+02  0.51100000000E-03 0. -1.
         23    2    1    2    0    0 -0.88817841970E-15  0.00000000000E+00  0.10658141036E-13  0.91188000000E+02  0.91188000000E+02 0.  0.
    9900012    2    3    3    0    0  0.51068326526E+01 -0.30034191421E+02 -0.20679645252E+02  0.54367080378E+02  0.39999991339E+02 0.  0.
        -12    1    3    3    0    0 -0.51068326526E+01  0.30034191421E+02  0.20679645252E+02  0.36820919622E+02  0.00000000000E+00 0.  1.
         11    1    4    4    0    0  0.89199170094E-01 -0.22419852494E+01  0.60800803270E+01  0.64808819920E+01  0.51100000000E-03 0. -1.
        -11    1    4    4    0    0 -0.20189630558E+01  0.53995304303E+01 -0.43951218829E+01  0.72490162998E+01  0.51100000000E-03 0.  1.
         12    1    4    4    0    0  0.70365965383E+01 -0.33191736602E+02 -0.22364603696E+02  0.40637182087E+02  0.00000000000E+00 0. -1.
</event>
<event>
 8    1  0.2502431E-006  0.9118800E+02  0.7816164E-02  0.1184000E+00
        -11   -1    0    0    0    0  0.00000000000E+00  0.00000000000E+00  0.45593999997E+02  0.45594000000E+02  0.51100000000E-03 0.  1.
         11   -1    0    0    0    0 -0.00000000000E+00 -0.00000000000E+00 -0.45593999997E+02  0.45594000000E+02  0.51100000000E-03 0. -1.
         23    2    1    2    0    0  0.00000000000E+00 -0.35527136788E-14  0.00000000000E+00  0.91188000000E+02  0.91188000000E+02 0.  0.
    9900012    2    3    3    0    0 -0.16917978258E+02 -0.26442609286E+02 -0.19244415643E+02  0.54367121309E+02  0.40000084647E+02 0.  0.
        -12    1    3    3    0    0  0.16917978258E+02  0.26442609286E+02  0.19244415643E+02  0.36820878691E+02  0.00000000000E+00 0.  1.
         11    1    4    4    0    0 -0.94558501489E+01 -0.15764724635E+02 -0.81785556005E+01  0.20120348327E+02  0.51100000000E-03 0. -1.
        -11    1    4    4    0    0 -0.58027297148E+01  0.85653421099E+01  0.25005401766E+01  0.10643752113E+02  0.51100000000E-03 0.  1.
         12    1    4    4    0    0 -0.16593983938E+01 -0.19243226761E+02 -0.13566400220E+02  0.23603020868E+02  0.00000000000E+00 0. -1.
</event>
<event>
 8    1  0.2502431E-006  0.9118800E+02  0.7816164E-02  0.1184000E+00
        -11   -1    0    0    0    0  0.00000000000E+00  0.00000000000E+00  0.45593999997E+02  0.45594000000E+02  0.51100000000E-03 0.  1.
         11   -1    0    0    0    0 -0.00000000000E+00 -0.00000000000E+00 -0.45593999997E+02  0.45594000000E+02  0.51100000000E-03 0. -1.
         23    2    1    2    0    0  0.00000000000E+00 -0.17763568394E-14  0.00000000000E+00  0.91188000000E+02  0.91188000000E+02 0.  0.
    9900012    2    3    3    0    0 -0.68036430690E+01  0.11852225612E+02  0.34190846306E+02  0.54367098570E+02  0.40000032810E+02 0.  0.
         12    1    3    3    0    0  0.68036430690E+01 -0.11852225612E+02 -0.34190846306E+02  0.36820901430E+02  0.00000000000E+00 0. -1.
         11    1    4    4    0    0  0.48321091673E+01  0.14532923051E+02  0.21437455838E+01  0.15464500535E+02  0.51100000000E-03 0. -1.
        -11    1    4    4    0    0 -0.13088924043E+02 -0.72037203545E+01  0.30402694668E+02  0.33875320852E+02  0.51100000000E-03 0.  1.
        -12    1    4    4    0    0  0.14531718063E+01  0.45230229163E+01  0.16444060550E+01  0.50272771829E+01  0.00000000000E+00 0.  1.
</event>
<event>
 8    1  0.2502431E-006  0.9118800E+02  0.7816164E-02  0.1184000E+00
        -11   -1    0    0    0    0  0.00000000000E+00  0.00000000000E+00  0.45593999997E+02  0.45594000000E+02  0.51100000000E-03 0.  1.
         11   -1    0    0    0    0 -0.00000000000E+00 -0.00000000000E+00 -0.45593999997E+02  0.45594000000E+02  0.51100000000E-03 0. -1.
         23    2    1    2    0    0  0.00000000000E+00 -0.35527136788E-14  0.00000000000E+00  0.91188000000E+02  0.91188000000E+02 0.  0.
    9900012    2    3    3    0    0 -0.16871455157E+02  0.24197746785E+02 -0.22036332020E+02  0.54367124433E+02  0.40000091770E+02 0.  0.
        -12    1    3    3    0    0  0.16871455157E+02 -0.24197746785E+02  0.22036332020E+02  0.36820875567E+02  0.00000000000E+00 0.  1.
         11    1    4    4    0    0  0.32860365303E+01  0.24605353813E+02 -0.52051618215E+01  0.25363658691E+02  0.51100000000E-03 0. -1.
        -11    1    4    4    0    0 -0.72148319375E+01  0.44262625325E+01 -0.19274072432E+01  0.86810424970E+01  0.51100000000E-03 0.  1.
         12    1    4    4    0    0 -0.12942659750E+02 -0.48338695600E+01 -0.14903762956E+02  0.20322423245E+02  0.00000000000E+00 0. -1.
</event>
<event>
 8    1  0.2502431E-006  0.9118800E+02  0.7816164E-02  0.1184000E+00
        -11   -1    0    0    0    0  0.00000000000E+00  0.00000000000E+00  0.45593999997E+02  0.45594000000E+02  0.51100000000E-03 0.  1.
         11   -1    0    0    0    0 -0.00000000000E+00 -0.00000000000E+00 -0.45593999997E+02  0.45594000000E+02  0.51100000000E-03 0. -1.
         23    2    1    2    0    0  0.00000000000E+00  0.00000000000E+00  0.00000000000E+00  0.91188000000E+02  0.91188000000E+02 0.  0.
    9900012    2    3    3    0    0 -0.14053065497E+02  0.33693537209E+02 -0.47996836946E+01  0.54367081175E+02  0.39999993155E+02 0.  0.
        -12    1    3    3    0    0  0.14053065497E+02 -0.33693537209E+02  0.47996836946E+01  0.36820918825E+02  0.00000000000E+00 0.  1.
         11    1    4    4    0    0 -0.12560422765E+02  0.36954217907E+01 -0.14714558288E+01  0.13175186707E+02  0.51100000000E-03 0. -1.
        -11    1    4    4    0    0 -0.87620928346E+01  0.32060951420E+02 -0.87871301000E+00  0.33248323471E+02  0.51100000000E-03 0.  1.
         12    1    4    4    0    0  0.72694501020E+01 -0.20628360018E+01 -0.24495148558E+01  0.79435709970E+01  0.00000000000E+00 0. -1.
</event>
<event>
 8    1  0.2502431E-006  0.9118800E+02  0.7816164E-02  0.1184000E+00
        -11   -1    0    0    0    0  0.00000000000E+00  0.00000000000E+00  0.45593999997E+02  0.45594000000E+02  0.51100000000E-03 0. -1.
         11   -1    0    0    0    0 -0.00000000000E+00 -0.00000000000E+00 -0.45593999997E+02  0.45594000000E+02  0.51100000000E-03 0.  1.
         23    2    1    2    0    0  0.00000000000E+00  0.00000000000E+00 -0.35527136788E-14  0.91188000000E+02  0.91188000000E+02 0.  0.
    9900012    2    3    3    0    0  0.65765969735E+01 -0.24478739967E+02  0.26708035536E+02  0.54367088817E+02  0.40000010576E+02 0.  0.
        -12    1    3    3    0    0 -0.65765969735E+01  0.24478739967E+02 -0.26708035536E+02  0.36820911183E+02  0.00000000000E+00 0.  1.
         11    1    4    4    0    0  0.14549377418E+02 -0.53702615501E+01  0.12316026027E+02  0.19804256859E+02  0.51100000000E-03 0. -1.
        -11    1    4    4    0    0 -0.34271193283E+01 -0.12366239038E+02 -0.48146083868E+01  0.13705818801E+02  0.51100000000E-03 0.  1.
        -12    1    4    4    0    0 -0.45456611165E+01 -0.67422393796E+01  0.19206617896E+02  0.20857013157E+02  0.00000000000E+00 0.  1.
</event>
<event>
 8    1  0.2502431E-006  0.9118800E+02  0.7816164E-02  0.1184000E+00
        -11   -1    0    0    0    0  0.00000000000E+00  0.00000000000E+00  0.45593999997E+02  0.45594000000E+02  0.51100000000E-03 0.  1.
         11   -1    0    0    0    0 -0.00000000000E+00 -0.00000000000E+00 -0.45593999997E+02  0.45594000000E+02  0.51100000000E-03 0. -1.
         23    2    1    2    0    0 -0.88817841970E-15  0.00000000000E+00  0.00000000000E+00  0.91188000000E+02  0.91188000000E+02 0.  0.
    9900012    2    3    3    0    0  0.71512507969E+01  0.32970650832E+02  0.14750424790E+02  0.54367092411E+02  0.40000018768E+02 0.  0.
         12    1    3    3    0    0 -0.71512507969E+01 -0.32970650832E+02 -0.14750424790E+02  0.36820907589E+02  0.00000000000E+00 0. -1.
         11    1    4    4    0    0  0.44476816478E+01  0.64097742119E+01 -0.73720122728E+01  0.10733761815E+02  0.51100000000E-03 0. -1.
        -11    1    4    4    0    0 -0.36060411025E+00  0.20188180980E+02 -0.22625887646E+00  0.20192668966E+02  0.51100000000E-03 0.  1.
        -12    1    4    4    0    0  0.30641732594E+01  0.63726956396E+01  0.22348695939E+02  0.23440661630E+02  0.00000000000E+00 0.  1.
</event>
<event>
 8    1  0.2502431E-006  0.9118800E+02  0.7816164E-02  0.1184000E+00
        -11   -1    0    0    0    0  0.00000000000E+00  0.00000000000E+00  0.45593999997E+02  0.45594000000E+02  0.51100000000E-03 0. -1.
         11   -1    0    0    0    0 -0.00000000000E+00 -0.00000000000E+00 -0.45593999997E+02  0.45594000000E+02  0.51100000000E-03 0.  1.
         23    2    1    2    0    0  0.35527136788E-14  0.35527136788E-14 -0.88817841970E-15  0.91188000000E+02  0.91188000000E+02 0.  0.
    9900012    2    3    3    0    0 -0.22570109745E+02 -0.28004422613E+02 -0.78817973843E+01  0.54367078368E+02  0.39999986756E+02 0.  0.
         12    1    3    3    0    0  0.22570109745E+02  0.28004422613E+02  0.78817973843E+01  0.36820921632E+02  0.00000000000E+00 0. -1.
         11    1    4    4    0    0  0.20992318548E+01 -0.65357137979E+01 -0.75064586331E+01  0.10171983617E+02  0.51100000000E-03 0. -1.
        -11    1    4    4    0    0 -0.53541388817E+01 -0.23390579567E+02 -0.43370646769E+01  0.24384342228E+02  0.51100000000E-03 0.  1.
         12    1    4    4    0    0 -0.19315202718E+02  0.19218707510E+01  0.39617259257E+01  0.19810752523E+02  0.00000000000E+00 0. -1.
</event>
<event>
 8    1  0.2502431E-006  0.9118800E+02  0.7816164E-02  0.1184000E+00
        -11   -1    0    0    0    0  0.00000000000E+00  0.00000000000E+00  0.45593999997E+02  0.45594000000E+02  0.51100000000E-03 0.  1.
         11   -1    0    0    0    0 -0.00000000000E+00 -0.00000000000E+00 -0.45593999997E+02  0.45594000000E+02  0.51100000000E-03 0. -1.
         23    2    1    2    0    0  0.00000000000E+00  0.00000000000E+00  0.00000000000E+00  0.91188000000E+02  0.91188000000E+02 0.  0.
    9900012    2    3    3    0    0  0.32356105821E+02  0.31782431722E+01 -0.17284707414E+02  0.54367083065E+02  0.39999997462E+02 0.  0.
        -12    1    3    3    0    0 -0.32356105821E+02 -0.31782431722E+01  0.17284707414E+02  0.36820916935E+02  0.00000000000E+00 0.  1.
         11    1    4    4    0    0  0.23498583226E+02  0.11211146163E+02  0.47328132852E+01  0.26462666793E+02  0.51100000000E-03 0. -1.
        -11    1    4    4    0    0  0.15677528169E+01 -0.48965082240E+01 -0.73898479489E+00  0.51942025828E+01  0.51100000000E-03 0.  1.
        -12    1    4    4    0    0  0.72897697781E+01 -0.31363947672E+01 -0.21278535905E+02  0.22710213689E+02  0.00000000000E+00 0.  1.
</event>
<event>
 8    1  0.2502431E-006  0.9118800E+02  0.7816164E-02  0.1184000E+00
        -11   -1    0    0    0    0  0.00000000000E+00  0.00000000000E+00  0.45593999997E+02  0.45594000000E+02  0.51100000000E-03 0.  1.
         11   -1    0    0    0    0 -0.00000000000E+00 -0.00000000000E+00 -0.45593999997E+02  0.45594000000E+02  0.51100000000E-03 0. -1.
         23    2    1    2    0    0 -0.19428902931E-15  0.00000000000E+00  0.17763568394E-14  0.91188000000E+02  0.91188000000E+02 0.  0.
    9900012    2    3    3    0    0  0.23285628791E+00  0.33227203310E+02  0.15864311117E+02  0.54367114228E+02  0.40000068504E+02 0.  0.
        -12    1    3    3    0    0 -0.23285628791E+00 -0.33227203310E+02 -0.15864311117E+02  0.36820885772E+02  0.00000000000E+00 0.  1.
         11    1    4    4    0    0 -0.89812973927E+01  0.11285416150E+00  0.14811485922E+02  0.17322140584E+02  0.51100000000E-03 0. -1.
        -11    1    4    4    0    0  0.34208797519E+00  0.12258542537E+02 -0.55174882396E+01  0.13447362792E+02  0.51100000000E-03 0.  1.
        -12    1    4    4    0    0  0.88720657054E+01  0.20855806611E+02  0.65703134343E+01  0.23597610852E+02  0.00000000000E+00 0.  1.
</event>
<event>
 8    1  0.2502431E-006  0.9118800E+02  0.7816164E-02  0.1184000E+00
        -11   -1    0    0    0    0  0.00000000000E+00  0.00000000000E+00  0.45593999997E+02  0.45594000000E+02  0.51100000000E-03 0.  1.
         11   -1    0    0    0    0 -0.00000000000E+00 -0.00000000000E+00 -0.45593999997E+02  0.45594000000E+02  0.51100000000E-03 0. -1.
         23    2    1    2    0    0  0.00000000000E+00  0.35527136788E-14  0.00000000000E+00  0.91188000000E+02  0.91188000000E+02 0.  0.
    9900012    2    3    3    0    0  0.24760141765E+02  0.22165590889E+02 -0.15855660550E+02  0.54367081881E+02  0.39999994764E+02 0.  0.
        -12    1    3    3    0    0 -0.24760141765E+02 -0.22165590889E+02  0.15855660550E+02  0.36820918119E+02  0.00000000000E+00 0.  1.
         11    1    4    4    0    0  0.16633969422E+02  0.14797967423E+02 -0.15594645106E+02  0.27182011236E+02  0.51100000000E-03 0. -1.
        -11    1    4    4    0    0 -0.76099204985E+01  0.31307305554E+01  0.55029822210E+01  0.98992513550E+01  0.51100000000E-03 0.  1.
        -12    1    4    4    0    0  0.15736092841E+02  0.42368929102E+01 -0.57639976654E+01  0.17285819290E+02  0.00000000000E+00 0.  1.
</event>
<event>
 8    1  0.2502431E-006  0.9118800E+02  0.7816164E-02  0.1184000E+00
        -11   -1    0    0    0    0  0.00000000000E+00  0.00000000000E+00  0.45593999997E+02  0.45594000000E+02  0.51100000000E-03 0. -1.
         11   -1    0    0    0    0 -0.00000000000E+00 -0.00000000000E+00 -0.45593999997E+02  0.45594000000E+02  0.51100000000E-03 0.  1.
         23    2    1    2    0    0  0.00000000000E+00  0.00000000000E+00 -0.11102230246E-14  0.91188000000E+02  0.91188000000E+02 0.  0.
    9900012    2    3    3    0    0  0.36496467789E+02  0.46777932563E+01  0.13804892127E+01  0.54367086631E+02  0.40000005593E+02 0.  0.
         12    1    3    3    0    0 -0.36496467789E+02 -0.46777932563E+01 -0.13804892127E+01  0.36820913369E+02  0.00000000000E+00 0. -1.
         11    1    4    4    0    0  0.29202360540E+02 -0.25390460153E+01  0.80561406290E+01  0.30399441078E+02  0.51100000000E-03 0. -1.
        -11    1    4    4    0    0  0.81397366904E+01 -0.57867053172E+01 -0.27784395015E+01  0.10366339669E+02  0.51100000000E-03 0.  1.
         12    1    4    4    0    0 -0.84562944133E+00  0.13003544589E+02 -0.38972119148E+01  0.13601305883E+02  0.00000000000E+00 0. -1.
</event>
<event>
 8    1  0.2502431E-006  0.9118800E+02  0.7816164E-02  0.1184000E+00
        -11   -1    0    0    0    0  0.00000000000E+00  0.00000000000E+00  0.45593999997E+02  0.45594000000E+02  0.51100000000E-03 0.  1.
         11   -1    0    0    0    0 -0.00000000000E+00 -0.00000000000E+00 -0.45593999997E+02  0.45594000000E+02  0.51100000000E-03 0. -1.
         23    2    1    2    0    0 -0.13322676296E-14  0.17763568394E-14  0.00000000000E+00  0.91188000000E+02  0.91188000000E+02 0.  0.
    9900012    2    3    3    0    0 -0.39523455058E+01 -0.71180158405E+01  0.35909528758E+02  0.54367062476E+02  0.39999950528E+02 0.  0.
         12    1    3    3    0    0  0.39523455058E+01  0.71180158405E+01 -0.35909528758E+02  0.36820937524E+02  0.00000000000E+00 0. -1.
         11    1    4    4    0    0  0.22439071231E+01 -0.20379965027E+02  0.11270730529E+02  0.23396740384E+02  0.51100000000E-03 0. -1.
        -11    1    4    4    0    0 -0.69913621541E+01  0.56626094227E+01  0.59674670145E+01  0.10796061924E+02  0.51100000000E-03 0.  1.
         12    1    4    4    0    0  0.79510952519E+00  0.75993397640E+01  0.18671331215E+02  0.20174260168E+02  0.00000000000E+00 0. -1.
</event>
<event>
 8    1  0.2502431E-006  0.9118800E+02  0.7816164E-02  0.1184000E+00
        -11   -1    0    0    0    0  0.00000000000E+00  0.00000000000E+00  0.45593999997E+02  0.45594000000E+02  0.51100000000E-03 0.  1.
         11   -1    0    0    0    0 -0.00000000000E+00 -0.00000000000E+00 -0.45593999997E+02  0.45594000000E+02  0.51100000000E-03 0. -1.
         23    2    1    2    0    0 -0.71054273576E-14  0.00000000000E+00  0.23418766926E-15  0.91188000000E+02  0.91188000000E+02 0.  0.
    9900012    2    3    3    0    0 -0.33374811533E+02  0.15553150863E+02 -0.31181672845E-02  0.54367101636E+02  0.40000039800E+02 0.  0.
         12    1    3    3    0    0  0.33374811533E+02 -0.15553150863E+02  0.31181672845E-02  0.36820898364E+02  0.00000000000E+00 0. -1.
         11    1    4    4    0    0  0.24259983495E+01  0.27226498233E+00 -0.87637303911E+01  0.90973934092E+01  0.51100000000E-03 0. -1.
        -11    1    4    4    0    0 -0.73218400430E-01  0.27953323591E+00  0.64448878967E+01  0.64513626488E+01  0.51100000000E-03 0.  1.
        -12    1    4    4    0    0 -0.35727591482E+02  0.15001352645E+02  0.23157243272E+01  0.38818345578E+02  0.00000000000E+00 0.  1.
</event>
<event>
 8    1  0.2502431E-006  0.9118800E+02  0.7816164E-02  0.1184000E+00
        -11   -1    0    0    0    0  0.00000000000E+00  0.00000000000E+00  0.45593999997E+02  0.45594000000E+02  0.51100000000E-03 0.  1.
         11   -1    0    0    0    0 -0.00000000000E+00 -0.00000000000E+00 -0.45593999997E+02  0.45594000000E+02  0.51100000000E-03 0. -1.
         23    2    1    2    0    0  0.00000000000E+00 -0.17763568394E-14  0.88817841970E-15  0.91188000000E+02  0.91188000000E+02 0.  0.
    9900012    2    3    3    0    0  0.33453162364E+02 -0.14034585062E+02  0.63006820641E+01  0.54367051554E+02  0.39999925628E+02 0.  0.
        -12    1    3    3    0    0 -0.33453162364E+02  0.14034585062E+02 -0.63006820641E+01  0.36820948446E+02  0.00000000000E+00 0.  1.
         11    1    4    4    0    0 -0.12156624905E+01  0.32554532064E+01 -0.53212277833E+01  0.63554131458E+01  0.51100000000E-03 0. -1.
        -11    1    4    4    0    0  0.34789777902E+02 -0.21434614879E+02  0.14045009943E+02  0.43209184973E+02  0.51100000000E-03 0.  1.
        -12    1    4    4    0    0 -0.12095304790E+00  0.41445766108E+01 -0.24231000959E+01  0.48024534352E+01  0.00000000000E+00 0.  1.
</event>
<event>
 8    1  0.2502431E-006  0.9118800E+02  0.7816164E-02  0.1184000E+00
        -11   -1    0    0    0    0  0.00000000000E+00  0.00000000000E+00  0.45593999997E+02  0.45594000000E+02  0.51100000000E-03 0. -1.
         11   -1    0    0    0    0 -0.00000000000E+00 -0.00000000000E+00 -0.45593999997E+02  0.45594000000E+02  0.51100000000E-03 0.  1.
         23    2    1    2    0    0 -0.35527136788E-14  0.00000000000E+00 -0.71054273576E-14  0.91188000000E+02  0.91188000000E+02 0.  0.
    9900012    2    3    3    0    0 -0.92440990438E+01  0.56089072048E+00 -0.35637161532E+02  0.54367146566E+02  0.40000142227E+02 0.  0.
         12    1    3    3    0    0  0.92440990438E+01 -0.56089072048E+00  0.35637161532E+02  0.36820853434E+02  0.00000000000E+00 0. -1.
         11    1    4    4    0    0 -0.30833608670E+01  0.55656683546E+01  0.24757356265E+01  0.68273747241E+01  0.51100000000E-03 0. -1.
        -11    1    4    4    0    0 -0.16705944806E+02 -0.15979144296E+01 -0.18240039826E+02  0.24785902757E+02  0.51100000000E-03 0.  1.
        -12    1    4    4    0    0  0.10545206629E+02 -0.34068632045E+01 -0.19872857333E+02  0.22753869085E+02  0.00000000000E+00 0.  1.
</event>
<event>
 8    1  0.2502431E-006  0.9118800E+02  0.7816164E-02  0.1184000E+00
        -11   -1    0    0    0    0  0.00000000000E+00  0.00000000000E+00  0.45593999997E+02  0.45594000000E+02  0.51100000000E-03 0.  1.
         11   -1    0    0    0    0 -0.00000000000E+00 -0.00000000000E+00 -0.45593999997E+02  0.45594000000E+02  0.51100000000E-03 0. -1.
         23    2    1    2    0    0  0.17763568394E-14  0.00000000000E+00  0.35527136788E-14  0.91188000000E+02  0.91188000000E+02 0.  0.
    9900012    2    3    3    0    0 -0.12566040652E+02 -0.24660083632E+02 -0.24284866948E+02  0.54367083864E+02  0.39999999285E+02 0.  0.
        -12    1    3    3    0    0  0.12566040652E+02  0.24660083632E+02  0.24284866948E+02  0.36820916136E+02  0.00000000000E+00 0.  1.
         11    1    4    4    0    0 -0.75136739148E+01 -0.25485935474E+01  0.53637911081E+01  0.95771018623E+01  0.51100000000E-03 0. -1.
        -11    1    4    4    0    0 -0.31265935799E+01  0.87577971218E+00 -0.19188688307E+02  0.19461457724E+02  0.51100000000E-03 0.  1.
         12    1    4    4    0    0 -0.19257731569E+01 -0.22987269797E+02 -0.10459969748E+02  0.25328524278E+02  0.00000000000E+00 0. -1.
</event>
<event>
 8    1  0.2502431E-006  0.9118800E+02  0.7816164E-02  0.1184000E+00
        -11   -1    0    0    0    0  0.00000000000E+00  0.00000000000E+00  0.45593999997E+02  0.45594000000E+02  0.51100000000E-03 0.  1.
         11   -1    0    0    0    0 -0.00000000000E+00 -0.00000000000E+00 -0.45593999997E+02  0.45594000000E+02  0.51100000000E-03 0. -1.
         23    2    1    2    0    0  0.00000000000E+00  0.17763568394E-14  0.35527136788E-14  0.91188000000E+02  0.91188000000E+02 0.  0.
    9900012    2    3    3    0    0  0.28611327508E+02 -0.12242883884E+02 -0.19679490391E+02  0.54367100913E+02  0.40000038150E+02 0.  0.
         12    1    3    3    0    0 -0.28611327508E+02  0.12242883884E+02  0.19679490391E+02  0.36820899087E+02  0.00000000000E+00 0. -1.
         11    1    4    4    0    0 -0.56306188453E+01 -0.96655721802E+01  0.30403974569E+01  0.11591857966E+02  0.51100000000E-03 0. -1.
        -11    1    4    4    0    0  0.58875996004E+01  0.38381586469E+01 -0.59867371300E+01  0.92323514111E+01  0.51100000000E-03 0.  1.
         12    1    4    4    0    0  0.28354346753E+02 -0.64154703506E+01 -0.16733150718E+02  0.33542891535E+02  0.00000000000E+00 0. -1.
</event>
<event>
 8    1  0.2502431E-006  0.9118800E+02  0.7816164E-02  0.1184000E+00
        -11   -1    0    0    0    0  0.00000000000E+00  0.00000000000E+00  0.45593999997E+02  0.45594000000E+02  0.51100000000E-03 0.  1.
         11   -1    0    0    0    0 -0.00000000000E+00 -0.00000000000E+00 -0.45593999997E+02  0.45594000000E+02  0.51100000000E-03 0. -1.
         23    2    1    2    0    0  0.00000000000E+00  0.00000000000E+00 -0.26645352591E-14  0.91188000000E+02  0.91188000000E+02 0.  0.
    9900012    2    3    3    0    0 -0.34807634505E+02  0.11240687306E+02  0.42253826890E+01  0.54367104712E+02  0.40000046812E+02 0.  0.
         12    1    3    3    0    0  0.34807634505E+02 -0.11240687306E+02 -0.42253826890E+01  0.36820895288E+02  0.00000000000E+00 0. -1.
         11    1    4    4    0    0 -0.84873729914E+01 -0.59125838433E+00  0.76871848065E+01  0.11466381176E+02  0.51100000000E-03 0. -1.
        -11    1    4    4    0    0 -0.13902597670E+02  0.11528936426E+02  0.13018309897E+02  0.22263759564E+02  0.51100000000E-03 0.  1.
        -12    1    4    4    0    0 -0.12417663843E+02  0.30300926408E+00 -0.16480112015E+02  0.20636963971E+02  0.00000000000E+00 0.  1.
</event>
<event>
 8    1  0.2502431E-006  0.9118800E+02  0.7816164E-02  0.1184000E+00
        -11   -1    0    0    0    0  0.00000000000E+00  0.00000000000E+00  0.45593999997E+02  0.45594000000E+02  0.51100000000E-03 0.  1.
         11   -1    0    0    0    0 -0.00000000000E+00 -0.00000000000E+00 -0.45593999997E+02  0.45594000000E+02  0.51100000000E-03 0. -1.
         23    2    1    2    0    0  0.00000000000E+00 -0.17763568394E-14  0.00000000000E+00  0.91188000000E+02  0.91188000000E+02 0.  0.
    9900012    2    3    3    0    0 -0.31013265875E+02  0.76738414611E+01 -0.18304854568E+02  0.54367106423E+02  0.40000050713E+02 0.  0.
        -12    1    3    3    0    0  0.31013265875E+02 -0.76738414611E+01  0.18304854568E+02  0.36820893577E+02  0.00000000000E+00 0.  1.
         11    1    4    4    0    0  0.37401951249E+01 -0.10139368009E+02 -0.51479159782E+01  0.11970667582E+02  0.51100000000E-03 0. -1.
        -11    1    4    4    0    0 -0.32512368351E+02  0.13052889744E+02 -0.11704746659E+02  0.36938233866E+02  0.51100000000E-03 0.  1.
         12    1    4    4    0    0 -0.22410926488E+01  0.47603197258E+01 -0.14521919305E+01  0.54582049755E+01  0.00000000000E+00 0. -1.
</event>
<event>
 8    1  0.2502431E-006  0.9118800E+02  0.7816164E-02  0.1184000E+00
        -11   -1    0    0    0    0  0.00000000000E+00  0.00000000000E+00  0.45593999997E+02  0.45594000000E+02  0.51100000000E-03 0.  1.
         11   -1    0    0    0    0 -0.00000000000E+00 -0.00000000000E+00 -0.45593999997E+02  0.45594000000E+02  0.51100000000E-03 0. -1.
         23    2    1    2    0    0  0.00000000000E+00  0.88817841970E-15 -0.17763568394E-14  0.91188000000E+02  0.91188000000E+02 0.  0.
    9900012    2    3    3    0    0  0.33101380408E+02 -0.31095967491E+01 -0.15824300417E+02  0.54367089357E+02  0.40000011807E+02 0.  0.
        -12    1    3    3    0    0 -0.33101380408E+02  0.31095967491E+01  0.15824300417E+02  0.36820910643E+02  0.00000000000E+00 0.  1.
         11    1    4    4    0    0 -0.35705419968E+01  0.25143799482E+01 -0.11439649167E+02  0.12244854021E+02  0.51100000000E-03 0. -1.
        -11    1    4    4    0    0  0.70046517187E+01  0.47426766005E+01  0.43396390349E+01  0.95073968178E+01  0.51100000000E-03 0.  1.
         12    1    4    4    0    0  0.29667270686E+02 -0.10366653298E+02 -0.87242902846E+01  0.32614838518E+02  0.00000000000E+00 0. -1.
</event>
<event>
 8    1  0.2502431E-006  0.9118800E+02  0.7816164E-02  0.1184000E+00
        -11   -1    0    0    0    0  0.00000000000E+00  0.00000000000E+00  0.45593999997E+02  0.45594000000E+02  0.51100000000E-03 0. -1.
         11   -1    0    0    0    0 -0.00000000000E+00 -0.00000000000E+00 -0.45593999997E+02  0.45594000000E+02  0.51100000000E-03 0.  1.
         23    2    1    2    0    0  0.00000000000E+00 -0.71054273576E-14 -0.17763568394E-14  0.91188000000E+02  0.91188000000E+02 0.  0.
    9900012    2    3    3    0    0 -0.54316028075E+01  0.33445463461E+02  0.14411071714E+02  0.54367077645E+02  0.39999985107E+02 0.  0.
        -12    1    3    3    0    0  0.54316028075E+01 -0.33445463461E+02 -0.14411071714E+02  0.36820922355E+02  0.00000000000E+00 0.  1.
         11    1    4    4    0    0  0.41755510176E+01  0.33158665559E+02  0.18868144358E+02  0.38378890027E+02  0.51100000000E-03 0. -1.
        -11    1    4    4    0    0 -0.36221843478E+01 -0.54629443396E+01  0.27386545515E-01  0.65547487054E+01  0.51100000000E-03 0.  1.
         12    1    4    4    0    0 -0.59849694773E+01  0.57497422409E+01 -0.44844591896E+01  0.94334389119E+01  0.00000000000E+00 0. -1.
</event>
<event>
 8    1  0.2502431E-006  0.9118800E+02  0.7816164E-02  0.1184000E+00
        -11   -1    0    0    0    0  0.00000000000E+00  0.00000000000E+00  0.45593999997E+02  0.45594000000E+02  0.51100000000E-03 0.  1.
         11   -1    0    0    0    0 -0.00000000000E+00 -0.00000000000E+00 -0.45593999997E+02  0.45594000000E+02  0.51100000000E-03 0. -1.
         23    2    1    2    0    0 -0.35527136788E-14 -0.35527136788E-14  0.00000000000E+00  0.91188000000E+02  0.91188000000E+02 0.  0.
    9900012    2    3    3    0    0 -0.29678425114E+02 -0.14491986332E+02 -0.16277353944E+02  0.54367097831E+02  0.40000031126E+02 0.  0.
        -12    1    3    3    0    0  0.29678425114E+02  0.14491986332E+02  0.16277353944E+02  0.36820902169E+02  0.00000000000E+00 0.  1.
         11    1    4    4    0    0 -0.24791447692E+02 -0.54133008763E+01 -0.14777780604E+02  0.29364987739E+02  0.51100000000E-03 0. -1.
        -11    1    4    4    0    0 -0.69303096514E+01  0.18293443216E+01 -0.90758091564E+01  0.11564860769E+02  0.51100000000E-03 0.  1.
        -12    1    4    4    0    0  0.20433322299E+01 -0.10908029778E+02  0.75762358162E+01  0.13437249323E+02  0.00000000000E+00 0.  1.
</event>
<event>
 8    1  0.2502431E-006  0.9118800E+02  0.7816164E-02  0.1184000E+00
        -11   -1    0    0    0    0  0.00000000000E+00  0.00000000000E+00  0.45593999997E+02  0.45594000000E+02  0.51100000000E-03 0. -1.
         11   -1    0    0    0    0 -0.00000000000E+00 -0.00000000000E+00 -0.45593999997E+02  0.45594000000E+02  0.51100000000E-03 0.  1.
         23    2    1    2    0    0  0.00000000000E+00  0.88817841970E-15  0.00000000000E+00  0.91188000000E+02  0.91188000000E+02 0.  0.
    9900012    2    3    3    0    0  0.34672601849E+02  0.23797502239E+01 -0.12162849928E+02  0.54366980888E+02  0.39999764530E+02 0.  0.
         12    1    3    3    0    0 -0.34672601849E+02 -0.23797502239E+01  0.12162849928E+02  0.36821019112E+02  0.00000000000E+00 0. -1.
         11    1    4    4    0    0  0.30808886913E+02 -0.11374688749E+02 -0.68530446508E+01  0.33548998170E+02  0.51100000000E-03 0. -1.
        -11    1    4    4    0    0 -0.15149435800E+01  0.22024679243E+00 -0.60448087817E+01  0.62356456096E+01  0.51100000000E-03 0.  1.
        -12    1    4    4    0    0  0.53786585152E+01  0.13534192180E+02  0.73500350467E+00  0.14582337108E+02  0.00000000000E+00 0.  1.
</event>
<event>
 8    1  0.2502431E-006  0.9118800E+02  0.7816164E-02  0.1184000E+00
        -11   -1    0    0    0    0  0.00000000000E+00  0.00000000000E+00  0.45593999997E+02  0.45594000000E+02  0.51100000000E-03 0.  1.
         11   -1    0    0    0    0 -0.00000000000E+00 -0.00000000000E+00 -0.45593999997E+02  0.45594000000E+02  0.51100000000E-03 0. -1.
         23    2    1    2    0    0  0.00000000000E+00  0.00000000000E+00  0.88817841970E-15  0.91188000000E+02  0.91188000000E+02 0.  0.
    9900012    2    3    3    0    0  0.19020194398E+02 -0.31315678167E+02  0.36526418230E+01  0.54367064565E+02  0.39999955289E+02 0.  0.
        -12    1    3    3    0    0 -0.19020194398E+02  0.31315678167E+02 -0.36526418230E+01  0.36820935435E+02  0.00000000000E+00 0.  1.
         11    1    4    4    0    0  0.39356067879E+01 -0.23678724376E+02 -0.36419962275E+01  0.24278285064E+02  0.51100000000E-03 0. -1.
        -11    1    4    4    0    0  0.17402708684E+02 -0.12058708873E+02  0.11011466182E+02  0.23864599661E+02  0.51100000000E-03 0.  1.
        -12    1    4    4    0    0 -0.23181210741E+01  0.44217550823E+01 -0.37168281314E+01  0.62241798400E+01  0.00000000000E+00 0.  1.
</event>
<event>
 8    1  0.2502431E-006  0.9118800E+02  0.7816164E-02  0.1184000E+00
        -11   -1    0    0    0    0  0.00000000000E+00  0.00000000000E+00  0.45593999997E+02  0.45594000000E+02  0.51100000000E-03 0. -1.
         11   -1    0    0    0    0 -0.00000000000E+00 -0.00000000000E+00 -0.45593999997E+02  0.45594000000E+02  0.51100000000E-03 0.  1.
         23    2    1    2    0    0 -0.35527136788E-14  0.00000000000E+00 -0.35527136788E-14  0.91188000000E+02  0.91188000000E+02 0.  0.
    9900012    2    3    3    0    0  0.25779028691E+02  0.19487601535E+02  0.17648095267E+02  0.54367079310E+02  0.39999988904E+02 0.  0.
        -12    1    3    3    0    0 -0.25779028691E+02 -0.19487601535E+02 -0.17648095267E+02  0.36820920690E+02  0.00000000000E+00 0.  1.
         11    1    4    4    0    0  0.20606518002E+00 -0.14084789036E+01 -0.44992512489E+01  0.47190611081E+01  0.51100000000E-03 0. -1.
        -11    1    4    4    0    0 -0.47965567903E+01  0.11089064726E+02  0.30660817083E+01  0.12464957715E+02  0.51100000000E-03 0.  1.
         12    1    4    4    0    0  0.30369520302E+02  0.98070157133E+01  0.19081264808E+02  0.37183060487E+02  0.00000000000E+00 0. -1.
</event>
<event>
 8    1  0.2502431E-006  0.9118800E+02  0.7816164E-02  0.1184000E+00
        -11   -1    0    0    0    0  0.00000000000E+00  0.00000000000E+00  0.45593999997E+02  0.45594000000E+02  0.51100000000E-03 0.  1.
         11   -1    0    0    0    0 -0.00000000000E+00 -0.00000000000E+00 -0.45593999997E+02  0.45594000000E+02  0.51100000000E-03 0. -1.
         23    2    1    2    0    0 -0.88817841970E-15  0.00000000000E+00  0.71054273576E-14  0.91188000000E+02  0.91188000000E+02 0.  0.
    9900012    2    3    3    0    0 -0.14936482257E+01 -0.17515962452E+02  0.32353332491E+02  0.54367108526E+02  0.40000055507E+02 0.  0.
         12    1    3    3    0    0  0.14936482257E+01  0.17515962452E+02 -0.32353332491E+02  0.36820891474E+02  0.00000000000E+00 0. -1.
         11    1    4    4    0    0  0.41141244283E+01 -0.10387035624E+02  0.13854723402E+02  0.17798030500E+02  0.51100000000E-03 0. -1.
        -11    1    4    4    0    0  0.82737003418E+01  0.29244316200E+01 -0.28178231493E+01  0.92166450082E+01  0.51100000000E-03 0.  1.
        -12    1    4    4    0    0 -0.13881472996E+02 -0.10053358448E+02  0.21316432239E+02  0.27352433018E+02  0.00000000000E+00 0.  1.
</event>
<event>
 8    1  0.2502431E-006  0.9118800E+02  0.7816164E-02  0.1184000E+00
        -11   -1    0    0    0    0  0.00000000000E+00  0.00000000000E+00  0.45593999997E+02  0.45594000000E+02  0.51100000000E-03 0. -1.
         11   -1    0    0    0    0 -0.00000000000E+00 -0.00000000000E+00 -0.45593999997E+02  0.45594000000E+02  0.51100000000E-03 0.  1.
         23    2    1    2    0    0  0.00000000000E+00  0.00000000000E+00  0.00000000000E+00  0.91188000000E+02  0.91188000000E+02 0.  0.
    9900012    2    3    3    0    0 -0.74568907753E+01 -0.26290388358E+02  0.24677745122E+02  0.54367070567E+02  0.39999968971E+02 0.  0.
        -12    1    3    3    0    0  0.74568907753E+01  0.26290388358E+02 -0.24677745122E+02  0.36820929433E+02  0.00000000000E+00 0.  1.
         11    1    4    4    0    0  0.10175336409E+02 -0.12657342689E+02  0.22120950130E+02  0.27442343739E+02  0.51100000000E-03 0. -1.
        -11    1    4    4    0    0 -0.17219700034E+01 -0.47144440359E+01 -0.50889157496E+01  0.71476028868E+01  0.51100000000E-03 0.  1.
        -12    1    4    4    0    0 -0.15910257181E+02 -0.89186016327E+01  0.76457107411E+01  0.19777123941E+02  0.00000000000E+00 0.  1.
</event>
<event>
 8    1  0.2502431E-006  0.9118800E+02  0.7816164E-02  0.1184000E+00
        -11   -1    0    0    0    0  0.00000000000E+00  0.00000000000E+00  0.45593999997E+02  0.45594000000E+02  0.51100000000E-03 0. -1.
         11   -1    0    0    0    0 -0.00000000000E+00 -0.00000000000E+00 -0.45593999997E+02  0.45594000000E+02  0.51100000000E-03 0.  1.
         23    2    1    2    0    0  0.35527136788E-14  0.00000000000E+00  0.00000000000E+00  0.91188000000E+02  0.91188000000E+02 0.  0.
    9900012    2    3    3    0    0 -0.27431178299E+02 -0.99517857492E+01 -0.22455987264E+02  0.54367096338E+02  0.40000027721E+02 0.  0.
        -12    1    3    3    0    0  0.27431178299E+02  0.99517857492E+01  0.22455987264E+02  0.36820903662E+02  0.00000000000E+00 0.  1.
         11    1    4    4    0    0 -0.16915835501E+02 -0.13811359616E+02 -0.10792231560E+01  0.21864671688E+02  0.51100000000E-03 0. -1.
        -11    1    4    4    0    0 -0.74552424906E+01 -0.66656575952E+01 -0.18720280031E+02  0.21224055137E+02  0.51100000000E-03 0.  1.
        -12    1    4    4    0    0 -0.30601003080E+01  0.10525231462E+02 -0.26564840777E+01  0.11278369513E+02  0.00000000000E+00 0.  1.
</event>
<event>
 8    1  0.2502431E-006  0.9118800E+02  0.7816164E-02  0.1184000E+00
        -11   -1    0    0    0    0  0.00000000000E+00  0.00000000000E+00  0.45593999997E+02  0.45594000000E+02  0.51100000000E-03 0. -1.
         11   -1    0    0    0    0 -0.00000000000E+00 -0.00000000000E+00 -0.45593999997E+02  0.45594000000E+02  0.51100000000E-03 0.  1.
         23    2    1    2    0    0  0.00000000000E+00  0.71054273576E-14  0.00000000000E+00  0.91188000000E+02  0.91188000000E+02 0.  0.
    9900012    2    3    3    0    0 -0.13537358137E+02 -0.33368147604E+02 -0.76868285766E+01  0.54367072887E+02  0.39999974261E+02 0.  0.
         12    1    3    3    0    0  0.13537358137E+02  0.33368147604E+02  0.76868285766E+01  0.36820927113E+02  0.00000000000E+00 0. -1.
         11    1    4    4    0    0 -0.25602080663E+02 -0.25471700109E+02 -0.27218739598E+01  0.36217159453E+02  0.51100000000E-03 0. -1.
        -11    1    4    4    0    0  0.74255494597E+01 -0.83301373657E+01  0.24289681950E+00  0.11161943040E+02  0.51100000000E-03 0.  1.
         12    1    4    4    0    0  0.46391730667E+01  0.43368987049E+00 -0.52078514363E+01  0.69879703941E+01  0.00000000000E+00 0. -1.
</event>
<event>
 8    1  0.2502431E-006  0.9118800E+02  0.7816164E-02  0.1184000E+00
        -11   -1    0    0    0    0  0.00000000000E+00  0.00000000000E+00  0.45593999997E+02  0.45594000000E+02  0.51100000000E-03 0.  1.
         11   -1    0    0    0    0 -0.00000000000E+00 -0.00000000000E+00 -0.45593999997E+02  0.45594000000E+02  0.51100000000E-03 0. -1.
         23    2    1    2    0    0  0.17763568394E-14  0.17763568394E-14  0.00000000000E+00  0.91188000000E+02  0.91188000000E+02 0.  0.
    9900012    2    3    3    0    0 -0.72425499240E+01 -0.56468436422E+01 -0.35657237325E+02  0.54367082763E+02  0.39999996775E+02 0.  0.
        -12    1    3    3    0    0  0.72425499240E+01  0.56468436422E+01  0.35657237325E+02  0.36820917237E+02  0.00000000000E+00 0.  1.
         11    1    4    4    0    0 -0.79996383957E+01 -0.13270804093E+02 -0.17053490365E+02  0.23041918098E+02  0.51100000000E-03 0. -1.
        -11    1    4    4    0    0  0.38177151585E+01  0.66034293847E+01 -0.23919901101E+02  0.25106610635E+02  0.51100000000E-03 0.  1.
        -12    1    4    4    0    0 -0.30606266869E+01  0.10205310657E+01  0.53161541411E+01  0.62185540300E+01  0.00000000000E+00 0.  1.
</event>
<event>
 8    1  0.2502431E-006  0.9118800E+02  0.7816164E-02  0.1184000E+00
        -11   -1    0    0    0    0  0.00000000000E+00  0.00000000000E+00  0.45593999997E+02  0.45594000000E+02  0.51100000000E-03 0.  1.
         11   -1    0    0    0    0 -0.00000000000E+00 -0.00000000000E+00 -0.45593999997E+02  0.45594000000E+02  0.51100000000E-03 0. -1.
         23    2    1    2    0    0  0.00000000000E+00  0.35527136788E-14  0.00000000000E+00  0.91188000000E+02  0.91188000000E+02 0.  0.
    9900012    2    3    3    0    0  0.18121154593E+02  0.25521703840E+02 -0.19391902939E+02  0.54367088682E+02  0.40000010268E+02 0.  0.
        -12    1    3    3    0    0 -0.18121154593E+02 -0.25521703840E+02  0.19391902939E+02  0.36820911318E+02  0.00000000000E+00 0.  1.
         11    1    4    4    0    0 -0.64906443093E+01  0.28931709488E+00  0.34591254409E+00  0.65062910848E+01  0.51100000000E-03 0. -1.
        -11    1    4    4    0    0  0.18934003803E+02  0.26539879912E+02 -0.24133580243E+02  0.40562192019E+02  0.51100000000E-03 0.  1.
        -12    1    4    4    0    0  0.56777950993E+01 -0.13074931674E+01  0.43957647592E+01  0.72986055785E+01  0.00000000000E+00 0.  1.
</event>
<event>
 8    1  0.2502431E-006  0.9118800E+02  0.7816164E-02  0.1184000E+00
        -11   -1    0    0    0    0  0.00000000000E+00  0.00000000000E+00  0.45593999997E+02  0.45594000000E+02  0.51100000000E-03 0. -1.
         11   -1    0    0    0    0 -0.00000000000E+00 -0.00000000000E+00 -0.45593999997E+02  0.45594000000E+02  0.51100000000E-03 0.  1.
         23    2    1    2    0    0  0.00000000000E+00  0.35527136788E-14  0.00000000000E+00  0.91188000000E+02  0.91188000000E+02 0.  0.
    9900012    2    3    3    0    0 -0.10317475246E+02  0.30335068761E+02 -0.18141479722E+02  0.54367082321E+02  0.39999995768E+02 0.  0.
         12    1    3    3    0    0  0.10317475246E+02 -0.30335068761E+02  0.18141479722E+02  0.36820917679E+02  0.00000000000E+00 0. -1.
         11    1    4    4    0    0  0.53549473674E+01 -0.30860782725E+01 -0.83354776790E+01  0.10376874713E+02  0.51100000000E-03 0. -1.
        -11    1    4    4    0    0 -0.18574947696E+01  0.20157635213E+02 -0.13705012332E+02  0.24446020278E+02  0.51100000000E-03 0.  1.
        -12    1    4    4    0    0 -0.13814927844E+02  0.13263511821E+02  0.38990102889E+01  0.19544187330E+02  0.00000000000E+00 0.  1.
</event>
<event>
 8    1  0.2502431E-006  0.9118800E+02  0.7816164E-02  0.1184000E+00
        -11   -1    0    0    0    0  0.00000000000E+00  0.00000000000E+00  0.45593999997E+02  0.45594000000E+02  0.51100000000E-03 0. -1.
         11   -1    0    0    0    0 -0.00000000000E+00 -0.00000000000E+00 -0.45593999997E+02  0.45594000000E+02  0.51100000000E-03 0.  1.
         23    2    1    2    0    0  0.00000000000E+00 -0.35527136788E-14  0.00000000000E+00  0.91188000000E+02  0.91188000000E+02 0.  0.
    9900012    2    3    3    0    0 -0.32350697229E+02  0.17570589907E+02  0.69800629346E+00  0.54367075871E+02  0.39999981064E+02 0.  0.
        -12    1    3    3    0    0  0.32350697229E+02 -0.17570589907E+02 -0.69800629346E+00  0.36820924129E+02  0.00000000000E+00 0.  1.
         11    1    4    4    0    0 -0.26721020558E+02  0.38367174198E+01  0.14100449884E+02  0.30455804494E+02  0.51100000000E-03 0. -1.
        -11    1    4    4    0    0 -0.99113043270E+01  0.95955569291E+01 -0.85508998136E+01  0.16230420639E+02  0.51100000000E-03 0.  1.
         12    1    4    4    0    0  0.42816276559E+01  0.41383155581E+01 -0.48515437764E+01  0.76808507379E+01  0.00000000000E+00 0. -1.
</event>
<event>
 8    1  0.2502431E-006  0.9118800E+02  0.7816164E-02  0.1184000E+00
        -11   -1    0    0    0    0  0.00000000000E+00  0.00000000000E+00  0.45593999997E+02  0.45594000000E+02  0.51100000000E-03 0. -1.
         11   -1    0    0    0    0 -0.00000000000E+00 -0.00000000000E+00 -0.45593999997E+02  0.45594000000E+02  0.51100000000E-03 0.  1.
         23    2    1    2    0    0 -0.88817841970E-15 -0.35527136788E-14  0.00000000000E+00  0.91188000000E+02  0.91188000000E+02 0.  0.
    9900012    2    3    3    0    0  0.26830654208E+01  0.17074812971E+02  0.32512049254E+02  0.54367062685E+02  0.39999951004E+02 0.  0.
        -12    1    3    3    0    0 -0.26830654208E+01 -0.17074812971E+02 -0.32512049254E+02  0.36820937315E+02  0.00000000000E+00 0.  1.
         11    1    4    4    0    0 -0.12887907532E+01 -0.21893390888E+01  0.27104172734E+01  0.37149090578E+01  0.51100000000E-03 0. -1.
        -11    1    4    4    0    0  0.20011972302E+02  0.94211387876E+01  0.15327207485E+02  0.26910224470E+02  0.51100000000E-03 0.  1.
        -12    1    4    4    0    0 -0.16040116128E+02  0.98430132719E+01  0.14474424495E+02  0.23741929158E+02  0.00000000000E+00 0.  1.
</event>
<event>
 8    1  0.2502431E-006  0.9118800E+02  0.7816164E-02  0.1184000E+00
        -11   -1    0    0    0    0  0.00000000000E+00  0.00000000000E+00  0.45593999997E+02  0.45594000000E+02  0.51100000000E-03 0.  1.
         11   -1    0    0    0    0 -0.00000000000E+00 -0.00000000000E+00 -0.45593999997E+02  0.45594000000E+02  0.51100000000E-03 0. -1.
         23    2    1    2    0    0  0.00000000000E+00  0.88817841970E-15 -0.35527136788E-14  0.91188000000E+02  0.91188000000E+02 0.  0.
    9900012    2    3    3    0    0  0.21654367064E+02  0.54558517786E+01 -0.29276228743E+02  0.54367143126E+02  0.40000134383E+02 0.  0.
        -12    1    3    3    0    0 -0.21654367064E+02 -0.54558517786E+01  0.29276228743E+02  0.36820856874E+02  0.00000000000E+00 0.  1.
         11    1    4    4    0    0  0.10363084906E+02  0.11049289018E+02 -0.20652847318E+02  0.25612895564E+02  0.51100000000E-03 0. -1.
        -11    1    4    4    0    0  0.17603639414E+02  0.12113043689E+01 -0.29901569334E+01  0.17896827027E+02  0.51100000000E-03 0.  1.
        -12    1    4    4    0    0 -0.63123572565E+01 -0.68047416083E+01 -0.56332244919E+01  0.10857420535E+02  0.00000000000E+00 0.  1.
</event>
<event>
 8    1  0.2502431E-006  0.9118800E+02  0.7816164E-02  0.1184000E+00
        -11   -1    0    0    0    0  0.00000000000E+00  0.00000000000E+00  0.45593999997E+02  0.45594000000E+02  0.51100000000E-03 0.  1.
         11   -1    0    0    0    0 -0.00000000000E+00 -0.00000000000E+00 -0.45593999997E+02  0.45594000000E+02  0.51100000000E-03 0. -1.
         23    2    1    2    0    0  0.00000000000E+00  0.35527136788E-14  0.00000000000E+00  0.91188000000E+02  0.91188000000E+02 0.  0.
    9900012    2    3    3    0    0  0.23046730746E+02 -0.19096526437E+02  0.21446462386E+02  0.54367083813E+02  0.39999999168E+02 0.  0.
         12    1    3    3    0    0 -0.23046730746E+02  0.19096526437E+02 -0.21446462386E+02  0.36820916187E+02  0.00000000000E+00 0. -1.
         11    1    4    4    0    0 -0.88821670063E+01 -0.59163604749E+01  0.63811916607E+01  0.12434460956E+02  0.51100000000E-03 0. -1.
        -11    1    4    4    0    0  0.64600417808E+01  0.32369742807E+01  0.80737618572E+01  0.10834932999E+02  0.51100000000E-03 0.  1.
         12    1    4    4    0    0  0.25468855971E+02 -0.16417140243E+02  0.69915088678E+01  0.31097689858E+02  0.00000000000E+00 0. -1.
</event>
<event>
 8    1  0.2502431E-006  0.9118800E+02  0.7816164E-02  0.1184000E+00
        -11   -1    0    0    0    0  0.00000000000E+00  0.00000000000E+00  0.45593999997E+02  0.45594000000E+02  0.51100000000E-03 0.  1.
         11   -1    0    0    0    0 -0.00000000000E+00 -0.00000000000E+00 -0.45593999997E+02  0.45594000000E+02  0.51100000000E-03 0. -1.
         23    2    1    2    0    0  0.00000000000E+00 -0.17763568394E-14  0.00000000000E+00  0.91188000000E+02  0.91188000000E+02 0.  0.
    9900012    2    3    3    0    0  0.21263837682E+02 -0.10228859548E+02 -0.28266549426E+02  0.54367106786E+02  0.40000051541E+02 0.  0.
        -12    1    3    3    0    0 -0.21263837682E+02  0.10228859548E+02  0.28266549426E+02  0.36820893214E+02  0.00000000000E+00 0.  1.
         11    1    4    4    0    0  0.17149625373E+02  0.96732131516E+01 -0.26216692322E+02  0.32787126432E+02  0.51100000000E-03 0. -1.
        -11    1    4    4    0    0  0.45148463064E+01 -0.58742615009E+01 -0.83066528591E-01  0.74092972447E+01  0.51100000000E-03 0.  1.
         12    1    4    4    0    0 -0.40063399801E+00 -0.14027811199E+02 -0.19667905753E+01  0.14170683110E+02  0.00000000000E+00 0. -1.
</event>
<event>
 8    1  0.2502431E-006  0.9118800E+02  0.7816164E-02  0.1184000E+00
        -11   -1    0    0    0    0  0.00000000000E+00  0.00000000000E+00  0.45593999997E+02  0.45594000000E+02  0.51100000000E-03 0.  1.
         11   -1    0    0    0    0 -0.00000000000E+00 -0.00000000000E+00 -0.45593999997E+02  0.45594000000E+02  0.51100000000E-03 0. -1.
         23    2    1    2    0    0  0.00000000000E+00  0.35527136788E-14  0.00000000000E+00  0.91188000000E+02  0.91188000000E+02 0.  0.
    9900012    2    3    3    0    0 -0.24802139940E+02  0.19747998626E+02 -0.18725455712E+02  0.54367186770E+02  0.40000233878E+02 0.  0.
        -12    1    3    3    0    0  0.24802139940E+02 -0.19747998626E+02  0.18725455712E+02  0.36820813230E+02  0.00000000000E+00 0.  1.
         11    1    4    4    0    0  0.31119831147E+01  0.10483963438E+02 -0.20618137914E+01  0.11128746769E+02  0.51100000000E-03 0. -1.
        -11    1    4    4    0    0 -0.57279628006E+01  0.12215662761E+02 -0.15887515378E+02  0.20843347133E+02  0.51100000000E-03 0.  1.
         12    1    4    4    0    0 -0.22186160254E+02 -0.29516275730E+01 -0.77612654194E+00  0.22395092868E+02  0.00000000000E+00 0. -1.
</event>
<event>
 8    1  0.2502431E-006  0.9118800E+02  0.7816164E-02  0.1184000E+00
        -11   -1    0    0    0    0  0.00000000000E+00  0.00000000000E+00  0.45593999997E+02  0.45594000000E+02  0.51100000000E-03 0. -1.
         11   -1    0    0    0    0 -0.00000000000E+00 -0.00000000000E+00 -0.45593999997E+02  0.45594000000E+02  0.51100000000E-03 0.  1.
         23    2    1    2    0    0  0.53290705182E-14 -0.35527136788E-14  0.00000000000E+00  0.91188000000E+02  0.91188000000E+02 0.  0.
    9900012    2    3    3    0    0  0.12161710603E+02 -0.29846496881E+02  0.17806148575E+02  0.54367088714E+02  0.40000010340E+02 0.  0.
         12    1    3    3    0    0 -0.12161710603E+02  0.29846496881E+02 -0.17806148575E+02  0.36820911286E+02  0.00000000000E+00 0. -1.
         11    1    4    4    0    0 -0.77251058335E+01 -0.32500551693E+01  0.78251859210E+01  0.11466196130E+02  0.51100000000E-03 0. -1.
        -11    1    4    4    0    0  0.62606357893E+01 -0.12174114383E+02  0.17025137661E+02  0.21846279641E+02  0.51100000000E-03 0.  1.
         12    1    4    4    0    0  0.13626180648E+02 -0.14422327329E+02 -0.70441750071E+01  0.21054612942E+02  0.00000000000E+00 0. -1.
</event>
<event>
 8    1  0.2502431E-006  0.9118800E+02  0.7816164E-02  0.1184000E+00
        -11   -1    0    0    0    0  0.00000000000E+00  0.00000000000E+00  0.45593999997E+02  0.45594000000E+02  0.51100000000E-03 0.  1.
         11   -1    0    0    0    0 -0.00000000000E+00 -0.00000000000E+00 -0.45593999997E+02  0.45594000000E+02  0.51100000000E-03 0. -1.
         23    2    1    2    0    0  0.00000000000E+00  0.00000000000E+00  0.35527136788E-14  0.91188000000E+02  0.91188000000E+02 0.  0.
    9900012    2    3    3    0    0  0.19880842788E+02  0.73041988972E+01  0.30119445841E+02  0.54367078647E+02  0.39999987392E+02 0.  0.
         12    1    3    3    0    0 -0.19880842788E+02 -0.73041988972E+01 -0.30119445841E+02  0.36820921353E+02  0.00000000000E+00 0. -1.
         11    1    4    4    0    0 -0.48338064422E+01  0.32929560695E+01  0.15367657508E+01  0.60473873392E+01  0.51100000000E-03 0. -1.
        -11    1    4    4    0    0 -0.59802115289E+00  0.84111393347E+01 -0.17047405372E+01  0.86029666259E+01  0.51100000000E-03 0.  1.
        -12    1    4    4    0    0  0.25312670383E+02 -0.43998965070E+01  0.30287420628E+02  0.39716724682E+02  0.00000000000E+00 0.  1.
</event>
<event>
 8    1  0.2502431E-006  0.9118800E+02  0.7816164E-02  0.1184000E+00
        -11   -1    0    0    0    0  0.00000000000E+00  0.00000000000E+00  0.45593999997E+02  0.45594000000E+02  0.51100000000E-03 0. -1.
         11   -1    0    0    0    0 -0.00000000000E+00 -0.00000000000E+00 -0.45593999997E+02  0.45594000000E+02  0.51100000000E-03 0.  1.
         23    2    1    2    0    0  0.35527136788E-14 -0.35527136788E-14  0.00000000000E+00  0.91188000000E+02  0.91188000000E+02 0.  0.
    9900012    2    3    3    0    0 -0.30839594932E+02  0.11469174020E+02  0.16527220920E+02  0.54367196103E+02  0.40000255155E+02 0.  0.
         12    1    3    3    0    0  0.30839594932E+02 -0.11469174020E+02 -0.16527220920E+02  0.36820803897E+02  0.00000000000E+00 0. -1.
         11    1    4    4    0    0 -0.18171817193E+01  0.17758856794E+02  0.10003486347E+02  0.20463354646E+02  0.51100000000E-03 0. -1.
        -11    1    4    4    0    0 -0.25154421326E+02 -0.89773992558E+01  0.11149466260E+01  0.26731661301E+02  0.51100000000E-03 0.  1.
        -12    1    4    4    0    0 -0.38679918870E+01  0.26877164817E+01  0.54087879476E+01  0.71721801557E+01  0.00000000000E+00 0.  1.
</event>
<event>
 8    1  0.2502431E-006  0.9118800E+02  0.7816164E-02  0.1184000E+00
        -11   -1    0    0    0    0  0.00000000000E+00  0.00000000000E+00  0.45593999997E+02  0.45594000000E+02  0.51100000000E-03 0.  1.
         11   -1    0    0    0    0 -0.00000000000E+00 -0.00000000000E+00 -0.45593999997E+02  0.45594000000E+02  0.51100000000E-03 0. -1.
         23    2    1    2    0    0  0.00000000000E+00  0.00000000000E+00  0.00000000000E+00  0.91188000000E+02  0.91188000000E+02 0.  0.
    9900012    2    3    3    0    0 -0.87533798122E+01 -0.25378577253E+02  0.25200920154E+02  0.54367079070E+02  0.39999988357E+02 0.  0.
         12    1    3    3    0    0  0.87533798122E+01  0.25378577253E+02 -0.25200920154E+02  0.36820920930E+02  0.00000000000E+00 0. -1.
         11    1    4    4    0    0 -0.40194825426E+01 -0.12630679095E+02 -0.47430008943E+01  0.14077867454E+02  0.51100000000E-03 0. -1.
        -11    1    4    4    0    0 -0.42400399560E+01 -0.67357097791E+01 -0.16467764233E+01  0.81277055745E+01  0.51100000000E-03 0.  1.
        -12    1    4    4    0    0 -0.49385731360E+00 -0.60121883784E+01  0.31590697471E+02  0.32161506042E+02  0.00000000000E+00 0.  1.
</event>
<event>
 8    1  0.2502431E-006  0.9118800E+02  0.7816164E-02  0.1184000E+00
        -11   -1    0    0    0    0  0.00000000000E+00  0.00000000000E+00  0.45593999997E+02  0.45594000000E+02  0.51100000000E-03 0.  1.
         11   -1    0    0    0    0 -0.00000000000E+00 -0.00000000000E+00 -0.45593999997E+02  0.45594000000E+02  0.51100000000E-03 0. -1.
         23    2    1    2    0    0  0.00000000000E+00 -0.17763568394E-14 -0.35527136788E-14  0.91188000000E+02  0.91188000000E+02 0.  0.
    9900012    2    3    3    0    0 -0.30813621524E+02  0.10384609518E+02  0.17276031831E+02  0.54367073041E+02  0.39999974612E+02 0.  0.
         12    1    3    3    0    0  0.30813621524E+02 -0.10384609518E+02 -0.17276031831E+02  0.36820926959E+02  0.00000000000E+00 0. -1.
         11    1    4    4    0    0 -0.23320532275E+02  0.13467465596E+02  0.19593795681E+02  0.33303703767E+02  0.51100000000E-03 0. -1.
        -11    1    4    4    0    0 -0.95112101964E+01 -0.49446772319E+01  0.60135280852E+01  0.12291276281E+02  0.51100000000E-03 0.  1.
         12    1    4    4    0    0  0.20181209469E+01  0.18618211542E+01 -0.83312919355E+01  0.87720929932E+01  0.00000000000E+00 0. -1.
</event>
<event>
 8    1  0.2502431E-006  0.9118800E+02  0.7816164E-02  0.1184000E+00
        -11   -1    0    0    0    0  0.00000000000E+00  0.00000000000E+00  0.45593999997E+02  0.45594000000E+02  0.51100000000E-03 0.  1.
         11   -1    0    0    0    0 -0.00000000000E+00 -0.00000000000E+00 -0.45593999997E+02  0.45594000000E+02  0.51100000000E-03 0. -1.
         23    2    1    2    0    0 -0.35527136788E-14  0.00000000000E+00  0.35527136788E-14  0.91188000000E+02  0.91188000000E+02 0.  0.
    9900012    2    3    3    0    0  0.22899672350E+02  0.13298690101E+02 -0.25583792742E+02  0.54367073841E+02  0.39999976435E+02 0.  0.
        -12    1    3    3    0    0 -0.22899672350E+02 -0.13298690101E+02  0.25583792742E+02  0.36820926159E+02  0.00000000000E+00 0.  1.
         11    1    4    4    0    0  0.78691898923E+01  0.74599081935E+01 -0.79292622806E+01  0.13433077845E+02  0.51100000000E-03 0. -1.
        -11    1    4    4    0    0 -0.48366540524E+01  0.68989891181E+01  0.57615823592E+01  0.10207110503E+02  0.51100000000E-03 0.  1.
        -12    1    4    4    0    0  0.19867136510E+02 -0.10602072106E+01 -0.23416112821E+02  0.30726885493E+02  0.00000000000E+00 0.  1.
</event>
<event>
 8    1  0.2502431E-006  0.9118800E+02  0.7816164E-02  0.1184000E+00
        -11   -1    0    0    0    0  0.00000000000E+00  0.00000000000E+00  0.45593999997E+02  0.45594000000E+02  0.51100000000E-03 0. -1.
         11   -1    0    0    0    0 -0.00000000000E+00 -0.00000000000E+00 -0.45593999997E+02  0.45594000000E+02  0.51100000000E-03 0.  1.
         23    2    1    2    0    0  0.00000000000E+00  0.00000000000E+00  0.00000000000E+00  0.91188000000E+02  0.91188000000E+02 0.  0.
    9900012    2    3    3    0    0  0.29863052697E+02 -0.20867384611E+02  0.53413657159E+01  0.54367084142E+02  0.39999999918E+02 0.  0.
        -12    1    3    3    0    0 -0.29863052697E+02  0.20867384611E+02 -0.53413657159E+01  0.36820915858E+02  0.00000000000E+00 0.  1.
         11    1    4    4    0    0  0.13837032037E+02 -0.10189649788E+02  0.11976738498E+02  0.20945994455E+02  0.51100000000E-03 0. -1.
        -11    1    4    4    0    0 -0.73348040222E+01 -0.16983227863E+01  0.16341996343E-02  0.75288547112E+01  0.51100000000E-03 0.  1.
        -12    1    4    4    0    0  0.23360824683E+02 -0.89794120364E+01 -0.66370069814E+01  0.25892234976E+02  0.00000000000E+00 0.  1.
</event>
<event>
 8    1  0.2502431E-006  0.9118800E+02  0.7816164E-02  0.1184000E+00
        -11   -1    0    0    0    0  0.00000000000E+00  0.00000000000E+00  0.45593999997E+02  0.45594000000E+02  0.51100000000E-03 0. -1.
         11   -1    0    0    0    0 -0.00000000000E+00 -0.00000000000E+00 -0.45593999997E+02  0.45594000000E+02  0.51100000000E-03 0.  1.
         23    2    1    2    0    0  0.35527136788E-14  0.00000000000E+00  0.00000000000E+00  0.91188000000E+02  0.91188000000E+02 0.  0.
    9900012    2    3    3    0    0  0.19098729553E+02 -0.31002071816E+02 -0.54676268683E+01  0.54367015888E+02  0.39999844320E+02 0.  0.
         12    1    3    3    0    0 -0.19098729553E+02  0.31002071816E+02  0.54676268683E+01  0.36820984112E+02  0.00000000000E+00 0. -1.
         11    1    4    4    0    0 -0.25198693728E+01 -0.12476723184E+01 -0.82392829547E+01  0.87058722560E+01  0.51100000000E-03 0. -1.
        -11    1    4    4    0    0  0.12384161609E+02 -0.43165047535E+01  0.11274191656E+02  0.17294712192E+02  0.51100000000E-03 0.  1.
        -12    1    4    4    0    0  0.92344373160E+01 -0.25437894744E+02 -0.85025355696E+01  0.28366431440E+02  0.00000000000E+00 0.  1.
</event>
<event>
 8    1  0.2502431E-006  0.9118800E+02  0.7816164E-02  0.1184000E+00
        -11   -1    0    0    0    0  0.00000000000E+00  0.00000000000E+00  0.45593999997E+02  0.45594000000E+02  0.51100000000E-03 0.  1.
         11   -1    0    0    0    0 -0.00000000000E+00 -0.00000000000E+00 -0.45593999997E+02  0.45594000000E+02  0.51100000000E-03 0. -1.
         23    2    1    2    0    0 -0.13322676296E-14  0.00000000000E+00 -0.71054273576E-14  0.91188000000E+02  0.91188000000E+02 0.  0.
    9900012    2    3    3    0    0 -0.32183263025E+01 -0.29883677447E+01  0.36558037087E+02  0.54367108625E+02  0.40000055733E+02 0.  0.
         12    1    3    3    0    0  0.32183263025E+01  0.29883677447E+01 -0.36558037087E+02  0.36820891375E+02  0.00000000000E+00 0. -1.
         11    1    4    4    0    0 -0.15185131369E+01 -0.66791404664E+01  0.66470774062E+01  0.95446549347E+01  0.51100000000E-03 0. -1.
        -11    1    4    4    0    0 -0.13471522352E+02 -0.81033184112E+01  0.91089281144E+01  0.18169156706E+02  0.51100000000E-03 0.  1.
        -12    1    4    4    0    0  0.11771709187E+02  0.11794091133E+02  0.20802031567E+02  0.26653296984E+02  0.00000000000E+00 0.  1.
</event>
<event>
 8    1  0.2502431E-006  0.9118800E+02  0.7816164E-02  0.1184000E+00
        -11   -1    0    0    0    0  0.00000000000E+00  0.00000000000E+00  0.45593999997E+02  0.45594000000E+02  0.51100000000E-03 0. -1.
         11   -1    0    0    0    0 -0.00000000000E+00 -0.00000000000E+00 -0.45593999997E+02  0.45594000000E+02  0.51100000000E-03 0.  1.
         23    2    1    2    0    0  0.00000000000E+00  0.00000000000E+00  0.00000000000E+00  0.91188000000E+02  0.91188000000E+02 0.  0.
    9900012    2    3    3    0    0 -0.24669267567E+02 -0.26838590801E+02  0.51862499173E+01  0.54367083299E+02  0.39999997997E+02 0.  0.
        -12    1    3    3    0    0  0.24669267567E+02  0.26838590801E+02 -0.51862499173E+01  0.36820916701E+02  0.00000000000E+00 0.  1.
         11    1    4    4    0    0 -0.13109685040E+02 -0.49981056615E+01  0.91802248052E+01  0.16766676170E+02  0.51100000000E-03 0. -1.
        -11    1    4    4    0    0 -0.77731987247E+01  0.13089005465E+01  0.80204311496E+01  0.11245583806E+02  0.51100000000E-03 0.  1.
        -12    1    4    4    0    0 -0.37863838028E+01 -0.23149385686E+02 -0.12014406037E+02  0.26354823323E+02  0.00000000000E+00 0.  1.
</event>
<event>
 8    1  0.2502431E-006  0.9118800E+02  0.7816164E-02  0.1184000E+00
        -11   -1    0    0    0    0  0.00000000000E+00  0.00000000000E+00  0.45593999997E+02  0.45594000000E+02  0.51100000000E-03 0. -1.
         11   -1    0    0    0    0 -0.00000000000E+00 -0.00000000000E+00 -0.45593999997E+02  0.45594000000E+02  0.51100000000E-03 0.  1.
         23    2    1    2    0    0  0.31086244690E-14  0.00000000000E+00  0.00000000000E+00  0.91188000000E+02  0.91188000000E+02 0.  0.
    9900012    2    3    3    0    0 -0.23844660058E+01  0.23036016491E+02 -0.28625796028E+02  0.54367082954E+02  0.39999997209E+02 0.  0.
         12    1    3    3    0    0  0.23844660058E+01 -0.23036016491E+02  0.28625796028E+02  0.36820917046E+02  0.00000000000E+00 0. -1.
         11    1    4    4    0    0  0.24382366529E+01 -0.16822729771E+01 -0.45666010409E+00  0.29972619267E+01  0.51100000000E-03 0. -1.
        -11    1    4    4    0    0 -0.19202957418E+02  0.20078615553E+02 -0.16891571682E+02  0.32515066820E+02  0.51100000000E-03 0.  1.
        -12    1    4    4    0    0  0.14380254759E+02  0.46396739149E+01 -0.11277564242E+02  0.18854754207E+02  0.00000000000E+00 0.  1.
</event>
<event>
 8    1  0.2502431E-006  0.9118800E+02  0.7816164E-02  0.1184000E+00
        -11   -1    0    0    0    0  0.00000000000E+00  0.00000000000E+00  0.45593999997E+02  0.45594000000E+02  0.51100000000E-03 0. -1.
         11   -1    0    0    0    0 -0.00000000000E+00 -0.00000000000E+00 -0.45593999997E+02  0.45594000000E+02  0.51100000000E-03 0.  1.
         23    2    1    2    0    0  0.00000000000E+00  0.00000000000E+00 -0.17763568394E-14  0.91188000000E+02  0.91188000000E+02 0.  0.
    9900012    2    3    3    0    0  0.13679484733E+02 -0.31945339359E+02  0.12171649843E+02  0.54367053934E+02  0.39999931053E+02 0.  0.
        -12    1    3    3    0    0 -0.13679484733E+02  0.31945339359E+02 -0.12171649843E+02  0.36820946066E+02  0.00000000000E+00 0.  1.
         11    1    4    4    0    0  0.13897808374E+02 -0.58557162531E+01 -0.45832659437E+01  0.15762132388E+02  0.51100000000E-03 0. -1.
        -11    1    4    4    0    0 -0.74391242072E+01 -0.10319473741E+01 -0.17771659000E+00  0.75124608352E+01  0.51100000000E-03 0.  1.
         12    1    4    4    0    0  0.72208005667E+01 -0.25057675731E+02  0.16932632376E+02  0.31092460711E+02  0.00000000000E+00 0. -1.
</event>
<event>
 8    1  0.2502431E-006  0.9118800E+02  0.7816164E-02  0.1184000E+00
        -11   -1    0    0    0    0  0.00000000000E+00  0.00000000000E+00  0.45593999997E+02  0.45594000000E+02  0.51100000000E-03 0.  1.
         11   -1    0    0    0    0 -0.00000000000E+00 -0.00000000000E+00 -0.45593999997E+02  0.45594000000E+02  0.51100000000E-03 0. -1.
         23    2    1    2    0    0  0.00000000000E+00 -0.17763568394E-14 -0.35527136788E-14  0.91188000000E+02  0.91188000000E+02 0.  0.
    9900012    2    3    3    0    0  0.16295839569E+02 -0.84002115104E+01  0.31932140598E+02  0.54367088227E+02  0.40000009230E+02 0.  0.
         12    1    3    3    0    0 -0.16295839569E+02  0.84002115104E+01 -0.31932140598E+02  0.36820911773E+02  0.00000000000E+00 0. -1.
         11    1    4    4    0    0 -0.28520107004E+01  0.12523643342E+02  0.24024402674E+01  0.13067032069E+02  0.51100000000E-03 0. -1.
        -11    1    4    4    0    0  0.12163410079E+02 -0.95045659943E+01  0.17039032530E+02  0.22991606062E+02  0.51100000000E-03 0.  1.
         12    1    4    4    0    0  0.69844401901E+01 -0.11419288858E+02  0.12490667800E+02  0.18308450095E+02  0.00000000000E+00 0. -1.
</event>
<event>
 8    1  0.2502431E-006  0.9118800E+02  0.7816164E-02  0.1184000E+00
        -11   -1    0    0    0    0  0.00000000000E+00  0.00000000000E+00  0.45593999997E+02  0.45594000000E+02  0.51100000000E-03 0.  1.
         11   -1    0    0    0    0 -0.00000000000E+00 -0.00000000000E+00 -0.45593999997E+02  0.45594000000E+02  0.51100000000E-03 0. -1.
         23    2    1    2    0    0 -0.17763568394E-14  0.00000000000E+00  0.00000000000E+00  0.91188000000E+02  0.91188000000E+02 0.  0.
    9900012    2    3    3    0    0 -0.12070096297E+02 -0.90601883171E+01 -0.33585786266E+02  0.54367091863E+02  0.40000017519E+02 0.  0.
        -12    1    3    3    0    0  0.12070096297E+02  0.90601883171E+01  0.33585786266E+02  0.36820908137E+02  0.00000000000E+00 0.  1.
         11    1    4    4    0    0 -0.34879073771E+01 -0.78817535763E+01 -0.21914814089E+02  0.23548813433E+02  0.51100000000E-03 0. -1.
        -11    1    4    4    0    0 -0.54312962195E+01 -0.10975937303E+02  0.32704090380E+01  0.12675399554E+02  0.51100000000E-03 0.  1.
         12    1    4    4    0    0 -0.31508927005E+01  0.97975025626E+01 -0.14941381215E+02  0.18142878875E+02  0.00000000000E+00 0. -1.
</event>
<event>
 8    1  0.2502431E-006  0.9118800E+02  0.7816164E-02  0.1184000E+00
        -11   -1    0    0    0    0  0.00000000000E+00  0.00000000000E+00  0.45593999997E+02  0.45594000000E+02  0.51100000000E-03 0. -1.
         11   -1    0    0    0    0 -0.00000000000E+00 -0.00000000000E+00 -0.45593999997E+02  0.45594000000E+02  0.51100000000E-03 0.  1.
         23    2    1    2    0    0  0.35527136788E-14 -0.17763568394E-14  0.35527136788E-14  0.91188000000E+02  0.91188000000E+02 0.  0.
    9900012    2    3    3    0    0 -0.25328098531E+02  0.84342416752E+01 -0.25359975185E+02  0.54367118028E+02  0.40000077168E+02 0.  0.
         12    1    3    3    0    0  0.25328098531E+02 -0.84342416752E+01  0.25359975185E+02  0.36820881972E+02  0.00000000000E+00 0. -1.
         11    1    4    4    0    0 -0.22322040367E+02  0.20190643013E+00  0.50735713678E-01  0.22323011149E+02  0.51100000000E-03 0. -1.
        -11    1    4    4    0    0  0.56990298486E+01 -0.88719224249E+00 -0.34469345524E+01  0.67191821942E+01  0.51100000000E-03 0.  1.
        -12    1    4    4    0    0 -0.87050880122E+01  0.91195274875E+01 -0.21963776347E+02  0.25324924685E+02  0.00000000000E+00 0.  1.
</event>
<event>
 8    1  0.2502431E-006  0.9118800E+02  0.7816164E-02  0.1184000E+00
        -11   -1    0    0    0    0  0.00000000000E+00  0.00000000000E+00  0.45593999997E+02  0.45594000000E+02  0.51100000000E-03 0. -1.
         11   -1    0    0    0    0 -0.00000000000E+00 -0.00000000000E+00 -0.45593999997E+02  0.45594000000E+02  0.51100000000E-03 0.  1.
         23    2    1    2    0    0  0.00000000000E+00 -0.99920072216E-15  0.00000000000E+00  0.91188000000E+02  0.91188000000E+02 0.  0.
    9900012    2    3    3    0    0 -0.17627842900E+02  0.90808400779E-01  0.32326936082E+02  0.54367083554E+02  0.39999998579E+02 0.  0.
        -12    1    3    3    0    0  0.17627842900E+02 -0.90808400779E-01 -0.32326936082E+02  0.36820916446E+02  0.00000000000E+00 0.  1.
         11    1    4    4    0    0 -0.93517013823E+01  0.50243542661E+01 -0.21275117992E+01  0.10827038434E+02  0.51100000000E-03 0. -1.
        -11    1    4    4    0    0 -0.82212349950E+01 -0.12314539161E+02  0.96816334324E+01  0.17690975264E+02  0.51100000000E-03 0.  1.
         12    1    4    4    0    0 -0.54906522962E-01  0.73809932958E+01  0.24772814448E+02  0.25849069857E+02  0.00000000000E+00 0. -1.
</event>
<event>
 8    1  0.2502431E-006  0.9118800E+02  0.7816164E-02  0.1184000E+00
        -11   -1    0    0    0    0  0.00000000000E+00  0.00000000000E+00  0.45593999997E+02  0.45594000000E+02  0.51100000000E-03 0.  1.
         11   -1    0    0    0    0 -0.00000000000E+00 -0.00000000000E+00 -0.45593999997E+02  0.45594000000E+02  0.51100000000E-03 0. -1.
         23    2    1    2    0    0  0.44408920985E-15 -0.71054273576E-14 -0.88817841970E-15  0.91188000000E+02  0.91188000000E+02 0.  0.
    9900012    2    3    3    0    0  0.25753755984E+01 -0.36624798265E+02 -0.27876608784E+01  0.54367089357E+02  0.40000011807E+02 0.  0.
         12    1    3    3    0    0 -0.25753755984E+01  0.36624798265E+02  0.27876608784E+01  0.36820910643E+02  0.00000000000E+00 0. -1.
         11    1    4    4    0    0  0.58821636074E+01 -0.78295013818E-01 -0.10019541551E+02  0.11618829200E+02  0.51100000000E-03 0. -1.
        -11    1    4    4    0    0 -0.50297859684E+01 -0.65296775224E+01 -0.56975455732E+01  0.10019853355E+02  0.51100000000E-03 0.  1.
        -12    1    4    4    0    0  0.17229979594E+01 -0.30016825728E+02  0.12929426246E+02  0.32728406803E+02  0.00000000000E+00 0.  1.
</event>
<event>
 8    1  0.2502431E-006  0.9118800E+02  0.7816164E-02  0.1184000E+00
        -11   -1    0    0    0    0  0.00000000000E+00  0.00000000000E+00  0.45593999997E+02  0.45594000000E+02  0.51100000000E-03 0.  1.
         11   -1    0    0    0    0 -0.00000000000E+00 -0.00000000000E+00 -0.45593999997E+02  0.45594000000E+02  0.51100000000E-03 0. -1.
         23    2    1    2    0    0  0.00000000000E+00  0.00000000000E+00  0.00000000000E+00  0.91188000000E+02  0.91188000000E+02 0.  0.
    9900012    2    3    3    0    0 -0.44436673895E+01 -0.18308236963E+02  0.31636113422E+02  0.54367063116E+02  0.39999951986E+02 0.  0.
         12    1    3    3    0    0  0.44436673895E+01  0.18308236963E+02 -0.31636113422E+02  0.36820936884E+02  0.00000000000E+00 0. -1.
         11    1    4    4    0    0 -0.92010282682E+01 -0.16627949600E+02 -0.13605408188E+01  0.19052524784E+02  0.51100000000E-03 0. -1.
        -11    1    4    4    0    0  0.37697432582E+01  0.34759056941E+01  0.63805749779E+01  0.81856350967E+01  0.51100000000E-03 0.  1.
         12    1    4    4    0    0  0.98761762050E+00 -0.51561930575E+01  0.26616079263E+02  0.27128903235E+02  0.00000000000E+00 0. -1.
</event>
<event>
 8    1  0.2502431E-006  0.9118800E+02  0.7816164E-02  0.1184000E+00
        -11   -1    0    0    0    0  0.00000000000E+00  0.00000000000E+00  0.45593999997E+02  0.45594000000E+02  0.51100000000E-03 0. -1.
         11   -1    0    0    0    0 -0.00000000000E+00 -0.00000000000E+00 -0.45593999997E+02  0.45594000000E+02  0.51100000000E-03 0.  1.
         23    2    1    2    0    0  0.00000000000E+00  0.00000000000E+00  0.35527136788E-14  0.91188000000E+02  0.91188000000E+02 0.  0.
    9900012    2    3    3    0    0 -0.45114643359E+01 -0.30068100797E+02 -0.20768657657E+02  0.54367066594E+02  0.39999959915E+02 0.  0.
         12    1    3    3    0    0  0.45114643359E+01  0.30068100797E+02  0.20768657657E+02  0.36820933406E+02  0.00000000000E+00 0. -1.
         11    1    4    4    0    0 -0.14036789238E+01  0.38218287504E+01 -0.74864233035E+00  0.41397047139E+01  0.51100000000E-03 0. -1.
        -11    1    4    4    0    0 -0.14721263860E+02 -0.19986283842E+02 -0.20365893577E+02  0.32108204137E+02  0.51100000000E-03 0.  1.
        -12    1    4    4    0    0  0.11613478448E+02 -0.13903645706E+02  0.34587824993E+00  0.18119157744E+02  0.00000000000E+00 0.  1.
</event>
<event>
 8    1  0.2502431E-006  0.9118800E+02  0.7816164E-02  0.1184000E+00
        -11   -1    0    0    0    0  0.00000000000E+00  0.00000000000E+00  0.45593999997E+02  0.45594000000E+02  0.51100000000E-03 0. -1.
         11   -1    0    0    0    0 -0.00000000000E+00 -0.00000000000E+00 -0.45593999997E+02  0.45594000000E+02  0.51100000000E-03 0.  1.
         23    2    1    2    0    0  0.35527136788E-14  0.35527136788E-14  0.00000000000E+00  0.91188000000E+02  0.91188000000E+02 0.  0.
    9900012    2    3    3    0    0  0.25950711299E+02 -0.18927996071E+02 -0.18001980413E+02  0.54367085413E+02  0.40000002816E+02 0.  0.
         12    1    3    3    0    0 -0.25950711299E+02  0.18927996071E+02  0.18001980413E+02  0.36820914587E+02  0.00000000000E+00 0. -1.
         11    1    4    4    0    0  0.85287689951E+01  0.24346428185E+01  0.40396331924E+01  0.97460773040E+01  0.51100000000E-03 0. -1.
        -11    1    4    4    0    0  0.19709122484E+02 -0.21717131708E+02 -0.80121873364E+01  0.30401948373E+02  0.51100000000E-03 0.  1.
        -12    1    4    4    0    0 -0.22871801793E+01  0.35449281810E+00 -0.14029426269E+02  0.14219059736E+02  0.00000000000E+00 0.  1.
</event>
<event>
 8    1  0.2502431E-006  0.9118800E+02  0.7816164E-02  0.1184000E+00
        -11   -1    0    0    0    0  0.00000000000E+00  0.00000000000E+00  0.45593999997E+02  0.45594000000E+02  0.51100000000E-03 0.  1.
         11   -1    0    0    0    0 -0.00000000000E+00 -0.00000000000E+00 -0.45593999997E+02  0.45594000000E+02  0.51100000000E-03 0. -1.
         23    2    1    2    0    0  0.00000000000E+00  0.00000000000E+00  0.00000000000E+00  0.91188000000E+02  0.91188000000E+02 0.  0.
    9900012    2    3    3    0    0 -0.20502842323E+02  0.23533758175E+02  0.19533924628E+02  0.54367102014E+02  0.40000040660E+02 0.  0.
         12    1    3    3    0    0  0.20502842323E+02 -0.23533758175E+02 -0.19533924628E+02  0.36820897986E+02  0.00000000000E+00 0. -1.
         11    1    4    4    0    0  0.19863934222E+01  0.56076369951E+01  0.82777659011E+01  0.10193760840E+02  0.51100000000E-03 0. -1.
        -11    1    4    4    0    0 -0.23377540411E+02 -0.13190636219E+01  0.52879460721E+01  0.24004409979E+02  0.51100000000E-03 0.  1.
        -12    1    4    4    0    0  0.88830466564E+00  0.19245184802E+02  0.59682126547E+01  0.20168931195E+02  0.00000000000E+00 0.  1.
</event>
<event>
 8    1  0.2502431E-006  0.9118800E+02  0.7816164E-02  0.1184000E+00
        -11   -1    0    0    0    0  0.00000000000E+00  0.00000000000E+00  0.45593999997E+02  0.45594000000E+02  0.51100000000E-03 0.  1.
         11   -1    0    0    0    0 -0.00000000000E+00 -0.00000000000E+00 -0.45593999997E+02  0.45594000000E+02  0.51100000000E-03 0. -1.
         23    2    1    2    0    0  0.00000000000E+00  0.00000000000E+00  0.35527136788E-14  0.91188000000E+02  0.91188000000E+02 0.  0.
    9900012    2    3    3    0    0 -0.35384256678E+01  0.18309327792E+02  0.31749449691E+02  0.54367088875E+02  0.40000010708E+02 0.  0.
         12    1    3    3    0    0  0.35384256678E+01 -0.18309327792E+02 -0.31749449691E+02  0.36820911125E+02  0.00000000000E+00 0. -1.
         11    1    4    4    0    0 -0.54028478584E+00  0.15672697325E+02  0.27738436556E+01  0.15925437450E+02  0.51100000000E-03 0. -1.
        -11    1    4    4    0    0 -0.74853193507E-02  0.96892973495E+01  0.13612886944E+01  0.97844594295E+01  0.51100000000E-03 0.  1.
        -12    1    4    4    0    0 -0.29906555626E+01 -0.70526668822E+01  0.27614317341E+02  0.28657191995E+02  0.00000000000E+00 0.  1.
</event>
<event>
 8    1  0.2502431E-006  0.9118800E+02  0.7816164E-02  0.1184000E+00
        -11   -1    0    0    0    0  0.00000000000E+00  0.00000000000E+00  0.45593999997E+02  0.45594000000E+02  0.51100000000E-03 0. -1.
         11   -1    0    0    0    0 -0.00000000000E+00 -0.00000000000E+00 -0.45593999997E+02  0.45594000000E+02  0.51100000000E-03 0.  1.
         23    2    1    2    0    0 -0.35527136788E-14  0.00000000000E+00 -0.44408920985E-15  0.91188000000E+02  0.91188000000E+02 0.  0.
    9900012    2    3    3    0    0  0.13408867623E+02 -0.34065015520E+02  0.39440839150E+01  0.54367098174E+02  0.40000031907E+02 0.  0.
        -12    1    3    3    0    0 -0.13408867623E+02  0.34065015520E+02 -0.39440839150E+01  0.36820901826E+02  0.00000000000E+00 0.  1.
         11    1    4    4    0    0 -0.25116297091E+01 -0.12252103882E+02  0.69200117233E+01  0.14293666284E+02  0.51100000000E-03 0. -1.
        -11    1    4    4    0    0 -0.77182598668E+01 -0.99648790485E+01 -0.49874767639E+01  0.13555267410E+02  0.51100000000E-03 0.  1.
         12    1    4    4    0    0  0.23638757199E+02 -0.11848032590E+02  0.20115489556E+01  0.26518164480E+02  0.00000000000E+00 0. -1.
</event>
<event>
 8    1  0.2502431E-006  0.9118800E+02  0.7816164E-02  0.1184000E+00
        -11   -1    0    0    0    0  0.00000000000E+00  0.00000000000E+00  0.45593999997E+02  0.45594000000E+02  0.51100000000E-03 0.  1.
         11   -1    0    0    0    0 -0.00000000000E+00 -0.00000000000E+00 -0.45593999997E+02  0.45594000000E+02  0.51100000000E-03 0. -1.
         23    2    1    2    0    0 -0.17763568394E-14 -0.71054273576E-14  0.00000000000E+00  0.91188000000E+02  0.91188000000E+02 0.  0.
    9900012    2    3    3    0    0  0.14420218775E+02 -0.25663467222E+02 -0.22118394119E+02  0.54367087222E+02  0.40000006940E+02 0.  0.
        -12    1    3    3    0    0 -0.14420218775E+02  0.25663467222E+02  0.22118394119E+02  0.36820912778E+02  0.00000000000E+00 0.  1.
         11    1    4    4    0    0  0.58333420296E+01  0.51302848457E+01 -0.35215820265E+01  0.85293166234E+01  0.51100000000E-03 0. -1.
        -11    1    4    4    0    0  0.40543515223E+01 -0.11018478275E+01  0.57862740434E+01  0.71507204160E+01  0.51100000000E-03 0.  1.
         12    1    4    4    0    0  0.45325252227E+01 -0.29691904241E+02 -0.24383086136E+02  0.38687050183E+02  0.00000000000E+00 0. -1.
</event>
<event>
 8    1  0.2502431E-006  0.9118800E+02  0.7816164E-02  0.1184000E+00
        -11   -1    0    0    0    0  0.00000000000E+00  0.00000000000E+00  0.45593999997E+02  0.45594000000E+02  0.51100000000E-03 0. -1.
         11   -1    0    0    0    0 -0.00000000000E+00 -0.00000000000E+00 -0.45593999997E+02  0.45594000000E+02  0.51100000000E-03 0.  1.
         23    2    1    2    0    0  0.35527136788E-14 -0.71054273576E-14  0.00000000000E+00  0.91188000000E+02  0.91188000000E+02 0.  0.
    9900012    2    3    3    0    0  0.26516027771E+02 -0.19556120512E+02 -0.16438940374E+02  0.54367077431E+02  0.39999984618E+02 0.  0.
         12    1    3    3    0    0 -0.26516027771E+02  0.19556120512E+02  0.16438940374E+02  0.36820922569E+02  0.00000000000E+00 0. -1.
         11    1    4    4    0    0  0.81825607197E-01 -0.16674594259E+01 -0.20854511202E+01  0.26713709969E+01  0.51100000000E-03 0. -1.
        -11    1    4    4    0    0  0.32199892635E+02 -0.24812167520E+02 -0.11547328754E+02  0.42258934491E+02  0.51100000000E-03 0.  1.
         12    1    4    4    0    0 -0.57656904712E+01  0.69235064333E+01 -0.28061605003E+01  0.94367719425E+01  0.00000000000E+00 0. -1.
</event>
<event>
 8    1  0.2502431E-006  0.9118800E+02  0.7816164E-02  0.1184000E+00
        -11   -1    0    0    0    0  0.00000000000E+00  0.00000000000E+00  0.45593999997E+02  0.45594000000E+02  0.51100000000E-03 0.  1.
         11   -1    0    0    0    0 -0.00000000000E+00 -0.00000000000E+00 -0.45593999997E+02  0.45594000000E+02  0.51100000000E-03 0. -1.
         23    2    1    2    0    0  0.00000000000E+00  0.35527136788E-14  0.00000000000E+00  0.91188000000E+02  0.91188000000E+02 0.  0.
    9900012    2    3    3    0    0  0.19605451448E+02  0.29737588055E+02 -0.93316535311E+01  0.54367114250E+02  0.40000068555E+02 0.  0.
         12    1    3    3    0    0 -0.19605451448E+02 -0.29737588055E+02  0.93316535311E+01  0.36820885750E+02  0.00000000000E+00 0. -1.
         11    1    4    4    0    0  0.57308381435E+01 -0.51716382433E+01  0.48018336645E+01  0.90909820564E+01  0.51100000000E-03 0. -1.
        -11    1    4    4    0    0  0.62928786886E+01  0.57354745957E+01  0.47076938095E+01  0.97292534293E+01  0.51100000000E-03 0.  1.
         12    1    4    4    0    0  0.75817346156E+01  0.29173751703E+02 -0.18841181005E+02  0.35546878764E+02  0.00000000000E+00 0. -1.
</event>
<event>
 8    1  0.2502431E-006  0.9118800E+02  0.7816164E-02  0.1184000E+00
        -11   -1    0    0    0    0  0.00000000000E+00  0.00000000000E+00  0.45593999997E+02  0.45594000000E+02  0.51100000000E-03 0. -1.
         11   -1    0    0    0    0 -0.00000000000E+00 -0.00000000000E+00 -0.45593999997E+02  0.45594000000E+02  0.51100000000E-03 0.  1.
         23    2    1    2    0    0  0.44408920985E-15  0.00000000000E+00  0.00000000000E+00  0.91188000000E+02  0.91188000000E+02 0.  0.
    9900012    2    3    3    0    0  0.30014028501E+01 -0.84799606462E+01 -0.35705196539E+02  0.54367092739E+02  0.40000019518E+02 0.  0.
         12    1    3    3    0    0 -0.30014028501E+01  0.84799606462E+01  0.35705196539E+02  0.36820907261E+02  0.00000000000E+00 0. -1.
         11    1    4    4    0    0 -0.56329363974E+01  0.13396151299E+02 -0.16820744251E+02  0.22228906395E+02  0.51100000000E-03 0. -1.
        -11    1    4    4    0    0  0.14773399763E+01 -0.15957634916E+02 -0.82683979172E+01  0.18033165277E+02  0.51100000000E-03 0.  1.
         12    1    4    4    0    0  0.71569992712E+01 -0.59184770293E+01 -0.10616054371E+02  0.14105021067E+02  0.00000000000E+00 0. -1.
</event>
<event>
 8    1  0.2502431E-006  0.9118800E+02  0.7816164E-02  0.1184000E+00
        -11   -1    0    0    0    0  0.00000000000E+00  0.00000000000E+00  0.45593999997E+02  0.45594000000E+02  0.51100000000E-03 0.  1.
         11   -1    0    0    0    0 -0.00000000000E+00 -0.00000000000E+00 -0.45593999997E+02  0.45594000000E+02  0.51100000000E-03 0. -1.
         23    2    1    2    0    0  0.35527136788E-14  0.88817841970E-15  0.00000000000E+00  0.91188000000E+02  0.91188000000E+02 0.  0.
    9900012    2    3    3    0    0  0.27299517866E+02 -0.40788789861E+01  0.24369610605E+02  0.54367097641E+02  0.40000030692E+02 0.  0.
         12    1    3    3    0    0 -0.27299517866E+02  0.40788789861E+01 -0.24369610605E+02  0.36820902359E+02  0.00000000000E+00 0. -1.
         11    1    4    4    0    0  0.10709240900E+01 -0.12165593052E+02  0.14708973070E+02  0.19118117631E+02  0.51100000000E-03 0. -1.
        -11    1    4    4    0    0  0.13824296434E+02 -0.37883626252E+01 -0.20272524785E+01  0.14476623092E+02  0.51100000000E-03 0.  1.
        -12    1    4    4    0    0  0.12404297342E+02  0.11875076691E+02  0.11687890013E+02  0.20772356918E+02  0.00000000000E+00 0.  1.
</event>
<event>
 8    1  0.2502431E-006  0.9118800E+02  0.7816164E-02  0.1184000E+00
        -11   -1    0    0    0    0  0.00000000000E+00  0.00000000000E+00  0.45593999997E+02  0.45594000000E+02  0.51100000000E-03 0.  1.
         11   -1    0    0    0    0 -0.00000000000E+00 -0.00000000000E+00 -0.45593999997E+02  0.45594000000E+02  0.51100000000E-03 0. -1.
         23    2    1    2    0    0  0.35527136788E-14  0.00000000000E+00  0.00000000000E+00  0.91188000000E+02  0.91188000000E+02 0.  0.
    9900012    2    3    3    0    0  0.21562342924E+02 -0.14996293474E+02  0.25806132919E+02  0.54367082758E+02  0.39999996762E+02 0.  0.
         12    1    3    3    0    0 -0.21562342924E+02  0.14996293474E+02 -0.25806132919E+02  0.36820917242E+02  0.00000000000E+00 0. -1.
         11    1    4    4    0    0  0.18047628573E+02  0.67452512838E+01  0.18196969821E+02  0.26501792825E+02  0.51100000000E-03 0. -1.
        -11    1    4    4    0    0  0.26973897526E+01 -0.23244428298E+02  0.95535189474E+01  0.25275464050E+02  0.51100000000E-03 0.  1.
         12    1    4    4    0    0  0.81732459803E+00  0.15028835402E+01 -0.19443558494E+01  0.25898258828E+01  0.00000000000E+00 0. -1.
</event>
<event>
 8    1  0.2502431E-006  0.9118800E+02  0.7816164E-02  0.1184000E+00
        -11   -1    0    0    0    0  0.00000000000E+00  0.00000000000E+00  0.45593999997E+02  0.45594000000E+02  0.51100000000E-03 0.  1.
         11   -1    0    0    0    0 -0.00000000000E+00 -0.00000000000E+00 -0.45593999997E+02  0.45594000000E+02  0.51100000000E-03 0. -1.
         23    2    1    2    0    0  0.35527136788E-14  0.00000000000E+00  0.00000000000E+00  0.91188000000E+02  0.91188000000E+02 0.  0.
    9900012    2    3    3    0    0 -0.29754987186E+02  0.21055980056E+02 -0.52029151855E+01  0.54367029277E+02  0.39999874842E+02 0.  0.
        -12    1    3    3    0    0  0.29754987186E+02 -0.21055980056E+02  0.52029151855E+01  0.36820970723E+02  0.00000000000E+00 0.  1.
         11    1    4    4    0    0 -0.29519363725E+01  0.26301483679E+02 -0.48001990186E+01  0.26898399264E+02  0.51100000000E-03 0. -1.
        -11    1    4    4    0    0 -0.21411084629E+02 -0.46535780752E+01  0.74729758923E+00  0.21923703789E+02  0.51100000000E-03 0.  1.
         12    1    4    4    0    0 -0.53919661848E+01 -0.59192554807E+00 -0.11500137561E+01  0.55449262242E+01  0.00000000000E+00 0. -1.
</event>
<event>
 8    1  0.2502431E-006  0.9118800E+02  0.7816164E-02  0.1184000E+00
        -11   -1    0    0    0    0  0.00000000000E+00  0.00000000000E+00  0.45593999997E+02  0.45594000000E+02  0.51100000000E-03 0.  1.
         11   -1    0    0    0    0 -0.00000000000E+00 -0.00000000000E+00 -0.45593999997E+02  0.45594000000E+02  0.51100000000E-03 0. -1.
         23    2    1    2    0    0  0.00000000000E+00  0.35527136788E-14  0.00000000000E+00  0.91188000000E+02  0.91188000000E+02 0.  0.
    9900012    2    3    3    0    0  0.27426769009E+02 -0.23917285218E+02  0.56138933659E+01  0.54367082179E+02  0.39999995443E+02 0.  0.
         12    1    3    3    0    0 -0.27426769009E+02  0.23917285218E+02 -0.56138933659E+01  0.36820917821E+02  0.00000000000E+00 0. -1.
         11    1    4    4    0    0  0.20307795252E+02 -0.75288683145E+01 -0.29964824483E+01  0.21864796213E+02  0.51100000000E-03 0. -1.
        -11    1    4    4    0    0  0.94247856653E+01  0.30442741170E+01  0.83136755788E+01  0.12931024384E+02  0.51100000000E-03 0.  1.
         12    1    4    4    0    0 -0.23058119084E+01 -0.19432691020E+02  0.29670023538E+00  0.19571261581E+02  0.00000000000E+00 0. -1.
</event>
<event>
 8    1  0.2502431E-006  0.9118800E+02  0.7816164E-02  0.1184000E+00
        -11   -1    0    0    0    0  0.00000000000E+00  0.00000000000E+00  0.45593999997E+02  0.45594000000E+02  0.51100000000E-03 0.  1.
         11   -1    0    0    0    0 -0.00000000000E+00 -0.00000000000E+00 -0.45593999997E+02  0.45594000000E+02  0.51100000000E-03 0. -1.
         23    2    1    2    0    0  0.00000000000E+00  0.00000000000E+00  0.00000000000E+00  0.91188000000E+02  0.91188000000E+02 0.  0.
    9900012    2    3    3    0    0  0.13123299208E+02  0.16497730539E+02 -0.30189137929E+02  0.54367080078E+02  0.39999990653E+02 0.  0.
        -12    1    3    3    0    0 -0.13123299208E+02 -0.16497730539E+02  0.30189137929E+02  0.36820919922E+02  0.00000000000E+00 0.  1.
         11    1    4    4    0    0  0.11817180960E+02  0.21221852160E+01  0.10506852091E+01  0.12052110836E+02  0.51100000000E-03 0. -1.
        -11    1    4    4    0    0 -0.94733259296E+01  0.12236164438E+02 -0.10070344631E+02  0.18462921371E+02  0.51100000000E-03 0.  1.
         12    1    4    4    0    0  0.10779444178E+02  0.21393808848E+01 -0.21169478507E+02  0.23852047871E+02  0.00000000000E+00 0. -1.
</event>
<event>
 8    1  0.2502431E-006  0.9118800E+02  0.7816164E-02  0.1184000E+00
        -11   -1    0    0    0    0  0.00000000000E+00  0.00000000000E+00  0.45593999997E+02  0.45594000000E+02  0.51100000000E-03 0.  1.
         11   -1    0    0    0    0 -0.00000000000E+00 -0.00000000000E+00 -0.45593999997E+02  0.45594000000E+02  0.51100000000E-03 0. -1.
         23    2    1    2    0    0  0.13322676296E-14  0.00000000000E+00  0.00000000000E+00  0.91188000000E+02  0.91188000000E+02 0.  0.
    9900012    2    3    3    0    0  0.15707254152E+01  0.35791459031E+02 -0.85019569156E+01  0.54367095757E+02  0.40000026397E+02 0.  0.
        -12    1    3    3    0    0 -0.15707254152E+01 -0.35791459031E+02  0.85019569156E+01  0.36820904243E+02  0.00000000000E+00 0.  1.
         11    1    4    4    0    0 -0.11691897654E+02  0.19890822844E+02 -0.45306185337E+01  0.23513226250E+02  0.51100000000E-03 0. -1.
        -11    1    4    4    0    0  0.38142402262E+01  0.11393056693E+01 -0.11206824754E+02  0.11892828395E+02  0.51100000000E-03 0.  1.
         12    1    4    4    0    0  0.94483828427E+01  0.14761330518E+02  0.72354863718E+01  0.18961041112E+02  0.00000000000E+00 0. -1.
</event>
<event>
 8    1  0.2502431E-006  0.9118800E+02  0.7816164E-02  0.1184000E+00
        -11   -1    0    0    0    0  0.00000000000E+00  0.00000000000E+00  0.45593999997E+02  0.45594000000E+02  0.51100000000E-03 0. -1.
         11   -1    0    0    0    0 -0.00000000000E+00 -0.00000000000E+00 -0.45593999997E+02  0.45594000000E+02  0.51100000000E-03 0.  1.
         23    2    1    2    0    0 -0.35527136788E-14 -0.35527136788E-14  0.00000000000E+00  0.91188000000E+02  0.91188000000E+02 0.  0.
    9900012    2    3    3    0    0 -0.21945830838E+02 -0.17698037787E+02  0.23684149557E+02  0.54367095979E+02  0.40000026904E+02 0.  0.
        -12    1    3    3    0    0  0.21945830838E+02  0.17698037787E+02 -0.23684149557E+02  0.36820904021E+02  0.00000000000E+00 0.  1.
         11    1    4    4    0    0 -0.93255868520E+01 -0.78805617933E+01  0.15988709432E+02  0.20117371942E+02  0.51100000000E-03 0. -1.
        -11    1    4    4    0    0 -0.14802802639E+00 -0.14957070683E+02  0.12938175815E+02  0.19777064226E+02  0.51100000000E-03 0.  1.
         12    1    4    4    0    0 -0.12472215959E+02  0.51395946892E+01 -0.52427356892E+01  0.14472659811E+02  0.00000000000E+00 0. -1.
</event>
<event>
 8    1  0.2502431E-006  0.9118800E+02  0.7816164E-02  0.1184000E+00
        -11   -1    0    0    0    0  0.00000000000E+00  0.00000000000E+00  0.45593999997E+02  0.45594000000E+02  0.51100000000E-03 0.  1.
         11   -1    0    0    0    0 -0.00000000000E+00 -0.00000000000E+00 -0.45593999997E+02  0.45594000000E+02  0.51100000000E-03 0. -1.
         23    2    1    2    0    0  0.00000000000E+00 -0.35527136788E-14 -0.11102230246E-14  0.91188000000E+02  0.91188000000E+02 0.  0.
    9900012    2    3    3    0    0 -0.30849386963E+02 -0.20051883856E+02 -0.14207832134E+01  0.54367063739E+02  0.39999953406E+02 0.  0.
        -12    1    3    3    0    0  0.30849386963E+02  0.20051883856E+02  0.14207832134E+01  0.36820936261E+02  0.00000000000E+00 0.  1.
         11    1    4    4    0    0 -0.14814357921E+00 -0.51156799000E+01  0.31952677816E+01  0.60333957119E+01  0.51100000000E-03 0. -1.
        -11    1    4    4    0    0 -0.52025777876E+01  0.75163423609E+01  0.79446724914E+01  0.12111153511E+02  0.51100000000E-03 0.  1.
         12    1    4    4    0    0 -0.25498665596E+02 -0.22452546317E+02 -0.12560723486E+02  0.36222514516E+02  0.00000000000E+00 0. -1.
</event>
<event>
 8    1  0.2502431E-006  0.9118800E+02  0.7816164E-02  0.1184000E+00
        -11   -1    0    0    0    0  0.00000000000E+00  0.00000000000E+00  0.45593999997E+02  0.45594000000E+02  0.51100000000E-03 0. -1.
         11   -1    0    0    0    0 -0.00000000000E+00 -0.00000000000E+00 -0.45593999997E+02  0.45594000000E+02  0.51100000000E-03 0.  1.
         23    2    1    2    0    0  0.00000000000E+00  0.00000000000E+00  0.17763568394E-14  0.91188000000E+02  0.91188000000E+02 0.  0.
    9900012    2    3    3    0    0 -0.34974409235E+02 -0.95039185339E+01 -0.64996933331E+01  0.54367084989E+02  0.40000001848E+02 0.  0.
         12    1    3    3    0    0  0.34974409235E+02  0.95039185339E+01  0.64996933331E+01  0.36820915011E+02  0.00000000000E+00 0. -1.
         11    1    4    4    0    0 -0.58041428089E+00  0.96654326569E+00  0.25718388912E+01  0.28081029478E+01  0.51100000000E-03 0. -1.
        -11    1    4    4    0    0 -0.16346902806E+02  0.41246244733E+01  0.11611010308E+02  0.20470694151E+02  0.51100000000E-03 0.  1.
        -12    1    4    4    0    0 -0.18047092149E+02 -0.14595086273E+02 -0.20682542532E+02  0.31088287890E+02  0.00000000000E+00 0.  1.
</event>
<event>
 8    1  0.2502431E-006  0.9118800E+02  0.7816164E-02  0.1184000E+00
        -11   -1    0    0    0    0  0.00000000000E+00  0.00000000000E+00  0.45593999997E+02  0.45594000000E+02  0.51100000000E-03 0.  1.
         11   -1    0    0    0    0 -0.00000000000E+00 -0.00000000000E+00 -0.45593999997E+02  0.45594000000E+02  0.51100000000E-03 0. -1.
         23    2    1    2    0    0  0.00000000000E+00  0.17763568394E-14  0.00000000000E+00  0.91188000000E+02  0.91188000000E+02 0.  0.
    9900012    2    3    3    0    0 -0.33669599007E+02  0.14785186130E+02 -0.18807796526E+01  0.54367069019E+02  0.39999965443E+02 0.  0.
         12    1    3    3    0    0  0.33669599007E+02 -0.14785186130E+02  0.18807796526E+01  0.36820930981E+02  0.00000000000E+00 0. -1.
         11    1    4    4    0    0  0.27314545296E+01 -0.71290949431E+01 -0.72485145661E+01  0.10527383447E+02  0.51100000000E-03 0. -1.
        -11    1    4    4    0    0 -0.36545246715E+02  0.22343704953E+02  0.57854994160E+01  0.43223468305E+02  0.51100000000E-03 0.  1.
        -12    1    4    4    0    0  0.14419317867E+00 -0.42942388073E+00 -0.41776450243E+00  0.61621726818E+00  0.00000000000E+00 0.  1.
</event>
<event>
 8    1  0.2502431E-006  0.9118800E+02  0.7816164E-02  0.1184000E+00
        -11   -1    0    0    0    0  0.00000000000E+00  0.00000000000E+00  0.45593999997E+02  0.45594000000E+02  0.51100000000E-03 0.  1.
         11   -1    0    0    0    0 -0.00000000000E+00 -0.00000000000E+00 -0.45593999997E+02  0.45594000000E+02  0.51100000000E-03 0. -1.
         23    2    1    2    0    0  0.11102230246E-14  0.00000000000E+00  0.00000000000E+00  0.91188000000E+02  0.91188000000E+02 0.  0.
    9900012    2    3    3    0    0  0.19421758908E+01  0.14560550954E+02 -0.33763796489E+02  0.54367141175E+02  0.40000129936E+02 0.  0.
        -12    1    3    3    0    0 -0.19421758908E+01 -0.14560550954E+02  0.33763796489E+02  0.36820858825E+02  0.00000000000E+00 0.  1.
         11    1    4    4    0    0  0.56132690876E+01  0.30407133583E+01 -0.21153534729E+02  0.22095853896E+02  0.51100000000E-03 0. -1.
        -11    1    4    4    0    0  0.50266390863E+01  0.42403122300E+01 -0.18397900255E+02  0.19537913972E+02  0.51100000000E-03 0.  1.
        -12    1    4    4    0    0 -0.86977322832E+01  0.72795253656E+01  0.57876384956E+01  0.12733373307E+02  0.00000000000E+00 0.  1.
</event>
<event>
 8    1  0.2502431E-006  0.9118800E+02  0.7816164E-02  0.1184000E+00
        -11   -1    0    0    0    0  0.00000000000E+00  0.00000000000E+00  0.45593999997E+02  0.45594000000E+02  0.51100000000E-03 0. -1.
         11   -1    0    0    0    0 -0.00000000000E+00 -0.00000000000E+00 -0.45593999997E+02  0.45594000000E+02  0.51100000000E-03 0.  1.
         23    2    1    2    0    0 -0.17763568394E-14  0.00000000000E+00  0.35527136788E-14  0.91188000000E+02  0.91188000000E+02 0.  0.
    9900012    2    3    3    0    0 -0.15874580714E+02 -0.29419139633E+02 -0.15436724677E+02  0.54367074450E+02  0.39999977824E+02 0.  0.
         12    1    3    3    0    0  0.15874580714E+02  0.29419139633E+02  0.15436724677E+02  0.36820925550E+02  0.00000000000E+00 0. -1.
         11    1    4    4    0    0  0.51754650521E+01 -0.63426898127E+01 -0.10255841475E+02  0.13122402112E+02  0.51100000000E-03 0. -1.
        -11    1    4    4    0    0 -0.39359877590E+01 -0.56957006606E+01  0.10258930306E+02  0.12376536548E+02  0.51100000000E-03 0.  1.
        -12    1    4    4    0    0 -0.17114058007E+02 -0.17380749160E+02 -0.15439813507E+02  0.28868135790E+02  0.00000000000E+00 0.  1.
</event>
<event>
 8    1  0.2502431E-006  0.9118800E+02  0.7816164E-02  0.1184000E+00
        -11   -1    0    0    0    0  0.00000000000E+00  0.00000000000E+00  0.45593999997E+02  0.45594000000E+02  0.51100000000E-03 0.  1.
         11   -1    0    0    0    0 -0.00000000000E+00 -0.00000000000E+00 -0.45593999997E+02  0.45594000000E+02  0.51100000000E-03 0. -1.
         23    2    1    2    0    0  0.35527136788E-14  0.35527136788E-14  0.00000000000E+00  0.91188000000E+02  0.91188000000E+02 0.  0.
    9900012    2    3    3    0    0 -0.25847541059E+02 -0.19323946854E+02 -0.17727648432E+02  0.54367084480E+02  0.40000000688E+02 0.  0.
        -12    1    3    3    0    0  0.25847541059E+02  0.19323946854E+02  0.17727648432E+02  0.36820915520E+02  0.00000000000E+00 0.  1.
         11    1    4    4    0    0 -0.65239115404E+01 -0.59514891986E+01 -0.13173502334E+01  0.89284409258E+01  0.51100000000E-03 0. -1.
        -11    1    4    4    0    0 -0.27444009344E+02 -0.22787962777E+01 -0.15638161438E+02  0.31668890962E+02  0.51100000000E-03 0.  1.
        -12    1    4    4    0    0  0.81203798250E+01 -0.11093661378E+02 -0.77213676107E+00  0.13769752592E+02  0.00000000000E+00 0.  1.
</event>
<event>
 8    1  0.2502431E-006  0.9118800E+02  0.7816164E-02  0.1184000E+00
        -11   -1    0    0    0    0  0.00000000000E+00  0.00000000000E+00  0.45593999997E+02  0.45594000000E+02  0.51100000000E-03 0. -1.
         11   -1    0    0    0    0 -0.00000000000E+00 -0.00000000000E+00 -0.45593999997E+02  0.45594000000E+02  0.51100000000E-03 0.  1.
         23    2    1    2    0    0  0.00000000000E+00  0.00000000000E+00 -0.71054273576E-14  0.91188000000E+02  0.91188000000E+02 0.  0.
    9900012    2    3    3    0    0 -0.16310667760E+02  0.17277186507E+02  0.28128999381E+02  0.54367086615E+02  0.40000005556E+02 0.  0.
        -12    1    3    3    0    0  0.16310667760E+02 -0.17277186507E+02 -0.28128999381E+02  0.36820913385E+02  0.00000000000E+00 0.  1.
         11    1    4    4    0    0 -0.25070480750E+01  0.10683742195E+02 -0.22099688473E+01  0.11194266386E+02  0.51100000000E-03 0. -1.
        -11    1    4    4    0    0 -0.50289180073E+01  0.57608849155E+00 -0.44830322364E+01  0.67616176000E+01  0.51100000000E-03 0.  1.
        -12    1    4    4    0    0 -0.87747016773E+01  0.60173558199E+01  0.34822000464E+02  0.36411202629E+02  0.00000000000E+00 0.  1.
</event>
<event>
 8    1  0.2502431E-006  0.9118800E+02  0.7816164E-02  0.1184000E+00
        -11   -1    0    0    0    0  0.00000000000E+00  0.00000000000E+00  0.45593999997E+02  0.45594000000E+02  0.51100000000E-03 0.  1.
         11   -1    0    0    0    0 -0.00000000000E+00 -0.00000000000E+00 -0.45593999997E+02  0.45594000000E+02  0.51100000000E-03 0. -1.
         23    2    1    2    0    0  0.00000000000E+00  0.00000000000E+00 -0.17763568394E-14  0.91188000000E+02  0.91188000000E+02 0.  0.
    9900012    2    3    3    0    0  0.22182190625E+01 -0.34380555094E+02  0.12993712944E+02  0.54367086914E+02  0.40000006238E+02 0.  0.
         12    1    3    3    0    0 -0.22182190625E+01  0.34380555094E+02 -0.12993712944E+02  0.36820913086E+02  0.00000000000E+00 0. -1.
         11    1    4    4    0    0 -0.60681894356E+01 -0.27868523299E+01  0.13327738074E+02  0.14906980625E+02  0.51100000000E-03 0. -1.
        -11    1    4    4    0    0  0.98128473415E+01 -0.24999257103E+02 -0.91259731245E+01  0.28364382849E+02  0.51100000000E-03 0.  1.
        -12    1    4    4    0    0 -0.15264388435E+01 -0.65944456612E+01  0.87919479944E+01  0.11095723440E+02  0.00000000000E+00 0.  1.
</event>
<event>
 8    1  0.2502431E-006  0.9118800E+02  0.7816164E-02  0.1184000E+00
        -11   -1    0    0    0    0  0.00000000000E+00  0.00000000000E+00  0.45593999997E+02  0.45594000000E+02  0.51100000000E-03 0. -1.
         11   -1    0    0    0    0 -0.00000000000E+00 -0.00000000000E+00 -0.45593999997E+02  0.45594000000E+02  0.51100000000E-03 0.  1.
         23    2    1    2    0    0  0.35527136788E-14  0.35527136788E-14  0.44408920985E-15  0.91188000000E+02  0.91188000000E+02 0.  0.
    9900012    2    3    3    0    0  0.27538331134E+02  0.24230075174E+02  0.32131264022E+01  0.54367076521E+02  0.39999982544E+02 0.  0.
        -12    1    3    3    0    0 -0.27538331134E+02 -0.24230075174E+02 -0.32131264022E+01  0.36820923479E+02  0.00000000000E+00 0.  1.
         11    1    4    4    0    0  0.17199884525E+02  0.89817076343E+01  0.15089363449E+02  0.24580398476E+02  0.51100000000E-03 0. -1.
        -11    1    4    4    0    0  0.29093022986E+01  0.16822335890E+02 -0.17963370849E+01  0.17166299888E+02  0.51100000000E-03 0.  1.
        -12    1    4    4    0    0  0.74291443104E+01 -0.15739683504E+01 -0.10079899962E+02  0.12620378156E+02  0.00000000000E+00 0.  1.
</event>
<event>
 8    1  0.2502431E-006  0.9118800E+02  0.7816164E-02  0.1184000E+00
        -11   -1    0    0    0    0  0.00000000000E+00  0.00000000000E+00  0.45593999997E+02  0.45594000000E+02  0.51100000000E-03 0. -1.
         11   -1    0    0    0    0 -0.00000000000E+00 -0.00000000000E+00 -0.45593999997E+02  0.45594000000E+02  0.51100000000E-03 0.  1.
         23    2    1    2    0    0  0.00000000000E+00  0.35527136788E-14 -0.35527136788E-14  0.91188000000E+02  0.91188000000E+02 0.  0.
    9900012    2    3    3    0    0 -0.11283919223E+02 -0.17099943796E+02  0.30594936490E+02  0.54367013462E+02  0.39999838788E+02 0.  0.
        -12    1    3    3    0    0  0.11283919223E+02  0.17099943796E+02 -0.30594936490E+02  0.36820986538E+02  0.00000000000E+00 0.  1.
         11    1    4    4    0    0 -0.19780353960E+02 -0.28755046113E+01  0.10190494153E+02  0.22436066966E+02  0.51100000000E-03 0. -1.
        -11    1    4    4    0    0  0.10239016169E+02 -0.16249096167E+02  0.21686000328E+02  0.28968140928E+02  0.51100000000E-03 0.  1.
        -12    1    4    4    0    0 -0.17425814327E+01  0.20246569831E+01 -0.12815579906E+01  0.29628055677E+01  0.00000000000E+00 0.  1.
</event>
<event>
 8    1  0.2502431E-006  0.9118800E+02  0.7816164E-02  0.1184000E+00
        -11   -1    0    0    0    0  0.00000000000E+00  0.00000000000E+00  0.45593999997E+02  0.45594000000E+02  0.51100000000E-03 0.  1.
         11   -1    0    0    0    0 -0.00000000000E+00 -0.00000000000E+00 -0.45593999997E+02  0.45594000000E+02  0.51100000000E-03 0. -1.
         23    2    1    2    0    0  0.00000000000E+00  0.35527136788E-14  0.71054273576E-14  0.91188000000E+02  0.91188000000E+02 0.  0.
    9900012    2    3    3    0    0 -0.10190379237E+02 -0.28654647081E+02 -0.20756864887E+02  0.54367081105E+02  0.39999992995E+02 0.  0.
        -12    1    3    3    0    0  0.10190379237E+02  0.28654647081E+02  0.20756864887E+02  0.36820918895E+02  0.00000000000E+00 0.  1.
         11    1    4    4    0    0  0.77052243985E+01 -0.18901030768E+02 -0.16099033614E+02  0.25996121455E+02  0.51100000000E-03 0. -1.
        -11    1    4    4    0    0 -0.91010768047E+01 -0.14967581683E+02 -0.11235201079E+01  0.17553358600E+02  0.51100000000E-03 0.  1.
        -12    1    4    4    0    0 -0.87945268309E+01  0.52139653704E+01 -0.35343111657E+01  0.10817601050E+02  0.00000000000E+00 0.  1.
</event>
<event>
 8    1  0.2502431E-006  0.9118800E+02  0.7816164E-02  0.1184000E+00
        -11   -1    0    0    0    0  0.00000000000E+00  0.00000000000E+00  0.45593999997E+02  0.45594000000E+02  0.51100000000E-03 0. -1.
         11   -1    0    0    0    0 -0.00000000000E+00 -0.00000000000E+00 -0.45593999997E+02  0.45594000000E+02  0.51100000000E-03 0.  1.
         23    2    1    2    0    0  0.00000000000E+00  0.17763568394E-14 -0.35527136788E-14  0.91188000000E+02  0.91188000000E+02 0.  0.
    9900012    2    3    3    0    0  0.32398399646E+02  0.95001994519E+01 -0.14692456419E+02  0.54367104236E+02  0.40000045727E+02 0.  0.
        -12    1    3    3    0    0 -0.32398399646E+02 -0.95001994519E+01  0.14692456419E+02  0.36820895764E+02  0.00000000000E+00 0.  1.
         11    1    4    4    0    0  0.21751075043E+01  0.57876541439E+00  0.55526924709E+01  0.59915320243E+01  0.51100000000E-03 0. -1.
        -11    1    4    4    0    0  0.20817437620E+02 -0.84091861066E+01 -0.39527787791E+01  0.22797030078E+02  0.51100000000E-03 0.  1.
        -12    1    4    4    0    0  0.94058545210E+01  0.17330620144E+02 -0.16292370111E+02  0.25578542134E+02  0.00000000000E+00 0.  1.
</event>
<event>
 8    1  0.2502431E-006  0.9118800E+02  0.7816164E-02  0.1184000E+00
        -11   -1    0    0    0    0  0.00000000000E+00  0.00000000000E+00  0.45593999997E+02  0.45594000000E+02  0.51100000000E-03 0.  1.
         11   -1    0    0    0    0 -0.00000000000E+00 -0.00000000000E+00 -0.45593999997E+02  0.45594000000E+02  0.51100000000E-03 0. -1.
         23    2    1    2    0    0  0.00000000000E+00 -0.35527136788E-14 -0.17763568394E-14  0.91188000000E+02  0.91188000000E+02 0.  0.
    9900012    2    3    3    0    0 -0.29058972005E+02 -0.21938195180E+02 -0.54850213084E+01  0.54366895718E+02  0.39999570367E+02 0.  0.
        -12    1    3    3    0    0  0.29058972005E+02  0.21938195180E+02  0.54850213084E+01  0.36821104282E+02  0.00000000000E+00 0.  1.
         11    1    4    4    0    0 -0.82153377189E+01 -0.48828668553E+01 -0.13291273485E+02  0.16370464675E+02  0.51100000000E-03 0. -1.
        -11    1    4    4    0    0 -0.69092840152E+01 -0.12596262407E+02 -0.80118191959E+01  0.16449719734E+02  0.51100000000E-03 0.  1.
        -12    1    4    4    0    0 -0.13934350271E+02 -0.44590659180E+01  0.15818071372E+02  0.21546711310E+02  0.00000000000E+00 0.  1.
</event>
<event>
 8    1  0.2502431E-006  0.9118800E+02  0.7816164E-02  0.1184000E+00
        -11   -1    0    0    0    0  0.00000000000E+00  0.00000000000E+00  0.45593999997E+02  0.45594000000E+02  0.51100000000E-03 0.  1.
         11   -1    0    0    0    0 -0.00000000000E+00 -0.00000000000E+00 -0.45593999997E+02  0.45594000000E+02  0.51100000000E-03 0. -1.
         23    2    1    2    0    0 -0.17763568394E-14  0.35527136788E-14  0.00000000000E+00  0.91188000000E+02  0.91188000000E+02 0.  0.
    9900012    2    3    3    0    0 -0.94985829878E+01 -0.16639820966E+02  0.31443169743E+02  0.54367086866E+02  0.40000006129E+02 0.  0.
         12    1    3    3    0    0  0.94985829878E+01  0.16639820966E+02 -0.31443169743E+02  0.36820913134E+02  0.00000000000E+00 0. -1.
         11    1    4    4    0    0  0.43905382250E+01 -0.16520318554E+01 -0.41676036844E+01  0.62749466841E+01  0.51100000000E-03 0. -1.
        -11    1    4    4    0    0 -0.21153771683E+02 -0.99653834764E+01  0.27540097064E+02  0.36128214332E+02  0.51100000000E-03 0.  1.
        -12    1    4    4    0    0  0.72646504698E+01 -0.50224056337E+01  0.80706763632E+01  0.11963925851E+02  0.00000000000E+00 0.  1.
</event>
<event>
 8    1  0.2502431E-006  0.9118800E+02  0.7816164E-02  0.1184000E+00
        -11   -1    0    0    0    0  0.00000000000E+00  0.00000000000E+00  0.45593999997E+02  0.45594000000E+02  0.51100000000E-03 0.  1.
         11   -1    0    0    0    0 -0.00000000000E+00 -0.00000000000E+00 -0.45593999997E+02  0.45594000000E+02  0.51100000000E-03 0. -1.
         23    2    1    2    0    0  0.00000000000E+00 -0.13322676296E-14 -0.35527136788E-14  0.91188000000E+02  0.91188000000E+02 0.  0.
    9900012    2    3    3    0    0 -0.21821467334E+02  0.13337298887E+01  0.29628102052E+02  0.54367086062E+02  0.40000004295E+02 0.  0.
         12    1    3    3    0    0  0.21821467334E+02 -0.13337298887E+01 -0.29628102052E+02  0.36820913938E+02  0.00000000000E+00 0. -1.
         11    1    4    4    0    0 -0.16142563337E+02 -0.17257143172E+02  0.19069541366E+02  0.30365090972E+02  0.51100000000E-03 0. -1.
        -11    1    4    4    0    0 -0.14258577408E+00  0.12955575491E+02  0.35314200063E+01  0.13429005716E+02  0.51100000000E-03 0.  1.
         12    1    4    4    0    0 -0.55363182231E+01  0.56352975698E+01  0.70271406798E+01  0.10572989374E+02  0.00000000000E+00 0. -1.
</event>
<event>
 8    1  0.2502431E-006  0.9118800E+02  0.7816164E-02  0.1184000E+00
        -11   -1    0    0    0    0  0.00000000000E+00  0.00000000000E+00  0.45593999997E+02  0.45594000000E+02  0.51100000000E-03 0.  1.
         11   -1    0    0    0    0 -0.00000000000E+00 -0.00000000000E+00 -0.45593999997E+02  0.45594000000E+02  0.51100000000E-03 0. -1.
         23    2    1    2    0    0 -0.17763568394E-14 -0.17763568394E-14 -0.71054273576E-14  0.91188000000E+02  0.91188000000E+02 0.  0.
    9900012    2    3    3    0    0 -0.89021898275E+01 -0.10324863513E+02 -0.34204149597E+02  0.54367141238E+02  0.40000130080E+02 0.  0.
        -12    1    3    3    0    0  0.89021898275E+01  0.10324863513E+02  0.34204149597E+02  0.36820858762E+02  0.00000000000E+00 0.  1.
         11    1    4    4    0    0 -0.13584847707E+02  0.40377657680E+01 -0.16474617408E+02  0.21731651079E+02  0.51100000000E-03 0. -1.
        -11    1    4    4    0    0 -0.49003827304E+00  0.56430371615E+01 -0.79836910445E+01  0.97889391085E+01  0.51100000000E-03 0.  1.
        -12    1    4    4    0    0  0.51726961523E+01 -0.20005666443E+02 -0.97458411449E+01  0.22846551051E+02  0.00000000000E+00 0.  1.
</event>
<event>
 8    1  0.2502431E-006  0.9118800E+02  0.7816164E-02  0.1184000E+00
        -11   -1    0    0    0    0  0.00000000000E+00  0.00000000000E+00  0.45593999997E+02  0.45594000000E+02  0.51100000000E-03 0.  1.
         11   -1    0    0    0    0 -0.00000000000E+00 -0.00000000000E+00 -0.45593999997E+02  0.45594000000E+02  0.51100000000E-03 0. -1.
         23    2    1    2    0    0  0.17763568394E-14 -0.88817841970E-15  0.71054273576E-14  0.91188000000E+02  0.91188000000E+02 0.  0.
    9900012    2    3    3    0    0 -0.12544826856E+02 -0.42552608480E+01 -0.34355492272E+02  0.54367085088E+02  0.40000002075E+02 0.  0.
        -12    1    3    3    0    0  0.12544826856E+02  0.42552608480E+01  0.34355492272E+02  0.36820914912E+02  0.00000000000E+00 0.  1.
         11    1    4    4    0    0 -0.14009565976E+02  0.52323514214E+01 -0.21368736194E+02  0.26081954049E+02  0.51100000000E-03 0. -1.
        -11    1    4    4    0    0 -0.54648159223E+01  0.58637186895E+01 -0.61697493371E+01  0.10114999608E+02  0.51100000000E-03 0.  1.
         12    1    4    4    0    0  0.69295550420E+01 -0.15351330959E+02 -0.68170067405E+01  0.18170131430E+02  0.00000000000E+00 0. -1.
</event>
<event>
 8    1  0.2502431E-006  0.9118800E+02  0.7816164E-02  0.1184000E+00
        -11   -1    0    0    0    0  0.00000000000E+00  0.00000000000E+00  0.45593999997E+02  0.45594000000E+02  0.51100000000E-03 0. -1.
         11   -1    0    0    0    0 -0.00000000000E+00 -0.00000000000E+00 -0.45593999997E+02  0.45594000000E+02  0.51100000000E-03 0.  1.
         23    2    1    2    0    0  0.00000000000E+00  0.00000000000E+00  0.00000000000E+00  0.91188000000E+02  0.91188000000E+02 0.  0.
    9900012    2    3    3    0    0  0.35265666284E+02  0.62965317617E+01 -0.85126871641E+01  0.54367090541E+02  0.40000014505E+02 0.  0.
         12    1    3    3    0    0 -0.35265666284E+02 -0.62965317617E+01  0.85126871641E+01  0.36820909459E+02  0.00000000000E+00 0. -1.
         11    1    4    4    0    0 -0.21163117152E+01  0.11314223843E+02 -0.29846363119E+01  0.11891109731E+02  0.51100000000E-03 0. -1.
        -11    1    4    4    0    0  0.20595101328E+02 -0.11717453716E+02 -0.58191899158E+01  0.24399178097E+02  0.51100000000E-03 0.  1.
        -12    1    4    4    0    0  0.16786876671E+02  0.66997616347E+01  0.29113906363E+00  0.18076802712E+02  0.00000000000E+00 0.  1.
</event>
<event>
 8    1  0.2502431E-006  0.9118800E+02  0.7816164E-02  0.1184000E+00
        -11   -1    0    0    0    0  0.00000000000E+00  0.00000000000E+00  0.45593999997E+02  0.45594000000E+02  0.51100000000E-03 0. -1.
         11   -1    0    0    0    0 -0.00000000000E+00 -0.00000000000E+00 -0.45593999997E+02  0.45594000000E+02  0.51100000000E-03 0.  1.
         23    2    1    2    0    0  0.00000000000E+00 -0.35527136788E-14 -0.44408920985E-15  0.91188000000E+02  0.91188000000E+02 0.  0.
    9900012    2    3    3    0    0 -0.25879429133E+02 -0.26123216285E+02  0.19007802474E+01  0.54367078680E+02  0.39999987466E+02 0.  0.
        -12    1    3    3    0    0  0.25879429133E+02  0.26123216285E+02 -0.19007802474E+01  0.36820921320E+02  0.00000000000E+00 0.  1.
         11    1    4    4    0    0 -0.86786138979E+01 -0.37733888450E+01  0.22894379741E+01  0.97364433477E+01  0.51100000000E-03 0. -1.
        -11    1    4    4    0    0 -0.20751604252E+01  0.57459230051E+01  0.94384753882E+01  0.11243075197E+02  0.51100000000E-03 0.  1.
         12    1    4    4    0    0 -0.15125654810E+02 -0.28095750445E+02 -0.98271331148E+01  0.33387560135E+02  0.00000000000E+00 0. -1.
</event>
<event>
 8    1  0.2502431E-006  0.9118800E+02  0.7816164E-02  0.1184000E+00
        -11   -1    0    0    0    0  0.00000000000E+00  0.00000000000E+00  0.45593999997E+02  0.45594000000E+02  0.51100000000E-03 0. -1.
         11   -1    0    0    0    0 -0.00000000000E+00 -0.00000000000E+00 -0.45593999997E+02  0.45594000000E+02  0.51100000000E-03 0.  1.
         23    2    1    2    0    0  0.35527136788E-14 -0.71054273576E-14 -0.88817841970E-15  0.91188000000E+02  0.91188000000E+02 0.  0.
    9900012    2    3    3    0    0  0.20956337001E+02 -0.30070417279E+02 -0.35188233821E+01  0.54367079672E+02  0.39999989727E+02 0.  0.
        -12    1    3    3    0    0 -0.20956337001E+02  0.30070417279E+02  0.35188233821E+01  0.36820920328E+02  0.00000000000E+00 0.  1.
         11    1    4    4    0    0 -0.17554926418E+01  0.54689764163E+01  0.29288269351E+01  0.64474401846E+01  0.51100000000E-03 0. -1.
        -11    1    4    4    0    0  0.13769076563E+02 -0.10007720889E+02 -0.11305795810E+02  0.20434357488E+02  0.51100000000E-03 0.  1.
        -12    1    4    4    0    0  0.89427530800E+01 -0.25531672807E+02  0.48581454924E+01  0.27485281999E+02  0.00000000000E+00 0.  1.
</event>
<event>
 8    1  0.2502431E-006  0.9118800E+02  0.7816164E-02  0.1184000E+00
        -11   -1    0    0    0    0  0.00000000000E+00  0.00000000000E+00  0.45593999997E+02  0.45594000000E+02  0.51100000000E-03 0. -1.
         11   -1    0    0    0    0 -0.00000000000E+00 -0.00000000000E+00 -0.45593999997E+02  0.45594000000E+02  0.51100000000E-03 0.  1.
         23    2    1    2    0    0  0.35527136788E-14 -0.35527136788E-14  0.00000000000E+00  0.91188000000E+02  0.91188000000E+02 0.  0.
    9900012    2    3    3    0    0  0.18260183487E+02  0.19997026696E+02 -0.24949449527E+02  0.54366940681E+02  0.39999672870E+02 0.  0.
         12    1    3    3    0    0 -0.18260183487E+02 -0.19997026696E+02  0.24949449527E+02  0.36821059319E+02  0.00000000000E+00 0. -1.
         11    1    4    4    0    0 -0.43629398107E+01  0.62510745944E+01 -0.68352127574E+01  0.10238716281E+02  0.51100000000E-03 0. -1.
        -11    1    4    4    0    0 -0.69719983147E+01  0.36349732464E+01 -0.81020259321E+01  0.11290022829E+02  0.51100000000E-03 0.  1.
        -12    1    4    4    0    0  0.29595121612E+02  0.10110978855E+02 -0.10012210837E+02  0.32838201572E+02  0.00000000000E+00 0.  1.
</event>
<event>
 8    1  0.2502431E-006  0.9118800E+02  0.7816164E-02  0.1184000E+00
        -11   -1    0    0    0    0  0.00000000000E+00  0.00000000000E+00  0.45593999997E+02  0.45594000000E+02  0.51100000000E-03 0.  1.
         11   -1    0    0    0    0 -0.00000000000E+00 -0.00000000000E+00 -0.45593999997E+02  0.45594000000E+02  0.51100000000E-03 0. -1.
         23    2    1    2    0    0  0.00000000000E+00 -0.35527136788E-14  0.00000000000E+00  0.91188000000E+02  0.91188000000E+02 0.  0.
    9900012    2    3    3    0    0  0.25722685291E+02 -0.17336672674E+02  0.19838471427E+02  0.54367058858E+02  0.39999942279E+02 0.  0.
         12    1    3    3    0    0 -0.25722685291E+02  0.17336672674E+02 -0.19838471427E+02  0.36820941142E+02  0.00000000000E+00 0. -1.
         11    1    4    4    0    0  0.20466828602E+02 -0.88685406088E+01 -0.33011653700E+01  0.22548609239E+02  0.51100000000E-03 0.  1.
        -11    1    4    4    0    0 -0.30501381245E+01  0.48467062994E+01  0.36287980022E+01  0.67795338876E+01  0.51100000000E-03 0. -1.
        -12    1    4    4    0    0  0.83059948141E+01 -0.13314838365E+02  0.19510838795E+02  0.25038915731E+02  0.00000000000E+00 0.  1.
</event>
<event>
 8    1  0.2502431E-006  0.9118800E+02  0.7816164E-02  0.1184000E+00
        -11   -1    0    0    0    0  0.00000000000E+00  0.00000000000E+00  0.45593999997E+02  0.45594000000E+02  0.51100000000E-03 0.  1.
         11   -1    0    0    0    0 -0.00000000000E+00 -0.00000000000E+00 -0.45593999997E+02  0.45594000000E+02  0.51100000000E-03 0. -1.
         23    2    1    2    0    0  0.00000000000E+00  0.00000000000E+00  0.00000000000E+00  0.91188000000E+02  0.91188000000E+02 0.  0.
    9900012    2    3    3    0    0  0.16245951987E+02  0.32257729278E+02 -0.71615726026E+01  0.54367079639E+02  0.39999989652E+02 0.  0.
        -12    1    3    3    0    0 -0.16245951987E+02 -0.32257729278E+02  0.71615726026E+01  0.36820920361E+02  0.00000000000E+00 0.  1.
         11    1    4    4    0    0  0.15525054865E+02  0.24669931542E+02 -0.80299912925E+01  0.30234311821E+02  0.51100000000E-03 0. -1.
        -11    1    4    4    0    0  0.65645858183E+01  0.11968200940E+02  0.62972187959E+01  0.15032850213E+02  0.51100000000E-03 0.  1.
        -12    1    4    4    0    0 -0.58436886960E+01 -0.43804032050E+01 -0.54288001061E+01  0.90999176044E+01  0.00000000000E+00 0.  1.
</event>
<event>
 8    1  0.2502431E-006  0.9118800E+02  0.7816164E-02  0.1184000E+00
        -11   -1    0    0    0    0  0.00000000000E+00  0.00000000000E+00  0.45593999997E+02  0.45594000000E+02  0.51100000000E-03 0.  1.
         11   -1    0    0    0    0 -0.00000000000E+00 -0.00000000000E+00 -0.45593999997E+02  0.45594000000E+02  0.51100000000E-03 0. -1.
         23    2    1    2    0    0 -0.71054273576E-14  0.35527136788E-14 -0.35527136788E-14  0.91188000000E+02  0.91188000000E+02 0.  0.
    9900012    2    3    3    0    0  0.20853591336E+02 -0.22792675322E+02  0.20034986489E+02  0.54367095563E+02  0.40000025955E+02 0.  0.
         12    1    3    3    0    0 -0.20853591336E+02  0.22792675322E+02 -0.20034986489E+02  0.36820904437E+02  0.00000000000E+00 0. -1.
         11    1    4    4    0    0  0.13931606407E+02 -0.24854936239E+02  0.61687858746E+01  0.29153240505E+02  0.51100000000E-03 0. -1.
        -11    1    4    4    0    0 -0.66991949552E+01 -0.17302153271E+01  0.44879818924E+01  0.82471110004E+01  0.51100000000E-03 0.  1.
        -12    1    4    4    0    0  0.13621179884E+02  0.37924762446E+01  0.93782187223E+01  0.16966744058E+02  0.00000000000E+00 0.  1.
</event>
<event>
 8    1  0.2502431E-006  0.9118800E+02  0.7816164E-02  0.1184000E+00
        -11   -1    0    0    0    0  0.00000000000E+00  0.00000000000E+00  0.45593999997E+02  0.45594000000E+02  0.51100000000E-03 0.  1.
         11   -1    0    0    0    0 -0.00000000000E+00 -0.00000000000E+00 -0.45593999997E+02  0.45594000000E+02  0.51100000000E-03 0. -1.
         23    2    1    2    0    0  0.00000000000E+00  0.00000000000E+00 -0.35527136788E-14  0.91188000000E+02  0.91188000000E+02 0.  0.
    9900012    2    3    3    0    0 -0.24830456956E+02  0.18091712971E+02 -0.20295774824E+02  0.54367080042E+02  0.39999990571E+02 0.  0.
        -12    1    3    3    0    0  0.24830456956E+02 -0.18091712971E+02  0.20295774824E+02  0.36820919958E+02  0.00000000000E+00 0.  1.
         11    1    4    4    0    0 -0.27692474317E+01 -0.33689857091E+01 -0.19742305173E+02  0.20218244480E+02  0.51100000000E-03 0. -1.
        -11    1    4    4    0    0 -0.14875639559E+02  0.44615161335E+01 -0.18908254048E+01  0.15644967225E+02  0.51100000000E-03 0.  1.
        -12    1    4    4    0    0 -0.71855699658E+01  0.16999182547E+02  0.13373557546E+01  0.18503868337E+02  0.00000000000E+00 0.  1.
</event>
<event>
 8    1  0.2502431E-006  0.9118800E+02  0.7816164E-02  0.1184000E+00
        -11   -1    0    0    0    0  0.00000000000E+00  0.00000000000E+00  0.45593999997E+02  0.45594000000E+02  0.51100000000E-03 0. -1.
         11   -1    0    0    0    0 -0.00000000000E+00 -0.00000000000E+00 -0.45593999997E+02  0.45594000000E+02  0.51100000000E-03 0.  1.
         23    2    1    2    0    0 -0.17763568394E-14  0.00000000000E+00  0.00000000000E+00  0.91188000000E+02  0.91188000000E+02 0.  0.
    9900012    2    3    3    0    0  0.11598472223E+02  0.31819281030E+02  0.14449534421E+02  0.54367078663E+02  0.39999987428E+02 0.  0.
        -12    1    3    3    0    0 -0.11598472223E+02 -0.31819281030E+02 -0.14449534421E+02  0.36820921337E+02  0.00000000000E+00 0.  1.
         11    1    4    4    0    0  0.14620021776E+02  0.21185833868E+02  0.14928073378E+02  0.29756208906E+02  0.51100000000E-03 0. -1.
        -11    1    4    4    0    0  0.65628722234E+01  0.76500011006E+01 -0.73253441092E+01  0.12460115378E+02  0.51100000000E-03 0.  1.
         12    1    4    4    0    0 -0.95844217763E+01  0.29834460609E+01  0.68468051520E+01  0.12150754379E+02  0.00000000000E+00 0. -1.
</event>
<event>
 8    1  0.2502431E-006  0.9118800E+02  0.7816164E-02  0.1184000E+00
        -11   -1    0    0    0    0  0.00000000000E+00  0.00000000000E+00  0.45593999997E+02  0.45594000000E+02  0.51100000000E-03 0.  1.
         11   -1    0    0    0    0 -0.00000000000E+00 -0.00000000000E+00 -0.45593999997E+02  0.45594000000E+02  0.51100000000E-03 0. -1.
         23    2    1    2    0    0  0.35527136788E-14  0.00000000000E+00  0.00000000000E+00  0.91188000000E+02  0.91188000000E+02 0.  0.
    9900012    2    3    3    0    0  0.29725143923E+02  0.19525760398E+02 -0.95362185360E+01  0.54367096096E+02  0.40000027169E+02 0.  0.
         12    1    3    3    0    0 -0.29725143923E+02 -0.19525760398E+02  0.95362185360E+01  0.36820903904E+02  0.00000000000E+00 0. -1.
         11    1    4    4    0    0  0.84982407220E-01  0.15280690706E+02 -0.48572974507E+01  0.16034340313E+02  0.51100000000E-03 0. -1.
        -11    1    4    4    0    0  0.33441535918E+02  0.57965058553E+01 -0.42097050377E+01  0.34200254699E+02  0.51100000000E-03 0.  1.
        -12    1    4    4    0    0 -0.38013744017E+01 -0.15514361641E+01 -0.46921604757E+00  0.41325010843E+01  0.00000000000E+00 0.  1.
</event>
<event>
 8    1  0.2502431E-006  0.9118800E+02  0.7816164E-02  0.1184000E+00
        -11   -1    0    0    0    0  0.00000000000E+00  0.00000000000E+00  0.45593999997E+02  0.45594000000E+02  0.51100000000E-03 0. -1.
         11   -1    0    0    0    0 -0.00000000000E+00 -0.00000000000E+00 -0.45593999997E+02  0.45594000000E+02  0.51100000000E-03 0.  1.
         23    2    1    2    0    0 -0.35527136788E-14  0.88817841970E-15  0.00000000000E+00  0.91188000000E+02  0.91188000000E+02 0.  0.
    9900012    2    3    3    0    0 -0.15452573799E+02  0.41916786510E+01  0.33157629064E+02  0.54367074264E+02  0.39999977400E+02 0.  0.
        -12    1    3    3    0    0  0.15452573799E+02 -0.41916786510E+01 -0.33157629064E+02  0.36820925736E+02  0.00000000000E+00 0.  1.
         11    1    4    4    0    0 -0.23837943809E+02  0.53684914677E+01  0.15067906874E+02  0.28707317595E+02  0.51100000000E-03 0. -1.
        -11    1    4    4    0    0  0.48000652882E+01 -0.97819850080E+00  0.20667086942E+02  0.21239726505E+02  0.51100000000E-03 0.  1.
        -12    1    4    4    0    0  0.35853047213E+01 -0.19861431592E+00 -0.25773647521E+01  0.44200301646E+01  0.00000000000E+00 0.  1.
</event>
<event>
 8    1  0.2502431E-006  0.9118800E+02  0.7816164E-02  0.1184000E+00
        -11   -1    0    0    0    0  0.00000000000E+00  0.00000000000E+00  0.45593999997E+02  0.45594000000E+02  0.51100000000E-03 0. -1.
         11   -1    0    0    0    0 -0.00000000000E+00 -0.00000000000E+00 -0.45593999997E+02  0.45594000000E+02  0.51100000000E-03 0.  1.
         23    2    1    2    0    0 -0.77715611724E-15  0.00000000000E+00 -0.17763568394E-14  0.91188000000E+02  0.91188000000E+02 0.  0.
    9900012    2    3    3    0    0 -0.29640105000E+00 -0.34429960542E+02 -0.13048705418E+02  0.54367099011E+02  0.40000033816E+02 0.  0.
         12    1    3    3    0    0  0.29640105000E+00  0.34429960542E+02  0.13048705418E+02  0.36820900989E+02  0.00000000000E+00 0. -1.
         11    1    4    4    0    0  0.12716869261E+02 -0.22748233736E+02  0.50221628433E+01  0.26540968742E+02  0.51100000000E-03 0. -1.
        -11    1    4    4    0    0 -0.88299152825E+01 -0.13391074000E+02 -0.11055017279E+02  0.19480802706E+02  0.51100000000E-03 0.  1.
         12    1    4    4    0    0 -0.41833550288E+01  0.17093471933E+01 -0.70158509828E+01  0.83453275632E+01  0.00000000000E+00 0. -1.
</event>
<event>
 8    1  0.2502431E-006  0.9118800E+02  0.7816164E-02  0.1184000E+00
        -11   -1    0    0    0    0  0.00000000000E+00  0.00000000000E+00  0.45593999997E+02  0.45594000000E+02  0.51100000000E-03 0. -1.
         11   -1    0    0    0    0 -0.00000000000E+00 -0.00000000000E+00 -0.45593999997E+02  0.45594000000E+02  0.51100000000E-03 0.  1.
         23    2    1    2    0    0  0.00000000000E+00  0.35527136788E-14  0.00000000000E+00  0.91188000000E+02  0.91188000000E+02 0.  0.
    9900012    2    3    3    0    0  0.83463041037E+01  0.30961907624E+02 -0.18096400948E+02  0.54367078729E+02  0.39999987579E+02 0.  0.
         12    1    3    3    0    0 -0.83463041037E+01 -0.30961907624E+02  0.18096400948E+02  0.36820921271E+02  0.00000000000E+00 0. -1.
         11    1    4    4    0    0 -0.36380585893E+01  0.27513331947E+01  0.64635063818E+01  0.79108924690E+01  0.51100000000E-03 0. -1.
        -11    1    4    4    0    0  0.11632495304E+02  0.86844844672E+01  0.69248246652E+00  0.14533229155E+02  0.51100000000E-03 0.  1.
         12    1    4    4    0    0  0.35186738913E+00  0.19526089962E+02 -0.25252389797E+02  0.31922957105E+02  0.00000000000E+00 0. -1.
</event>
<event>
 8    1  0.2502431E-006  0.9118800E+02  0.7816164E-02  0.1184000E+00
        -11   -1    0    0    0    0  0.00000000000E+00  0.00000000000E+00  0.45593999997E+02  0.45594000000E+02  0.51100000000E-03 0. -1.
         11   -1    0    0    0    0 -0.00000000000E+00 -0.00000000000E+00 -0.45593999997E+02  0.45594000000E+02  0.51100000000E-03 0.  1.
         23    2    1    2    0    0  0.88817841970E-15 -0.71054273576E-14 -0.35527136788E-14  0.91188000000E+02  0.91188000000E+02 0.  0.
    9900012    2    3    3    0    0  0.45619669247E+01  0.24219230222E+02 -0.27356852077E+02  0.54367081892E+02  0.39999994789E+02 0.  0.
         12    1    3    3    0    0 -0.45619669247E+01 -0.24219230222E+02  0.27356852077E+02  0.36820918108E+02  0.00000000000E+00 0. -1.
         11    1    4    4    0    0 -0.12685797643E+02  0.19557844259E+01 -0.17134679057E+02  0.21409151810E+02  0.51100000000E-03 0. -1.
        -11    1    4    4    0    0  0.11657752805E+02  0.44138637578E+01 -0.57427567470E+01  0.13724600142E+02  0.51100000000E-03 0.  1.
        -12    1    4    4    0    0  0.55900117617E+01  0.17849582038E+02 -0.44794162726E+01  0.19233329940E+02  0.00000000000E+00 0.  1.
</event>
<event>
 8    1  0.2502431E-006  0.9118800E+02  0.7816164E-02  0.1184000E+00
        -11   -1    0    0    0    0  0.00000000000E+00  0.00000000000E+00  0.45593999997E+02  0.45594000000E+02  0.51100000000E-03 0. -1.
         11   -1    0    0    0    0 -0.00000000000E+00 -0.00000000000E+00 -0.45593999997E+02  0.45594000000E+02  0.51100000000E-03 0.  1.
         23    2    1    2    0    0  0.00000000000E+00  0.71054273576E-14 -0.17763568394E-14  0.91188000000E+02  0.91188000000E+02 0.  0.
    9900012    2    3    3    0    0  0.11526874868E+02  0.34466342365E+02  0.59145340367E+01  0.54367091360E+02  0.40000016373E+02 0.  0.
         12    1    3    3    0    0 -0.11526874868E+02 -0.34466342365E+02 -0.59145340367E+01  0.36820908640E+02  0.00000000000E+00 0. -1.
         11    1    4    4    0    0  0.94874570818E+01  0.44767724124E+00 -0.11038943247E+02  0.14562641418E+02  0.51100000000E-03 0. -1.
        -11    1    4    4    0    0  0.66592867225E+01  0.16534258527E+02  0.69034026249E+01  0.19115040485E+02  0.51100000000E-03 0.  1.
         12    1    4    4    0    0 -0.46198689368E+01  0.17484406597E+02  0.10050074659E+02  0.20689409457E+02  0.00000000000E+00 0. -1.
</event>
<event>
 8    1  0.2502431E-006  0.9118800E+02  0.7816164E-02  0.1184000E+00
        -11   -1    0    0    0    0  0.00000000000E+00  0.00000000000E+00  0.45593999997E+02  0.45594000000E+02  0.51100000000E-03 0.  1.
         11   -1    0    0    0    0 -0.00000000000E+00 -0.00000000000E+00 -0.45593999997E+02  0.45594000000E+02  0.51100000000E-03 0. -1.
         23    2    1    2    0    0  0.00000000000E+00  0.00000000000E+00  0.35527136788E-14  0.91188000000E+02  0.91188000000E+02 0.  0.
    9900012    2    3    3    0    0  0.25060823937E+02 -0.91172528801E+01 -0.25389174332E+02  0.54367090591E+02  0.40000014620E+02 0.  0.
        -12    1    3    3    0    0 -0.25060823937E+02  0.91172528801E+01  0.25389174332E+02  0.36820909409E+02  0.00000000000E+00 0.  1.
         11    1    4    4    0    0  0.88214278862E+01 -0.13598380276E+02 -0.14034601825E+02  0.21440699259E+02  0.51100000000E-03 0. -1.
        -11    1    4    4    0    0  0.19100681140E+02  0.18723950692E+01  0.17403780606E+01  0.19270983352E+02  0.51100000000E-03 0.  1.
         12    1    4    4    0    0 -0.28612850896E+01  0.26087323270E+01 -0.13094950567E+02  0.13655407979E+02  0.00000000000E+00 0. -1.
</event>
<event>
 8    1  0.2502431E-006  0.9118800E+02  0.7816164E-02  0.1184000E+00
        -11   -1    0    0    0    0  0.00000000000E+00  0.00000000000E+00  0.45593999997E+02  0.45594000000E+02  0.51100000000E-03 0. -1.
         11   -1    0    0    0    0 -0.00000000000E+00 -0.00000000000E+00 -0.45593999997E+02  0.45594000000E+02  0.51100000000E-03 0.  1.
         23    2    1    2    0    0  0.00000000000E+00  0.00000000000E+00 -0.88817841970E-15  0.91188000000E+02  0.91188000000E+02 0.  0.
    9900012    2    3    3    0    0 -0.29616287937E+02  0.21323695422E+02 -0.48943607773E+01  0.54367092012E+02  0.40000017860E+02 0.  0.
        -12    1    3    3    0    0  0.29616287937E+02 -0.21323695422E+02  0.48943607773E+01  0.36820907988E+02  0.00000000000E+00 0.  1.
         11    1    4    4    0    0 -0.26527118593E+02  0.13660829080E+02 -0.69522591519E+01  0.30637235182E+02  0.51100000000E-03 0. -1.
        -11    1    4    4    0    0  0.92228847653E+01  0.35744349019E+01 -0.20900948019E+01  0.10109732183E+02  0.51100000000E-03 0.  1.
        -12    1    4    4    0    0 -0.12312054109E+02  0.40884314405E+01  0.41479931766E+01  0.13620124648E+02  0.00000000000E+00 0.  1.
</event>
<event>
 8    1  0.2502431E-006  0.9118800E+02  0.7816164E-02  0.1184000E+00
        -11   -1    0    0    0    0  0.00000000000E+00  0.00000000000E+00  0.45593999997E+02  0.45594000000E+02  0.51100000000E-03 0. -1.
         11   -1    0    0    0    0 -0.00000000000E+00 -0.00000000000E+00 -0.45593999997E+02  0.45594000000E+02  0.51100000000E-03 0.  1.
         23    2    1    2    0    0  0.16098233857E-14  0.00000000000E+00  0.00000000000E+00  0.91188000000E+02  0.91188000000E+02 0.  0.
    9900012    2    3    3    0    0 -0.22989469968E+00  0.35204702095E+02 -0.10786827039E+02  0.54367088296E+02  0.40000009388E+02 0.  0.
         12    1    3    3    0    0  0.22989469968E+00 -0.35204702095E+02  0.10786827039E+02  0.36820911704E+02  0.00000000000E+00 0. -1.
         11    1    4    4    0    0 -0.10530314423E+02  0.12817019626E+02 -0.23704203229E+01  0.16756563093E+02  0.51100000000E-03 0.  1.
        -11    1    4    4    0    0 -0.87544318482E+01  0.25201059057E+01 -0.26109882717E+01  0.94767225757E+01  0.51100000000E-03 0. -1.
        -12    1    4    4    0    0  0.19054851572E+02  0.19867576563E+02 -0.58054184447E+01  0.28133802627E+02  0.00000000000E+00 0.  1.
</event>
<event>
 8    1  0.2502431E-006  0.9118800E+02  0.7816164E-02  0.1184000E+00
        -11   -1    0    0    0    0  0.00000000000E+00  0.00000000000E+00  0.45593999997E+02  0.45594000000E+02  0.51100000000E-03 0. -1.
         11   -1    0    0    0    0 -0.00000000000E+00 -0.00000000000E+00 -0.45593999997E+02  0.45594000000E+02  0.51100000000E-03 0.  1.
         23    2    1    2    0    0  0.35527136788E-14  0.00000000000E+00  0.00000000000E+00  0.91188000000E+02  0.91188000000E+02 0.  0.
    9900012    2    3    3    0    0  0.17832736807E+02 -0.25838810302E+02 -0.19238746447E+02  0.54367082240E+02  0.39999995582E+02 0.  0.
         12    1    3    3    0    0 -0.17832736807E+02  0.25838810302E+02  0.19238746447E+02  0.36820917760E+02  0.00000000000E+00 0. -1.
         11    1    4    4    0    0  0.43777242750E+01 -0.11925137699E+02 -0.40895220877E+01  0.13345320159E+02  0.51100000000E-03 0. -1.
        -11    1    4    4    0    0  0.24376103783E+02 -0.98128710100E+01 -0.86292301442E+01  0.27657738271E+02  0.51100000000E-03 0.  1.
         12    1    4    4    0    0 -0.10921091251E+02 -0.41008015926E+01 -0.65199942154E+01  0.13364023810E+02  0.00000000000E+00 0. -1.
</event>
<event>
 8    1  0.2502431E-006  0.9118800E+02  0.7816164E-02  0.1184000E+00
        -11   -1    0    0    0    0  0.00000000000E+00  0.00000000000E+00  0.45593999997E+02  0.45594000000E+02  0.51100000000E-03 0.  1.
         11   -1    0    0    0    0 -0.00000000000E+00 -0.00000000000E+00 -0.45593999997E+02  0.45594000000E+02  0.51100000000E-03 0. -1.
         23    2    1    2    0    0 -0.17763568394E-14  0.00000000000E+00  0.44408920985E-15  0.91188000000E+02  0.91188000000E+02 0.  0.
    9900012    2    3    3    0    0  0.98403030929E+01  0.35309705438E+02 -0.34890451653E+01  0.54367077969E+02  0.39999985845E+02 0.  0.
        -12    1    3    3    0    0 -0.98403030929E+01 -0.35309705438E+02  0.34890451653E+01  0.36820922031E+02  0.00000000000E+00 0.  1.
         11    1    4    4    0    0 -0.17144012701E+01 -0.27782583491E+01  0.37873256501E+01  0.50001726981E+01  0.51100000000E-03 0.  1.
        -11    1    4    4    0    0  0.13292877479E+02  0.29111807970E+01 -0.19849917716E+01  0.13751936514E+02  0.51100000000E-03 0. -1.
        -12    1    4    4    0    0 -0.17381731159E+01  0.35176782990E+02 -0.52913790438E+01  0.35614968756E+02  0.00000000000E+00 0.  1.
</event>
<event>
 8    1  0.2502431E-006  0.9118800E+02  0.7816164E-02  0.1184000E+00
        -11   -1    0    0    0    0  0.00000000000E+00  0.00000000000E+00  0.45593999997E+02  0.45594000000E+02  0.51100000000E-03 0.  1.
         11   -1    0    0    0    0 -0.00000000000E+00 -0.00000000000E+00 -0.45593999997E+02  0.45594000000E+02  0.51100000000E-03 0. -1.
         23    2    1    2    0    0  0.00000000000E+00  0.71054273576E-14 -0.53290705182E-14  0.91188000000E+02  0.91188000000E+02 0.  0.
    9900012    2    3    3    0    0 -0.19457313067E+02  0.27028304206E+02  0.15705500933E+02  0.54367095345E+02  0.40000025458E+02 0.  0.
         12    1    3    3    0    0  0.19457313067E+02 -0.27028304206E+02 -0.15705500933E+02  0.36820904655E+02  0.00000000000E+00 0. -1.
         11    1    4    4    0    0  0.58460476072E+01  0.25302649412E+01  0.52073627572E+01  0.82277056610E+01  0.51100000000E-03 0. -1.
        -11    1    4    4    0    0 -0.85152444858E+01  0.63511552729E+00 -0.79111261128E+01  0.11640389900E+02  0.51100000000E-03 0.  1.
        -12    1    4    4    0    0 -0.16788116188E+02  0.23862923738E+02  0.18409264288E+02  0.34498999784E+02  0.00000000000E+00 0.  1.
</event>
<event>
 8    1  0.2502431E-006  0.9118800E+02  0.7816164E-02  0.1184000E+00
        -11   -1    0    0    0    0  0.00000000000E+00  0.00000000000E+00  0.45593999997E+02  0.45594000000E+02  0.51100000000E-03 0. -1.
         11   -1    0    0    0    0 -0.00000000000E+00 -0.00000000000E+00 -0.45593999997E+02  0.45594000000E+02  0.51100000000E-03 0.  1.
         23    2    1    2    0    0  0.55511151231E-15  0.00000000000E+00  0.00000000000E+00  0.91188000000E+02  0.91188000000E+02 0.  0.
    9900012    2    3    3    0    0  0.85329883969E+00  0.26507594523E+02  0.25542095462E+02  0.54367091172E+02  0.40000015945E+02 0.  0.
        -12    1    3    3    0    0 -0.85329883969E+00 -0.26507594523E+02 -0.25542095462E+02  0.36820908828E+02  0.00000000000E+00 0.  1.
         11    1    4    4    0    0 -0.11931559101E+02  0.11704942692E+02  0.13533221324E+02  0.21506182034E+02  0.51100000000E-03 0. -1.
        -11    1    4    4    0    0  0.16000367361E+02  0.81052407187E+01 -0.90880119987E+00  0.17959192707E+02  0.51100000000E-03 0.  1.
        -12    1    4    4    0    0 -0.32155094204E+01  0.66974111123E+01  0.12917675338E+02  0.14901716430E+02  0.00000000000E+00 0.  1.
</event>
<event>
 8    1  0.2502431E-006  0.9118800E+02  0.7816164E-02  0.1184000E+00
        -11   -1    0    0    0    0  0.00000000000E+00  0.00000000000E+00  0.45593999997E+02  0.45594000000E+02  0.51100000000E-03 0.  1.
         11   -1    0    0    0    0 -0.00000000000E+00 -0.00000000000E+00 -0.45593999997E+02  0.45594000000E+02  0.51100000000E-03 0. -1.
         23    2    1    2    0    0  0.00000000000E+00  0.00000000000E+00  0.00000000000E+00  0.91188000000E+02  0.91188000000E+02 0.  0.
    9900012    2    3    3    0    0 -0.13387255084E+02  0.11746635195E+02  0.32226983593E+02  0.54367075126E+02  0.39999979364E+02 0.  0.
         12    1    3    3    0    0  0.13387255084E+02 -0.11746635195E+02 -0.32226983593E+02  0.36820924874E+02  0.00000000000E+00 0. -1.
         11    1    4    4    0    0  0.88938494438E+01  0.75033152806E+01  0.38296482521E+01  0.12250163433E+02  0.51100000000E-03 0. -1.
        -11    1    4    4    0    0 -0.20802375356E+02 -0.47216497389E+00  0.30354472808E+02  0.36801573063E+02  0.51100000000E-03 0.  1.
        -12    1    4    4    0    0 -0.14787291726E+01  0.47154848879E+01 -0.19571374664E+01  0.53153386304E+01  0.00000000000E+00 0.  1.
</event>
<event>
 8    1  0.2502431E-006  0.9118800E+02  0.7816164E-02  0.1184000E+00
        -11   -1    0    0    0    0  0.00000000000E+00  0.00000000000E+00  0.45593999997E+02  0.45594000000E+02  0.51100000000E-03 0. -1.
         11   -1    0    0    0    0 -0.00000000000E+00 -0.00000000000E+00 -0.45593999997E+02  0.45594000000E+02  0.51100000000E-03 0.  1.
         23    2    1    2    0    0  0.00000000000E+00  0.88817841970E-15  0.35527136788E-14  0.91188000000E+02  0.91188000000E+02 0.  0.
    9900012    2    3    3    0    0  0.24724248329E+02  0.71626232329E+01 -0.26328497494E+02  0.54367062922E+02  0.39999951543E+02 0.  0.
         12    1    3    3    0    0 -0.24724248329E+02 -0.71626232329E+01  0.26328497494E+02  0.36820937078E+02  0.00000000000E+00 0. -1.
         11    1    4    4    0    0  0.15467958044E+02 -0.81787155549E+01  0.49612307593E+01  0.18186888824E+02  0.51100000000E-03 0. -1.
        -11    1    4    4    0    0  0.84272316975E+01  0.13023462446E+02 -0.24947684149E+02  0.29377129758E+02  0.51100000000E-03 0.  1.
         12    1    4    4    0    0  0.82905858799E+00  0.23178763423E+01 -0.63420441045E+01  0.68030443409E+01  0.00000000000E+00 0. -1.
</event>
<event>
 8    1  0.2502431E-006  0.9118800E+02  0.7816164E-02  0.1184000E+00
        -11   -1    0    0    0    0  0.00000000000E+00  0.00000000000E+00  0.45593999997E+02  0.45594000000E+02  0.51100000000E-03 0.  1.
         11   -1    0    0    0    0 -0.00000000000E+00 -0.00000000000E+00 -0.45593999997E+02  0.45594000000E+02  0.51100000000E-03 0. -1.
         23    2    1    2    0    0  0.00000000000E+00  0.00000000000E+00  0.00000000000E+00  0.91188000000E+02  0.91188000000E+02 0.  0.
    9900012    2    3    3    0    0 -0.16321788112E+02  0.28237063970E+02 -0.17089608915E+02  0.54366983152E+02  0.39999769692E+02 0.  0.
        -12    1    3    3    0    0  0.16321788112E+02 -0.28237063970E+02  0.17089608915E+02  0.36821016848E+02  0.00000000000E+00 0.  1.
         11    1    4    4    0    0  0.13629331762E+01  0.11811055448E+02 -0.10046494152E+02  0.15565688633E+02  0.51100000000E-03 0. -1.
        -11    1    4    4    0    0 -0.19643523885E+02  0.12407997022E+02 -0.16394813714E+02  0.28436180083E+02  0.51100000000E-03 0.  1.
        -12    1    4    4    0    0  0.19588025965E+01  0.40180114999E+01  0.93516989504E+01  0.10365114437E+02  0.00000000000E+00 0.  1.
</event>
<event>
 8    1  0.2502431E-006  0.9118800E+02  0.7816164E-02  0.1184000E+00
        -11   -1    0    0    0    0  0.00000000000E+00  0.00000000000E+00  0.45593999997E+02  0.45594000000E+02  0.51100000000E-03 0. -1.
         11   -1    0    0    0    0 -0.00000000000E+00 -0.00000000000E+00 -0.45593999997E+02  0.45594000000E+02  0.51100000000E-03 0.  1.
         23    2    1    2    0    0  0.22204460493E-15  0.00000000000E+00  0.00000000000E+00  0.91188000000E+02  0.91188000000E+02 0.  0.
    9900012    2    3    3    0    0 -0.11732422834E+01  0.28546244048E+02 -0.23227557527E+02  0.54367028049E+02  0.39999872043E+02 0.  0.
         12    1    3    3    0    0  0.11732422834E+01 -0.28546244048E+02  0.23227557527E+02  0.36820971951E+02  0.00000000000E+00 0. -1.
         11    1    4    4    0    0 -0.34460681633E+01  0.15083858558E+02 -0.31343515828E+02  0.34954458364E+02  0.51100000000E-03 0.  1.
        -11    1    4    4    0    0  0.13314925892E+01 -0.11872957808E+00 -0.20323355965E+01  0.24325619141E+01  0.51100000000E-03 0. -1.
         12    1    4    4    0    0  0.94133329074E+00  0.13581115069E+02  0.10148293897E+02  0.16980007771E+02  0.00000000000E+00 0. -1.
</event>
<event>
 8    1  0.2502431E-006  0.9118800E+02  0.7816164E-02  0.1184000E+00
        -11   -1    0    0    0    0  0.00000000000E+00  0.00000000000E+00  0.45593999997E+02  0.45594000000E+02  0.51100000000E-03 0.  1.
         11   -1    0    0    0    0 -0.00000000000E+00 -0.00000000000E+00 -0.45593999997E+02  0.45594000000E+02  0.51100000000E-03 0. -1.
         23    2    1    2    0    0 -0.26645352591E-14 -0.71054273576E-14 -0.35527136788E-14  0.91188000000E+02  0.91188000000E+02 0.  0.
    9900012    2    3    3    0    0  0.21427436768E+01  0.32412223927E+02  0.17338867049E+02  0.54367083106E+02  0.39999997557E+02 0.  0.
         12    1    3    3    0    0 -0.21427436768E+01 -0.32412223927E+02 -0.17338867049E+02  0.36820916894E+02  0.00000000000E+00 0. -1.
         11    1    4    4    0    0  0.17645924381E+01  0.30483524239E+01 -0.15765406794E+01  0.38589791069E+01  0.51100000000E-03 0. -1.
        -11    1    4    4    0    0 -0.17903773036E+02  0.17479960331E+02  0.10496725009E+02  0.27134394010E+02  0.51100000000E-03 0.  1.
         12    1    4    4    0    0  0.18281924275E+02  0.11883911172E+02  0.84186827190E+01  0.23373709989E+02  0.00000000000E+00 0. -1.
</event>
<event>
 8    1  0.2502431E-006  0.9118800E+02  0.7816164E-02  0.1184000E+00
        -11   -1    0    0    0    0  0.00000000000E+00  0.00000000000E+00  0.45593999997E+02  0.45594000000E+02  0.51100000000E-03 0.  1.
         11   -1    0    0    0    0 -0.00000000000E+00 -0.00000000000E+00 -0.45593999997E+02  0.45594000000E+02  0.51100000000E-03 0. -1.
         23    2    1    2    0    0  0.00000000000E+00  0.17763568394E-14 -0.35527136788E-14  0.91188000000E+02  0.91188000000E+02 0.  0.
    9900012    2    3    3    0    0  0.20899188440E+02 -0.14377845030E+02  0.26688610310E+02  0.54367076255E+02  0.39999981938E+02 0.  0.
         12    1    3    3    0    0 -0.20899188440E+02  0.14377845030E+02 -0.26688610310E+02  0.36820923745E+02  0.00000000000E+00 0. -1.
         11    1    4    4    0    0 -0.95346684407E+01 -0.11822353185E+02  0.86160077869E+01  0.17461773322E+02  0.51100000000E-03 0. -1.
        -11    1    4    4    0    0  0.51714945919E+01 -0.32037195821E+01  0.45652265905E+00  0.61005400313E+01  0.51100000000E-03 0.  1.
        -12    1    4    4    0    0  0.25262362289E+02  0.64822773689E+00  0.17616079864E+02  0.30804762901E+02  0.00000000000E+00 0.  1.
</event>
<event>
 8    1  0.2502431E-006  0.9118800E+02  0.7816164E-02  0.1184000E+00
        -11   -1    0    0    0    0  0.00000000000E+00  0.00000000000E+00  0.45593999997E+02  0.45594000000E+02  0.51100000000E-03 0. -1.
         11   -1    0    0    0    0 -0.00000000000E+00 -0.00000000000E+00 -0.45593999997E+02  0.45594000000E+02  0.51100000000E-03 0.  1.
         23    2    1    2    0    0  0.00000000000E+00  0.00000000000E+00  0.00000000000E+00  0.91188000000E+02  0.91188000000E+02 0.  0.
    9900012    2    3    3    0    0  0.20219584248E+02 -0.25912869857E+02 -0.16597339141E+02  0.54367080974E+02  0.39999992697E+02 0.  0.
         12    1    3    3    0    0 -0.20219584248E+02  0.25912869857E+02  0.16597339141E+02  0.36820919026E+02  0.00000000000E+00 0. -1.
         11    1    4    4    0    0 -0.37063837356E+01 -0.18426292162E+01 -0.92844051368E+00  0.42420001029E+01  0.51100000000E-03 0. -1.
        -11    1    4    4    0    0  0.17303942435E+02 -0.53095993223E+00 -0.18701919512E+02  0.25484703960E+02  0.51100000000E-03 0.  1.
         12    1    4    4    0    0  0.66220255481E+01 -0.23539280708E+02  0.30330208851E+01  0.24640376911E+02  0.00000000000E+00 0. -1.
</event>
<event>
 8    1  0.2502431E-006  0.9118800E+02  0.7816164E-02  0.1184000E+00
        -11   -1    0    0    0    0  0.00000000000E+00  0.00000000000E+00  0.45593999997E+02  0.45594000000E+02  0.51100000000E-03 0.  1.
         11   -1    0    0    0    0 -0.00000000000E+00 -0.00000000000E+00 -0.45593999997E+02  0.45594000000E+02  0.51100000000E-03 0. -1.
         23    2    1    2    0    0  0.00000000000E+00  0.00000000000E+00  0.00000000000E+00  0.91188000000E+02  0.91188000000E+02 0.  0.
    9900012    2    3    3    0    0  0.20547963146E+02  0.24209087856E+02  0.18640833025E+02  0.54367090450E+02  0.40000014299E+02 0.  0.
         12    1    3    3    0    0 -0.20547963146E+02 -0.24209087856E+02 -0.18640833025E+02  0.36820909550E+02  0.00000000000E+00 0. -1.
         11    1    4    4    0    0  0.68243975321E+01  0.11764617905E+02  0.21906999922E+01  0.13775986456E+02  0.51100000000E-03 0. -1.
        -11    1    4    4    0    0  0.23896578280E+02  0.92747932224E+01  0.75903958024E+01  0.26733543564E+02  0.51100000000E-03 0.  1.
        -12    1    4    4    0    0 -0.10173012666E+02  0.31696767284E+01  0.88597372301E+01  0.13857560429E+02  0.00000000000E+00 0.  1.
</event>
<event>
 8    1  0.2502431E-006  0.9118800E+02  0.7816164E-02  0.1184000E+00
        -11   -1    0    0    0    0  0.00000000000E+00  0.00000000000E+00  0.45593999997E+02  0.45594000000E+02  0.51100000000E-03 0.  1.
         11   -1    0    0    0    0 -0.00000000000E+00 -0.00000000000E+00 -0.45593999997E+02  0.45594000000E+02  0.51100000000E-03 0. -1.
         23    2    1    2    0    0  0.00000000000E+00  0.00000000000E+00  0.00000000000E+00  0.91188000000E+02  0.91188000000E+02 0.  0.
    9900012    2    3    3    0    0  0.18437900967E+02 -0.23014753869E+02  0.22048717132E+02  0.54367068251E+02  0.39999963692E+02 0.  0.
         12    1    3    3    0    0 -0.18437900967E+02  0.23014753869E+02 -0.22048717132E+02  0.36820931749E+02  0.00000000000E+00 0. -1.
         11    1    4    4    0    0  0.72678767789E+00  0.80518769148E+01 -0.41743861882E+01  0.90987055392E+01  0.51100000000E-03 0. -1.
        -11    1    4    4    0    0  0.12789944889E+02 -0.25967233616E+02  0.16767664910E+02  0.33451973017E+02  0.51100000000E-03 0.  1.
        -12    1    4    4    0    0  0.49211684001E+01 -0.50993971676E+01  0.94554384104E+01  0.11816389695E+02  0.00000000000E+00 0.  1.
</event>
<event>
 8    1  0.2502431E-006  0.9118800E+02  0.7816164E-02  0.1184000E+00
        -11   -1    0    0    0    0  0.00000000000E+00  0.00000000000E+00  0.45593999997E+02  0.45594000000E+02  0.51100000000E-03 0. -1.
         11   -1    0    0    0    0 -0.00000000000E+00 -0.00000000000E+00 -0.45593999997E+02  0.45594000000E+02  0.51100000000E-03 0.  1.
         23    2    1    2    0    0  0.44408920985E-15 -0.35527136788E-14  0.71054273576E-14  0.91188000000E+02  0.91188000000E+02 0.  0.
    9900012    2    3    3    0    0  0.11003825460E+01 -0.20593303378E+02  0.30503936871E+02  0.54367012094E+02  0.39999835670E+02 0.  0.
        -12    1    3    3    0    0 -0.11003825460E+01  0.20593303378E+02 -0.30503936871E+02  0.36820987906E+02  0.00000000000E+00 0.  1.
         11    1    4    4    0    0  0.98604537635E+01 -0.63238300760E+01  0.70168180966E+01  0.13654856708E+02  0.51100000000E-03 0.  1.
        -11    1    4    4    0    0 -0.11369653863E+02  0.98355740256E+00  0.22472640835E+02  0.25204285359E+02  0.51100000000E-03 0. -1.
         12    1    4    4    0    0  0.26095826457E+01 -0.15253030705E+02  0.10144779395E+01  0.15507870026E+02  0.00000000000E+00 0. -1.
</event>
<event>
 8    1  0.2502431E-006  0.9118800E+02  0.7816164E-02  0.1184000E+00
        -11   -1    0    0    0    0  0.00000000000E+00  0.00000000000E+00  0.45593999997E+02  0.45594000000E+02  0.51100000000E-03 0.  1.
         11   -1    0    0    0    0 -0.00000000000E+00 -0.00000000000E+00 -0.45593999997E+02  0.45594000000E+02  0.51100000000E-03 0. -1.
         23    2    1    2    0    0 -0.88817841970E-15  0.00000000000E+00  0.00000000000E+00  0.91188000000E+02  0.91188000000E+02 0.  0.
    9900012    2    3    3    0    0  0.73916288203E+01 -0.35175806576E+02  0.79878939185E+01  0.54367082111E+02  0.39999995289E+02 0.  0.
         12    1    3    3    0    0 -0.73916288203E+01  0.35175806576E+02 -0.79878939185E+01  0.36820917889E+02  0.00000000000E+00 0. -1.
         11    1    4    4    0    0 -0.20963789449E+01 -0.10283258948E+02  0.26859568717E+01  0.10833032071E+02  0.51100000000E-03 0. -1.
        -11    1    4    4    0    0 -0.58569572340E+01 -0.22592541944E+02 -0.62825909110E+01  0.24170185112E+02  0.51100000000E-03 0.  1.
         12    1    4    4    0    0  0.15344964999E+02 -0.23000056848E+01  0.11584527958E+02  0.19363864929E+02  0.00000000000E+00 0. -1.
</event>
<event>
 8    1  0.2502431E-006  0.9118800E+02  0.7816164E-02  0.1184000E+00
        -11   -1    0    0    0    0  0.00000000000E+00  0.00000000000E+00  0.45593999997E+02  0.45594000000E+02  0.51100000000E-03 0. -1.
         11   -1    0    0    0    0 -0.00000000000E+00 -0.00000000000E+00 -0.45593999997E+02  0.45594000000E+02  0.51100000000E-03 0.  1.
         23    2    1    2    0    0 -0.35527136788E-14 -0.44408920985E-15 -0.35527136788E-14  0.91188000000E+02  0.91188000000E+02 0.  0.
    9900012    2    3    3    0    0  0.27697425524E+02 -0.12461731999E+01  0.24229724363E+02  0.54367083784E+02  0.39999999101E+02 0.  0.
        -12    1    3    3    0    0 -0.27697425524E+02  0.12461731999E+01 -0.24229724363E+02  0.36820916216E+02  0.00000000000E+00 0.  1.
         11    1    4    4    0    0 -0.17765645597E+01  0.94336486825E+01  0.66991714771E+01  0.11705930456E+02  0.51100000000E-03 0. -1.
        -11    1    4    4    0    0  0.14415409401E+02  0.38150299973E+01 -0.69761937351E+00  0.14927999033E+02  0.51100000000E-03 0.  1.
        -12    1    4    4    0    0  0.15058580682E+02 -0.14494851880E+02  0.18228172260E+02  0.27733154294E+02  0.00000000000E+00 0.  1.
</event>
<event>
 8    1  0.2502431E-006  0.9118800E+02  0.7816164E-02  0.1184000E+00
        -11   -1    0    0    0    0  0.00000000000E+00  0.00000000000E+00  0.45593999997E+02  0.45594000000E+02  0.51100000000E-03 0.  1.
         11   -1    0    0    0    0 -0.00000000000E+00 -0.00000000000E+00 -0.45593999997E+02  0.45594000000E+02  0.51100000000E-03 0. -1.
         23    2    1    2    0    0  0.35527136788E-14 -0.35527136788E-14  0.00000000000E+00  0.91188000000E+02  0.91188000000E+02 0.  0.
    9900012    2    3    3    0    0  0.18195123775E+02 -0.22638501691E+02 -0.22632182687E+02  0.54367082288E+02  0.39999995692E+02 0.  0.
        -12    1    3    3    0    0 -0.18195123775E+02  0.22638501691E+02  0.22632182687E+02  0.36820917712E+02  0.00000000000E+00 0.  1.
         11    1    4    4    0    0  0.15874424204E+02 -0.71467207950E+01 -0.38853891616E+01  0.17837298313E+02  0.51100000000E-03 0. -1.
        -11    1    4    4    0    0 -0.42744336172E+01  0.68022117442E+01 -0.58995547211E+01  0.99672269729E+01  0.51100000000E-03 0.  1.
        -12    1    4    4    0    0  0.65951331882E+01 -0.22293992640E+02 -0.12847238804E+02  0.26562557002E+02  0.00000000000E+00 0.  1.
</event>
<event>
 8    1  0.2502431E-006  0.9118800E+02  0.7816164E-02  0.1184000E+00
        -11   -1    0    0    0    0  0.00000000000E+00  0.00000000000E+00  0.45593999997E+02  0.45594000000E+02  0.51100000000E-03 0. -1.
         11   -1    0    0    0    0 -0.00000000000E+00 -0.00000000000E+00 -0.45593999997E+02  0.45594000000E+02  0.51100000000E-03 0.  1.
         23    2    1    2    0    0  0.00000000000E+00 -0.44408920985E-15  0.22204460493E-15  0.91188000000E+02  0.91188000000E+02 0.  0.
    9900012    2    3    3    0    0  0.36733205290E+02  0.23351529222E+01 -0.99864722924E+00  0.54367100957E+02  0.40000038251E+02 0.  0.
         12    1    3    3    0    0 -0.36733205290E+02 -0.23351529222E+01  0.99864722924E+00  0.36820899043E+02  0.00000000000E+00 0. -1.
         11    1    4    4    0    0  0.58979407706E+01  0.13672088929E+01  0.14295324579E+02  0.15524537693E+02  0.51100000000E-03 0. -1.
        -11    1    4    4    0    0  0.39803142641E+01 -0.35903364488E+01 -0.96292664959E+01  0.11020716445E+02  0.51100000000E-03 0.  1.
        -12    1    4    4    0    0  0.26854950255E+02  0.45582804781E+01 -0.56647053124E+01  0.27821846819E+02  0.00000000000E+00 0.  1.
</event>
<event>
 8    1  0.2502431E-006  0.9118800E+02  0.7816164E-02  0.1184000E+00
        -11   -1    0    0    0    0  0.00000000000E+00  0.00000000000E+00  0.45593999997E+02  0.45594000000E+02  0.51100000000E-03 0. -1.
         11   -1    0    0    0    0 -0.00000000000E+00 -0.00000000000E+00 -0.45593999997E+02  0.45594000000E+02  0.51100000000E-03 0.  1.
         23    2    1    2    0    0 -0.88817841970E-15  0.00000000000E+00  0.00000000000E+00  0.91188000000E+02  0.91188000000E+02 0.  0.
    9900012    2    3    3    0    0 -0.56494651532E+01 -0.26650262140E+02  0.24771495735E+02  0.54367082988E+02  0.39999997287E+02 0.  0.
        -12    1    3    3    0    0  0.56494651532E+01  0.26650262140E+02 -0.24771495735E+02  0.36820917012E+02  0.00000000000E+00 0.  1.
         11    1    4    4    0    0  0.11290583492E+02 -0.10894040255E+02  0.10864088713E+02  0.19083653018E+02  0.51100000000E-03 0. -1.
        -11    1    4    4    0    0  0.25659739495E+01 -0.42717516650E+01 -0.40246586067E+01  0.64054634304E+01  0.51100000000E-03 0.  1.
        -12    1    4    4    0    0 -0.19506022595E+02 -0.11484470220E+02  0.17932065629E+02  0.28877966539E+02  0.00000000000E+00 0.  1.
</event>
<event>
 8    1  0.2502431E-006  0.9118800E+02  0.7816164E-02  0.1184000E+00
        -11   -1    0    0    0    0  0.00000000000E+00  0.00000000000E+00  0.45593999997E+02  0.45594000000E+02  0.51100000000E-03 0.  1.
         11   -1    0    0    0    0 -0.00000000000E+00 -0.00000000000E+00 -0.45593999997E+02  0.45594000000E+02  0.51100000000E-03 0. -1.
         23    2    1    2    0    0 -0.17763568394E-14  0.53290705182E-14  0.71054273576E-14  0.91188000000E+02  0.91188000000E+02 0.  0.
    9900012    2    3    3    0    0  0.13010369416E+02 -0.92503560965E+01 -0.33180437121E+02  0.54367079210E+02  0.39999988675E+02 0.  0.
        -12    1    3    3    0    0 -0.13010369416E+02  0.92503560965E+01  0.33180437121E+02  0.36820920790E+02  0.00000000000E+00 0.  1.
         11    1    4    4    0    0  0.81797046270E+01  0.91819374628E+01 -0.13508072522E+02  0.18267007606E+02  0.51100000000E-03 0. -1.
        -11    1    4    4    0    0 -0.35411211268E+01  0.21765183042E+01 -0.11788730383E+02  0.12500037403E+02  0.51100000000E-03 0.  1.
         12    1    4    4    0    0  0.83717859162E+01 -0.20608811864E+02 -0.78836342169E+01  0.23600034202E+02  0.00000000000E+00 0. -1.
</event>
<event>
 8    1  0.2502431E-006  0.9118800E+02  0.7816164E-02  0.1184000E+00
        -11   -1    0    0    0    0  0.00000000000E+00  0.00000000000E+00  0.45593999997E+02  0.45594000000E+02  0.51100000000E-03 0.  1.
         11   -1    0    0    0    0 -0.00000000000E+00 -0.00000000000E+00 -0.45593999997E+02  0.45594000000E+02  0.51100000000E-03 0. -1.
         23    2    1    2    0    0  0.66613381478E-15 -0.35527136788E-14  0.00000000000E+00  0.91188000000E+02  0.91188000000E+02 0.  0.
    9900012    2    3    3    0    0  0.13344533510E+01 -0.15374164836E+02 -0.33431009969E+02  0.54367107321E+02  0.40000052759E+02 0.  0.
        -12    1    3    3    0    0 -0.13344533510E+01  0.15374164836E+02  0.33431009969E+02  0.36820892679E+02  0.00000000000E+00 0.  1.
         11    1    4    4    0    0 -0.48809300817E+01  0.12905388047E+01 -0.94066159554E+01  0.10675832186E+02  0.51100000000E-03 0. -1.
        -11    1    4    4    0    0 -0.87139374991E+01 -0.88153798278E+01  0.21228414325E+01  0.12575773704E+02  0.51100000000E-03 0.  1.
         12    1    4    4    0    0  0.14929320932E+02 -0.78493238125E+01 -0.26147235446E+02  0.31115501431E+02  0.00000000000E+00 0. -1.
</event>
<event>
 8    1  0.2502431E-006  0.9118800E+02  0.7816164E-02  0.1184000E+00
        -11   -1    0    0    0    0  0.00000000000E+00  0.00000000000E+00  0.45593999997E+02  0.45594000000E+02  0.51100000000E-03 0.  1.
         11   -1    0    0    0    0 -0.00000000000E+00 -0.00000000000E+00 -0.45593999997E+02  0.45594000000E+02  0.51100000000E-03 0. -1.
         23    2    1    2    0    0  0.00000000000E+00  0.00000000000E+00  0.00000000000E+00  0.91188000000E+02  0.91188000000E+02 0.  0.
    9900012    2    3    3    0    0 -0.64352976950E+01 -0.11179931582E+02 -0.34487349429E+02  0.54367065774E+02  0.39999958046E+02 0.  0.
        -12    1    3    3    0    0  0.64352976950E+01  0.11179931582E+02  0.34487349429E+02  0.36820934226E+02  0.00000000000E+00 0.  1.
         11    1    4    4    0    0 -0.10336227557E+02  0.10815438253E+01 -0.34710468078E+02  0.36232912271E+02  0.51100000000E-03 0. -1.
        -11    1    4    4    0    0 -0.20282715047E+01  0.13642204009E+01  0.20134391791E+01  0.31668470422E+01  0.51100000000E-03 0.  1.
         12    1    4    4    0    0  0.59292013671E+01 -0.13625695808E+02 -0.17903205304E+01  0.14967306462E+02  0.00000000000E+00 0. -1.
</event>
<event>
 8    1  0.2502431E-006  0.9118800E+02  0.7816164E-02  0.1184000E+00
        -11   -1    0    0    0    0  0.00000000000E+00  0.00000000000E+00  0.45593999997E+02  0.45594000000E+02  0.51100000000E-03 0. -1.
         11   -1    0    0    0    0 -0.00000000000E+00 -0.00000000000E+00 -0.45593999997E+02  0.45594000000E+02  0.51100000000E-03 0.  1.
         23    2    1    2    0    0  0.00000000000E+00  0.00000000000E+00  0.00000000000E+00  0.91188000000E+02  0.91188000000E+02 0.  0.
    9900012    2    3    3    0    0 -0.75862822528E+01  0.32596099655E+02 -0.15353352222E+02  0.54367043798E+02  0.39999907947E+02 0.  0.
        -12    1    3    3    0    0  0.75862822528E+01 -0.32596099655E+02  0.15353352222E+02  0.36820956202E+02  0.00000000000E+00 0.  1.
         11    1    4    4    0    0 -0.12798225296E+02 -0.26856777905E+00 -0.27446268522E+01  0.13091969913E+02  0.51100000000E-03 0. -1.
        -11    1    4    4    0    0 -0.40854321536E+01  0.28199335383E+02 -0.11803273912E+02  0.30841701432E+02  0.51100000000E-03 0.  1.
         12    1    4    4    0    0  0.92973751970E+01  0.46653320515E+01 -0.80545145767E+00  0.10433372454E+02  0.00000000000E+00 0. -1.
</event>
<event>
 8    1  0.2502431E-006  0.9118800E+02  0.7816164E-02  0.1184000E+00
        -11   -1    0    0    0    0  0.00000000000E+00  0.00000000000E+00  0.45593999997E+02  0.45594000000E+02  0.51100000000E-03 0. -1.
         11   -1    0    0    0    0 -0.00000000000E+00 -0.00000000000E+00 -0.45593999997E+02  0.45594000000E+02  0.51100000000E-03 0.  1.
         23    2    1    2    0    0 -0.17763568394E-14  0.35527136788E-14 -0.35527136788E-14  0.91188000000E+02  0.91188000000E+02 0.  0.
    9900012    2    3    3    0    0 -0.13374444745E+02  0.17455850424E+02 -0.29533003646E+02  0.54367071296E+02  0.39999970634E+02 0.  0.
         12    1    3    3    0    0  0.13374444745E+02 -0.17455850424E+02  0.29533003646E+02  0.36820928704E+02  0.00000000000E+00 0. -1.
         11    1    4    4    0    0 -0.11192012154E+01  0.81566875089E+01 -0.77629222193E+01  0.11315790919E+02  0.51100000000E-03 0. -1.
        -11    1    4    4    0    0 -0.17332298943E+02  0.18354431791E+02 -0.94863072630E+01  0.26968199398E+02  0.51100000000E-03 0.  1.
         12    1    4    4    0    0  0.50770554139E+01 -0.90552688755E+01 -0.12283774164E+02  0.16083080979E+02  0.00000000000E+00 0. -1.
</event>
<event>
 8    1  0.2502431E-006  0.9118800E+02  0.7816164E-02  0.1184000E+00
        -11   -1    0    0    0    0  0.00000000000E+00  0.00000000000E+00  0.45593999997E+02  0.45594000000E+02  0.51100000000E-03 0.  1.
         11   -1    0    0    0    0 -0.00000000000E+00 -0.00000000000E+00 -0.45593999997E+02  0.45594000000E+02  0.51100000000E-03 0. -1.
         23    2    1    2    0    0  0.00000000000E+00 -0.35527136788E-14 -0.35527136788E-14  0.91188000000E+02  0.91188000000E+02 0.  0.
    9900012    2    3    3    0    0 -0.65594447340E+01  0.23284722594E+02  0.27759229717E+02  0.54367089420E+02  0.40000011951E+02 0.  0.
         12    1    3    3    0    0  0.65594447340E+01 -0.23284722594E+02 -0.27759229717E+02  0.36820910580E+02  0.00000000000E+00 0. -1.
         11    1    4    4    0    0 -0.50303120099E+01 -0.42532055268E+01  0.23223871147E+02  0.24140049451E+02  0.51100000000E-03 0. -1.
        -11    1    4    4    0    0  0.27395246646E+01  0.52282352792E+01  0.46471743717E+01  0.75123677642E+01  0.51100000000E-03 0.  1.
         12    1    4    4    0    0 -0.42686573887E+01  0.22309692842E+02 -0.11181580266E+00  0.22714672205E+02  0.00000000000E+00 0. -1.
</event>
<event>
 8    1  0.2502431E-006  0.9118800E+02  0.7816164E-02  0.1184000E+00
        -11   -1    0    0    0    0  0.00000000000E+00  0.00000000000E+00  0.45593999997E+02  0.45594000000E+02  0.51100000000E-03 0.  1.
         11   -1    0    0    0    0 -0.00000000000E+00 -0.00000000000E+00 -0.45593999997E+02  0.45594000000E+02  0.51100000000E-03 0. -1.
         23    2    1    2    0    0  0.00000000000E+00 -0.10658141036E-13  0.35527136788E-14  0.91188000000E+02  0.91188000000E+02 0.  0.
    9900012    2    3    3    0    0 -0.25670881361E+01 -0.29122695724E+02  0.22384316572E+02  0.54367095936E+02  0.40000026804E+02 0.  0.
         12    1    3    3    0    0  0.25670881361E+01  0.29122695724E+02 -0.22384316572E+02  0.36820904064E+02  0.00000000000E+00 0. -1.
         11    1    4    4    0    0  0.46731401168E+01 -0.25299514936E+02  0.25222045996E+02  0.36028534512E+02  0.51100000000E-03 0.  1.
        -11    1    4    4    0    0 -0.13674366107E+01  0.57125668293E+01 -0.39588238023E+01  0.70834729351E+01  0.51100000000E-03 0. -1.
        -12    1    4    4    0    0 -0.58727916422E+01 -0.95357476170E+01  0.11210943778E+01  0.11255088489E+02  0.00000000000E+00 0.  1.
</event>
<event>
 8    1  0.2502431E-006  0.9118800E+02  0.7816164E-02  0.1184000E+00
        -11   -1    0    0    0    0  0.00000000000E+00  0.00000000000E+00  0.45593999997E+02  0.45594000000E+02  0.51100000000E-03 0.  1.
         11   -1    0    0    0    0 -0.00000000000E+00 -0.00000000000E+00 -0.45593999997E+02  0.45594000000E+02  0.51100000000E-03 0. -1.
         23    2    1    2    0    0  0.00000000000E+00 -0.35527136788E-14 -0.17763568394E-14  0.91188000000E+02  0.91188000000E+02 0.  0.
    9900012    2    3    3    0    0 -0.20556617788E+02  0.29846096696E+02  0.65127797376E+01  0.54367077649E+02  0.39999985116E+02 0.  0.
         12    1    3    3    0    0  0.20556617788E+02 -0.29846096696E+02 -0.65127797376E+01  0.36820922351E+02  0.00000000000E+00 0. -1.
         11    1    4    4    0    0 -0.43959078882E+01  0.13096840999E+02 -0.87129765819E+01  0.16333009872E+02  0.51100000000E-03 0.  1.
        -11    1    4    4    0    0 -0.10641813975E+01  0.19224315356E+02  0.10949986294E+02  0.22149694875E+02  0.51100000000E-03 0. -1.
        -12    1    4    4    0    0 -0.15096528503E+02 -0.24750596591E+01  0.42757700253E+01  0.15884372901E+02  0.00000000000E+00 0.  1.
</event>
<event>
 8    1  0.2502431E-006  0.9118800E+02  0.7816164E-02  0.1184000E+00
        -11   -1    0    0    0    0  0.00000000000E+00  0.00000000000E+00  0.45593999997E+02  0.45594000000E+02  0.51100000000E-03 0.  1.
         11   -1    0    0    0    0 -0.00000000000E+00 -0.00000000000E+00 -0.45593999997E+02  0.45594000000E+02  0.51100000000E-03 0. -1.
         23    2    1    2    0    0  0.00000000000E+00 -0.44408920985E-15  0.00000000000E+00  0.91188000000E+02  0.91188000000E+02 0.  0.
    9900012    2    3    3    0    0  0.34080065741E+02  0.23531187226E+01  0.13740181826E+02  0.54367073270E+02  0.39999975134E+02 0.  0.
         12    1    3    3    0    0 -0.34080065741E+02 -0.23531187226E+01 -0.13740181826E+02  0.36820926730E+02  0.00000000000E+00 0. -1.
         11    1    4    4    0    0  0.52661392068E+01  0.13478079824E+02 -0.10077234404E+01  0.14505390883E+02  0.51100000000E-03 0. -1.
        -11    1    4    4    0    0  0.30375823698E+02 -0.63419780399E+01  0.15643619499E+02  0.34751031381E+02  0.51100000000E-03 0.  1.
         12    1    4    4    0    0 -0.15618971635E+01 -0.47829830613E+01 -0.89571423249E+00  0.51106510056E+01  0.00000000000E+00 0. -1.
</event>
<event>
 8    1  0.2502431E-006  0.9118800E+02  0.7816164E-02  0.1184000E+00
        -11   -1    0    0    0    0  0.00000000000E+00  0.00000000000E+00  0.45593999997E+02  0.45594000000E+02  0.51100000000E-03 0.  1.
         11   -1    0    0    0    0 -0.00000000000E+00 -0.00000000000E+00 -0.45593999997E+02  0.45594000000E+02  0.51100000000E-03 0. -1.
         23    2    1    2    0    0 -0.17763568394E-14  0.00000000000E+00  0.35527136788E-14  0.91188000000E+02  0.91188000000E+02 0.  0.
    9900012    2    3    3    0    0  0.13959592804E+02 -0.14326480136E+02 -0.30913783699E+02  0.54367078136E+02  0.39999986227E+02 0.  0.
        -12    1    3    3    0    0 -0.13959592804E+02  0.14326480136E+02  0.30913783699E+02  0.36820921864E+02  0.00000000000E+00 0.  1.
         11    1    4    4    0    0  0.13924130945E+02 -0.22815898107E+02 -0.18324010007E+02  0.32407035841E+02  0.51100000000E-03 0. -1.
        -11    1    4    4    0    0 -0.63882477194E+01  0.27652977679E+01 -0.11282679723E+02  0.13257278856E+02  0.51100000000E-03 0.  1.
         12    1    4    4    0    0  0.64237095780E+01  0.57241202028E+01 -0.13070939685E+01  0.87027634394E+01  0.00000000000E+00 0. -1.
</event>
<event>
 8    1  0.2502431E-006  0.9118800E+02  0.7816164E-02  0.1184000E+00
        -11   -1    0    0    0    0  0.00000000000E+00  0.00000000000E+00  0.45593999997E+02  0.45594000000E+02  0.51100000000E-03 0. -1.
         11   -1    0    0    0    0 -0.00000000000E+00 -0.00000000000E+00 -0.45593999997E+02  0.45594000000E+02  0.51100000000E-03 0.  1.
         23    2    1    2    0    0  0.00000000000E+00  0.44408920985E-15 -0.35527136788E-14  0.91188000000E+02  0.91188000000E+02 0.  0.
    9900012    2    3    3    0    0  0.27171247796E+02  0.29981605937E+01 -0.24668055875E+02  0.54367100304E+02  0.40000036764E+02 0.  0.
         12    1    3    3    0    0 -0.27171247796E+02 -0.29981605937E+01  0.24668055875E+02  0.36820899696E+02  0.00000000000E+00 0. -1.
         11    1    4    4    0    0  0.13580973399E+02  0.25683699424E+01 -0.14880131601E+02  0.20309054123E+02  0.51100000000E-03 0.  1.
        -11    1    4    4    0    0 -0.66162352947E+01  0.80191705942E+01 -0.94665201980E-01  0.10396664285E+02  0.51100000000E-03 0. -1.
         12    1    4    4    0    0  0.20206509691E+02 -0.75893799429E+01 -0.96932590721E+01  0.23661381897E+02  0.00000000000E+00 0. -1.
</event>
<event>
 8    1  0.2502431E-006  0.9118800E+02  0.7816164E-02  0.1184000E+00
        -11   -1    0    0    0    0  0.00000000000E+00  0.00000000000E+00  0.45593999997E+02  0.45594000000E+02  0.51100000000E-03 0.  1.
         11   -1    0    0    0    0 -0.00000000000E+00 -0.00000000000E+00 -0.45593999997E+02  0.45594000000E+02  0.51100000000E-03 0. -1.
         23    2    1    2    0    0  0.35527136788E-14  0.00000000000E+00 -0.35527136788E-14  0.91188000000E+02  0.91188000000E+02 0.  0.
    9900012    2    3    3    0    0  0.20030651478E+02 -0.23846169741E+02 -0.19644680904E+02  0.54367077989E+02  0.39999985891E+02 0.  0.
        -12    1    3    3    0    0 -0.20030651478E+02  0.23846169741E+02  0.19644680904E+02  0.36820922011E+02  0.00000000000E+00 0.  1.
         11    1    4    4    0    0 -0.62858375771E+01 -0.75073803444E+01 -0.46187292033E+01  0.10826133816E+02  0.51100000000E-03 0. -1.
        -11    1    4    4    0    0  0.15654286914E+02 -0.10575514319E+02  0.55242282465E+01  0.19682868183E+02  0.51100000000E-03 0.  1.
         12    1    4    4    0    0  0.10662202141E+02 -0.57632750773E+01 -0.20550179947E+02  0.23858075990E+02  0.00000000000E+00 0. -1.
</event>
<event>
 8    1  0.2502431E-006  0.9118800E+02  0.7816164E-02  0.1184000E+00
        -11   -1    0    0    0    0  0.00000000000E+00  0.00000000000E+00  0.45593999997E+02  0.45594000000E+02  0.51100000000E-03 0.  1.
         11   -1    0    0    0    0 -0.00000000000E+00 -0.00000000000E+00 -0.45593999997E+02  0.45594000000E+02  0.51100000000E-03 0. -1.
         23    2    1    2    0    0 -0.35527136788E-14  0.00000000000E+00 -0.35527136788E-14  0.91188000000E+02  0.91188000000E+02 0.  0.
    9900012    2    3    3    0    0  0.15790605383E+02  0.15329231241E+02  0.29520377152E+02  0.54367065520E+02  0.39999957465E+02 0.  0.
         12    1    3    3    0    0 -0.15790605383E+02 -0.15329231241E+02 -0.29520377152E+02  0.36820934480E+02  0.00000000000E+00 0. -1.
         11    1    4    4    0    0 -0.81462892560E+00  0.15637908048E+02 -0.14227615376E+01  0.15723614059E+02  0.51100000000E-03 0. -1.
        -11    1    4    4    0    0  0.14901924775E+02 -0.24356155602E+01  0.11422091858E+02  0.18933139408E+02  0.51100000000E-03 0.  1.
         12    1    4    4    0    0  0.17033095332E+01  0.21269387525E+01  0.19521046832E+02  0.19710312053E+02  0.00000000000E+00 0. -1.
</event>
<event>
 8    1  0.2502431E-006  0.9118800E+02  0.7816164E-02  0.1184000E+00
        -11   -1    0    0    0    0  0.00000000000E+00  0.00000000000E+00  0.45593999997E+02  0.45594000000E+02  0.51100000000E-03 0.  1.
         11   -1    0    0    0    0 -0.00000000000E+00 -0.00000000000E+00 -0.45593999997E+02  0.45594000000E+02  0.51100000000E-03 0. -1.
         23    2    1    2    0    0  0.00000000000E+00 -0.35527136788E-14  0.00000000000E+00  0.91188000000E+02  0.91188000000E+02 0.  0.
    9900012    2    3    3    0    0  0.11340029700E+02  0.31582744547E+02 -0.15156216807E+02  0.54367123657E+02  0.40000090001E+02 0.  0.
        -12    1    3    3    0    0 -0.11340029700E+02 -0.31582744547E+02  0.15156216807E+02  0.36820876343E+02  0.00000000000E+00 0.  1.
         11    1    4    4    0    0 -0.72268609885E+01  0.17902022581E+02 -0.58803567357E+01  0.20181390632E+02  0.51100000000E-03 0. -1.
        -11    1    4    4    0    0  0.33990193030E+01 -0.66313617083E+01 -0.99949245292E+00  0.75184623264E+01  0.51100000000E-03 0.  1.
         12    1    4    4    0    0  0.15167871386E+02  0.20312083674E+02 -0.82763676186E+01  0.26667270699E+02  0.00000000000E+00 0. -1.
</event>
<event>
 8    1  0.2502431E-006  0.9118800E+02  0.7816164E-02  0.1184000E+00
        -11   -1    0    0    0    0  0.00000000000E+00  0.00000000000E+00  0.45593999997E+02  0.45594000000E+02  0.51100000000E-03 0.  1.
         11   -1    0    0    0    0 -0.00000000000E+00 -0.00000000000E+00 -0.45593999997E+02  0.45594000000E+02  0.51100000000E-03 0. -1.
         23    2    1    2    0    0  0.00000000000E+00 -0.13322676296E-14  0.00000000000E+00  0.91188000000E+02  0.91188000000E+02 0.  0.
    9900012    2    3    3    0    0  0.36064637263E+02  0.39481333104E+01 -0.62877369096E+01  0.54367062301E+02  0.39999950128E+02 0.  0.
        -12    1    3    3    0    0 -0.36064637263E+02 -0.39481333104E+01  0.62877369096E+01  0.36820937699E+02  0.00000000000E+00 0.  1.
         11    1    4    4    0    0  0.33046632879E+01 -0.14240443175E+02 -0.65719397712E+01  0.16028144430E+02  0.51100000000E-03 0. -1.
        -11    1    4    4    0    0  0.48039023294E+01  0.58256246675E+01  0.16946792820E+01  0.77386897138E+01  0.51100000000E-03 0.  1.
         12    1    4    4    0    0  0.27956071646E+02  0.12362951818E+02 -0.14104764204E+01  0.30600228157E+02  0.00000000000E+00 0. -1.
</event>
<event>
 8    1  0.2502431E-006  0.9118800E+02  0.7816164E-02  0.1184000E+00
        -11   -1    0    0    0    0  0.00000000000E+00  0.00000000000E+00  0.45593999997E+02  0.45594000000E+02  0.51100000000E-03 0.  1.
         11   -1    0    0    0    0 -0.00000000000E+00 -0.00000000000E+00 -0.45593999997E+02  0.45594000000E+02  0.51100000000E-03 0. -1.
         23    2    1    2    0    0  0.00000000000E+00  0.35527136788E-14  0.00000000000E+00  0.91188000000E+02  0.91188000000E+02 0.  0.
    9900012    2    3    3    0    0 -0.14680975438E+02 -0.18301812351E+02  0.28377633626E+02  0.54367116451E+02  0.40000073573E+02 0.  0.
         12    1    3    3    0    0  0.14680975438E+02  0.18301812351E+02 -0.28377633626E+02  0.36820883549E+02  0.00000000000E+00 0. -1.
         11    1    4    4    0    0  0.86707176609E+00  0.84425775744E+01 -0.96439698609E-01  0.84875338246E+01  0.51100000000E-03 0. -1.
        -11    1    4    4    0    0 -0.93544111465E+01 -0.37156146511E+01  0.20245760769E+01  0.10266923039E+02  0.51100000000E-03 0.  1.
         12    1    4    4    0    0 -0.61936360573E+01 -0.23028775274E+02  0.26449497248E+02  0.35612659587E+02  0.00000000000E+00 0. -1.
</event>
<event>
 8    1  0.2502431E-006  0.9118800E+02  0.7816164E-02  0.1184000E+00
        -11   -1    0    0    0    0  0.00000000000E+00  0.00000000000E+00  0.45593999997E+02  0.45594000000E+02  0.51100000000E-03 0.  1.
         11   -1    0    0    0    0 -0.00000000000E+00 -0.00000000000E+00 -0.45593999997E+02  0.45594000000E+02  0.51100000000E-03 0. -1.
         23    2    1    2    0    0  0.00000000000E+00  0.00000000000E+00  0.00000000000E+00  0.91188000000E+02  0.91188000000E+02 0.  0.
    9900012    2    3    3    0    0 -0.20199069604E+02  0.29205332012E+02  0.97378024732E+01  0.54367100665E+02  0.40000037586E+02 0.  0.
        -12    1    3    3    0    0  0.20199069604E+02 -0.29205332012E+02 -0.97378024732E+01  0.36820899335E+02  0.00000000000E+00 0.  1.
         11    1    4    4    0    0 -0.82675847356E+01  0.41407233779E+01 -0.69365742498E+01  0.11559178606E+02  0.51100000000E-03 0. -1.
        -11    1    4    4    0    0 -0.64961033623E+00  0.23127162008E+02  0.68889405307E+00  0.23146537353E+02  0.51100000000E-03 0.  1.
        -12    1    4    4    0    0 -0.11281874532E+02  0.19374466265E+01  0.15985482670E+02  0.19661384707E+02  0.00000000000E+00 0.  1.
</event>
<event>
 8    1  0.2502431E-006  0.9118800E+02  0.7816164E-02  0.1184000E+00
        -11   -1    0    0    0    0  0.00000000000E+00  0.00000000000E+00  0.45593999997E+02  0.45594000000E+02  0.51100000000E-03 0.  1.
         11   -1    0    0    0    0 -0.00000000000E+00 -0.00000000000E+00 -0.45593999997E+02  0.45594000000E+02  0.51100000000E-03 0. -1.
         23    2    1    2    0    0  0.17763568394E-14  0.35527136788E-14  0.17763568394E-14  0.91188000000E+02  0.91188000000E+02 0.  0.
    9900012    2    3    3    0    0  0.11350643243E+02 -0.31290235898E+02 -0.15743795261E+02  0.54367040564E+02  0.39999900574E+02 0.  0.
        -12    1    3    3    0    0 -0.11350643243E+02  0.31290235898E+02  0.15743795261E+02  0.36820959436E+02  0.00000000000E+00 0.  1.
         11    1    4    4    0    0 -0.66064944979E+01 -0.12327425301E+02 -0.54475423884E+01  0.15009560368E+02  0.51100000000E-03 0. -1.
        -11    1    4    4    0    0  0.43385953983E+01 -0.47128110454E+01  0.94763079706E+01  0.11438287066E+02  0.51100000000E-03 0.  1.
        -12    1    4    4    0    0  0.13618542343E+02 -0.14249999551E+02 -0.19772560843E+02  0.27919193131E+02  0.00000000000E+00 0.  1.
</event>
<event>
 8    1  0.2502431E-006  0.9118800E+02  0.7816164E-02  0.1184000E+00
        -11   -1    0    0    0    0  0.00000000000E+00  0.00000000000E+00  0.45593999997E+02  0.45594000000E+02  0.51100000000E-03 0. -1.
         11   -1    0    0    0    0 -0.00000000000E+00 -0.00000000000E+00 -0.45593999997E+02  0.45594000000E+02  0.51100000000E-03 0.  1.
         23    2    1    2    0    0  0.35527136788E-14  0.00000000000E+00  0.00000000000E+00  0.91188000000E+02  0.91188000000E+02 0.  0.
    9900012    2    3    3    0    0  0.15727540355E+02  0.12594909050E+02 -0.30818698945E+02  0.54367089307E+02  0.40000011693E+02 0.  0.
         12    1    3    3    0    0 -0.15727540355E+02 -0.12594909050E+02  0.30818698945E+02  0.36820910693E+02  0.00000000000E+00 0. -1.
         11    1    4    4    0    0 -0.26636990447E+01 -0.83387251466E+00 -0.37937958184E+00  0.28168360086E+01  0.51100000000E-03 0. -1.
        -11    1    4    4    0    0 -0.94268260151E+01  0.44641267572E+01 -0.17139392688E+01  0.10570291600E+02  0.51100000000E-03 0.  1.
        -12    1    4    4    0    0  0.27818065415E+02  0.89646548076E+01 -0.28725380094E+02  0.40979961699E+02  0.00000000000E+00 0.  1.
</event>
<event>
 8    1  0.2502431E-006  0.9118800E+02  0.7816164E-02  0.1184000E+00
        -11   -1    0    0    0    0  0.00000000000E+00  0.00000000000E+00  0.45593999997E+02  0.45594000000E+02  0.51100000000E-03 0.  1.
         11   -1    0    0    0    0 -0.00000000000E+00 -0.00000000000E+00 -0.45593999997E+02  0.45594000000E+02  0.51100000000E-03 0. -1.
         23    2    1    2    0    0  0.71054273576E-14  0.00000000000E+00  0.00000000000E+00  0.91188000000E+02  0.91188000000E+02 0.  0.
    9900012    2    3    3    0    0  0.32357770724E+02  0.46533801351E+01  0.16944038940E+02  0.54367085719E+02  0.40000003513E+02 0.  0.
         12    1    3    3    0    0 -0.32357770724E+02 -0.46533801351E+01 -0.16944038940E+02  0.36820914281E+02  0.00000000000E+00 0. -1.
         11    1    4    4    0    0 -0.22364434113E+01  0.57329345528E+01  0.43341048542E+01  0.75267976502E+01  0.51100000000E-03 0. -1.
        -11    1    4    4    0    0  0.87369859920E+01 -0.90363484604E+01 -0.60756896846E+01  0.13960821005E+02  0.51100000000E-03 0.  1.
         12    1    4    4    0    0  0.25857228143E+02  0.79567940427E+01  0.18685623770E+02  0.32879467064E+02  0.00000000000E+00 0. -1.
</event>
<event>
 8    1  0.2502431E-006  0.9118800E+02  0.7816164E-02  0.1184000E+00
        -11   -1    0    0    0    0  0.00000000000E+00  0.00000000000E+00  0.45593999997E+02  0.45594000000E+02  0.51100000000E-03 0. -1.
         11   -1    0    0    0    0 -0.00000000000E+00 -0.00000000000E+00 -0.45593999997E+02  0.45594000000E+02  0.51100000000E-03 0.  1.
         23    2    1    2    0    0  0.71054273576E-14  0.00000000000E+00 -0.44408920985E-15  0.91188000000E+02  0.91188000000E+02 0.  0.
    9900012    2    3    3    0    0 -0.35600853697E+02  0.91290426343E+01  0.22403998540E+01  0.54367087533E+02  0.40000007649E+02 0.  0.
         12    1    3    3    0    0  0.35600853697E+02 -0.91290426343E+01 -0.22403998540E+01  0.36820912467E+02  0.00000000000E+00 0. -1.
         11    1    4    4    0    0  0.23777943725E+01 -0.22006289285E+01 -0.78447728399E+01  0.84874692889E+01  0.51100000000E-03 0. -1.
        -11    1    4    4    0    0 -0.36659521149E+01  0.90419331763E+01  0.54612174067E+01  0.11181263627E+02  0.51100000000E-03 0.  1.
        -12    1    4    4    0    0 -0.34312695955E+02  0.22877383865E+01  0.46239552872E+01  0.34698354617E+02  0.00000000000E+00 0.  1.
</event>
<event>
 8    1  0.2502431E-006  0.9118800E+02  0.7816164E-02  0.1184000E+00
        -11   -1    0    0    0    0  0.00000000000E+00  0.00000000000E+00  0.45593999997E+02  0.45594000000E+02  0.51100000000E-03 0.  1.
         11   -1    0    0    0    0 -0.00000000000E+00 -0.00000000000E+00 -0.45593999997E+02  0.45594000000E+02  0.51100000000E-03 0. -1.
         23    2    1    2    0    0  0.00000000000E+00 -0.44408920985E-15  0.00000000000E+00  0.91188000000E+02  0.91188000000E+02 0.  0.
    9900012    2    3    3    0    0  0.28883691442E+02 -0.27009832987E+01  0.22676329522E+02  0.54367097476E+02  0.40000030317E+02 0.  0.
         12    1    3    3    0    0 -0.28883691442E+02  0.27009832987E+01 -0.22676329522E+02  0.36820902524E+02  0.00000000000E+00 0. -1.
         11    1    4    4    0    0  0.20553252289E+02 -0.94514826152E+01 -0.49901558787E+01  0.23166103670E+02  0.51100000000E-03 0. -1.
        -11    1    4    4    0    0  0.24426747789E+01  0.64149677360E+01  0.21909221722E+02  0.22959365580E+02  0.51100000000E-03 0.  1.
         12    1    4    4    0    0  0.58877643733E+01  0.33553158049E+00  0.57572636789E+01  0.82416282266E+01  0.00000000000E+00 0. -1.
</event>
<event>
 8    1  0.2502431E-006  0.9118800E+02  0.7816164E-02  0.1184000E+00
        -11   -1    0    0    0    0  0.00000000000E+00  0.00000000000E+00  0.45593999997E+02  0.45594000000E+02  0.51100000000E-03 0. -1.
         11   -1    0    0    0    0 -0.00000000000E+00 -0.00000000000E+00 -0.45593999997E+02  0.45594000000E+02  0.51100000000E-03 0.  1.
         23    2    1    2    0    0  0.00000000000E+00  0.17763568394E-14  0.00000000000E+00  0.91188000000E+02  0.91188000000E+02 0.  0.
    9900012    2    3    3    0    0  0.31500247696E+02  0.13209595113E+02 -0.13748494209E+02  0.54367080661E+02  0.39999991983E+02 0.  0.
         12    1    3    3    0    0 -0.31500247696E+02 -0.13209595113E+02  0.13748494209E+02  0.36820919339E+02  0.00000000000E+00 0. -1.
         11    1    4    4    0    0  0.24938285899E+01  0.49580712299E+01 -0.26766350643E+01  0.61616578033E+01  0.51100000000E-03 0. -1.
        -11    1    4    4    0    0  0.28189649793E+02 -0.17725821003E+01  0.55426366289E+01  0.28784009864E+02  0.51100000000E-03 0.  1.
         12    1    4    4    0    0  0.81676931243E+00  0.10024105983E+02 -0.16614495774E+02  0.19421412994E+02  0.00000000000E+00 0. -1.
</event>
<event>
 8    1  0.2502431E-006  0.9118800E+02  0.7816164E-02  0.1184000E+00
        -11   -1    0    0    0    0  0.00000000000E+00  0.00000000000E+00  0.45593999997E+02  0.45594000000E+02  0.51100000000E-03 0. -1.
         11   -1    0    0    0    0 -0.00000000000E+00 -0.00000000000E+00 -0.45593999997E+02  0.45594000000E+02  0.51100000000E-03 0.  1.
         23    2    1    2    0    0  0.71054273576E-14  0.00000000000E+00 -0.44408920985E-15  0.91188000000E+02  0.91188000000E+02 0.  0.
    9900012    2    3    3    0    0 -0.36146569303E+02  0.69689783024E+01 -0.79918002356E+00  0.54367084480E+02  0.40000000690E+02 0.  0.
         12    1    3    3    0    0  0.36146569303E+02 -0.69689783024E+01  0.79918002356E+00  0.36820915520E+02  0.00000000000E+00 0. -1.
         11    1    4    4    0    0 -0.22688946616E+02  0.20497043396E+02  0.85273908727E+01  0.31743243090E+02  0.51100000000E-03 0. -1.
        -11    1    4    4    0    0 -0.58338887562E+01 -0.42054414673E+01 -0.75905544311E+01  0.10456410129E+02  0.51100000000E-03 0.  1.
        -12    1    4    4    0    0 -0.76237339312E+01 -0.93226236263E+01 -0.17360164652E+01  0.12167431261E+02  0.00000000000E+00 0.  1.
</event>
<event>
 8    1  0.2502431E-006  0.9118800E+02  0.7816164E-02  0.1184000E+00
        -11   -1    0    0    0    0  0.00000000000E+00  0.00000000000E+00  0.45593999997E+02  0.45594000000E+02  0.51100000000E-03 0.  1.
         11   -1    0    0    0    0 -0.00000000000E+00 -0.00000000000E+00 -0.45593999997E+02  0.45594000000E+02  0.51100000000E-03 0. -1.
         23    2    1    2    0    0  0.00000000000E+00  0.00000000000E+00  0.88817841970E-15  0.91188000000E+02  0.91188000000E+02 0.  0.
    9900012    2    3    3    0    0 -0.21023628752E+02  0.29501639178E+02 -0.65909725863E+01  0.54367073888E+02  0.39999976543E+02 0.  0.
         12    1    3    3    0    0  0.21023628752E+02 -0.29501639178E+02  0.65909725863E+01  0.36820926112E+02  0.00000000000E+00 0. -1.
         11    1    4    4    0    0 -0.58680856378E+01  0.15737538223E+02  0.12463413246E+02  0.20915095227E+02  0.51100000000E-03 0.  1.
        -11    1    4    4    0    0 -0.37540302632E+01  0.15474498459E+02 -0.10131025804E+02  0.18873010621E+02  0.51100000000E-03 0. -1.
        -12    1    4    4    0    0 -0.11401512851E+02 -0.17103975043E+01 -0.89233600281E+01  0.14578968040E+02  0.00000000000E+00 0.  1.
</event>
<event>
 8    1  0.2502431E-006  0.9118800E+02  0.7816164E-02  0.1184000E+00
        -11   -1    0    0    0    0  0.00000000000E+00  0.00000000000E+00  0.45593999997E+02  0.45594000000E+02  0.51100000000E-03 0.  1.
         11   -1    0    0    0    0 -0.00000000000E+00 -0.00000000000E+00 -0.45593999997E+02  0.45594000000E+02  0.51100000000E-03 0. -1.
         23    2    1    2    0    0  0.00000000000E+00  0.00000000000E+00 -0.88817841970E-15  0.91188000000E+02  0.91188000000E+02 0.  0.
    9900012    2    3    3    0    0 -0.21869104892E+02 -0.29215115957E+02  0.48988446874E+01  0.54367089793E+02  0.40000012802E+02 0.  0.
        -12    1    3    3    0    0  0.21869104892E+02  0.29215115957E+02 -0.48988446874E+01  0.36820910207E+02  0.00000000000E+00 0.  1.
         11    1    4    4    0    0 -0.65424414004E+01 -0.26892350246E+02 -0.57591419322E+01  0.28269590681E+02  0.51100000000E-03 0. -1.
        -11    1    4    4    0    0 -0.17245736702E+02  0.26276477783E+01  0.11246189618E+02  0.20755643773E+02  0.51100000000E-03 0.  1.
         12    1    4    4    0    0  0.19190732101E+01 -0.49504134898E+01 -0.58820299810E+00  0.53418553399E+01  0.00000000000E+00 0. -1.
</event>
<event>
 8    1  0.2502431E-006  0.9118800E+02  0.7816164E-02  0.1184000E+00
        -11   -1    0    0    0    0  0.00000000000E+00  0.00000000000E+00  0.45593999997E+02  0.45594000000E+02  0.51100000000E-03 0. -1.
         11   -1    0    0    0    0 -0.00000000000E+00 -0.00000000000E+00 -0.45593999997E+02  0.45594000000E+02  0.51100000000E-03 0.  1.
         23    2    1    2    0    0  0.17763568394E-14  0.35527136788E-14  0.00000000000E+00  0.91188000000E+02  0.91188000000E+02 0.  0.
    9900012    2    3    3    0    0 -0.10005012980E+02  0.20556301769E+02 -0.28863787517E+02  0.54367081259E+02  0.39999993345E+02 0.  0.
         12    1    3    3    0    0  0.10005012980E+02 -0.20556301769E+02  0.28863787517E+02  0.36820918741E+02  0.00000000000E+00 0. -1.
         11    1    4    4    0    0  0.86419686172E+01 -0.23652831035E+01  0.23138135007E+01  0.92537516131E+01  0.51100000000E-03 0. -1.
        -11    1    4    4    0    0 -0.15293398041E+02  0.20072012993E+02 -0.31878350708E+02  0.40657139267E+02  0.51100000000E-03 0.  1.
        -12    1    4    4    0    0 -0.33535835561E+01  0.28495718791E+01  0.70074969043E+00  0.44561903786E+01  0.00000000000E+00 0.  1.
</event>
<event>
 8    1  0.2502431E-006  0.9118800E+02  0.7816164E-02  0.1184000E+00
        -11   -1    0    0    0    0  0.00000000000E+00  0.00000000000E+00  0.45593999997E+02  0.45594000000E+02  0.51100000000E-03 0.  1.
         11   -1    0    0    0    0 -0.00000000000E+00 -0.00000000000E+00 -0.45593999997E+02  0.45594000000E+02  0.51100000000E-03 0. -1.
         23    2    1    2    0    0  0.00000000000E+00  0.00000000000E+00  0.00000000000E+00  0.91188000000E+02  0.91188000000E+02 0.  0.
    9900012    2    3    3    0    0 -0.14484875704E+02  0.64306310987E+01 -0.33235758848E+02  0.54367077868E+02  0.39999985615E+02 0.  0.
        -12    1    3    3    0    0  0.14484875704E+02 -0.64306310987E+01  0.33235758848E+02  0.36820922132E+02  0.00000000000E+00 0.  1.
         11    1    4    4    0    0  0.80832996811E+00  0.99569341406E+00  0.25443918793E+01  0.28493390477E+01  0.51100000000E-03 0. -1.
        -11    1    4    4    0    0  0.42167038409E+01  0.87559815721E+01  0.98110038885E+00  0.97678228284E+01  0.51100000000E-03 0.  1.
         12    1    4    4    0    0 -0.19509909512E+02 -0.33210438875E+01 -0.36761251116E+02  0.41749915992E+02  0.00000000000E+00 0. -1.
</event>
<event>
 8    1  0.2502431E-006  0.9118800E+02  0.7816164E-02  0.1184000E+00
        -11   -1    0    0    0    0  0.00000000000E+00  0.00000000000E+00  0.45593999997E+02  0.45594000000E+02  0.51100000000E-03 0. -1.
         11   -1    0    0    0    0 -0.00000000000E+00 -0.00000000000E+00 -0.45593999997E+02  0.45594000000E+02  0.51100000000E-03 0.  1.
         23    2    1    2    0    0  0.00000000000E+00 -0.44408920985E-15  0.00000000000E+00  0.91188000000E+02  0.91188000000E+02 0.  0.
    9900012    2    3    3    0    0 -0.36641745523E+02  0.35679647523E+01  0.65622044396E+00  0.54367102229E+02  0.40000041151E+02 0.  0.
         12    1    3    3    0    0  0.36641745523E+02 -0.35679647523E+01 -0.65622044396E+00  0.36820897771E+02  0.00000000000E+00 0. -1.
         11    1    4    4    0    0 -0.24898281358E+02 -0.51801627266E+01  0.16285173292E+01  0.25483535261E+02  0.51100000000E-03 0. -1.
        -11    1    4    4    0    0 -0.12771304373E+02 -0.11481246075E+01  0.83070579923E+01  0.15278469107E+02  0.51100000000E-03 0.  1.
         12    1    4    4    0    0  0.10278402087E+01  0.98962520864E+01 -0.92793548775E+01  0.13605097861E+02  0.00000000000E+00 0. -1.
</event>
<event>
 8    1  0.2502431E-006  0.9118800E+02  0.7816164E-02  0.1184000E+00
        -11   -1    0    0    0    0  0.00000000000E+00  0.00000000000E+00  0.45593999997E+02  0.45594000000E+02  0.51100000000E-03 0. -1.
         11   -1    0    0    0    0 -0.00000000000E+00 -0.00000000000E+00 -0.45593999997E+02  0.45594000000E+02  0.51100000000E-03 0.  1.
         23    2    1    2    0    0  0.66613381478E-15  0.00000000000E+00  0.00000000000E+00  0.91188000000E+02  0.91188000000E+02 0.  0.
    9900012    2    3    3    0    0 -0.18670480765E+01 -0.36526384525E+02 -0.42564354974E+01  0.54367083687E+02  0.39999998880E+02 0.  0.
         12    1    3    3    0    0  0.18670480765E+01  0.36526384525E+02  0.42564354974E+01  0.36820916313E+02  0.00000000000E+00 0. -1.
         11    1    4    4    0    0  0.46769498067E+01 -0.55099006414E+01 -0.11663540075E+02  0.13721189158E+02  0.51100000000E-03 0. -1.
        -11    1    4    4    0    0 -0.87486749411E+00 -0.13015610516E+02 -0.88278200954E+01  0.15751251320E+02  0.51100000000E-03 0.  1.
         12    1    4    4    0    0 -0.56691303891E+01 -0.18000873367E+02  0.16234924673E+02  0.24894643209E+02  0.00000000000E+00 0. -1.
</event>
<event>
 8    1  0.2502431E-006  0.9118800E+02  0.7816164E-02  0.1184000E+00
        -11   -1    0    0    0    0  0.00000000000E+00  0.00000000000E+00  0.45593999997E+02  0.45594000000E+02  0.51100000000E-03 0.  1.
         11   -1    0    0    0    0 -0.00000000000E+00 -0.00000000000E+00 -0.45593999997E+02  0.45594000000E+02  0.51100000000E-03 0. -1.
         23    2    1    2    0    0  0.00000000000E+00 -0.17763568394E-14  0.35527136788E-14  0.91188000000E+02  0.91188000000E+02 0.  0.
    9900012    2    3    3    0    0  0.22159550288E+02 -0.10180636431E+02 -0.27587809427E+02  0.54367105713E+02  0.40000049094E+02 0.  0.
        -12    1    3    3    0    0 -0.22159550288E+02  0.10180636431E+02  0.27587809427E+02  0.36820894287E+02  0.00000000000E+00 0.  1.
         11    1    4    4    0    0  0.67004807918E+01  0.12829744190E+02 -0.19598827516E+02  0.24364170807E+02  0.51100000000E-03 0. -1.
        -11    1    4    4    0    0  0.15017773241E+02 -0.16979641108E+02 -0.77324698135E+01  0.23950632871E+02  0.51100000000E-03 0.  1.
        -12    1    4    4    0    0  0.44129625524E+00 -0.60307395135E+01 -0.25651209749E+00  0.60523020348E+01  0.00000000000E+00 0.  1.
</event>
<event>
 8    1  0.2502431E-006  0.9118800E+02  0.7816164E-02  0.1184000E+00
        -11   -1    0    0    0    0  0.00000000000E+00  0.00000000000E+00  0.45593999997E+02  0.45594000000E+02  0.51100000000E-03 0.  1.
         11   -1    0    0    0    0 -0.00000000000E+00 -0.00000000000E+00 -0.45593999997E+02  0.45594000000E+02  0.51100000000E-03 0. -1.
         23    2    1    2    0    0  0.00000000000E+00  0.00000000000E+00  0.00000000000E+00  0.91188000000E+02  0.91188000000E+02 0.  0.
    9900012    2    3    3    0    0  0.10744536447E+02 -0.95566447568E+01  0.33897012452E+02  0.54367055204E+02  0.39999933948E+02 0.  0.
         12    1    3    3    0    0 -0.10744536447E+02  0.95566447568E+01 -0.33897012452E+02  0.36820944796E+02  0.00000000000E+00 0. -1.
         11    1    4    4    0    0  0.83259799348E+01 -0.12048756183E+02  0.43018132218E+01  0.15264339642E+02  0.51100000000E-03 0. -1.
        -11    1    4    4    0    0  0.17227316985E+01 -0.10833433866E+02  0.74915275754E+01  0.13283601903E+02  0.51100000000E-03 0.  1.
         12    1    4    4    0    0  0.69582481394E+00  0.13325545293E+02  0.22103671655E+02  0.25819113660E+02  0.00000000000E+00 0. -1.
</event>
<event>
 8    1  0.2502431E-006  0.9118800E+02  0.7816164E-02  0.1184000E+00
        -11   -1    0    0    0    0  0.00000000000E+00  0.00000000000E+00  0.45593999997E+02  0.45594000000E+02  0.51100000000E-03 0.  1.
         11   -1    0    0    0    0 -0.00000000000E+00 -0.00000000000E+00 -0.45593999997E+02  0.45594000000E+02  0.51100000000E-03 0. -1.
         23    2    1    2    0    0  0.00000000000E+00  0.00000000000E+00  0.35527136788E-14  0.91188000000E+02  0.91188000000E+02 0.  0.
    9900012    2    3    3    0    0  0.44821329599E+01 -0.26731432733E+02  0.24922268588E+02  0.54367102626E+02  0.40000042057E+02 0.  0.
         12    1    3    3    0    0 -0.44821329599E+01  0.26731432733E+02 -0.24922268588E+02  0.36820897374E+02  0.00000000000E+00 0. -1.
         11    1    4    4    0    0 -0.79643728072E+00 -0.48565418691E+01 -0.65656517033E+01  0.82053698160E+01  0.51100000000E-03 0. -1.
        -11    1    4    4    0    0 -0.37689498480E+00 -0.26278074575E+02  0.27137654652E+02  0.37777394742E+02  0.51100000000E-03 0.  1.
        -12    1    4    4    0    0  0.56554652255E+01  0.44031837114E+01  0.43502656387E+01  0.83843380681E+01  0.00000000000E+00 0.  1.
</event>
<event>
 8    1  0.2502431E-006  0.9118800E+02  0.7816164E-02  0.1184000E+00
        -11   -1    0    0    0    0  0.00000000000E+00  0.00000000000E+00  0.45593999997E+02  0.45594000000E+02  0.51100000000E-03 0.  1.
         11   -1    0    0    0    0 -0.00000000000E+00 -0.00000000000E+00 -0.45593999997E+02  0.45594000000E+02  0.51100000000E-03 0. -1.
         23    2    1    2    0    0 -0.88817841970E-15 -0.35527136788E-14  0.00000000000E+00  0.91188000000E+02  0.91188000000E+02 0.  0.
    9900012    2    3    3    0    0  0.30405350504E+01 -0.22144219351E+02 -0.29260357726E+02  0.54367084228E+02  0.40000000114E+02 0.  0.
        -12    1    3    3    0    0 -0.30405350504E+01  0.22144219351E+02  0.29260357726E+02  0.36820915772E+02  0.00000000000E+00 0.  1.
         11    1    4    4    0    0 -0.45661386037E+01 -0.40880606233E+01 -0.18791235241E+02  0.19765434059E+02  0.51100000000E-03 0. -1.
        -11    1    4    4    0    0 -0.51913873017E+01 -0.18356986017E+02 -0.10549966453E+02  0.21799798856E+02  0.51100000000E-03 0.  1.
        -12    1    4    4    0    0  0.12798060956E+02  0.30082728906E+00  0.80843967514E-01  0.12801851313E+02  0.00000000000E+00 0.  1.
</event>
<event>
 8    1  0.2502431E-006  0.9118800E+02  0.7816164E-02  0.1184000E+00
        -11   -1    0    0    0    0  0.00000000000E+00  0.00000000000E+00  0.45593999997E+02  0.45594000000E+02  0.51100000000E-03 0. -1.
         11   -1    0    0    0    0 -0.00000000000E+00 -0.00000000000E+00 -0.45593999997E+02  0.45594000000E+02  0.51100000000E-03 0.  1.
         23    2    1    2    0    0  0.00000000000E+00  0.00000000000E+00  0.00000000000E+00  0.91188000000E+02  0.91188000000E+02 0.  0.
    9900012    2    3    3    0    0 -0.23578916799E+02  0.23222687889E+02 -0.16140676672E+02  0.54367082118E+02  0.39999995305E+02 0.  0.
         12    1    3    3    0    0  0.23578916799E+02 -0.23222687889E+02  0.16140676672E+02  0.36820917882E+02  0.00000000000E+00 0. -1.
         11    1    4    4    0    0  0.17175832446E+01  0.20516269170E+01  0.24812166213E+01  0.36490685650E+01  0.51100000000E-03 0. -1.
        -11    1    4    4    0    0 -0.12117346521E+02  0.20587875576E+02  0.42980616201E+01  0.24272701567E+02  0.51100000000E-03 0.  1.
         12    1    4    4    0    0 -0.13179153523E+02  0.58318539645E+00 -0.22919954914E+02  0.26445311986E+02  0.00000000000E+00 0. -1.
</event>
<event>
 8    1  0.2502431E-006  0.9118800E+02  0.7816164E-02  0.1184000E+00
        -11   -1    0    0    0    0  0.00000000000E+00  0.00000000000E+00  0.45593999997E+02  0.45594000000E+02  0.51100000000E-03 0.  1.
         11   -1    0    0    0    0 -0.00000000000E+00 -0.00000000000E+00 -0.45593999997E+02  0.45594000000E+02  0.51100000000E-03 0. -1.
         23    2    1    2    0    0  0.00000000000E+00 -0.35527136788E-14 -0.17763568394E-14  0.91188000000E+02  0.91188000000E+02 0.  0.
    9900012    2    3    3    0    0 -0.17033369786E+02 -0.31514585343E+02 -0.85131539617E+01  0.54367101505E+02  0.40000039500E+02 0.  0.
         12    1    3    3    0    0  0.17033369786E+02  0.31514585343E+02  0.85131539617E+01  0.36820898495E+02  0.00000000000E+00 0. -1.
         11    1    4    4    0    0  0.16839789475E+01 -0.65474301941E-02 -0.30543650412E+01  0.34878322825E+01  0.51100000000E-03 0. -1.
        -11    1    4    4    0    0 -0.23461362092E+02 -0.16774899820E+02 -0.15189215702E+02  0.32596703040E+02  0.51100000000E-03 0.  1.
         12    1    4    4    0    0  0.47440133589E+01 -0.14733138094E+02  0.97304267817E+01  0.18282566182E+02  0.00000000000E+00 0. -1.
</event>
<event>
 8    1  0.2502431E-006  0.9118800E+02  0.7816164E-02  0.1184000E+00
        -11   -1    0    0    0    0  0.00000000000E+00  0.00000000000E+00  0.45593999997E+02  0.45594000000E+02  0.51100000000E-03 0.  1.
         11   -1    0    0    0    0 -0.00000000000E+00 -0.00000000000E+00 -0.45593999997E+02  0.45594000000E+02  0.51100000000E-03 0. -1.
         23    2    1    2    0    0  0.00000000000E+00  0.00000000000E+00  0.00000000000E+00  0.91188000000E+02  0.91188000000E+02 0.  0.
    9900012    2    3    3    0    0  0.52949816582E+01 -0.84087781445E+01 -0.35454676494E+02  0.54367102863E+02  0.40000042597E+02 0.  0.
        -12    1    3    3    0    0 -0.52949816582E+01  0.84087781445E+01  0.35454676494E+02  0.36820897137E+02  0.00000000000E+00 0.  1.
         11    1    4    4    0    0 -0.75922726704E+01 -0.12353559012E+02 -0.34605771770E+02  0.37520827079E+02  0.51100000000E-03 0. -1.
        -11    1    4    4    0    0  0.35986329800E+01 -0.15961839052E+01  0.34236303536E+01  0.52172030287E+01  0.51100000000E-03 0.  1.
         12    1    4    4    0    0  0.92886213487E+01  0.55409647728E+01 -0.42725350774E+01  0.11629072756E+02  0.00000000000E+00 0. -1.
</event>
<event>
 8    1  0.2502431E-006  0.9118800E+02  0.7816164E-02  0.1184000E+00
        -11   -1    0    0    0    0  0.00000000000E+00  0.00000000000E+00  0.45593999997E+02  0.45594000000E+02  0.51100000000E-03 0. -1.
         11   -1    0    0    0    0 -0.00000000000E+00 -0.00000000000E+00 -0.45593999997E+02  0.45594000000E+02  0.51100000000E-03 0.  1.
         23    2    1    2    0    0 -0.35527136788E-14  0.00000000000E+00  0.00000000000E+00  0.91188000000E+02  0.91188000000E+02 0.  0.
    9900012    2    3    3    0    0  0.21274854134E+02  0.21855688104E+02 -0.20627407193E+02  0.54367075943E+02  0.39999981226E+02 0.  0.
         12    1    3    3    0    0 -0.21274854134E+02 -0.21855688104E+02  0.20627407193E+02  0.36820924057E+02  0.00000000000E+00 0. -1.
         11    1    4    4    0    0 -0.28894793687E+01 -0.82071210507E+01 -0.35677621749E+01  0.94039807614E+01  0.51100000000E-03 0. -1.
        -11    1    4    4    0    0  0.72224224742E+00  0.11553082184E+02 -0.30423584120E+01  0.11968762959E+02  0.51100000000E-03 0.  1.
        -12    1    4    4    0    0  0.23442091256E+02  0.18509726971E+02 -0.14017286606E+02  0.32994332222E+02  0.00000000000E+00 0.  1.
</event>
<event>
 8    1  0.2502431E-006  0.9118800E+02  0.7816164E-02  0.1184000E+00
        -11   -1    0    0    0    0  0.00000000000E+00  0.00000000000E+00  0.45593999997E+02  0.45594000000E+02  0.51100000000E-03 0.  1.
         11   -1    0    0    0    0 -0.00000000000E+00 -0.00000000000E+00 -0.45593999997E+02  0.45594000000E+02  0.51100000000E-03 0. -1.
         23    2    1    2    0    0  0.00000000000E+00 -0.88817841970E-15  0.35527136788E-14  0.91188000000E+02  0.91188000000E+02 0.  0.
    9900012    2    3    3    0    0 -0.19346350862E+02 -0.47507800067E+01 -0.30966562629E+02  0.54367092849E+02  0.40000019768E+02 0.  0.
        -12    1    3    3    0    0  0.19346350862E+02  0.47507800067E+01  0.30966562629E+02  0.36820907151E+02  0.00000000000E+00 0.  1.
         11    1    4    4    0    0 -0.49701418171E+00  0.72797505719E+01 -0.39281555745E+01  0.82868690085E+01  0.51100000000E-03 0. -1.
        -11    1    4    4    0    0  0.26943211054E+01 -0.14259014613E+02 -0.54530663933E+01  0.15502090095E+02  0.51100000000E-03 0.  1.
         12    1    4    4    0    0 -0.21543657786E+02  0.22284840347E+01 -0.21585340661E+02  0.30578133746E+02  0.00000000000E+00 0. -1.
</event>
<event>
 8    1  0.2502431E-006  0.9118800E+02  0.7816164E-02  0.1184000E+00
        -11   -1    0    0    0    0  0.00000000000E+00  0.00000000000E+00  0.45593999997E+02  0.45594000000E+02  0.51100000000E-03 0.  1.
         11   -1    0    0    0    0 -0.00000000000E+00 -0.00000000000E+00 -0.45593999997E+02  0.45594000000E+02  0.51100000000E-03 0. -1.
         23    2    1    2    0    0  0.44408920985E-15  0.71054273576E-14  0.00000000000E+00  0.91188000000E+02  0.91188000000E+02 0.  0.
    9900012    2    3    3    0    0 -0.22955374195E+01 -0.30710497023E+02  0.20183553322E+02  0.54367082791E+02  0.39999996838E+02 0.  0.
         12    1    3    3    0    0  0.22955374195E+01  0.30710497023E+02 -0.20183553322E+02  0.36820917209E+02  0.00000000000E+00 0. -1.
         11    1    4    4    0    0  0.42106191159E+01 -0.34359977797E+02  0.15658618831E+02  0.37993811753E+02  0.51100000000E-03 0. -1.
        -11    1    4    4    0    0 -0.91988316077E+01 -0.37092302601E+00 -0.72342234308E+00  0.92346860794E+01  0.51100000000E-03 0.  1.
        -12    1    4    4    0    0  0.26926750723E+01  0.40204037996E+01  0.52483568337E+01  0.71385849586E+01  0.00000000000E+00 0.  1.
</event>
<event>
 8    1  0.2502431E-006  0.9118800E+02  0.7816164E-02  0.1184000E+00
        -11   -1    0    0    0    0  0.00000000000E+00  0.00000000000E+00  0.45593999997E+02  0.45594000000E+02  0.51100000000E-03 0. -1.
         11   -1    0    0    0    0 -0.00000000000E+00 -0.00000000000E+00 -0.45593999997E+02  0.45594000000E+02  0.51100000000E-03 0.  1.
         23    2    1    2    0    0  0.17763568394E-14  0.71054273576E-14  0.00000000000E+00  0.91188000000E+02  0.91188000000E+02 0.  0.
    9900012    2    3    3    0    0  0.98039956092E+01 -0.34313978149E+02  0.90669823820E+01  0.54367114679E+02  0.40000069533E+02 0.  0.
        -12    1    3    3    0    0 -0.98039956092E+01  0.34313978149E+02 -0.90669823820E+01  0.36820885321E+02  0.00000000000E+00 0.  1.
         11    1    4    4    0    0 -0.58938589164E+01 -0.16591511928E+02  0.11731221804E+02  0.21157443283E+02  0.51100000000E-03 0. -1.
        -11    1    4    4    0    0  0.96447406096E+01 -0.23054879758E+02 -0.27541632725E+01  0.25142273518E+02  0.51100000000E-03 0.  1.
         12    1    4    4    0    0  0.60531139161E+01  0.53324135368E+01  0.89923850067E-01  0.80673978771E+01  0.00000000000E+00 0. -1.
</event>
<event>
 8    1  0.2502431E-006  0.9118800E+02  0.7816164E-02  0.1184000E+00
        -11   -1    0    0    0    0  0.00000000000E+00  0.00000000000E+00  0.45593999997E+02  0.45594000000E+02  0.51100000000E-03 0. -1.
         11   -1    0    0    0    0 -0.00000000000E+00 -0.00000000000E+00 -0.45593999997E+02  0.45594000000E+02  0.51100000000E-03 0.  1.
         23    2    1    2    0    0  0.88817841970E-15  0.00000000000E+00  0.00000000000E+00  0.91188000000E+02  0.91188000000E+02 0.  0.
    9900012    2    3    3    0    0 -0.41050706211E+01  0.17316253647E+02  0.32234695813E+02  0.54367083943E+02  0.39999999464E+02 0.  0.
        -12    1    3    3    0    0  0.41050706211E+01 -0.17316253647E+02 -0.32234695813E+02  0.36820916057E+02  0.00000000000E+00 0.  1.
         11    1    4    4    0    0  0.40622008075E+01  0.66660770692E+01 -0.27147911098E+01  0.82648744651E+01  0.51100000000E-03 0. -1.
        -11    1    4    4    0    0 -0.11508624597E+02  0.15104082205E+02  0.11945169465E+02  0.22433653586E+02  0.51100000000E-03 0.  1.
         12    1    4    4    0    0  0.33413531689E+01 -0.44539056273E+01  0.23004317457E+02  0.23668555892E+02  0.00000000000E+00 0. -1.
</event>
<event>
 8    1  0.2502431E-006  0.9118800E+02  0.7816164E-02  0.1184000E+00
        -11   -1    0    0    0    0  0.00000000000E+00  0.00000000000E+00  0.45593999997E+02  0.45594000000E+02  0.51100000000E-03 0.  1.
         11   -1    0    0    0    0 -0.00000000000E+00 -0.00000000000E+00 -0.45593999997E+02  0.45594000000E+02  0.51100000000E-03 0. -1.
         23    2    1    2    0    0  0.35527136788E-14 -0.22204460493E-15 -0.35527136788E-14  0.91188000000E+02  0.91188000000E+02 0.  0.
    9900012    2    3    3    0    0 -0.29820629658E+02 -0.88658417389E+00  0.21580634357E+02  0.54367085237E+02  0.40000002415E+02 0.  0.
        -12    1    3    3    0    0  0.29820629658E+02  0.88658417389E+00 -0.21580634357E+02  0.36820914763E+02  0.00000000000E+00 0.  1.
         11    1    4    4    0    0  0.12664300548E+01  0.11322499328E+02 -0.29625342678E+01  0.11771977135E+02  0.51100000000E-03 0. -1.
        -11    1    4    4    0    0 -0.10883250020E+02 -0.85389906550E+01  0.13273282035E+02  0.19171319950E+02  0.51100000000E-03 0.  1.
         12    1    4    4    0    0 -0.20203809693E+02 -0.36700928467E+01  0.11269886591E+02  0.23423788152E+02  0.00000000000E+00 0. -1.
</event>
<event>
 8    1  0.2502431E-006  0.9118800E+02  0.7816164E-02  0.1184000E+00
        -11   -1    0    0    0    0  0.00000000000E+00  0.00000000000E+00  0.45593999997E+02  0.45594000000E+02  0.51100000000E-03 0.  1.
         11   -1    0    0    0    0 -0.00000000000E+00 -0.00000000000E+00 -0.45593999997E+02  0.45594000000E+02  0.51100000000E-03 0. -1.
         23    2    1    2    0    0  0.17763568394E-14  0.00000000000E+00 -0.44408920985E-15  0.91188000000E+02  0.91188000000E+02 0.  0.
    9900012    2    3    3    0    0  0.25434593708E+01  0.36605024047E+02 -0.30631370717E+01  0.54367085023E+02  0.40000001927E+02 0.  0.
        -12    1    3    3    0    0 -0.25434593708E+01 -0.36605024047E+02  0.30631370717E+01  0.36820914977E+02  0.00000000000E+00 0.  1.
         11    1    4    4    0    0 -0.17607077047E+01  0.16843675073E+02 -0.12750465925E+01  0.16983380866E+02  0.51100000000E-03 0. -1.
        -11    1    4    4    0    0 -0.13528396556E+02  0.10661420820E+02  0.50982270145E+00  0.17232043603E+02  0.51100000000E-03 0.  1.
        -12    1    4    4    0    0  0.17832563632E+02  0.90999281534E+01 -0.22979131807E+01  0.20151660554E+02  0.00000000000E+00 0.  1.
</event>
<event>
 8    1  0.2502431E-006  0.9118800E+02  0.7816164E-02  0.1184000E+00
        -11   -1    0    0    0    0  0.00000000000E+00  0.00000000000E+00  0.45593999997E+02  0.45594000000E+02  0.51100000000E-03 0.  1.
         11   -1    0    0    0    0 -0.00000000000E+00 -0.00000000000E+00 -0.45593999997E+02  0.45594000000E+02  0.51100000000E-03 0. -1.
         23    2    1    2    0    0  0.00000000000E+00  0.00000000000E+00 -0.35527136788E-14  0.91188000000E+02  0.91188000000E+02 0.  0.
    9900012    2    3    3    0    0  0.20859594306E+02 -0.19870030500E+02  0.22931154887E+02  0.54367100349E+02  0.40000036865E+02 0.  0.
         12    1    3    3    0    0 -0.20859594306E+02  0.19870030500E+02 -0.22931154887E+02  0.36820899651E+02  0.00000000000E+00 0. -1.
         11    1    4    4    0    0 -0.22330730799E+01  0.14398204982E+01  0.39642051957E+00  0.26864191663E+01  0.51100000000E-03 0. -1.
        -11    1    4    4    0    0  0.19620510499E+02 -0.19943628432E+02 -0.86004093692E+00  0.27990220042E+02  0.51100000000E-03 0.  1.
        -12    1    4    4    0    0  0.34721568870E+01 -0.13662225657E+01  0.23394775304E+02  0.23690461141E+02  0.00000000000E+00 0.  1.
</event>
<event>
 8    1  0.2502431E-006  0.9118800E+02  0.7816164E-02  0.1184000E+00
        -11   -1    0    0    0    0  0.00000000000E+00  0.00000000000E+00  0.45593999997E+02  0.45594000000E+02  0.51100000000E-03 0.  1.
         11   -1    0    0    0    0 -0.00000000000E+00 -0.00000000000E+00 -0.45593999997E+02  0.45594000000E+02  0.51100000000E-03 0. -1.
         23    2    1    2    0    0  0.00000000000E+00 -0.17763568394E-14  0.00000000000E+00  0.91188000000E+02  0.91188000000E+02 0.  0.
    9900012    2    3    3    0    0 -0.30033617162E+02 -0.15379896716E+02 -0.14738402630E+02  0.54367083459E+02  0.39999998362E+02 0.  0.
        -12    1    3    3    0    0  0.30033617162E+02  0.15379896716E+02  0.14738402630E+02  0.36820916541E+02  0.00000000000E+00 0.  1.
         11    1    4    4    0    0 -0.12926160136E+02  0.66843941319E+01 -0.59586313770E+01  0.15724885657E+02  0.51100000000E-03 0. -1.
        -11    1    4    4    0    0 -0.22795839792E+02 -0.14541438653E+02 -0.10589749249E+02  0.29038707604E+02  0.51100000000E-03 0.  1.
        -12    1    4    4    0    0  0.56883827661E+01 -0.75228521947E+01  0.18099779953E+01  0.96034901979E+01  0.00000000000E+00 0.  1.
</event>
<event>
 8    1  0.2502431E-006  0.9118800E+02  0.7816164E-02  0.1184000E+00
        -11   -1    0    0    0    0  0.00000000000E+00  0.00000000000E+00  0.45593999997E+02  0.45594000000E+02  0.51100000000E-03 0.  1.
         11   -1    0    0    0    0 -0.00000000000E+00 -0.00000000000E+00 -0.45593999997E+02  0.45594000000E+02  0.51100000000E-03 0. -1.
         23    2    1    2    0    0  0.00000000000E+00  0.17763568394E-14  0.00000000000E+00  0.91188000000E+02  0.91188000000E+02 0.  0.
    9900012    2    3    3    0    0  0.34792290291E+02 -0.11448990070E+02  0.37678685134E+01  0.54367086507E+02  0.40000005310E+02 0.  0.
        -12    1    3    3    0    0 -0.34792290291E+02  0.11448990070E+02 -0.37678685134E+01  0.36820913493E+02  0.00000000000E+00 0.  1.
         11    1    4    4    0    0  0.12413641978E+02  0.72623137632E+01 -0.38932484037E+01  0.14899566831E+02  0.51100000000E-03 0. -1.
        -11    1    4    4    0    0 -0.52116114856E+01 -0.29960946566E+01 -0.19045149049E+01  0.63059221968E+01  0.51100000000E-03 0.  1.
         12    1    4    4    0    0  0.27590259799E+02 -0.15715209177E+02  0.95656318221E+01  0.33161597479E+02  0.00000000000E+00 0. -1.
</event>
<event>
 8    1  0.2502431E-006  0.9118800E+02  0.7816164E-02  0.1184000E+00
        -11   -1    0    0    0    0  0.00000000000E+00  0.00000000000E+00  0.45593999997E+02  0.45594000000E+02  0.51100000000E-03 0.  1.
         11   -1    0    0    0    0 -0.00000000000E+00 -0.00000000000E+00 -0.45593999997E+02  0.45594000000E+02  0.51100000000E-03 0. -1.
         23    2    1    2    0    0  0.00000000000E+00  0.17763568394E-14  0.00000000000E+00  0.91188000000E+02  0.91188000000E+02 0.  0.
    9900012    2    3    3    0    0 -0.18513156612E+02 -0.52804343667E+01 -0.31387265624E+02  0.54367076626E+02  0.39999982783E+02 0.  0.
        -12    1    3    3    0    0  0.18513156612E+02  0.52804343667E+01  0.31387265624E+02  0.36820923374E+02  0.00000000000E+00 0.  1.
         11    1    4    4    0    0 -0.12204828105E+02 -0.21750293059E+02 -0.22103961762E+02  0.33325938892E+02  0.51100000000E-03 0. -1.
        -11    1    4    4    0    0  0.20475082676E-01  0.51268141695E+01 -0.89775539903E-01  0.51276410431E+01  0.51100000000E-03 0.  1.
         12    1    4    4    0    0 -0.63288035887E+01  0.11343044522E+02 -0.91935283218E+01  0.15913496690E+02  0.00000000000E+00 0. -1.
</event>
<event>
 8    1  0.2502431E-006  0.9118800E+02  0.7816164E-02  0.1184000E+00
        -11   -1    0    0    0    0  0.00000000000E+00  0.00000000000E+00  0.45593999997E+02  0.45594000000E+02  0.51100000000E-03 0.  1.
         11   -1    0    0    0    0 -0.00000000000E+00 -0.00000000000E+00 -0.45593999997E+02  0.45594000000E+02  0.51100000000E-03 0. -1.
         23    2    1    2    0    0  0.00000000000E+00  0.00000000000E+00  0.17763568394E-14  0.91188000000E+02  0.91188000000E+02 0.  0.
    9900012    2    3    3    0    0  0.17735254736E+02 -0.28458901537E+02 -0.15209601553E+02  0.54367077733E+02  0.39999985307E+02 0.  0.
        -12    1    3    3    0    0 -0.17735254736E+02  0.28458901537E+02  0.15209601553E+02  0.36820922267E+02  0.00000000000E+00 0.  1.
         11    1    4    4    0    0  0.18296570697E+02 -0.17262403407E+02 -0.86597456460E+01  0.26603501002E+02  0.51100000000E-03 0. -1.
        -11    1    4    4    0    0  0.46979305576E+01  0.83308544053E+00  0.72736948896E+01  0.86989206505E+01  0.51100000000E-03 0.  1.
         12    1    4    4    0    0 -0.52592465194E+01 -0.12029583570E+02 -0.13823550796E+02  0.19064656080E+02  0.00000000000E+00 0. -1.
</event>
<event>
 8    1  0.2502431E-006  0.9118800E+02  0.7816164E-02  0.1184000E+00
        -11   -1    0    0    0    0  0.00000000000E+00  0.00000000000E+00  0.45593999997E+02  0.45594000000E+02  0.51100000000E-03 0.  1.
         11   -1    0    0    0    0 -0.00000000000E+00 -0.00000000000E+00 -0.45593999997E+02  0.45594000000E+02  0.51100000000E-03 0. -1.
         23    2    1    2    0    0  0.00000000000E+00 -0.88817841970E-15  0.00000000000E+00  0.91188000000E+02  0.91188000000E+02 0.  0.
    9900012    2    3    3    0    0 -0.33850252277E+02  0.56640591423E+01 -0.13336455762E+02  0.54367052192E+02  0.39999927083E+02 0.  0.
        -12    1    3    3    0    0  0.33850252277E+02 -0.56640591423E+01  0.13336455762E+02  0.36820947808E+02  0.00000000000E+00 0.  1.
         11    1    4    4    0    0 -0.25873747211E+02  0.37009452773E+01 -0.19732809717E+02  0.32749527787E+02  0.51100000000E-03 0. -1.
        -11    1    4    4    0    0  0.56532916715E+00  0.76016521877E+01 -0.25354178209E+01  0.80332469673E+01  0.51100000000E-03 0.  1.
        -12    1    4    4    0    0 -0.85418342329E+01 -0.56385383227E+01  0.89317717753E+01  0.13584277438E+02  0.00000000000E+00 0.  1.
</event>
<event>
 8    1  0.2502431E-006  0.9118800E+02  0.7816164E-02  0.1184000E+00
        -11   -1    0    0    0    0  0.00000000000E+00  0.00000000000E+00  0.45593999997E+02  0.45594000000E+02  0.51100000000E-03 0. -1.
         11   -1    0    0    0    0 -0.00000000000E+00 -0.00000000000E+00 -0.45593999997E+02  0.45594000000E+02  0.51100000000E-03 0.  1.
         23    2    1    2    0    0  0.00000000000E+00 -0.88817841970E-15 -0.17763568394E-14  0.91188000000E+02  0.91188000000E+02 0.  0.
    9900012    2    3    3    0    0 -0.34927901662E+02 -0.48627822378E+01 -0.10591272985E+02  0.54367081638E+02  0.39999994210E+02 0.  0.
        -12    1    3    3    0    0  0.34927901662E+02  0.48627822378E+01  0.10591272985E+02  0.36820918362E+02  0.00000000000E+00 0.  1.
         11    1    4    4    0    0 -0.23398294490E+02 -0.24736134407E+01 -0.40451237023E+01  0.23873876404E+02  0.51100000000E-03 0. -1.
        -11    1    4    4    0    0 -0.35671236546E+01  0.61548610918E+01  0.87316435811E+01  0.11262694443E+02  0.51100000000E-03 0.  1.
        -12    1    4    4    0    0 -0.79624835169E+01 -0.85440298889E+01 -0.15277792864E+02  0.19230510791E+02  0.00000000000E+00 0.  1.
</event>
<event>
 8    1  0.2502431E-006  0.9118800E+02  0.7816164E-02  0.1184000E+00
        -11   -1    0    0    0    0  0.00000000000E+00  0.00000000000E+00  0.45593999997E+02  0.45594000000E+02  0.51100000000E-03 0.  1.
         11   -1    0    0    0    0 -0.00000000000E+00 -0.00000000000E+00 -0.45593999997E+02  0.45594000000E+02  0.51100000000E-03 0. -1.
         23    2    1    2    0    0  0.00000000000E+00  0.35527136788E-14 -0.17763568394E-14  0.91188000000E+02  0.91188000000E+02 0.  0.
    9900012    2    3    3    0    0  0.24160410421E+02  0.23112371776E+02 -0.15423113636E+02  0.54367087531E+02  0.40000007644E+02 0.  0.
        -12    1    3    3    0    0 -0.24160410421E+02 -0.23112371776E+02  0.15423113636E+02  0.36820912469E+02  0.00000000000E+00 0.  1.
         11    1    4    4    0    0  0.13164712574E+02  0.22666317505E+02 -0.81387706474E+01  0.27446515158E+02  0.51100000000E-03 0. -1.
        -11    1    4    4    0    0  0.10391132102E+02  0.37086110273E+01  0.64574230146E+01  0.12783885731E+02  0.51100000000E-03 0.  1.
        -12    1    4    4    0    0  0.60456574493E+00 -0.32625567568E+01 -0.13741766003E+02  0.14136686642E+02  0.00000000000E+00 0.  1.
</event>
<event>
 8    1  0.2502431E-006  0.9118800E+02  0.7816164E-02  0.1184000E+00
        -11   -1    0    0    0    0  0.00000000000E+00  0.00000000000E+00  0.45593999997E+02  0.45594000000E+02  0.51100000000E-03 0.  1.
         11   -1    0    0    0    0 -0.00000000000E+00 -0.00000000000E+00 -0.45593999997E+02  0.45594000000E+02  0.51100000000E-03 0. -1.
         23    2    1    2    0    0 -0.71054273576E-14 -0.17763568394E-14  0.35527136788E-14  0.91188000000E+02  0.91188000000E+02 0.  0.
    9900012    2    3    3    0    0 -0.31626067546E+02 -0.14176765739E+02  0.12433525427E+02  0.54367063159E+02  0.39999952085E+02 0.  0.
         12    1    3    3    0    0  0.31626067546E+02  0.14176765739E+02 -0.12433525427E+02  0.36820936841E+02  0.00000000000E+00 0. -1.
         11    1    4    4    0    0  0.16322388263E+01  0.37799905594E+01  0.12132485948E+02  0.12812093809E+02  0.51100000000E-03 0. -1.
        -11    1    4    4    0    0  0.74906281735E+00 -0.13244718239E+01  0.32448726200E+01  0.35839251244E+01  0.51100000000E-03 0.  1.
        -12    1    4    4    0    0 -0.34007369190E+02 -0.16632284474E+02 -0.29438331411E+01  0.37971044226E+02  0.00000000000E+00 0.  1.
</event>
<event>
 8    1  0.2502431E-006  0.9118800E+02  0.7816164E-02  0.1184000E+00
        -11   -1    0    0    0    0  0.00000000000E+00  0.00000000000E+00  0.45593999997E+02  0.45594000000E+02  0.51100000000E-03 0. -1.
         11   -1    0    0    0    0 -0.00000000000E+00 -0.00000000000E+00 -0.45593999997E+02  0.45594000000E+02  0.51100000000E-03 0.  1.
         23    2    1    2    0    0  0.71054273576E-14 -0.32612801348E-15  0.00000000000E+00  0.91188000000E+02  0.91188000000E+02 0.  0.
    9900012    2    3    3    0    0 -0.35790546350E+02 -0.19101486589E-01  0.86498894610E+01  0.54367025534E+02  0.39999866311E+02 0.  0.
        -12    1    3    3    0    0  0.35790546350E+02  0.19101486589E-01 -0.86498894610E+01  0.36820974466E+02  0.00000000000E+00 0.  1.
         11    1    4    4    0    0 -0.12896815915E+01 -0.65857630059E+00  0.17864273334E+01  0.22996356732E+01  0.51100000000E-03 0. -1.
        -11    1    4    4    0    0 -0.37988054377E+02 -0.10146749446E+02  0.94514189596E+01  0.40439808608E+02  0.51100000000E-03 0.  1.
        -12    1    4    4    0    0  0.34871896185E+01  0.10786224260E+02 -0.25879568320E+01  0.11627581253E+02  0.00000000000E+00 0.  1.
</event>
<event>
 8    1  0.2502431E-006  0.9118800E+02  0.7816164E-02  0.1184000E+00
        -11   -1    0    0    0    0  0.00000000000E+00  0.00000000000E+00  0.45593999997E+02  0.45594000000E+02  0.51100000000E-03 0. -1.
         11   -1    0    0    0    0 -0.00000000000E+00 -0.00000000000E+00 -0.45593999997E+02  0.45594000000E+02  0.51100000000E-03 0.  1.
         23    2    1    2    0    0  0.00000000000E+00  0.00000000000E+00 -0.35527136788E-14  0.91188000000E+02  0.91188000000E+02 0.  0.
    9900012    2    3    3    0    0 -0.23484044276E+02 -0.12991703611E+02 -0.25209015305E+02  0.54367093562E+02  0.40000021394E+02 0.  0.
         12    1    3    3    0    0  0.23484044276E+02  0.12991703611E+02  0.25209015305E+02  0.36820906438E+02  0.00000000000E+00 0. -1.
         11    1    4    4    0    0  0.62596826235E+01  0.68144621290E+01 -0.13026253075E+02  0.15978228628E+02  0.51100000000E-03 0. -1.
        -11    1    4    4    0    0 -0.89052588059E+01 -0.83055722465E+01 -0.13951848616E+01  0.12256945207E+02  0.51100000000E-03 0.  1.
         12    1    4    4    0    0 -0.20838468094E+02 -0.11500593493E+02 -0.10787577367E+02  0.26131919727E+02  0.00000000000E+00 0. -1.
</event>
<event>
 8    1  0.2502431E-006  0.9118800E+02  0.7816164E-02  0.1184000E+00
        -11   -1    0    0    0    0  0.00000000000E+00  0.00000000000E+00  0.45593999997E+02  0.45594000000E+02  0.51100000000E-03 0. -1.
         11   -1    0    0    0    0 -0.00000000000E+00 -0.00000000000E+00 -0.45593999997E+02  0.45594000000E+02  0.51100000000E-03 0.  1.
         23    2    1    2    0    0 -0.26645352591E-14  0.00000000000E+00 -0.44408920985E-15  0.91188000000E+02  0.91188000000E+02 0.  0.
    9900012    2    3    3    0    0 -0.77385489985E+01  0.35912161982E+02 -0.24925538677E+01  0.54367063786E+02  0.39999953514E+02 0.  0.
         12    1    3    3    0    0  0.77385489985E+01 -0.35912161982E+02  0.24925538677E+01  0.36820936214E+02  0.00000000000E+00 0. -1.
         11    1    4    4    0    0 -0.36949069660E+01 -0.20952223730E+00  0.10081508328E+02  0.10739322487E+02  0.51100000000E-03 0. -1.
        -11    1    4    4    0    0  0.44152724343E+01  0.31032258392E+02 -0.64224826042E+01  0.31995999353E+02  0.51100000000E-03 0.  1.
        -12    1    4    4    0    0 -0.84589144668E+01  0.50894258281E+01 -0.61515795918E+01  0.11631741946E+02  0.00000000000E+00 0.  1.
</event>
<event>
 8    1  0.2502431E-006  0.9118800E+02  0.7816164E-02  0.1184000E+00
        -11   -1    0    0    0    0  0.00000000000E+00  0.00000000000E+00  0.45593999997E+02  0.45594000000E+02  0.51100000000E-03 0.  1.
         11   -1    0    0    0    0 -0.00000000000E+00 -0.00000000000E+00 -0.45593999997E+02  0.45594000000E+02  0.51100000000E-03 0. -1.
         23    2    1    2    0    0  0.00000000000E+00  0.00000000000E+00  0.35527136788E-14  0.91188000000E+02  0.91188000000E+02 0.  0.
    9900012    2    3    3    0    0  0.17179732263E+02 -0.12404316538E+02  0.30112562251E+02  0.54367127187E+02  0.40000098048E+02 0.  0.
         12    1    3    3    0    0 -0.17179732263E+02  0.12404316538E+02 -0.30112562251E+02  0.36820872813E+02  0.00000000000E+00 0. -1.
         11    1    4    4    0    0 -0.58149356787E+01 -0.57989635990E+01  0.29231227794E+01  0.87170007923E+01  0.51100000000E-03 0. -1.
        -11    1    4    4    0    0  0.21489280111E+02 -0.78547509454E+01  0.50578010552E+01  0.23432192042E+02  0.51100000000E-03 0.  1.
        -12    1    4    4    0    0  0.15053878305E+01  0.12493980067E+01  0.22131638416E+02  0.22217934352E+02  0.00000000000E+00 0.  1.
</event>
<event>
 8    1  0.2502431E-006  0.9118800E+02  0.7816164E-02  0.1184000E+00
        -11   -1    0    0    0    0  0.00000000000E+00  0.00000000000E+00  0.45593999997E+02  0.45594000000E+02  0.51100000000E-03 0. -1.
         11   -1    0    0    0    0 -0.00000000000E+00 -0.00000000000E+00 -0.45593999997E+02  0.45594000000E+02  0.51100000000E-03 0.  1.
         23    2    1    2    0    0 -0.17763568394E-14  0.00000000000E+00  0.35527136788E-14  0.91188000000E+02  0.91188000000E+02 0.  0.
    9900012    2    3    3    0    0  0.99940768328E+01 -0.18029839207E+02 -0.30509406954E+02  0.54367074071E+02  0.39999976960E+02 0.  0.
         12    1    3    3    0    0 -0.99940768328E+01  0.18029839207E+02  0.30509406954E+02  0.36820925929E+02  0.00000000000E+00 0. -1.
         11    1    4    4    0    0  0.81611689967E+01 -0.14038939498E+02  0.96394884160E+00  0.16267319978E+02  0.51100000000E-03 0. -1.
        -11    1    4    4    0    0  0.10063710729E+02  0.31580361142E+01 -0.16334981514E+02  0.19444358746E+02  0.51100000000E-03 0.  1.
         12    1    4    4    0    0 -0.82308028926E+01 -0.71489358230E+01 -0.15138374282E+02  0.18655395347E+02  0.00000000000E+00 0. -1.
</event>
<event>
 8    1  0.2502431E-006  0.9118800E+02  0.7816164E-02  0.1184000E+00
        -11   -1    0    0    0    0  0.00000000000E+00  0.00000000000E+00  0.45593999997E+02  0.45594000000E+02  0.51100000000E-03 0.  1.
         11   -1    0    0    0    0 -0.00000000000E+00 -0.00000000000E+00 -0.45593999997E+02  0.45594000000E+02  0.51100000000E-03 0. -1.
         23    2    1    2    0    0  0.35527136788E-14  0.00000000000E+00  0.00000000000E+00  0.91188000000E+02  0.91188000000E+02 0.  0.
    9900012    2    3    3    0    0 -0.29147342874E+02 -0.14569547087E+02  0.17144645317E+02  0.54367106992E+02  0.40000052009E+02 0.  0.
         12    1    3    3    0    0  0.29147342874E+02  0.14569547087E+02 -0.17144645317E+02  0.36820893008E+02  0.00000000000E+00 0. -1.
         11    1    4    4    0    0 -0.15836737940E+02 -0.26452285540E+01  0.16823547608E+01  0.16144033588E+02  0.51100000000E-03 0. -1.
        -11    1    4    4    0    0 -0.19295473822E+02  0.20524872892E+01  0.11319029081E+02  0.22464381445E+02  0.51100000000E-03 0.  1.
         12    1    4    4    0    0  0.59848688887E+01 -0.13976805822E+02  0.41432614746E+01  0.15758691959E+02  0.00000000000E+00 0. -1.
</event>
<event>
 8    1  0.2502431E-006  0.9118800E+02  0.7816164E-02  0.1184000E+00
        -11   -1    0    0    0    0  0.00000000000E+00  0.00000000000E+00  0.45593999997E+02  0.45594000000E+02  0.51100000000E-03 0. -1.
         11   -1    0    0    0    0 -0.00000000000E+00 -0.00000000000E+00 -0.45593999997E+02  0.45594000000E+02  0.51100000000E-03 0.  1.
         23    2    1    2    0    0  0.17763568394E-14  0.88817841970E-15 -0.71054273576E-14  0.91188000000E+02  0.91188000000E+02 0.  0.
    9900012    2    3    3    0    0  0.14998453496E+02  0.45945705736E+01 -0.33312345561E+02  0.54367135632E+02  0.40000117299E+02 0.  0.
         12    1    3    3    0    0 -0.14998453496E+02 -0.45945705736E+01  0.33312345561E+02  0.36820864368E+02  0.00000000000E+00 0. -1.
         11    1    4    4    0    0  0.22056592382E+01  0.36575585086E+01  0.72204902336E+01  0.83891683970E+01  0.51100000000E-03 0. -1.
        -11    1    4    4    0    0  0.14443943024E+02  0.57398742195E+01 -0.23268297821E+02  0.27981910762E+02  0.51100000000E-03 0.  1.
        -12    1    4    4    0    0 -0.16511487660E+01 -0.48028621545E+01 -0.17264537973E+02  0.17996056472E+02  0.00000000000E+00 0.  1.
</event>
<event>
 8    1  0.2502431E-006  0.9118800E+02  0.7816164E-02  0.1184000E+00
        -11   -1    0    0    0    0  0.00000000000E+00  0.00000000000E+00  0.45593999997E+02  0.45594000000E+02  0.51100000000E-03 0.  1.
         11   -1    0    0    0    0 -0.00000000000E+00 -0.00000000000E+00 -0.45593999997E+02  0.45594000000E+02  0.51100000000E-03 0. -1.
         23    2    1    2    0    0  0.00000000000E+00  0.00000000000E+00 -0.26645352591E-14  0.91188000000E+02  0.91188000000E+02 0.  0.
    9900012    2    3    3    0    0 -0.16829783577E+02  0.31842394559E+02 -0.76550541164E+01  0.54367088007E+02  0.40000008730E+02 0.  0.
         12    1    3    3    0    0  0.16829783577E+02 -0.31842394559E+02  0.76550541164E+01  0.36820911993E+02  0.00000000000E+00 0. -1.
         11    1    4    4    0    0 -0.50210258236E+01 -0.35347814874E+01  0.32862735509E+01  0.69645512847E+01  0.51100000000E-03 0. -1.
        -11    1    4    4    0    0 -0.16156333518E+02  0.19361878409E+02 -0.16225933360E+02  0.29986502996E+02  0.51100000000E-03 0.  1.
        -12    1    4    4    0    0  0.43475757652E+01  0.16015297637E+02  0.52846056924E+01  0.17416033726E+02  0.00000000000E+00 0.  1.
</event>
<event>
 8    1  0.2502431E-006  0.9118800E+02  0.7816164E-02  0.1184000E+00
        -11   -1    0    0    0    0  0.00000000000E+00  0.00000000000E+00  0.45593999997E+02  0.45594000000E+02  0.51100000000E-03 0. -1.
         11   -1    0    0    0    0 -0.00000000000E+00 -0.00000000000E+00 -0.45593999997E+02  0.45594000000E+02  0.51100000000E-03 0.  1.
         23    2    1    2    0    0  0.17763568394E-14  0.00000000000E+00  0.00000000000E+00  0.91188000000E+02  0.91188000000E+02 0.  0.
    9900012    2    3    3    0    0 -0.94411074958E+01  0.21327846317E+02 -0.28491505846E+02  0.54367116732E+02  0.40000074215E+02 0.  0.
         12    1    3    3    0    0  0.94411074958E+01 -0.21327846317E+02  0.28491505846E+02  0.36820883268E+02  0.00000000000E+00 0. -1.
         11    1    4    4    0    0  0.10654492055E+02  0.16060660884E+01 -0.14672541882E+02  0.18203876916E+02  0.51100000000E-03 0. -1.
        -11    1    4    4    0    0 -0.20315606500E+02  0.10366293437E+02 -0.50955436205E+01  0.23369819686E+02  0.51100000000E-03 0.  1.
        -12    1    4    4    0    0  0.22000694958E+00  0.93554867907E+01 -0.87234203430E+01  0.12793420130E+02  0.00000000000E+00 0.  1.
</event>
<event>
 8    1  0.2502431E-006  0.9118800E+02  0.7816164E-02  0.1184000E+00
        -11   -1    0    0    0    0  0.00000000000E+00  0.00000000000E+00  0.45593999997E+02  0.45594000000E+02  0.51100000000E-03 0.  1.
         11   -1    0    0    0    0 -0.00000000000E+00 -0.00000000000E+00 -0.45593999997E+02  0.45594000000E+02  0.51100000000E-03 0. -1.
         23    2    1    2    0    0  0.00000000000E+00 -0.22204460493E-15  0.35527136788E-14  0.91188000000E+02  0.91188000000E+02 0.  0.
    9900012    2    3    3    0    0 -0.26419262986E+02  0.12522610668E+01 -0.25617030723E+02  0.54367110854E+02  0.40000060813E+02 0.  0.
        -12    1    3    3    0    0  0.26419262986E+02 -0.12522610668E+01  0.25617030723E+02  0.36820889146E+02  0.00000000000E+00 0.  1.
         11    1    4    4    0    0 -0.31677917401E+02 -0.27911583230E+01 -0.12866900849E+02  0.34305074747E+02  0.51100000000E-03 0. -1.
        -11    1    4    4    0    0 -0.36437174926E+01  0.52092019834E+01 -0.39168382586E+01  0.74668657866E+01  0.51100000000E-03 0.  1.
        -12    1    4    4    0    0  0.89023719082E+01 -0.11657825936E+01 -0.88332916146E+01  0.12595170320E+02  0.00000000000E+00 0.  1.
</event>
<event>
 8    1  0.2502431E-006  0.9118800E+02  0.7816164E-02  0.1184000E+00
        -11   -1    0    0    0    0  0.00000000000E+00  0.00000000000E+00  0.45593999997E+02  0.45594000000E+02  0.51100000000E-03 0. -1.
         11   -1    0    0    0    0 -0.00000000000E+00 -0.00000000000E+00 -0.45593999997E+02  0.45594000000E+02  0.51100000000E-03 0.  1.
         23    2    1    2    0    0  0.17763568394E-14 -0.35527136788E-14 -0.35527136788E-14  0.91188000000E+02  0.91188000000E+02 0.  0.
    9900012    2    3    3    0    0  0.10584155897E+02 -0.28262542798E+02 -0.21094644856E+02  0.54367085793E+02  0.40000003682E+02 0.  0.
        -12    1    3    3    0    0 -0.10584155897E+02  0.28262542798E+02  0.21094644856E+02  0.36820914207E+02  0.00000000000E+00 0.  1.
         11    1    4    4    0    0  0.69954044657E+01 -0.21816959968E+02  0.23440222739E+00  0.22912231898E+02  0.51100000000E-03 0. -1.
        -11    1    4    4    0    0 -0.16225153314E+01 -0.12589505917E+02 -0.57905842639E+01  0.13952027868E+02  0.51100000000E-03 0.  1.
        -12    1    4    4    0    0  0.52112667628E+01  0.61439230869E+01 -0.15538462819E+02  0.17502826028E+02  0.00000000000E+00 0.  1.
</event>
<event>
 8    1  0.2502431E-006  0.9118800E+02  0.7816164E-02  0.1184000E+00
        -11   -1    0    0    0    0  0.00000000000E+00  0.00000000000E+00  0.45593999997E+02  0.45594000000E+02  0.51100000000E-03 0.  1.
         11   -1    0    0    0    0 -0.00000000000E+00 -0.00000000000E+00 -0.45593999997E+02  0.45594000000E+02  0.51100000000E-03 0. -1.
         23    2    1    2    0    0  0.00000000000E+00 -0.35527136788E-14 -0.35527136788E-14  0.91188000000E+02  0.91188000000E+02 0.  0.
    9900012    2    3    3    0    0 -0.16920415472E+02 -0.12583251769E+02 -0.30185041463E+02  0.54367144320E+02  0.40000137107E+02 0.  0.
        -12    1    3    3    0    0  0.16920415472E+02  0.12583251769E+02  0.30185041463E+02  0.36820855680E+02  0.00000000000E+00 0.  1.
         11    1    4    4    0    0 -0.80532669712E-02  0.77662691144E+00 -0.21668095105E+02  0.21682010054E+02  0.51100000000E-03 0. -1.
        -11    1    4    4    0    0 -0.82669058612E+01 -0.12099710586E+02 -0.15625346660E+02  0.21421862367E+02  0.51100000000E-03 0.  1.
         12    1    4    4    0    0 -0.86454563443E+01 -0.12601680944E+01  0.71084003019E+01  0.11263271899E+02  0.00000000000E+00 0. -1.
</event>
<event>
 8    1  0.2502431E-006  0.9118800E+02  0.7816164E-02  0.1184000E+00
        -11   -1    0    0    0    0  0.00000000000E+00  0.00000000000E+00  0.45593999997E+02  0.45594000000E+02  0.51100000000E-03 0. -1.
         11   -1    0    0    0    0 -0.00000000000E+00 -0.00000000000E+00 -0.45593999997E+02  0.45594000000E+02  0.51100000000E-03 0.  1.
         23    2    1    2    0    0 -0.35527136788E-14 -0.35527136788E-14  0.31086244690E-14  0.91188000000E+02  0.91188000000E+02 0.  0.
    9900012    2    3    3    0    0 -0.23106251778E+02 -0.28516551648E+02 -0.29475612580E+01  0.54367072439E+02  0.39999973239E+02 0.  0.
        -12    1    3    3    0    0  0.23106251778E+02  0.28516551648E+02  0.29475612580E+01  0.36820927561E+02  0.00000000000E+00 0.  1.
         11    1    4    4    0    0 -0.14823949673E+02 -0.87235752760E+01  0.10903771105E+02  0.20365227082E+02  0.51100000000E-03 0. -1.
        -11    1    4    4    0    0 -0.57588462961E+01 -0.24791828227E+02 -0.11461325478E+02  0.27913456243E+02  0.51100000000E-03 0.  1.
        -12    1    4    4    0    0 -0.25234558085E+01  0.49988518551E+01 -0.23900068856E+01  0.60883891137E+01  0.00000000000E+00 0.  1.
</event>
<event>
 8    1  0.2502431E-006  0.9118800E+02  0.7816164E-02  0.1184000E+00
        -11   -1    0    0    0    0  0.00000000000E+00  0.00000000000E+00  0.45593999997E+02  0.45594000000E+02  0.51100000000E-03 0.  1.
         11   -1    0    0    0    0 -0.00000000000E+00 -0.00000000000E+00 -0.45593999997E+02  0.45594000000E+02  0.51100000000E-03 0. -1.
         23    2    1    2    0    0  0.00000000000E+00  0.00000000000E+00  0.00000000000E+00  0.91188000000E+02  0.91188000000E+02 0.  0.
    9900012    2    3    3    0    0 -0.26364395389E+02 -0.24939095813E+02 -0.62240787806E+01  0.54367095600E+02  0.40000026040E+02 0.  0.
        -12    1    3    3    0    0  0.26364395389E+02  0.24939095813E+02  0.62240787806E+01  0.36820904400E+02  0.00000000000E+00 0.  1.
         11    1    4    4    0    0 -0.13987166315E+02 -0.49393724110E+01 -0.53774980963E+01  0.15778330310E+02  0.51100000000E-03 0. -1.
        -11    1    4    4    0    0 -0.10832924102E+02  0.12577135340E+01  0.98913145683E+01  0.14723185528E+02  0.51100000000E-03 0.  1.
        -12    1    4    4    0    0 -0.15443049710E+01 -0.21257436936E+02 -0.10737895253E+02  0.23865579762E+02  0.00000000000E+00 0.  1.
</event>
<event>
 8    1  0.2502431E-006  0.9118800E+02  0.7816164E-02  0.1184000E+00
        -11   -1    0    0    0    0  0.00000000000E+00  0.00000000000E+00  0.45593999997E+02  0.45594000000E+02  0.51100000000E-03 0.  1.
         11   -1    0    0    0    0 -0.00000000000E+00 -0.00000000000E+00 -0.45593999997E+02  0.45594000000E+02  0.51100000000E-03 0. -1.
         23    2    1    2    0    0 -0.17763568394E-14  0.00000000000E+00  0.35527136788E-14  0.91188000000E+02  0.91188000000E+02 0.  0.
    9900012    2    3    3    0    0  0.12233961417E+02  0.14094408727E+02  0.31740466205E+02  0.54367090665E+02  0.40000014789E+02 0.  0.
         12    1    3    3    0    0 -0.12233961417E+02 -0.14094408727E+02 -0.31740466205E+02  0.36820909335E+02  0.00000000000E+00 0. -1.
         11    1    4    4    0    0  0.13785009919E+02  0.39259868972E+01  0.30680688511E+01  0.14657861997E+02  0.51100000000E-03 0.  1.
        -11    1    4    4    0    0 -0.10045379035E+02  0.63349817226E+01  0.27889173330E+01  0.12199167739E+02  0.51100000000E-03 0. -1.
        -12    1    4    4    0    0  0.84943305329E+01  0.38334401073E+01  0.25883480021E+02  0.27510060928E+02  0.00000000000E+00 0.  1.
</event>
<event>
 8    1  0.2502431E-006  0.9118800E+02  0.7816164E-02  0.1184000E+00
        -11   -1    0    0    0    0  0.00000000000E+00  0.00000000000E+00  0.45593999997E+02  0.45594000000E+02  0.51100000000E-03 0. -1.
         11   -1    0    0    0    0 -0.00000000000E+00 -0.00000000000E+00 -0.45593999997E+02  0.45594000000E+02  0.51100000000E-03 0.  1.
         23    2    1    2    0    0 -0.35527136788E-14  0.00000000000E+00  0.00000000000E+00  0.91188000000E+02  0.91188000000E+02 0.  0.
    9900012    2    3    3    0    0 -0.18086159067E+02 -0.30313847358E+02  0.10475743914E+02  0.54367086079E+02  0.40000004334E+02 0.  0.
         12    1    3    3    0    0  0.18086159067E+02  0.30313847358E+02 -0.10475743914E+02  0.36820913921E+02  0.00000000000E+00 0. -1.
         11    1    4    4    0    0 -0.74160361821E+01 -0.95771693755E+01 -0.12188640021E+02  0.17183792123E+02  0.51100000000E-03 0. -1.
        -11    1    4    4    0    0 -0.13205092817E+02 -0.91155450770E+01  0.69784006293E+01  0.17497591662E+02  0.51100000000E-03 0.  1.
         12    1    4    4    0    0  0.25349699322E+01 -0.11621132906E+02  0.15685983305E+02  0.19685702294E+02  0.00000000000E+00 0. -1.
</event>
<event>
 8    1  0.2502431E-006  0.9118800E+02  0.7816164E-02  0.1184000E+00
        -11   -1    0    0    0    0  0.00000000000E+00  0.00000000000E+00  0.45593999997E+02  0.45594000000E+02  0.51100000000E-03 0.  1.
         11   -1    0    0    0    0 -0.00000000000E+00 -0.00000000000E+00 -0.45593999997E+02  0.45594000000E+02  0.51100000000E-03 0. -1.
         23    2    1    2    0    0  0.00000000000E+00  0.00000000000E+00  0.17763568394E-14  0.91188000000E+02  0.91188000000E+02 0.  0.
    9900012    2    3    3    0    0  0.32174524303E+02  0.14999878858E+02  0.97767441765E+01  0.54367067006E+02  0.39999960854E+02 0.  0.
         12    1    3    3    0    0 -0.32174524303E+02 -0.14999878858E+02 -0.97767441765E+01  0.36820932994E+02  0.00000000000E+00 0. -1.
         11    1    4    4    0    0 -0.34020141240E+01  0.77271920838E+01  0.15146912956E+02  0.17341054465E+02  0.51100000000E-03 0. -1.
        -11    1    4    4    0    0  0.22095893263E+02  0.39205439617E+01 -0.99865585580E+00  0.22463225010E+02  0.51100000000E-03 0.  1.
         12    1    4    4    0    0  0.13480645163E+02  0.33521428124E+01 -0.43715129233E+01  0.14562787532E+02  0.00000000000E+00 0. -1.
</event>
<event>
 8    1  0.2502431E-006  0.9118800E+02  0.7816164E-02  0.1184000E+00
        -11   -1    0    0    0    0  0.00000000000E+00  0.00000000000E+00  0.45593999997E+02  0.45594000000E+02  0.51100000000E-03 0. -1.
         11   -1    0    0    0    0 -0.00000000000E+00 -0.00000000000E+00 -0.45593999997E+02  0.45594000000E+02  0.51100000000E-03 0.  1.
         23    2    1    2    0    0  0.17763568394E-14  0.00000000000E+00  0.71054273576E-14  0.91188000000E+02  0.91188000000E+02 0.  0.
    9900012    2    3    3    0    0  0.38759620523E+01 -0.21259606749E+02 -0.29812510823E+02  0.54367085257E+02  0.40000002461E+02 0.  0.
         12    1    3    3    0    0 -0.38759620523E+01  0.21259606749E+02  0.29812510823E+02  0.36820914743E+02  0.00000000000E+00 0. -1.
         11    1    4    4    0    0 -0.10593054243E+02 -0.68553932154E+01 -0.12272130449E+02  0.17601545397E+02  0.51100000000E-03 0. -1.
        -11    1    4    4    0    0  0.10004586600E+02 -0.89126888624E+01 -0.23803132873E+02  0.27315140684E+02  0.51100000000E-03 0.  1.
         12    1    4    4    0    0  0.44644296952E+01 -0.54915246711E+01  0.62627524992E+01  0.94503991759E+01  0.00000000000E+00 0. -1.
</event>
<event>
 8    1  0.2502431E-006  0.9118800E+02  0.7816164E-02  0.1184000E+00
        -11   -1    0    0    0    0  0.00000000000E+00  0.00000000000E+00  0.45593999997E+02  0.45594000000E+02  0.51100000000E-03 0.  1.
         11   -1    0    0    0    0 -0.00000000000E+00 -0.00000000000E+00 -0.45593999997E+02  0.45594000000E+02  0.51100000000E-03 0. -1.
         23    2    1    2    0    0  0.00000000000E+00  0.00000000000E+00  0.00000000000E+00  0.91188000000E+02  0.91188000000E+02 0.  0.
    9900012    2    3    3    0    0  0.22377739180E+02  0.24129035887E+02 -0.16516853786E+02  0.54367081453E+02  0.39999993789E+02 0.  0.
        -12    1    3    3    0    0 -0.22377739180E+02 -0.24129035887E+02  0.16516853786E+02  0.36820918547E+02  0.00000000000E+00 0.  1.
         11    1    4    4    0    0  0.22817013445E+02 -0.21491610785E+01 -0.14410129469E+02  0.27071882599E+02  0.51100000000E-03 0. -1.
        -11    1    4    4    0    0 -0.15964591477E+01  0.66977175154E+01  0.21710026319E+01  0.72195120621E+01  0.51100000000E-03 0.  1.
         12    1    4    4    0    0  0.11571848829E+01  0.19580479450E+02 -0.42777269493E+01  0.20075686793E+02  0.00000000000E+00 0. -1.
</event>
<event>
 8    1  0.2502431E-006  0.9118800E+02  0.7816164E-02  0.1184000E+00
        -11   -1    0    0    0    0  0.00000000000E+00  0.00000000000E+00  0.45593999997E+02  0.45594000000E+02  0.51100000000E-03 0. -1.
         11   -1    0    0    0    0 -0.00000000000E+00 -0.00000000000E+00 -0.45593999997E+02  0.45594000000E+02  0.51100000000E-03 0.  1.
         23    2    1    2    0    0  0.00000000000E+00  0.35527136788E-14  0.35527136788E-14  0.91188000000E+02  0.91188000000E+02 0.  0.
    9900012    2    3    3    0    0  0.78659354046E+01  0.22219775156E+02  0.28287619831E+02  0.54367071393E+02  0.39999970856E+02 0.  0.
        -12    1    3    3    0    0 -0.78659354046E+01 -0.22219775156E+02 -0.28287619831E+02  0.36820928607E+02  0.00000000000E+00 0.  1.
         11    1    4    4    0    0  0.62611740504E+01  0.19078357179E+02 -0.17014274222E+00  0.20080213195E+02  0.51100000000E-03 0. -1.
        -11    1    4    4    0    0  0.52405983301E+01 -0.55047303867E+01  0.52000226470E+01  0.92090261851E+01  0.51100000000E-03 0.  1.
        -12    1    4    4    0    0 -0.36358369758E+01  0.86461483636E+01  0.23257739926E+02  0.25077832014E+02  0.00000000000E+00 0.  1.
</event>
<event>
 8    1  0.2502431E-006  0.9118800E+02  0.7816164E-02  0.1184000E+00
        -11   -1    0    0    0    0  0.00000000000E+00  0.00000000000E+00  0.45593999997E+02  0.45594000000E+02  0.51100000000E-03 0. -1.
         11   -1    0    0    0    0 -0.00000000000E+00 -0.00000000000E+00 -0.45593999997E+02  0.45594000000E+02  0.51100000000E-03 0.  1.
         23    2    1    2    0    0  0.00000000000E+00  0.00000000000E+00 -0.88817841970E-15  0.91188000000E+02  0.91188000000E+02 0.  0.
    9900012    2    3    3    0    0 -0.34672938393E+02  0.10688474276E+02  0.62704506541E+01  0.54367154131E+02  0.40000159471E+02 0.  0.
         12    1    3    3    0    0  0.34672938393E+02 -0.10688474276E+02 -0.62704506541E+01  0.36820845869E+02  0.00000000000E+00 0. -1.
         11    1    4    4    0    0 -0.23966333826E+02 -0.24476715718E+01  0.13629819305E+02  0.27679382720E+02  0.51100000000E-03 0. -1.
        -11    1    4    4    0    0  0.12587509959E+01  0.11426791100E+01 -0.94645464507E+01  0.96160183754E+01  0.51100000000E-03 0.  1.
        -12    1    4    4    0    0 -0.11965355563E+02  0.11993466738E+02  0.21051777995E+01  0.17071753035E+02  0.00000000000E+00 0.  1.
</event>
<event>
 8    1  0.2502431E-006  0.9118800E+02  0.7816164E-02  0.1184000E+00
        -11   -1    0    0    0    0  0.00000000000E+00  0.00000000000E+00  0.45593999997E+02  0.45594000000E+02  0.51100000000E-03 0.  1.
         11   -1    0    0    0    0 -0.00000000000E+00 -0.00000000000E+00 -0.45593999997E+02  0.45594000000E+02  0.51100000000E-03 0. -1.
         23    2    1    2    0    0  0.00000000000E+00 -0.22204460493E-15  0.00000000000E+00  0.91188000000E+02  0.91188000000E+02 0.  0.
    9900012    2    3    3    0    0  0.21520648546E+02 -0.18444721993E+01 -0.29820119974E+02  0.54367082755E+02  0.39999996756E+02 0.  0.
        -12    1    3    3    0    0 -0.21520648546E+02  0.18444721993E+01  0.29820119974E+02  0.36820917245E+02  0.00000000000E+00 0.  1.
         11    1    4    4    0    0  0.17299503409E+02  0.18995454726E+01 -0.20036517967E+02  0.26539463892E+02  0.51100000000E-03 0. -1.
        -11    1    4    4    0    0  0.49420741431E+01  0.10520988665E+02 -0.29422443317E+01  0.11990500461E+02  0.51100000000E-03 0.  1.
        -12    1    4    4    0    0 -0.72092900683E+00 -0.14265006337E+02 -0.68413576756E+01  0.15837118402E+02  0.00000000000E+00 0.  1.
</event>
<event>
 8    1  0.2502431E-006  0.9118800E+02  0.7816164E-02  0.1184000E+00
        -11   -1    0    0    0    0  0.00000000000E+00  0.00000000000E+00  0.45593999997E+02  0.45594000000E+02  0.51100000000E-03 0. -1.
         11   -1    0    0    0    0 -0.00000000000E+00 -0.00000000000E+00 -0.45593999997E+02  0.45594000000E+02  0.51100000000E-03 0.  1.
         23    2    1    2    0    0  0.00000000000E+00 -0.17763568394E-14  0.00000000000E+00  0.91188000000E+02  0.91188000000E+02 0.  0.
    9900012    2    3    3    0    0  0.10001970402E+02 -0.99546676497E+01  0.34009511631E+02  0.54367058929E+02  0.39999942440E+02 0.  0.
        -12    1    3    3    0    0 -0.10001970402E+02  0.99546676497E+01 -0.34009511631E+02  0.36820941071E+02  0.00000000000E+00 0.  1.
         11    1    4    4    0    0  0.37068058668E+01 -0.14355845937E+02  0.25417467464E+02  0.29425811371E+02  0.51100000000E-03 0. -1.
        -11    1    4    4    0    0  0.11692604932E+02  0.85628164295E+01  0.10461396791E+02  0.17873993913E+02  0.51100000000E-03 0.  1.
         12    1    4    4    0    0 -0.53974403963E+01 -0.41616381421E+01 -0.18693526238E+01  0.70672536455E+01  0.00000000000E+00 0. -1.
</event>
<event>
 8    1  0.2502431E-006  0.9118800E+02  0.7816164E-02  0.1184000E+00
        -11   -1    0    0    0    0  0.00000000000E+00  0.00000000000E+00  0.45593999997E+02  0.45594000000E+02  0.51100000000E-03 0.  1.
         11   -1    0    0    0    0 -0.00000000000E+00 -0.00000000000E+00 -0.45593999997E+02  0.45594000000E+02  0.51100000000E-03 0. -1.
         23    2    1    2    0    0  0.00000000000E+00 -0.35527136788E-14  0.00000000000E+00  0.91188000000E+02  0.91188000000E+02 0.  0.
    9900012    2    3    3    0    0  0.26816697743E+02 -0.21545814148E+02  0.13130965766E+02  0.54367086824E+02  0.40000006033E+02 0.  0.
        -12    1    3    3    0    0 -0.26816697743E+02  0.21545814148E+02 -0.13130965766E+02  0.36820913176E+02  0.00000000000E+00 0.  1.
         11    1    4    4    0    0  0.30467716409E+01 -0.78998793093E+01  0.85132704747E+01  0.12006943198E+02  0.51100000000E-03 0. -1.
        -11    1    4    4    0    0  0.51080116971E+01 -0.21306285498E+02  0.16790674668E+01  0.21974277076E+02  0.51100000000E-03 0.  1.
        -12    1    4    4    0    0  0.18661914405E+02  0.76603506588E+01  0.29386278246E+01  0.20385866549E+02  0.00000000000E+00 0.  1.
</event>
<event>
 8    1  0.2502431E-006  0.9118800E+02  0.7816164E-02  0.1184000E+00
        -11   -1    0    0    0    0  0.00000000000E+00  0.00000000000E+00  0.45593999997E+02  0.45594000000E+02  0.51100000000E-03 0.  1.
         11   -1    0    0    0    0 -0.00000000000E+00 -0.00000000000E+00 -0.45593999997E+02  0.45594000000E+02  0.51100000000E-03 0. -1.
         23    2    1    2    0    0  0.00000000000E+00 -0.35527136788E-14  0.35527136788E-14  0.91188000000E+02  0.91188000000E+02 0.  0.
    9900012    2    3    3    0    0 -0.19471074477E+02 -0.24074061504E+02  0.19927272375E+02  0.54367090683E+02  0.40000014830E+02 0.  0.
         12    1    3    3    0    0  0.19471074477E+02  0.24074061504E+02 -0.19927272375E+02  0.36820909317E+02  0.00000000000E+00 0. -1.
         11    1    4    4    0    0  0.40265379365E+01 -0.79975506202E+01  0.20080716737E+02  0.21986564275E+02  0.51100000000E-03 0. -1.
        -11    1    4    4    0    0  0.17932262733E+01  0.81122541039E+00  0.54164600864E-01  0.19689289471E+01  0.51100000000E-03 0.  1.
        -12    1    4    4    0    0 -0.25290838687E+02 -0.16887736294E+02 -0.20760896261E+00  0.30411597461E+02  0.00000000000E+00 0.  1.
</event>
<event>
 8    1  0.2502431E-006  0.9118800E+02  0.7816164E-02  0.1184000E+00
        -11   -1    0    0    0    0  0.00000000000E+00  0.00000000000E+00  0.45593999997E+02  0.45594000000E+02  0.51100000000E-03 0.  1.
         11   -1    0    0    0    0 -0.00000000000E+00 -0.00000000000E+00 -0.45593999997E+02  0.45594000000E+02  0.51100000000E-03 0. -1.
         23    2    1    2    0    0  0.35527136788E-14  0.35527136788E-14  0.00000000000E+00  0.91188000000E+02  0.91188000000E+02 0.  0.
    9900012    2    3    3    0    0  0.16226751955E+02  0.23315034484E+02  0.23428196298E+02  0.54367099770E+02  0.40000035545E+02 0.  0.
         12    1    3    3    0    0 -0.16226751955E+02 -0.23315034484E+02 -0.23428196298E+02  0.36820900230E+02  0.00000000000E+00 0. -1.
         11    1    4    4    0    0 -0.75646358323E+01  0.80542039619E+00 -0.14123174979E+01  0.77373805817E+01  0.51100000000E-03 0. -1.
        -11    1    4    4    0    0  0.20800335962E+01 -0.44082409074E+01  0.28154726350E+01  0.56290331389E+01  0.51100000000E-03 0.  1.
        -12    1    4    4    0    0  0.21711354191E+02  0.26917854996E+02  0.22025041161E+02  0.41000686049E+02  0.00000000000E+00 0.  1.
</event>
<event>
 8    1  0.2502431E-006  0.9118800E+02  0.7816164E-02  0.1184000E+00
        -11   -1    0    0    0    0  0.00000000000E+00  0.00000000000E+00  0.45593999997E+02  0.45594000000E+02  0.51100000000E-03 0.  1.
         11   -1    0    0    0    0 -0.00000000000E+00 -0.00000000000E+00 -0.45593999997E+02  0.45594000000E+02  0.51100000000E-03 0. -1.
         23    2    1    2    0    0 -0.17763568394E-14  0.71054273576E-14  0.00000000000E+00  0.91188000000E+02  0.91188000000E+02 0.  0.
    9900012    2    3    3    0    0  0.12405172021E+02  0.34574835786E+02  0.25441226400E+01  0.54367080369E+02  0.39999991317E+02 0.  0.
        -12    1    3    3    0    0 -0.12405172021E+02 -0.34574835786E+02 -0.25441226400E+01  0.36820919631E+02  0.00000000000E+00 0.  1.
         11    1    4    4    0    0  0.45041448443E+01  0.11002118109E+02 -0.11783621166E+02  0.16738806759E+02  0.51100000000E-03 0. -1.
        -11    1    4    4    0    0  0.13275710842E+02  0.11475833886E+02  0.16648675865E+02  0.24189205652E+02  0.51100000000E-03 0.  1.
        -12    1    4    4    0    0 -0.53746836659E+01  0.12096883791E+02 -0.23209320591E+01  0.13439067958E+02  0.00000000000E+00 0.  1.
</event>
<event>
 8    1  0.2502431E-006  0.9118800E+02  0.7816164E-02  0.1184000E+00
        -11   -1    0    0    0    0  0.00000000000E+00  0.00000000000E+00  0.45593999997E+02  0.45594000000E+02  0.51100000000E-03 0.  1.
         11   -1    0    0    0    0 -0.00000000000E+00 -0.00000000000E+00 -0.45593999997E+02  0.45594000000E+02  0.51100000000E-03 0. -1.
         23    2    1    2    0    0  0.00000000000E+00  0.00000000000E+00  0.00000000000E+00  0.91188000000E+02  0.91188000000E+02 0.  0.
    9900012    2    3    3    0    0 -0.14348935586E+02 -0.24419860697E+02  0.23527835182E+02  0.54367074193E+02  0.39999977239E+02 0.  0.
         12    1    3    3    0    0  0.14348935586E+02  0.24419860697E+02 -0.23527835182E+02  0.36820925807E+02  0.00000000000E+00 0. -1.
         11    1    4    4    0    0 -0.38870343040E+01  0.67677395339E+01 -0.45713857126E+01  0.90448273435E+01  0.51100000000E-03 0. -1.
        -11    1    4    4    0    0  0.97118396002E+00 -0.18262584208E+02  0.15135093865E+02  0.23738918400E+02  0.51100000000E-03 0.  1.
         12    1    4    4    0    0 -0.11433085242E+02 -0.12925016023E+02  0.12964127029E+02  0.21583328450E+02  0.00000000000E+00 0. -1.
</event>
<event>
 8    1  0.2502431E-006  0.9118800E+02  0.7816164E-02  0.1184000E+00
        -11   -1    0    0    0    0  0.00000000000E+00  0.00000000000E+00  0.45593999997E+02  0.45594000000E+02  0.51100000000E-03 0.  1.
         11   -1    0    0    0    0 -0.00000000000E+00 -0.00000000000E+00 -0.45593999997E+02  0.45594000000E+02  0.51100000000E-03 0. -1.
         23    2    1    2    0    0 -0.17763568394E-14  0.00000000000E+00  0.35527136788E-14  0.91188000000E+02  0.91188000000E+02 0.  0.
    9900012    2    3    3    0    0  0.14852238227E+02  0.12184572207E+02 -0.31412143086E+02  0.54367142956E+02  0.40000133997E+02 0.  0.
        -12    1    3    3    0    0 -0.14852238227E+02 -0.12184572207E+02  0.31412143086E+02  0.36820857044E+02  0.00000000000E+00 0.  1.
         11    1    4    4    0    0  0.69908069384E+01 -0.89406373091E+01 -0.12953976718E+02  0.17222424051E+02  0.51100000000E-03 0.  1.
        -11    1    4    4    0    0 -0.52733042035E+01  0.53498912659E+00 -0.99654196807E+01  0.11287317674E+02  0.51100000000E-03 0. -1.
        -12    1    4    4    0    0  0.13134735493E+02  0.20590220389E+02 -0.84927466871E+01  0.25857401231E+02  0.00000000000E+00 0.  1.
</event>
<event>
 8    1  0.2502431E-006  0.9118800E+02  0.7816164E-02  0.1184000E+00
        -11   -1    0    0    0    0  0.00000000000E+00  0.00000000000E+00  0.45593999997E+02  0.45594000000E+02  0.51100000000E-03 0. -1.
         11   -1    0    0    0    0 -0.00000000000E+00 -0.00000000000E+00 -0.45593999997E+02  0.45594000000E+02  0.51100000000E-03 0.  1.
         23    2    1    2    0    0 -0.17763568394E-14  0.88817841970E-15 -0.71054273576E-14  0.91188000000E+02  0.91188000000E+02 0.  0.
    9900012    2    3    3    0    0  0.13591018553E+02 -0.26200989796E+01  0.34120367935E+02  0.54367079153E+02  0.39999988546E+02 0.  0.
        -12    1    3    3    0    0 -0.13591018553E+02  0.26200989796E+01 -0.34120367935E+02  0.36820920847E+02  0.00000000000E+00 0.  1.
         11    1    4    4    0    0  0.54726187036E+01 -0.90491410247E+01  0.23415511763E+02  0.25692853094E+02  0.51100000000E-03 0. -1.
        -11    1    4    4    0    0  0.32193262409E+01 -0.66883903403E+01  0.12519601391E+02  0.14554691548E+02  0.51100000000E-03 0.  1.
        -12    1    4    4    0    0  0.48990736087E+01  0.13117432385E+02 -0.18147452188E+01  0.14119534511E+02  0.00000000000E+00 0.  1.
</event>
<event>
 8    1  0.2502431E-006  0.9118800E+02  0.7816164E-02  0.1184000E+00
        -11   -1    0    0    0    0  0.00000000000E+00  0.00000000000E+00  0.45593999997E+02  0.45594000000E+02  0.51100000000E-03 0. -1.
         11   -1    0    0    0    0 -0.00000000000E+00 -0.00000000000E+00 -0.45593999997E+02  0.45594000000E+02  0.51100000000E-03 0.  1.
         23    2    1    2    0    0  0.00000000000E+00  0.00000000000E+00  0.00000000000E+00  0.91188000000E+02  0.91188000000E+02 0.  0.
    9900012    2    3    3    0    0  0.11224339183E+02 -0.31366964700E+02  0.15681437130E+02  0.54367085630E+02  0.40000003311E+02 0.  0.
        -12    1    3    3    0    0 -0.11224339183E+02  0.31366964700E+02 -0.15681437130E+02  0.36820914370E+02  0.00000000000E+00 0.  1.
         11    1    4    4    0    0  0.12207776633E+02 -0.70770391111E+01 -0.35788425215E+01  0.14557554978E+02  0.51100000000E-03 0. -1.
        -11    1    4    4    0    0  0.47721988172E+01  0.30315759602E+01 -0.38949544149E+00  0.56671016678E+01  0.51100000000E-03 0.  1.
         12    1    4    4    0    0 -0.57556362670E+01 -0.27321501549E+02  0.19649775093E+02  0.34142428984E+02  0.00000000000E+00 0. -1.
</event>
<event>
 8    1  0.2502431E-006  0.9118800E+02  0.7816164E-02  0.1184000E+00
        -11   -1    0    0    0    0  0.00000000000E+00  0.00000000000E+00  0.45593999997E+02  0.45594000000E+02  0.51100000000E-03 0.  1.
         11   -1    0    0    0    0 -0.00000000000E+00 -0.00000000000E+00 -0.45593999997E+02  0.45594000000E+02  0.51100000000E-03 0. -1.
         23    2    1    2    0    0  0.00000000000E+00 -0.17763568394E-14  0.00000000000E+00  0.91188000000E+02  0.91188000000E+02 0.  0.
    9900012    2    3    3    0    0  0.34520067210E+02 -0.96246624974E+01  0.84563975606E+01  0.54367084367E+02  0.40000000431E+02 0.  0.
         12    1    3    3    0    0 -0.34520067210E+02  0.96246624974E+01 -0.84563975606E+01  0.36820915633E+02  0.00000000000E+00 0. -1.
         11    1    4    4    0    0  0.19657101769E+02 -0.12361389783E+02 -0.12301112671E+02  0.26277803952E+02  0.51100000000E-03 0. -1.
        -11    1    4    4    0    0  0.47457688738E+01 -0.47875974828E+00 -0.53979135783E-02  0.47698597987E+01  0.51100000000E-03 0.  1.
        -12    1    4    4    0    0  0.10117196567E+02  0.32154870339E+01  0.20762908145E+02  0.23319420617E+02  0.00000000000E+00 0.  1.
</event>
<event>
 8    1  0.2502431E-006  0.9118800E+02  0.7816164E-02  0.1184000E+00
        -11   -1    0    0    0    0  0.00000000000E+00  0.00000000000E+00  0.45593999997E+02  0.45594000000E+02  0.51100000000E-03 0.  1.
         11   -1    0    0    0    0 -0.00000000000E+00 -0.00000000000E+00 -0.45593999997E+02  0.45594000000E+02  0.51100000000E-03 0. -1.
         23    2    1    2    0    0  0.00000000000E+00 -0.19984014443E-14  0.00000000000E+00  0.91188000000E+02  0.91188000000E+02 0.  0.
    9900012    2    3    3    0    0  0.36371073573E+02  0.15445417372E+01 -0.55260410973E+01  0.54367112826E+02  0.40000065310E+02 0.  0.
         12    1    3    3    0    0 -0.36371073573E+02 -0.15445417372E+01  0.55260410973E+01  0.36820887174E+02  0.00000000000E+00 0. -1.
         11    1    4    4    0    0  0.10292184081E+02 -0.67007341434E+01 -0.27695317728E+01  0.12589646449E+02  0.51100000000E-03 0. -1.
        -11    1    4    4    0    0  0.17334289930E+02  0.14902339483E+01  0.13569059762E+02  0.22063947690E+02  0.51100000000E-03 0.  1.
         12    1    4    4    0    0  0.87445995630E+01  0.67550419323E+01 -0.16325569087E+02  0.19713518687E+02  0.00000000000E+00 0. -1.
</event>
<event>
 8    1  0.2502431E-006  0.9118800E+02  0.7816164E-02  0.1184000E+00
        -11   -1    0    0    0    0  0.00000000000E+00  0.00000000000E+00  0.45593999997E+02  0.45594000000E+02  0.51100000000E-03 0.  1.
         11   -1    0    0    0    0 -0.00000000000E+00 -0.00000000000E+00 -0.45593999997E+02  0.45594000000E+02  0.51100000000E-03 0. -1.
         23    2    1    2    0    0  0.35527136788E-14  0.00000000000E+00  0.00000000000E+00  0.91188000000E+02  0.91188000000E+02 0.  0.
    9900012    2    3    3    0    0  0.18430988992E+02  0.10614471091E+02 -0.30056876790E+02  0.54367025079E+02  0.39999865273E+02 0.  0.
        -12    1    3    3    0    0 -0.18430988992E+02 -0.10614471091E+02  0.30056876790E+02  0.36820974921E+02  0.00000000000E+00 0.  1.
         11    1    4    4    0    0 -0.39973687521E+01  0.85228707153E+00 -0.85102351647E+01  0.94408396349E+01  0.51100000000E-03 0. -1.
        -11    1    4    4    0    0  0.29034878664E+02  0.53992900669E+01 -0.10517338738E+02  0.31349496434E+02  0.51100000000E-03 0.  1.
        -12    1    4    4    0    0 -0.66065209204E+01  0.43628939530E+01 -0.11029302887E+02  0.13576689011E+02  0.00000000000E+00 0.  1.
</event>
<event>
 8    1  0.2502431E-006  0.9118800E+02  0.7816164E-02  0.1184000E+00
        -11   -1    0    0    0    0  0.00000000000E+00  0.00000000000E+00  0.45593999997E+02  0.45594000000E+02  0.51100000000E-03 0. -1.
         11   -1    0    0    0    0 -0.00000000000E+00 -0.00000000000E+00 -0.45593999997E+02  0.45594000000E+02  0.51100000000E-03 0.  1.
         23    2    1    2    0    0  0.00000000000E+00  0.00000000000E+00 -0.71054273576E-14  0.91188000000E+02  0.91188000000E+02 0.  0.
    9900012    2    3    3    0    0  0.17713105838E+02  0.65149903318E+01 -0.31616122736E+02  0.54367103293E+02  0.40000043577E+02 0.  0.
         12    1    3    3    0    0 -0.17713105838E+02 -0.65149903318E+01  0.31616122736E+02  0.36820896707E+02  0.00000000000E+00 0. -1.
         11    1    4    4    0    0  0.11885700578E+02 -0.48252487921E+01 -0.19543319946E+02  0.23377216663E+02  0.51100000000E-03 0. -1.
        -11    1    4    4    0    0 -0.64021999155E-01  0.11567355332E+02 -0.18781940924E+02  0.22058311661E+02  0.51100000000E-03 0.  1.
         12    1    4    4    0    0  0.58914272587E+01 -0.22711620763E+00  0.67091381343E+01  0.89315749686E+01  0.00000000000E+00 0. -1.
</event>
<event>
 8    1  0.2502431E-006  0.9118800E+02  0.7816164E-02  0.1184000E+00
        -11   -1    0    0    0    0  0.00000000000E+00  0.00000000000E+00  0.45593999997E+02  0.45594000000E+02  0.51100000000E-03 0.  1.
         11   -1    0    0    0    0 -0.00000000000E+00 -0.00000000000E+00 -0.45593999997E+02  0.45594000000E+02  0.51100000000E-03 0. -1.
         23    2    1    2    0    0 -0.17763568394E-14 -0.88817841970E-15  0.71054273576E-14  0.91188000000E+02  0.91188000000E+02 0.  0.
    9900012    2    3    3    0    0 -0.52958000108E+01  0.70421255583E+01  0.35751121283E+02  0.54367086063E+02  0.40000004298E+02 0.  0.
         12    1    3    3    0    0  0.52958000108E+01 -0.70421255583E+01 -0.35751121283E+02  0.36820913937E+02  0.00000000000E+00 0. -1.
         11    1    4    4    0    0  0.25471403057E+01  0.77601725404E+01  0.14820391628E+02  0.16921944624E+02  0.51100000000E-03 0.  1.
        -11    1    4    4    0    0 -0.17795338711E+02 -0.71728869548E+01  0.12987360115E+02  0.23168856469E+02  0.51100000000E-03 0. -1.
         12    1    4    4    0    0  0.99523983941E+01  0.64548399727E+01  0.79433695404E+01  0.14276284969E+02  0.00000000000E+00 0. -1.
</event>
<event>
 8    1  0.2502431E-006  0.9118800E+02  0.7816164E-02  0.1184000E+00
        -11   -1    0    0    0    0  0.00000000000E+00  0.00000000000E+00  0.45593999997E+02  0.45594000000E+02  0.51100000000E-03 0.  1.
         11   -1    0    0    0    0 -0.00000000000E+00 -0.00000000000E+00 -0.45593999997E+02  0.45594000000E+02  0.51100000000E-03 0. -1.
         23    2    1    2    0    0  0.00000000000E+00 -0.22204460493E-14  0.00000000000E+00  0.91188000000E+02  0.91188000000E+02 0.  0.
    9900012    2    3    3    0    0  0.33553527562E+02 -0.14677489909E+01  0.15092618651E+02  0.54367073386E+02  0.39999975398E+02 0.  0.
         12    1    3    3    0    0 -0.33553527562E+02  0.14677489909E+01 -0.15092618651E+02  0.36820926614E+02  0.00000000000E+00 0. -1.
         11    1    4    4    0    0  0.80599670869E+00 -0.12704449646E+02 -0.26198611023E+01  0.12996782062E+02  0.51100000000E-03 0.  1.
        -11    1    4    4    0    0  0.15886114966E+01  0.49896579702E+01  0.58320024520E+00  0.52688230122E+01  0.51100000000E-03 0. -1.
        -12    1    4    4    0    0  0.31158919357E+02  0.62470426853E+01  0.17129279508E+02  0.36101468312E+02  0.00000000000E+00 0.  1.
</event>
<event>
 8    1  0.2502431E-006  0.9118800E+02  0.7816164E-02  0.1184000E+00
        -11   -1    0    0    0    0  0.00000000000E+00  0.00000000000E+00  0.45593999997E+02  0.45594000000E+02  0.51100000000E-03 0.  1.
         11   -1    0    0    0    0 -0.00000000000E+00 -0.00000000000E+00 -0.45593999997E+02  0.45594000000E+02  0.51100000000E-03 0. -1.
         23    2    1    2    0    0  0.35527136788E-14 -0.35527136788E-14  0.35527136788E-14  0.91188000000E+02  0.91188000000E+02 0.  0.
    9900012    2    3    3    0    0 -0.15576154722E+02 -0.16036481824E+02  0.29257067899E+02  0.54367335051E+02  0.40000571912E+02 0.  0.
         12    1    3    3    0    0  0.15576154722E+02  0.16036481824E+02 -0.29257067899E+02  0.36820664949E+02  0.00000000000E+00 0. -1.
         11    1    4    4    0    0  0.52282007797E+01  0.58984687796E+01  0.45370902423E+01  0.90945701089E+01  0.51100000000E-03 0. -1.
        -11    1    4    4    0    0 -0.15584429203E+02 -0.29091286606E+01  0.18971229796E+02  0.24723369984E+02  0.51100000000E-03 0.  1.
         12    1    4    4    0    0 -0.52199262985E+01 -0.19025821943E+02  0.57487478608E+01  0.20549394958E+02  0.00000000000E+00 0. -1.
</event>
<event>
 8    1  0.2502431E-006  0.9118800E+02  0.7816164E-02  0.1184000E+00
        -11   -1    0    0    0    0  0.00000000000E+00  0.00000000000E+00  0.45593999997E+02  0.45594000000E+02  0.51100000000E-03 0. -1.
         11   -1    0    0    0    0 -0.00000000000E+00 -0.00000000000E+00 -0.45593999997E+02  0.45594000000E+02  0.51100000000E-03 0.  1.
         23    2    1    2    0    0 -0.35527136788E-14  0.00000000000E+00 -0.35527136788E-14  0.91188000000E+02  0.91188000000E+02 0.  0.
    9900012    2    3    3    0    0 -0.22386571956E+02 -0.19481092117E+02 -0.21796987822E+02  0.54367078880E+02  0.39999987923E+02 0.  0.
         12    1    3    3    0    0  0.22386571956E+02  0.19481092117E+02  0.21796987822E+02  0.36820921120E+02  0.00000000000E+00 0. -1.
         11    1    4    4    0    0 -0.53030190355E+01  0.50636522730E+01  0.29794589155E+01  0.79145284713E+01  0.51100000000E-03 0. -1.
        -11    1    4    4    0    0 -0.14966443025E+02 -0.22985539180E+02 -0.67654894604E+01  0.28250686294E+02  0.51100000000E-03 0.  1.
         12    1    4    4    0    0 -0.21171098957E+01 -0.15592052101E+01 -0.18010957277E+02  0.18201864114E+02  0.00000000000E+00 0. -1.
</event>
<event>
 8    1  0.2502431E-006  0.9118800E+02  0.7816164E-02  0.1184000E+00
        -11   -1    0    0    0    0  0.00000000000E+00  0.00000000000E+00  0.45593999997E+02  0.45594000000E+02  0.51100000000E-03 0. -1.
         11   -1    0    0    0    0 -0.00000000000E+00 -0.00000000000E+00 -0.45593999997E+02  0.45594000000E+02  0.51100000000E-03 0.  1.
         23    2    1    2    0    0 -0.35527136788E-14 -0.35527136788E-14  0.00000000000E+00  0.91188000000E+02  0.91188000000E+02 0.  0.
    9900012    2    3    3    0    0 -0.25855292200E+02 -0.23394424397E+02  0.11831615403E+02  0.54367050112E+02  0.39999922340E+02 0.  0.
        -12    1    3    3    0    0  0.25855292200E+02  0.23394424397E+02 -0.11831615403E+02  0.36820949888E+02  0.00000000000E+00 0.  1.
         11    1    4    4    0    0 -0.32495054158E+02 -0.23474561308E+02  0.11109797648E+02  0.41598211228E+02  0.51100000000E-03 0. -1.
        -11    1    4    4    0    0  0.20693380717E+01  0.69770466911E+00  0.56270669513E+01  0.60359617788E+01  0.51100000000E-03 0.  1.
         12    1    4    4    0    0  0.45704238859E+01 -0.61756775805E+00 -0.49052491963E+01  0.67328771050E+01  0.00000000000E+00 0. -1.
</event>
<event>
 8    1  0.2502431E-006  0.9118800E+02  0.7816164E-02  0.1184000E+00
        -11   -1    0    0    0    0  0.00000000000E+00  0.00000000000E+00  0.45593999997E+02  0.45594000000E+02  0.51100000000E-03 0.  1.
         11   -1    0    0    0    0 -0.00000000000E+00 -0.00000000000E+00 -0.45593999997E+02  0.45594000000E+02  0.51100000000E-03 0. -1.
         23    2    1    2    0    0  0.00000000000E+00  0.00000000000E+00  0.00000000000E+00  0.91188000000E+02  0.91188000000E+02 0.  0.
    9900012    2    3    3    0    0 -0.27633572437E+02 -0.23434273255E+02 -0.65574714465E+01  0.54367083113E+02  0.39999997572E+02 0.  0.
        -12    1    3    3    0    0  0.27633572437E+02  0.23434273255E+02  0.65574714465E+01  0.36820916887E+02  0.00000000000E+00 0.  1.
         11    1    4    4    0    0 -0.18029889851E+02 -0.14992907743E+02 -0.17489947841E+02  0.29253418371E+02  0.51100000000E-03 0. -1.
        -11    1    4    4    0    0 -0.11130704751E+02 -0.12898110317E+02  0.54548677271E+01  0.17888807120E+02  0.51100000000E-03 0.  1.
         12    1    4    4    0    0  0.15270221648E+01  0.44567448044E+01  0.54776086676E+01  0.72248576220E+01  0.00000000000E+00 0. -1.
</event>
<event>
 8    1  0.2502431E-006  0.9118800E+02  0.7816164E-02  0.1184000E+00
        -11   -1    0    0    0    0  0.00000000000E+00  0.00000000000E+00  0.45593999997E+02  0.45594000000E+02  0.51100000000E-03 0.  1.
         11   -1    0    0    0    0 -0.00000000000E+00 -0.00000000000E+00 -0.45593999997E+02  0.45594000000E+02  0.51100000000E-03 0. -1.
         23    2    1    2    0    0  0.71054273576E-14  0.17763568394E-14  0.17763568394E-14  0.91188000000E+02  0.91188000000E+02 0.  0.
    9900012    2    3    3    0    0 -0.34327767201E+02 -0.11446750444E+02 -0.68086541742E+01  0.54367062092E+02  0.39999949652E+02 0.  0.
        -12    1    3    3    0    0  0.34327767201E+02  0.11446750444E+02  0.68086541742E+01  0.36820937908E+02  0.00000000000E+00 0.  1.
         11    1    4    4    0    0 -0.21381061256E+02 -0.61474416537E+01 -0.11839967873E+02  0.25201699522E+02  0.51100000000E-03 0. -1.
        -11    1    4    4    0    0 -0.64040361760E+01 -0.49913576907E+01 -0.99336576338E+01  0.12829765594E+02  0.51100000000E-03 0.  1.
        -12    1    4    4    0    0 -0.65426697692E+01 -0.30795109916E+00  0.14964971333E+02  0.16335596977E+02  0.00000000000E+00 0.  1.
</event>
<event>
 8    1  0.2502431E-006  0.9118800E+02  0.7816164E-02  0.1184000E+00
        -11   -1    0    0    0    0  0.00000000000E+00  0.00000000000E+00  0.45593999997E+02  0.45594000000E+02  0.51100000000E-03 0.  1.
         11   -1    0    0    0    0 -0.00000000000E+00 -0.00000000000E+00 -0.45593999997E+02  0.45594000000E+02  0.51100000000E-03 0. -1.
         23    2    1    2    0    0  0.00000000000E+00 -0.35527136788E-14  0.00000000000E+00  0.91188000000E+02  0.91188000000E+02 0.  0.
    9900012    2    3    3    0    0 -0.16217315793E+02  0.30440007607E+02  0.12891271546E+02  0.54367078275E+02  0.39999986544E+02 0.  0.
        -12    1    3    3    0    0  0.16217315793E+02 -0.30440007607E+02 -0.12891271546E+02  0.36820921725E+02  0.00000000000E+00 0.  1.
         11    1    4    4    0    0 -0.41671021677E+01  0.74854462525E+01 -0.60721877258E+01  0.10500862351E+02  0.51100000000E-03 0. -1.
        -11    1    4    4    0    0 -0.44739700746E+01  0.27128603351E+02  0.57762975399E+01  0.28095251227E+02  0.51100000000E-03 0.  1.
        -12    1    4    4    0    0 -0.75762435503E+01 -0.41740419968E+01  0.13187161732E+02  0.15770964697E+02  0.00000000000E+00 0.  1.
</event>
<event>
 8    1  0.2502431E-006  0.9118800E+02  0.7816164E-02  0.1184000E+00
        -11   -1    0    0    0    0  0.00000000000E+00  0.00000000000E+00  0.45593999997E+02  0.45594000000E+02  0.51100000000E-03 0.  1.
         11   -1    0    0    0    0 -0.00000000000E+00 -0.00000000000E+00 -0.45593999997E+02  0.45594000000E+02  0.51100000000E-03 0. -1.
         23    2    1    2    0    0  0.00000000000E+00  0.00000000000E+00  0.17763568394E-14  0.91188000000E+02  0.91188000000E+02 0.  0.
    9900012    2    3    3    0    0 -0.10634760876E+02 -0.32049459720E+02  0.14680310548E+02  0.54367115640E+02  0.40000071725E+02 0.  0.
         12    1    3    3    0    0  0.10634760876E+02  0.32049459720E+02 -0.14680310548E+02  0.36820884360E+02  0.00000000000E+00 0. -1.
         11    1    4    4    0    0 -0.16240702931E+02 -0.25853296507E+02  0.99420892025E+00  0.30547370158E+02  0.51100000000E-03 0. -1.
        -11    1    4    4    0    0 -0.30021944843E+01 -0.56443078100E+01  0.13782882992E+02  0.15193394822E+02  0.51100000000E-03 0.  1.
         12    1    4    4    0    0  0.86081365397E+01 -0.55185540387E+00 -0.96781364419E-01  0.86263506598E+01  0.00000000000E+00 0. -1.
</event>
<event>
 8    1  0.2502431E-006  0.9118800E+02  0.7816164E-02  0.1184000E+00
        -11   -1    0    0    0    0  0.00000000000E+00  0.00000000000E+00  0.45593999997E+02  0.45594000000E+02  0.51100000000E-03 0.  1.
         11   -1    0    0    0    0 -0.00000000000E+00 -0.00000000000E+00 -0.45593999997E+02  0.45594000000E+02  0.51100000000E-03 0. -1.
         23    2    1    2    0    0  0.00000000000E+00  0.88817841970E-15  0.00000000000E+00  0.91188000000E+02  0.91188000000E+02 0.  0.
    9900012    2    3    3    0    0 -0.24400907649E+02 -0.32355771609E+01  0.27384427022E+02  0.54367080715E+02  0.39999992105E+02 0.  0.
         12    1    3    3    0    0  0.24400907649E+02  0.32355771609E+01 -0.27384427022E+02  0.36820919285E+02  0.00000000000E+00 0. -1.
         11    1    4    4    0    0  0.53748210736E+01 -0.44919488178E+01 -0.10469991038E+01  0.70825499038E+01  0.51100000000E-03 0. -1.
        -11    1    4    4    0    0 -0.11379281831E+02 -0.60016115272E+01  0.26384697027E+00  0.12867673115E+02  0.51100000000E-03 0.  1.
        -12    1    4    4    0    0 -0.18396446892E+02  0.72579831841E+01  0.28167579156E+02  0.34416857696E+02  0.00000000000E+00 0.  1.
</event>
<event>
 8    1  0.2502431E-006  0.9118800E+02  0.7816164E-02  0.1184000E+00
        -11   -1    0    0    0    0  0.00000000000E+00  0.00000000000E+00  0.45593999997E+02  0.45594000000E+02  0.51100000000E-03 0.  1.
         11   -1    0    0    0    0 -0.00000000000E+00 -0.00000000000E+00 -0.45593999997E+02  0.45594000000E+02  0.51100000000E-03 0. -1.
         23    2    1    2    0    0 -0.88817841970E-15  0.88817841970E-15  0.00000000000E+00  0.91188000000E+02  0.91188000000E+02 0.  0.
    9900012    2    3    3    0    0 -0.43186150680E+01  0.68820265650E+01 -0.35913349546E+02  0.54367063002E+02  0.39999951727E+02 0.  0.
        -12    1    3    3    0    0  0.43186150680E+01 -0.68820265650E+01  0.35913349546E+02  0.36820936998E+02  0.00000000000E+00 0.  1.
         11    1    4    4    0    0 -0.14575454831E+02 -0.62347729110E+01 -0.11913142607E+02  0.19830260811E+02  0.51100000000E-03 0. -1.
        -11    1    4    4    0    0 -0.32264851762E+01 -0.20609846074E+01 -0.73226922883E+01  0.82631523497E+01  0.51100000000E-03 0.  1.
        -12    1    4    4    0    0  0.13483324939E+02  0.15177784083E+02 -0.16677514651E+02  0.26273649842E+02  0.00000000000E+00 0.  1.
</event>
<event>
 8    1  0.2502431E-006  0.9118800E+02  0.7816164E-02  0.1184000E+00
        -11   -1    0    0    0    0  0.00000000000E+00  0.00000000000E+00  0.45593999997E+02  0.45594000000E+02  0.51100000000E-03 0. -1.
         11   -1    0    0    0    0 -0.00000000000E+00 -0.00000000000E+00 -0.45593999997E+02  0.45594000000E+02  0.51100000000E-03 0.  1.
         23    2    1    2    0    0 -0.35527136788E-14 -0.88817841970E-15  0.35527136788E-14  0.91188000000E+02  0.91188000000E+02 0.  0.
    9900012    2    3    3    0    0 -0.31738706670E+02 -0.60746302110E+01  0.17650258095E+02  0.54367105876E+02  0.40000049466E+02 0.  0.
        -12    1    3    3    0    0  0.31738706670E+02  0.60746302110E+01 -0.17650258095E+02  0.36820894124E+02  0.00000000000E+00 0.  1.
         11    1    4    4    0    0  0.32824826991E+01  0.10395849597E+01  0.13817996081E+02  0.14240521252E+02  0.51100000000E-03 0. -1.
        -11    1    4    4    0    0 -0.19535008333E+00  0.34294851483E+01  0.12228267537E+01  0.36462083824E+01  0.51100000000E-03 0.  1.
        -12    1    4    4    0    0 -0.34825839286E+02 -0.10543700319E+02  0.26094352594E+01  0.36480376242E+02  0.00000000000E+00 0.  1.
</event>
<event>
 8    1  0.2502431E-006  0.9118800E+02  0.7816164E-02  0.1184000E+00
        -11   -1    0    0    0    0  0.00000000000E+00  0.00000000000E+00  0.45593999997E+02  0.45594000000E+02  0.51100000000E-03 0.  1.
         11   -1    0    0    0    0 -0.00000000000E+00 -0.00000000000E+00 -0.45593999997E+02  0.45594000000E+02  0.51100000000E-03 0. -1.
         23    2    1    2    0    0  0.17763568394E-14  0.00000000000E+00 -0.35527136788E-14  0.91188000000E+02  0.91188000000E+02 0.  0.
    9900012    2    3    3    0    0  0.13530258961E+02 -0.26611664443E+02 -0.21552983713E+02  0.54367086121E+02  0.40000004429E+02 0.  0.
        -12    1    3    3    0    0 -0.13530258961E+02  0.26611664443E+02  0.21552983713E+02  0.36820913879E+02  0.00000000000E+00 0.  1.
         11    1    4    4    0    0 -0.25490694866E+00 -0.22105899025E+01 -0.71577541436E+01  0.74956740798E+01  0.51100000000E-03 0. -1.
        -11    1    4    4    0    0  0.41417057022E+01  0.24917112768E+01 -0.17479879907E+02  0.18135836155E+02  0.51100000000E-03 0.  1.
        -12    1    4    4    0    0  0.96434602076E+01 -0.26892785817E+02  0.30846503379E+01  0.28735575886E+02  0.00000000000E+00 0.  1.
</event>
<event>
 8    1  0.2502431E-006  0.9118800E+02  0.7816164E-02  0.1184000E+00
        -11   -1    0    0    0    0  0.00000000000E+00  0.00000000000E+00  0.45593999997E+02  0.45594000000E+02  0.51100000000E-03 0. -1.
         11   -1    0    0    0    0 -0.00000000000E+00 -0.00000000000E+00 -0.45593999997E+02  0.45594000000E+02  0.51100000000E-03 0.  1.
         23    2    1    2    0    0  0.00000000000E+00  0.00000000000E+00  0.00000000000E+00  0.91188000000E+02  0.91188000000E+02 0.  0.
    9900012    2    3    3    0    0  0.93632693360E+01  0.16645950697E+02  0.31480505959E+02  0.54367071947E+02  0.39999972117E+02 0.  0.
        -12    1    3    3    0    0 -0.93632693360E+01 -0.16645950697E+02 -0.31480505959E+02  0.36820928053E+02  0.00000000000E+00 0.  1.
         11    1    4    4    0    0  0.18104328564E+02  0.73129938599E+01  0.16398020158E+02  0.25497875545E+02  0.51100000000E-03 0. -1.
        -11    1    4    4    0    0 -0.48538309243E+01  0.36243151601E+01  0.19667563043E+02  0.20579319020E+02  0.51100000000E-03 0.  1.
        -12    1    4    4    0    0 -0.38872283035E+01  0.57086416774E+01 -0.45850772421E+01  0.82898773815E+01  0.00000000000E+00 0.  1.
</event>
<event>
 8    1  0.2502431E-006  0.9118800E+02  0.7816164E-02  0.1184000E+00
        -11   -1    0    0    0    0  0.00000000000E+00  0.00000000000E+00  0.45593999997E+02  0.45594000000E+02  0.51100000000E-03 0.  1.
         11   -1    0    0    0    0 -0.00000000000E+00 -0.00000000000E+00 -0.45593999997E+02  0.45594000000E+02  0.51100000000E-03 0. -1.
         23    2    1    2    0    0 -0.26645352591E-14  0.71054273576E-14  0.00000000000E+00  0.91188000000E+02  0.91188000000E+02 0.  0.
    9900012    2    3    3    0    0 -0.76571092648E+01  0.34375441200E+02 -0.10746073024E+02  0.54367077070E+02  0.39999983796E+02 0.  0.
        -12    1    3    3    0    0  0.76571092648E+01 -0.34375441200E+02  0.10746073024E+02  0.36820922930E+02  0.00000000000E+00 0.  1.
         11    1    4    4    0    0 -0.21375553591E+02  0.24129602760E+02 -0.61405841135E+01  0.32815526725E+02  0.51100000000E-03 0. -1.
        -11    1    4    4    0    0  0.61432156083E+01 -0.37745169863E+00 -0.57902095884E+01  0.84503310665E+01  0.51100000000E-03 0.  1.
        -12    1    4    4    0    0  0.75752287183E+01  0.10623290138E+02  0.11847206774E+01  0.13101219278E+02  0.00000000000E+00 0.  1.
</event>
<event>
 8    1  0.2502431E-006  0.9118800E+02  0.7816164E-02  0.1184000E+00
        -11   -1    0    0    0    0  0.00000000000E+00  0.00000000000E+00  0.45593999997E+02  0.45594000000E+02  0.51100000000E-03 0.  1.
         11   -1    0    0    0    0 -0.00000000000E+00 -0.00000000000E+00 -0.45593999997E+02  0.45594000000E+02  0.51100000000E-03 0. -1.
         23    2    1    2    0    0  0.35527136788E-14 -0.99920072216E-15  0.71054273576E-14  0.91188000000E+02  0.91188000000E+02 0.  0.
    9900012    2    3    3    0    0 -0.25903877375E+02 -0.50706207995E+00  0.26163189054E+02  0.54367076105E+02  0.39999981597E+02 0.  0.
         12    1    3    3    0    0  0.25903877375E+02  0.50706207995E+00 -0.26163189054E+02  0.36820923895E+02  0.00000000000E+00 0. -1.
         11    1    4    4    0    0  0.69681238089E+01  0.57569922042E+01 -0.34320703946E+01  0.96683409182E+01  0.51100000000E-03 0. -1.
        -11    1    4    4    0    0 -0.91420932441E+01 -0.13776896869E+01  0.89504197933E+01  0.12868018981E+02  0.51100000000E-03 0.  1.
         12    1    4    4    0    0 -0.23729907940E+02 -0.48863645973E+01  0.20644839655E+02  0.31830716206E+02  0.00000000000E+00 0. -1.
</event>
<event>
 8    1  0.2502431E-006  0.9118800E+02  0.7816164E-02  0.1184000E+00
        -11   -1    0    0    0    0  0.00000000000E+00  0.00000000000E+00  0.45593999997E+02  0.45594000000E+02  0.51100000000E-03 0.  1.
         11   -1    0    0    0    0 -0.00000000000E+00 -0.00000000000E+00 -0.45593999997E+02  0.45594000000E+02  0.51100000000E-03 0. -1.
         23    2    1    2    0    0  0.00000000000E+00  0.00000000000E+00  0.00000000000E+00  0.91188000000E+02  0.91188000000E+02 0.  0.
    9900012    2    3    3    0    0  0.14842929019E+02  0.28558644118E+02  0.17884945731E+02  0.54367082310E+02  0.39999995742E+02 0.  0.
         12    1    3    3    0    0 -0.14842929019E+02 -0.28558644118E+02 -0.17884945731E+02  0.36820917690E+02  0.00000000000E+00 0. -1.
         11    1    4    4    0    0 -0.54003935235E+00 -0.92260100374E+01 -0.24936158665E+00  0.92451655028E+01  0.51100000000E-03 0. -1.
        -11    1    4    4    0    0  0.86664545362E+01  0.26412788924E+02  0.96559525157E+01  0.29427542748E+02  0.51100000000E-03 0.  1.
        -12    1    4    4    0    0  0.67165138349E+01  0.11371865232E+02  0.84783548021E+01  0.15694374059E+02  0.00000000000E+00 0.  1.
</event>
<event>
 8    1  0.2502431E-006  0.9118800E+02  0.7816164E-02  0.1184000E+00
        -11   -1    0    0    0    0  0.00000000000E+00  0.00000000000E+00  0.45593999997E+02  0.45594000000E+02  0.51100000000E-03 0.  1.
         11   -1    0    0    0    0 -0.00000000000E+00 -0.00000000000E+00 -0.45593999997E+02  0.45594000000E+02  0.51100000000E-03 0. -1.
         23    2    1    2    0    0  0.00000000000E+00  0.88817841970E-15 -0.35527136788E-14  0.91188000000E+02  0.91188000000E+02 0.  0.
    9900012    2    3    3    0    0  0.34846887903E+02 -0.31746499480E+01 -0.11462801378E+02  0.54367084555E+02  0.40000000860E+02 0.  0.
        -12    1    3    3    0    0 -0.34846887903E+02  0.31746499480E+01  0.11462801378E+02  0.36820915445E+02  0.00000000000E+00 0.  1.
         11    1    4    4    0    0  0.18001817000E+02 -0.83621673176E+00  0.53965847543E+01  0.18811905831E+02  0.51100000000E-03 0. -1.
        -11    1    4    4    0    0 -0.16230751670E+00  0.41982154938E+01  0.53665216547E+01  0.68154905908E+01  0.51100000000E-03 0.  1.
         12    1    4    4    0    0  0.17007378419E+02 -0.65366487100E+01 -0.22225907787E+02  0.28739688133E+02  0.00000000000E+00 0. -1.
</event>
<event>
 8    1  0.2502431E-006  0.9118800E+02  0.7816164E-02  0.1184000E+00
        -11   -1    0    0    0    0  0.00000000000E+00  0.00000000000E+00  0.45593999997E+02  0.45594000000E+02  0.51100000000E-03 0.  1.
         11   -1    0    0    0    0 -0.00000000000E+00 -0.00000000000E+00 -0.45593999997E+02  0.45594000000E+02  0.51100000000E-03 0. -1.
         23    2    1    2    0    0 -0.44408920985E-15  0.00000000000E+00  0.00000000000E+00  0.91188000000E+02  0.91188000000E+02 0.  0.
    9900012    2    3    3    0    0  0.38881123424E+01 -0.17482223461E+02 -0.32171958437E+02  0.54367075726E+02  0.39999980732E+02 0.  0.
        -12    1    3    3    0    0 -0.38881123424E+01  0.17482223461E+02  0.32171958437E+02  0.36820924274E+02  0.00000000000E+00 0.  1.
         11    1    4    4    0    0 -0.51849589320E+01  0.33371698969E+01 -0.20261429098E+02  0.21178904868E+02  0.51100000000E-03 0. -1.
        -11    1    4    4    0    0 -0.50674702989E+01 -0.39823010217E+01  0.24850240994E+01  0.69074830216E+01  0.51100000000E-03 0.  1.
         12    1    4    4    0    0  0.14140541573E+02 -0.16837092336E+02 -0.14395553439E+02  0.26280687836E+02  0.00000000000E+00 0. -1.
</event>
<event>
 8    1  0.2502431E-006  0.9118800E+02  0.7816164E-02  0.1184000E+00
        -11   -1    0    0    0    0  0.00000000000E+00  0.00000000000E+00  0.45593999997E+02  0.45594000000E+02  0.51100000000E-03 0.  1.
         11   -1    0    0    0    0 -0.00000000000E+00 -0.00000000000E+00 -0.45593999997E+02  0.45594000000E+02  0.51100000000E-03 0. -1.
         23    2    1    2    0    0  0.19984014443E-14  0.71054273576E-14  0.88817841970E-15  0.91188000000E+02  0.91188000000E+02 0.  0.
    9900012    2    3    3    0    0  0.17624403681E+01 -0.36703918918E+02  0.23440297164E+01  0.54367104637E+02  0.40000046641E+02 0.  0.
         12    1    3    3    0    0 -0.17624403681E+01  0.36703918918E+02 -0.23440297164E+01  0.36820895363E+02  0.00000000000E+00 0. -1.
         11    1    4    4    0    0 -0.10993012109E+02 -0.22502866484E+02  0.59054308643E+01  0.25731292800E+02  0.51100000000E-03 0. -1.
        -11    1    4    4    0    0  0.15063980359E+02 -0.55634038757E+01 -0.87610877173E+01  0.18292939217E+02  0.51100000000E-03 0.  1.
        -12    1    4    4    0    0 -0.23085278824E+01 -0.86376485592E+01  0.51996865695E+01  0.10342872620E+02  0.00000000000E+00 0.  1.
</event>
<event>
 8    1  0.2502431E-006  0.9118800E+02  0.7816164E-02  0.1184000E+00
        -11   -1    0    0    0    0  0.00000000000E+00  0.00000000000E+00  0.45593999997E+02  0.45594000000E+02  0.51100000000E-03 0. -1.
         11   -1    0    0    0    0 -0.00000000000E+00 -0.00000000000E+00 -0.45593999997E+02  0.45594000000E+02  0.51100000000E-03 0.  1.
         23    2    1    2    0    0 -0.17763568394E-14 -0.35527136788E-14 -0.35527136788E-14  0.91188000000E+02  0.91188000000E+02 0.  0.
    9900012    2    3    3    0    0 -0.91578342055E+01 -0.23214261354E+02 -0.27074192680E+02  0.54367085199E+02  0.40000002328E+02 0.  0.
         12    1    3    3    0    0  0.91578342055E+01  0.23214261354E+02  0.27074192680E+02  0.36820914801E+02  0.00000000000E+00 0. -1.
         11    1    4    4    0    0 -0.63180396730E+01 -0.44148231302E+01  0.45942628742E+01  0.89730452021E+01  0.51100000000E-03 0. -1.
        -11    1    4    4    0    0 -0.27244095086E+01 -0.12266636719E+02  0.49338509906E+00  0.12575222172E+02  0.51100000000E-03 0.  1.
        -12    1    4    4    0    0 -0.11538502388E+00 -0.65328015048E+01 -0.32161840653E+02  0.32818817824E+02  0.00000000000E+00 0.  1.
</event>
<event>
 8    1  0.2502431E-006  0.9118800E+02  0.7816164E-02  0.1184000E+00
        -11   -1    0    0    0    0  0.00000000000E+00  0.00000000000E+00  0.45593999997E+02  0.45594000000E+02  0.51100000000E-03 0.  1.
         11   -1    0    0    0    0 -0.00000000000E+00 -0.00000000000E+00 -0.45593999997E+02  0.45594000000E+02  0.51100000000E-03 0. -1.
         23    2    1    2    0    0  0.35527136788E-14  0.00000000000E+00  0.35527136788E-14  0.91188000000E+02  0.91188000000E+02 0.  0.
    9900012    2    3    3    0    0  0.13615661175E+02  0.20182291270E+02  0.27623701014E+02  0.54367082469E+02  0.39999996104E+02 0.  0.
         12    1    3    3    0    0 -0.13615661175E+02 -0.20182291270E+02 -0.27623701014E+02  0.36820917531E+02  0.00000000000E+00 0. -1.
         11    1    4    4    0    0  0.65029193111E+00 -0.22235839031E+01 -0.46390984049E+01  0.51854063719E+01  0.51100000000E-03 0. -1.
        -11    1    4    4    0    0 -0.53713563297E+01  0.16536459645E+02  0.11391687576E+02  0.20786450214E+02  0.51100000000E-03 0.  1.
         12    1    4    4    0    0  0.18336725574E+02  0.58694155280E+01  0.20871111842E+02  0.28395225883E+02  0.00000000000E+00 0. -1.
</event>
<event>
 8    1  0.2502431E-006  0.9118800E+02  0.7816164E-02  0.1184000E+00
        -11   -1    0    0    0    0  0.00000000000E+00  0.00000000000E+00  0.45593999997E+02  0.45594000000E+02  0.51100000000E-03 0.  1.
         11   -1    0    0    0    0 -0.00000000000E+00 -0.00000000000E+00 -0.45593999997E+02  0.45594000000E+02  0.51100000000E-03 0. -1.
         23    2    1    2    0    0  0.00000000000E+00  0.00000000000E+00  0.35527136788E-14  0.91188000000E+02  0.91188000000E+02 0.  0.
    9900012    2    3    3    0    0  0.29885146330E+02 -0.11002895324E+02 -0.18482300696E+02  0.54367066882E+02  0.39999960571E+02 0.  0.
        -12    1    3    3    0    0 -0.29885146330E+02  0.11002895324E+02  0.18482300696E+02  0.36820933118E+02  0.00000000000E+00 0.  1.
         11    1    4    4    0    0  0.77477108642E+01 -0.33941798621E+00 -0.20859646360E+02  0.22254596710E+02  0.51100000000E-03 0. -1.
        -11    1    4    4    0    0  0.18350321357E+02 -0.13471159093E+02  0.85749107352E+01  0.24325614393E+02  0.51100000000E-03 0.  1.
        -12    1    4    4    0    0  0.37871141085E+01  0.28076817551E+01 -0.61975650718E+01  0.77868557793E+01  0.00000000000E+00 0.  1.
</event>
<event>
 8    1  0.2502431E-006  0.9118800E+02  0.7816164E-02  0.1184000E+00
        -11   -1    0    0    0    0  0.00000000000E+00  0.00000000000E+00  0.45593999997E+02  0.45594000000E+02  0.51100000000E-03 0.  1.
         11   -1    0    0    0    0 -0.00000000000E+00 -0.00000000000E+00 -0.45593999997E+02  0.45594000000E+02  0.51100000000E-03 0. -1.
         23    2    1    2    0    0 -0.35527136788E-14  0.88817841970E-15  0.00000000000E+00  0.91188000000E+02  0.91188000000E+02 0.  0.
    9900012    2    3    3    0    0 -0.31225155895E+02 -0.77719399114E+01 -0.17898744666E+02  0.54367102791E+02  0.40000042433E+02 0.  0.
         12    1    3    3    0    0  0.31225155895E+02  0.77719399114E+01  0.17898744666E+02  0.36820897209E+02  0.00000000000E+00 0. -1.
         11    1    4    4    0    0 -0.31044351000E+02 -0.96623607746E+01 -0.17447114809E+02  0.36898709465E+02  0.51100000000E-03 0. -1.
        -11    1    4    4    0    0 -0.24731777924E+01  0.48050078288E+01 -0.76528194149E+01  0.93685833447E+01  0.51100000000E-03 0.  1.
        -12    1    4    4    0    0  0.22923728980E+01 -0.29145869656E+01  0.72011895581E+01  0.80998099814E+01  0.00000000000E+00 0.  1.
</event>
<event>
 8    1  0.2502431E-006  0.9118800E+02  0.7816164E-02  0.1184000E+00
        -11   -1    0    0    0    0  0.00000000000E+00  0.00000000000E+00  0.45593999997E+02  0.45594000000E+02  0.51100000000E-03 0. -1.
         11   -1    0    0    0    0 -0.00000000000E+00 -0.00000000000E+00 -0.45593999997E+02  0.45594000000E+02  0.51100000000E-03 0.  1.
         23    2    1    2    0    0  0.00000000000E+00  0.00000000000E+00  0.17763568394E-14  0.91188000000E+02  0.91188000000E+02 0.  0.
    9900012    2    3    3    0    0  0.27683576384E+02 -0.20637560276E+02 -0.12786323006E+02  0.54367090837E+02  0.40000015181E+02 0.  0.
         12    1    3    3    0    0 -0.27683576384E+02  0.20637560276E+02  0.12786323006E+02  0.36820909163E+02  0.00000000000E+00 0. -1.
         11    1    4    4    0    0 -0.11995830972E+01 -0.20810670828E+02 -0.20171267489E+01  0.20942583903E+02  0.51100000000E-03 0. -1.
        -11    1    4    4    0    0  0.68387922787E+01 -0.40879483978E-01  0.29616675414E+01  0.74526656876E+01  0.51100000000E-03 0.  1.
         12    1    4    4    0    0  0.22044367202E+02  0.21399003585E+00 -0.13730863799E+02  0.25971841247E+02  0.00000000000E+00 0. -1.
</event>
<event>
 8    1  0.2502431E-006  0.9118800E+02  0.7816164E-02  0.1184000E+00
        -11   -1    0    0    0    0  0.00000000000E+00  0.00000000000E+00  0.45593999997E+02  0.45594000000E+02  0.51100000000E-03 0.  1.
         11   -1    0    0    0    0 -0.00000000000E+00 -0.00000000000E+00 -0.45593999997E+02  0.45594000000E+02  0.51100000000E-03 0. -1.
         23    2    1    2    0    0  0.35527136788E-14  0.35527136788E-14 -0.35527136788E-14  0.91188000000E+02  0.91188000000E+02 0.  0.
    9900012    2    3    3    0    0 -0.21541781601E+02 -0.21897138873E+02  0.20303864665E+02  0.54367082498E+02  0.39999996171E+02 0.  0.
         12    1    3    3    0    0  0.21541781601E+02  0.21897138873E+02 -0.20303864665E+02  0.36820917502E+02  0.00000000000E+00 0. -1.
         11    1    4    4    0    0 -0.16785535191E+01 -0.15636762528E+02  0.48972847249E+01  0.16471468733E+02  0.51100000000E-03 0.  1.
        -11    1    4    4    0    0  0.14202147976E+01  0.16880840007E+01 -0.61766318328E+01  0.65587665551E+01  0.51100000000E-03 0. -1.
        -12    1    4    4    0    0 -0.21283442879E+02 -0.79484603448E+01  0.21583211773E+02  0.31336847210E+02  0.00000000000E+00 0.  1.
</event>
<event>
 8    1  0.2502431E-006  0.9118800E+02  0.7816164E-02  0.1184000E+00
        -11   -1    0    0    0    0  0.00000000000E+00  0.00000000000E+00  0.45593999997E+02  0.45594000000E+02  0.51100000000E-03 0. -1.
         11   -1    0    0    0    0 -0.00000000000E+00 -0.00000000000E+00 -0.45593999997E+02  0.45594000000E+02  0.51100000000E-03 0.  1.
         23    2    1    2    0    0  0.00000000000E+00  0.00000000000E+00 -0.17763568394E-14  0.91188000000E+02  0.91188000000E+02 0.  0.
    9900012    2    3    3    0    0 -0.29215736837E+02 -0.20792758078E+02 -0.83595296182E+01  0.54367084709E+02  0.40000001212E+02 0.  0.
        -12    1    3    3    0    0  0.29215736837E+02  0.20792758078E+02  0.83595296182E+01  0.36820915291E+02  0.00000000000E+00 0.  1.
         11    1    4    4    0    0 -0.67014370170E+01  0.11747299602E+01  0.51625774300E+01  0.85405769450E+01  0.51100000000E-03 0. -1.
        -11    1    4    4    0    0 -0.53931693753E+01  0.63947608211E+01  0.28955731552E+01  0.88523209402E+01  0.51100000000E-03 0.  1.
        -12    1    4    4    0    0 -0.17121130445E+02 -0.28362248859E+02 -0.16417680203E+02  0.36974186824E+02  0.00000000000E+00 0.  1.
</event>
<event>
 8    1  0.2502431E-006  0.9118800E+02  0.7816164E-02  0.1184000E+00
        -11   -1    0    0    0    0  0.00000000000E+00  0.00000000000E+00  0.45593999997E+02  0.45594000000E+02  0.51100000000E-03 0.  1.
         11   -1    0    0    0    0 -0.00000000000E+00 -0.00000000000E+00 -0.45593999997E+02  0.45594000000E+02  0.51100000000E-03 0. -1.
         23    2    1    2    0    0 -0.71054273576E-14  0.00000000000E+00  0.00000000000E+00  0.91188000000E+02  0.91188000000E+02 0.  0.
    9900012    2    3    3    0    0  0.35327689011E+02 -0.44561473525E+01  0.93743126190E+01  0.54367073923E+02  0.39999976622E+02 0.  0.
         12    1    3    3    0    0 -0.35327689011E+02  0.44561473525E+01 -0.93743126190E+01  0.36820926077E+02  0.00000000000E+00 0. -1.
         11    1    4    4    0    0 -0.19194649315E+00 -0.36471947747E+01  0.64994758512E+01  0.74553376705E+01  0.51100000000E-03 0.  1.
        -11    1    4    4    0    0 -0.47350873866E+01 -0.42352233192E+01 -0.48939982392E+00  0.63716309977E+01  0.51100000000E-03 0. -1.
        -12    1    4    4    0    0  0.40254722891E+02  0.34262707414E+01  0.33642365917E+01  0.40540105255E+02  0.00000000000E+00 0.  1.
</event>
<event>
 8    1  0.2502431E-006  0.9118800E+02  0.7816164E-02  0.1184000E+00
        -11   -1    0    0    0    0  0.00000000000E+00  0.00000000000E+00  0.45593999997E+02  0.45594000000E+02  0.51100000000E-03 0.  1.
         11   -1    0    0    0    0 -0.00000000000E+00 -0.00000000000E+00 -0.45593999997E+02  0.45594000000E+02  0.51100000000E-03 0. -1.
         23    2    1    2    0    0  0.35527136788E-14 -0.35527136788E-14 -0.88817841970E-15  0.91188000000E+02  0.91188000000E+02 0.  0.
    9900012    2    3    3    0    0  0.21877952100E+02 -0.29160166490E+02  0.51786378580E+01  0.54367103923E+02  0.40000045014E+02 0.  0.
         12    1    3    3    0    0 -0.21877952100E+02  0.29160166490E+02 -0.51786378580E+01  0.36820896077E+02  0.00000000000E+00 0. -1.
         11    1    4    4    0    0  0.13948285179E+02 -0.69568126313E+01  0.30570157577E+01  0.15883867509E+02  0.51100000000E-03 0.  1.
        -11    1    4    4    0    0  0.11926377432E+02 -0.23377062186E+02 -0.80838404704E+01  0.27460407720E+02  0.51100000000E-03 0. -1.
         12    1    4    4    0    0 -0.39967105113E+01  0.11737083277E+01  0.10205462571E+02  0.11022828695E+02  0.00000000000E+00 0. -1.
</event>
<event>
 8    1  0.2502431E-006  0.9118800E+02  0.7816164E-02  0.1184000E+00
        -11   -1    0    0    0    0  0.00000000000E+00  0.00000000000E+00  0.45593999997E+02  0.45594000000E+02  0.51100000000E-03 0. -1.
         11   -1    0    0    0    0 -0.00000000000E+00 -0.00000000000E+00 -0.45593999997E+02  0.45594000000E+02  0.51100000000E-03 0.  1.
         23    2    1    2    0    0 -0.17763568394E-14  0.33306690739E-15  0.00000000000E+00  0.91188000000E+02  0.91188000000E+02 0.  0.
    9900012    2    3    3    0    0  0.47801706983E+01 -0.90200337909E+00  0.36498158020E+02  0.54367093156E+02  0.40000020467E+02 0.  0.
        -12    1    3    3    0    0 -0.47801706983E+01  0.90200337909E+00 -0.36498158020E+02  0.36820906844E+02  0.00000000000E+00 0.  1.
         11    1    4    4    0    0  0.18816843831E+01  0.12828779191E+01 -0.17247848697E+01  0.28568155315E+01  0.51100000000E-03 0. -1.
        -11    1    4    4    0    0 -0.11373301069E+02  0.34531174002E+01  0.18449865826E+01  0.12028298830E+02  0.51100000000E-03 0.  1.
         12    1    4    4    0    0  0.14271787384E+02 -0.56379986984E+01  0.36377956307E+02  0.39481978795E+02  0.00000000000E+00 0. -1.
</event>
<event>
 8    1  0.2502431E-006  0.9118800E+02  0.7816164E-02  0.1184000E+00
        -11   -1    0    0    0    0  0.00000000000E+00  0.00000000000E+00  0.45593999997E+02  0.45594000000E+02  0.51100000000E-03 0.  1.
         11   -1    0    0    0    0 -0.00000000000E+00 -0.00000000000E+00 -0.45593999997E+02  0.45594000000E+02  0.51100000000E-03 0. -1.
         23    2    1    2    0    0  0.17763568394E-14  0.00000000000E+00  0.00000000000E+00  0.91188000000E+02  0.91188000000E+02 0.  0.
    9900012    2    3    3    0    0  0.70313191181E+01 -0.12436393487E+02  0.33936371238E+02  0.54367073554E+02  0.39999975782E+02 0.  0.
         12    1    3    3    0    0 -0.70313191181E+01  0.12436393487E+02 -0.33936371238E+02  0.36820926446E+02  0.00000000000E+00 0. -1.
         11    1    4    4    0    0 -0.10913321552E+02 -0.14342936354E+02  0.15226808815E+02  0.23593984774E+02  0.51100000000E-03 0. -1.
        -11    1    4    4    0    0  0.19552313844E+02 -0.24695819365E+01  0.15967431676E+02  0.25364358581E+02  0.51100000000E-03 0.  1.
        -12    1    4    4    0    0 -0.16076731748E+01  0.43761248043E+01  0.27421307474E+01  0.54087301999E+01  0.00000000000E+00 0.  1.
</event>
<event>
 8    1  0.2502431E-006  0.9118800E+02  0.7816164E-02  0.1184000E+00
        -11   -1    0    0    0    0  0.00000000000E+00  0.00000000000E+00  0.45593999997E+02  0.45594000000E+02  0.51100000000E-03 0.  1.
         11   -1    0    0    0    0 -0.00000000000E+00 -0.00000000000E+00 -0.45593999997E+02  0.45594000000E+02  0.51100000000E-03 0. -1.
         23    2    1    2    0    0 -0.22204460493E-15  0.00000000000E+00  0.00000000000E+00  0.91188000000E+02  0.91188000000E+02 0.  0.
    9900012    2    3    3    0    0  0.11213202552E+01  0.94107895476E+01 -0.35580320350E+02  0.54367088615E+02  0.40000010116E+02 0.  0.
        -12    1    3    3    0    0 -0.11213202552E+01 -0.94107895476E+01  0.35580320350E+02  0.36820911385E+02  0.00000000000E+00 0.  1.
         11    1    4    4    0    0 -0.13479634905E+02  0.27718066856E+01 -0.29175526661E+02  0.32258252055E+02  0.51100000000E-03 0. -1.
        -11    1    4    4    0    0  0.64637859165E+00  0.41058120068E+01 -0.67442411921E+01  0.79221390443E+01  0.51100000000E-03 0.  1.
        -12    1    4    4    0    0  0.13954576569E+02  0.25331708552E+01  0.33944750331E+00  0.14186697516E+02  0.00000000000E+00 0.  1.
</event>
<event>
 8    1  0.2502431E-006  0.9118800E+02  0.7816164E-02  0.1184000E+00
        -11   -1    0    0    0    0  0.00000000000E+00  0.00000000000E+00  0.45593999997E+02  0.45594000000E+02  0.51100000000E-03 0.  1.
         11   -1    0    0    0    0 -0.00000000000E+00 -0.00000000000E+00 -0.45593999997E+02  0.45594000000E+02  0.51100000000E-03 0. -1.
         23    2    1    2    0    0  0.00000000000E+00  0.00000000000E+00  0.00000000000E+00  0.91188000000E+02  0.91188000000E+02 0.  0.
    9900012    2    3    3    0    0  0.28814974431E+02 -0.12247590676E+02  0.19377111600E+02  0.54367099919E+02  0.40000035884E+02 0.  0.
         12    1    3    3    0    0 -0.28814974431E+02  0.12247590676E+02 -0.19377111600E+02  0.36820900081E+02  0.00000000000E+00 0. -1.
         11    1    4    4    0    0  0.34288946004E+01 -0.61965029407E+01  0.17149504825E+02  0.18554230862E+02  0.51100000000E-03 0.  1.
        -11    1    4    4    0    0  0.21486130820E+01 -0.82100243695E+01 -0.67137800984E+01  0.10821085056E+02  0.51100000000E-03 0. -1.
         12    1    4    4    0    0  0.23237466749E+02  0.21589366339E+01  0.89413868730E+01  0.24991784000E+02  0.00000000000E+00 0. -1.
</event>
<event>
 8    1  0.2502431E-006  0.9118800E+02  0.7816164E-02  0.1184000E+00
        -11   -1    0    0    0    0  0.00000000000E+00  0.00000000000E+00  0.45593999997E+02  0.45594000000E+02  0.51100000000E-03 0.  1.
         11   -1    0    0    0    0 -0.00000000000E+00 -0.00000000000E+00 -0.45593999997E+02  0.45594000000E+02  0.51100000000E-03 0. -1.
         23    2    1    2    0    0  0.35527136788E-14 -0.21371793224E-14 -0.35527136788E-14  0.91188000000E+02  0.91188000000E+02 0.  0.
    9900012    2    3    3    0    0  0.18889676086E+02  0.26821111286E-01 -0.31606320041E+02  0.54367081373E+02  0.39999993606E+02 0.  0.
        -12    1    3    3    0    0 -0.18889676086E+02 -0.26821111286E-01  0.31606320041E+02  0.36820918627E+02  0.00000000000E+00 0.  1.
         11    1    4    4    0    0  0.11768254788E+02 -0.14162418647E+02 -0.17511571887E+02  0.25411042342E+02  0.51100000000E-03 0.  1.
        -11    1    4    4    0    0  0.86242522879E+01  0.18587981483E+02 -0.12679890794E+02  0.24097103850E+02  0.51100000000E-03 0. -1.
         12    1    4    4    0    0 -0.15028309893E+01 -0.43987417252E+01 -0.14148573601E+01  0.48589351813E+01  0.00000000000E+00 0. -1.
</event>
<event>
 8    1  0.2502431E-006  0.9118800E+02  0.7816164E-02  0.1184000E+00
        -11   -1    0    0    0    0  0.00000000000E+00  0.00000000000E+00  0.45593999997E+02  0.45594000000E+02  0.51100000000E-03 0.  1.
         11   -1    0    0    0    0 -0.00000000000E+00 -0.00000000000E+00 -0.45593999997E+02  0.45594000000E+02  0.51100000000E-03 0. -1.
         23    2    1    2    0    0  0.71054273576E-14  0.00000000000E+00  0.00000000000E+00  0.91188000000E+02  0.91188000000E+02 0.  0.
    9900012    2    3    3    0    0 -0.33508418402E+02 -0.13459279572E+02 -0.71980911260E+01  0.54367097971E+02  0.40000031444E+02 0.  0.
         12    1    3    3    0    0  0.33508418402E+02  0.13459279572E+02  0.71980911260E+01  0.36820902029E+02  0.00000000000E+00 0. -1.
         11    1    4    4    0    0 -0.26934269052E+01 -0.10474667605E+01 -0.12278298266E+02  0.12613815588E+02  0.51100000000E-03 0. -1.
        -11    1    4    4    0    0 -0.10003939311E+02 -0.17247616906E+02  0.41583890100E+01  0.20367898519E+02  0.51100000000E-03 0.  1.
        -12    1    4    4    0    0 -0.20811052186E+02  0.48358040943E+01  0.92181813038E+00  0.21385383863E+02  0.00000000000E+00 0.  1.
</event>
<event>
 8    1  0.2502431E-006  0.9118800E+02  0.7816164E-02  0.1184000E+00
        -11   -1    0    0    0    0  0.00000000000E+00  0.00000000000E+00  0.45593999997E+02  0.45594000000E+02  0.51100000000E-03 0.  1.
         11   -1    0    0    0    0 -0.00000000000E+00 -0.00000000000E+00 -0.45593999997E+02  0.45594000000E+02  0.51100000000E-03 0. -1.
         23    2    1    2    0    0 -0.71054273576E-14  0.00000000000E+00  0.00000000000E+00  0.91188000000E+02  0.91188000000E+02 0.  0.
    9900012    2    3    3    0    0  0.33724451343E+02  0.13718012819E+02  0.55013634159E+01  0.54366980276E+02  0.39999763134E+02 0.  0.
        -12    1    3    3    0    0 -0.33724451343E+02 -0.13718012819E+02 -0.55013634159E+01  0.36821019724E+02  0.00000000000E+00 0.  1.
         11    1    4    4    0    0  0.19790625975E+02 -0.21017303520E+01  0.64200864379E+01  0.20911806644E+02  0.51100000000E-03 0. -1.
        -11    1    4    4    0    0  0.17654967555E+02  0.48411340218E+00 -0.55802117983E+00  0.17670416890E+02  0.51100000000E-03 0.  1.
         12    1    4    4    0    0 -0.37211421872E+01  0.15335629769E+02 -0.36070184214E+00  0.15784756742E+02  0.00000000000E+00 0. -1.
</event>
<event>
 8    1  0.2502431E-006  0.9118800E+02  0.7816164E-02  0.1184000E+00
        -11   -1    0    0    0    0  0.00000000000E+00  0.00000000000E+00  0.45593999997E+02  0.45594000000E+02  0.51100000000E-03 0. -1.
         11   -1    0    0    0    0 -0.00000000000E+00 -0.00000000000E+00 -0.45593999997E+02  0.45594000000E+02  0.51100000000E-03 0.  1.
         23    2    1    2    0    0  0.00000000000E+00  0.88817841970E-15  0.00000000000E+00  0.91188000000E+02  0.91188000000E+02 0.  0.
    9900012    2    3    3    0    0 -0.56285414277E+01  0.77649216368E+01  0.35550086178E+02  0.54367039748E+02  0.39999898712E+02 0.  0.
        -12    1    3    3    0    0  0.56285414277E+01 -0.77649216368E+01 -0.35550086178E+02  0.36820960252E+02  0.00000000000E+00 0.  1.
         11    1    4    4    0    0 -0.24837985240E+01 -0.66480305246E+01  0.15223386242E+02  0.16796340491E+02  0.51100000000E-03 0. -1.
        -11    1    4    4    0    0  0.51489162660E+01  0.18849776321E+02  0.60156331641E+01  0.20445372305E+02  0.51100000000E-03 0.  1.
         12    1    4    4    0    0 -0.82936591697E+01 -0.44368241591E+01  0.14311066773E+02  0.17125326952E+02  0.00000000000E+00 0. -1.
</event>
<event>
 8    1  0.2502431E-006  0.9118800E+02  0.7816164E-02  0.1184000E+00
        -11   -1    0    0    0    0  0.00000000000E+00  0.00000000000E+00  0.45593999997E+02  0.45594000000E+02  0.51100000000E-03 0. -1.
         11   -1    0    0    0    0 -0.00000000000E+00 -0.00000000000E+00 -0.45593999997E+02  0.45594000000E+02  0.51100000000E-03 0.  1.
         23    2    1    2    0    0  0.00000000000E+00  0.00000000000E+00  0.00000000000E+00  0.91188000000E+02  0.91188000000E+02 0.  0.
    9900012    2    3    3    0    0  0.25171552880E+01  0.32302579668E+02 -0.17492476352E+02  0.54367089462E+02  0.40000012045E+02 0.  0.
         12    1    3    3    0    0 -0.25171552880E+01 -0.32302579668E+02  0.17492476352E+02  0.36820910538E+02  0.00000000000E+00 0. -1.
         11    1    4    4    0    0 -0.29173762240E+01  0.44547394762E+01 -0.36471800222E+01  0.64542784421E+01  0.51100000000E-03 0. -1.
        -11    1    4    4    0    0  0.31315569994E+00 -0.44461624621E+01  0.75995664801E+01  0.88102121472E+01  0.51100000000E-03 0.  1.
        -12    1    4    4    0    0  0.51213758121E+01  0.32294002654E+02 -0.21444862810E+02  0.39102598872E+02  0.00000000000E+00 0.  1.
</event>
<event>
 8    1  0.2502431E-006  0.9118800E+02  0.7816164E-02  0.1184000E+00
        -11   -1    0    0    0    0  0.00000000000E+00  0.00000000000E+00  0.45593999997E+02  0.45594000000E+02  0.51100000000E-03 0. -1.
         11   -1    0    0    0    0 -0.00000000000E+00 -0.00000000000E+00 -0.45593999997E+02  0.45594000000E+02  0.51100000000E-03 0.  1.
         23    2    1    2    0    0  0.00000000000E+00 -0.13322676296E-14  0.00000000000E+00  0.91188000000E+02  0.91188000000E+02 0.  0.
    9900012    2    3    3    0    0  0.10404727240E+02  0.78008851541E+00 -0.35311582656E+02  0.54367153232E+02  0.40000157422E+02 0.  0.
         12    1    3    3    0    0 -0.10404727240E+02 -0.78008851541E+00  0.35311582656E+02  0.36820846768E+02  0.00000000000E+00 0. -1.
         11    1    4    4    0    0  0.69923711133E+01  0.10459885452E+02 -0.20651305769E+01  0.12750185175E+02  0.51100000000E-03 0. -1.
        -11    1    4    4    0    0  0.97057731427E-02 -0.13221571724E+02 -0.70884483890E+01  0.15001871679E+02  0.51100000000E-03 0.  1.
        -12    1    4    4    0    0  0.34026503538E+01  0.35417747880E+01 -0.26158003690E+02  0.26615096377E+02  0.00000000000E+00 0.  1.
</event>
<event>
 8    1  0.2502431E-006  0.9118800E+02  0.7816164E-02  0.1184000E+00
        -11   -1    0    0    0    0  0.00000000000E+00  0.00000000000E+00  0.45593999997E+02  0.45594000000E+02  0.51100000000E-03 0. -1.
         11   -1    0    0    0    0 -0.00000000000E+00 -0.00000000000E+00 -0.45593999997E+02  0.45594000000E+02  0.51100000000E-03 0.  1.
         23    2    1    2    0    0  0.00000000000E+00  0.35527136788E-14  0.00000000000E+00  0.91188000000E+02  0.91188000000E+02 0.  0.
    9900012    2    3    3    0    0  0.96496618205E+01  0.31250522271E+02  0.16913557759E+02  0.54367088122E+02  0.40000008992E+02 0.  0.
        -12    1    3    3    0    0 -0.96496618205E+01 -0.31250522271E+02 -0.16913557759E+02  0.36820911878E+02  0.00000000000E+00 0.  1.
         11    1    4    4    0    0  0.12911777268E+01  0.66100036052E+00  0.95943106782E+01  0.97033426741E+01  0.51100000000E-03 0. -1.
        -11    1    4    4    0    0  0.50806350781E+01 -0.54471055496E+01 -0.10519680017E+01  0.75226623348E+01  0.51100000000E-03 0.  1.
        -12    1    4    4    0    0  0.32778490156E+01  0.36036627460E+02  0.83712150828E+01  0.37141083113E+02  0.00000000000E+00 0.  1.
</event>
<event>
 8    1  0.2502431E-006  0.9118800E+02  0.7816164E-02  0.1184000E+00
        -11   -1    0    0    0    0  0.00000000000E+00  0.00000000000E+00  0.45593999997E+02  0.45594000000E+02  0.51100000000E-03 0.  1.
         11   -1    0    0    0    0 -0.00000000000E+00 -0.00000000000E+00 -0.45593999997E+02  0.45594000000E+02  0.51100000000E-03 0. -1.
         23    2    1    2    0    0 -0.44408920985E-15  0.00000000000E+00  0.00000000000E+00  0.91188000000E+02  0.91188000000E+02 0.  0.
    9900012    2    3    3    0    0 -0.81607780206E+00 -0.14869554514E+02  0.33675133563E+02  0.54367024254E+02  0.39999863391E+02 0.  0.
         12    1    3    3    0    0  0.81607780206E+00  0.14869554514E+02 -0.33675133563E+02  0.36820975746E+02  0.00000000000E+00 0. -1.
         11    1    4    4    0    0  0.12129926737E+01  0.41337399136E+01 -0.93652200266E+00  0.44086540602E+01  0.51100000000E-03 0. -1.
        -11    1    4    4    0    0  0.36074175859E+01 -0.16152940704E+02  0.19196676557E+01  0.16661815003E+02  0.51100000000E-03 0.  1.
        -12    1    4    4    0    0 -0.56364880617E+01 -0.28503537237E+01  0.32691987910E+02  0.33296555190E+02  0.00000000000E+00 0.  1.
</event>
<event>
 8    1  0.2502431E-006  0.9118800E+02  0.7816164E-02  0.1184000E+00
        -11   -1    0    0    0    0  0.00000000000E+00  0.00000000000E+00  0.45593999997E+02  0.45594000000E+02  0.51100000000E-03 0.  1.
         11   -1    0    0    0    0 -0.00000000000E+00 -0.00000000000E+00 -0.45593999997E+02  0.45594000000E+02  0.51100000000E-03 0. -1.
         23    2    1    2    0    0 -0.17763568394E-14  0.00000000000E+00 -0.17763568394E-14  0.91188000000E+02  0.91188000000E+02 0.  0.
    9900012    2    3    3    0    0  0.90168341742E+01  0.32698506260E+02  0.14327784180E+02  0.54367068322E+02  0.39999963853E+02 0.  0.
         12    1    3    3    0    0 -0.90168341742E+01 -0.32698506260E+02 -0.14327784180E+02  0.36820931678E+02  0.00000000000E+00 0. -1.
         11    1    4    4    0    0  0.13734332440E+02 -0.18437092021E+01  0.33360600090E+01  0.14253436352E+02  0.51100000000E-03 0. -1.
        -11    1    4    4    0    0 -0.78912999850E+01  0.15085175112E+02  0.11235674381E+02  0.20397928882E+02  0.51100000000E-03 0.  1.
         12    1    4    4    0    0  0.31738017194E+01  0.19457040350E+02 -0.24395021067E+00  0.19715703088E+02  0.00000000000E+00 0. -1.
</event>
<event>
 8    1  0.2502431E-006  0.9118800E+02  0.7816164E-02  0.1184000E+00
        -11   -1    0    0    0    0  0.00000000000E+00  0.00000000000E+00  0.45593999997E+02  0.45594000000E+02  0.51100000000E-03 0. -1.
         11   -1    0    0    0    0 -0.00000000000E+00 -0.00000000000E+00 -0.45593999997E+02  0.45594000000E+02  0.51100000000E-03 0.  1.
         23    2    1    2    0    0  0.35527136788E-14  0.17763568394E-14  0.00000000000E+00  0.91188000000E+02  0.91188000000E+02 0.  0.
    9900012    2    3    3    0    0 -0.24961479223E+02 -0.51911414844E+01  0.26566075760E+02  0.54367085071E+02  0.40000002037E+02 0.  0.
         12    1    3    3    0    0  0.24961479223E+02  0.51911414844E+01 -0.26566075760E+02  0.36820914929E+02  0.00000000000E+00 0. -1.
         11    1    4    4    0    0  0.28337561723E+01  0.32196016977E+01 -0.15461648327E+01  0.45592362395E+01  0.51100000000E-03 0. -1.
        -11    1    4    4    0    0 -0.10017350150E+02 -0.17174464028E+02  0.76038564174E+01  0.21286806979E+02  0.51100000000E-03 0.  1.
         12    1    4    4    0    0 -0.17777885246E+02  0.87637208462E+01  0.20508384176E+02  0.28521041853E+02  0.00000000000E+00 0. -1.
</event>
<event>
 8    1  0.2502431E-006  0.9118800E+02  0.7816164E-02  0.1184000E+00
        -11   -1    0    0    0    0  0.00000000000E+00  0.00000000000E+00  0.45593999997E+02  0.45594000000E+02  0.51100000000E-03 0. -1.
         11   -1    0    0    0    0 -0.00000000000E+00 -0.00000000000E+00 -0.45593999997E+02  0.45594000000E+02  0.51100000000E-03 0.  1.
         23    2    1    2    0    0  0.00000000000E+00 -0.35527136788E-14  0.00000000000E+00  0.91188000000E+02  0.91188000000E+02 0.  0.
    9900012    2    3    3    0    0  0.15988252289E+02  0.28387298004E+02  0.17155653375E+02  0.54367090968E+02  0.40000015479E+02 0.  0.
        -12    1    3    3    0    0 -0.15988252289E+02 -0.28387298004E+02 -0.17155653375E+02  0.36820909032E+02  0.00000000000E+00 0.  1.
         11    1    4    4    0    0  0.19134370982E+01  0.81803582548E+01  0.36313822011E-01  0.84012392932E+01  0.51100000000E-03 0. -1.
        -11    1    4    4    0    0  0.60226549368E+01  0.34862873470E+01 -0.10556391768E+02  0.12643732810E+02  0.51100000000E-03 0.  1.
        -12    1    4    4    0    0  0.80521602540E+01  0.16720652402E+02  0.27675731320E+02  0.33322118865E+02  0.00000000000E+00 0.  1.
</event>
<event>
 8    1  0.2502431E-006  0.9118800E+02  0.7816164E-02  0.1184000E+00
        -11   -1    0    0    0    0  0.00000000000E+00  0.00000000000E+00  0.45593999997E+02  0.45594000000E+02  0.51100000000E-03 0. -1.
         11   -1    0    0    0    0 -0.00000000000E+00 -0.00000000000E+00 -0.45593999997E+02  0.45594000000E+02  0.51100000000E-03 0.  1.
         23    2    1    2    0    0  0.88817841970E-15  0.88817841970E-15 -0.71054273576E-14  0.91188000000E+02  0.91188000000E+02 0.  0.
    9900012    2    3    3    0    0  0.65734954615E+01 -0.43844276119E+01  0.35963118830E+02  0.54367082520E+02  0.39999996221E+02 0.  0.
        -12    1    3    3    0    0 -0.65734954615E+01  0.43844276119E+01 -0.35963118830E+02  0.36820917480E+02  0.00000000000E+00 0.  1.
         11    1    4    4    0    0 -0.80547190380E+01 -0.14568630355E+00  0.26958559239E+01  0.84951375918E+01  0.51100000000E-03 0. -1.
        -11    1    4    4    0    0 -0.73048526059E+01  0.37132038556E+01  0.74464407773E+01  0.11072408725E+02  0.51100000000E-03 0.  1.
         12    1    4    4    0    0  0.21933067105E+02 -0.79519451639E+01  0.25820822129E+02  0.34799536203E+02  0.00000000000E+00 0. -1.
</event>
<event>
 8    1  0.2502431E-006  0.9118800E+02  0.7816164E-02  0.1184000E+00
        -11   -1    0    0    0    0  0.00000000000E+00  0.00000000000E+00  0.45593999997E+02  0.45594000000E+02  0.51100000000E-03 0. -1.
         11   -1    0    0    0    0 -0.00000000000E+00 -0.00000000000E+00 -0.45593999997E+02  0.45594000000E+02  0.51100000000E-03 0.  1.
         23    2    1    2    0    0  0.00000000000E+00 -0.17763568394E-14  0.00000000000E+00  0.91188000000E+02  0.91188000000E+02 0.  0.
    9900012    2    3    3    0    0  0.93545613190E+01 -0.82646857056E+01  0.34640551570E+02  0.54367073065E+02  0.39999974667E+02 0.  0.
        -12    1    3    3    0    0 -0.93545613190E+01  0.82646857056E+01 -0.34640551570E+02  0.36820926935E+02  0.00000000000E+00 0.  1.
         11    1    4    4    0    0  0.65200009513E+01 -0.41489525204E+01  0.21616354035E+02  0.22956284138E+02  0.51100000000E-03 0. -1.
        -11    1    4    4    0    0 -0.98289486697E+01 -0.11908655051E+01  0.15292177026E+02  0.18217493544E+02  0.51100000000E-03 0.  1.
         12    1    4    4    0    0  0.12663509037E+02 -0.29248676802E+01 -0.22679794906E+01  0.13193295383E+02  0.00000000000E+00 0. -1.
</event>
<event>
 8    1  0.2502431E-006  0.9118800E+02  0.7816164E-02  0.1184000E+00
        -11   -1    0    0    0    0  0.00000000000E+00  0.00000000000E+00  0.45593999997E+02  0.45594000000E+02  0.51100000000E-03 0. -1.
         11   -1    0    0    0    0 -0.00000000000E+00 -0.00000000000E+00 -0.45593999997E+02  0.45594000000E+02  0.51100000000E-03 0.  1.
         23    2    1    2    0    0 -0.71054273576E-14 -0.17763568394E-14  0.26645352591E-14  0.91188000000E+02  0.91188000000E+02 0.  0.
    9900012    2    3    3    0    0  0.33800212126E+02  0.14407068520E+02  0.24003317965E+01  0.54367088063E+02  0.40000008857E+02 0.  0.
        -12    1    3    3    0    0 -0.33800212126E+02 -0.14407068520E+02 -0.24003317965E+01  0.36820911937E+02  0.00000000000E+00 0.  1.
         11    1    4    4    0    0  0.26116576718E+02  0.86954398025E+01  0.16537411428E+02  0.32111870544E+02  0.51100000000E-03 0. -1.
        -11    1    4    4    0    0  0.59973891962E+01 -0.40783470456E+01 -0.61096463069E+01  0.94831097247E+01  0.51100000000E-03 0.  1.
         12    1    4    4    0    0  0.16862462118E+01  0.97899757633E+01 -0.80274333243E+01  0.12772107794E+02  0.00000000000E+00 0. -1.
</event>
<event>
 8    1  0.2502431E-006  0.9118800E+02  0.7816164E-02  0.1184000E+00
        -11   -1    0    0    0    0  0.00000000000E+00  0.00000000000E+00  0.45593999997E+02  0.45594000000E+02  0.51100000000E-03 0.  1.
         11   -1    0    0    0    0 -0.00000000000E+00 -0.00000000000E+00 -0.45593999997E+02  0.45594000000E+02  0.51100000000E-03 0. -1.
         23    2    1    2    0    0 -0.71054273576E-14 -0.17763568394E-14  0.35527136788E-14  0.91188000000E+02  0.91188000000E+02 0.  0.
    9900012    2    3    3    0    0  0.24355836998E+02  0.70243732584E+01 -0.26706433037E+02  0.54367052415E+02  0.39999927590E+02 0.  0.
        -12    1    3    3    0    0 -0.24355836998E+02 -0.70243732584E+01  0.26706433037E+02  0.36820947585E+02  0.00000000000E+00 0.  1.
         11    1    4    4    0    0  0.22032615980E+01 -0.36807006514E+01 -0.44345786605E+01  0.61698790192E+01  0.51100000000E-03 0. -1.
        -11    1    4    4    0    0  0.18014230151E+02 -0.33916556831E+01  0.33764533844E+01  0.18639105502E+02  0.51100000000E-03 0.  1.
         12    1    4    4    0    0  0.41383452486E+01  0.14096729593E+02 -0.25648307761E+02  0.29558067893E+02  0.00000000000E+00 0. -1.
</event>
<event>
 8    1  0.2502431E-006  0.9118800E+02  0.7816164E-02  0.1184000E+00
        -11   -1    0    0    0    0  0.00000000000E+00  0.00000000000E+00  0.45593999997E+02  0.45594000000E+02  0.51100000000E-03 0.  1.
         11   -1    0    0    0    0 -0.00000000000E+00 -0.00000000000E+00 -0.45593999997E+02  0.45594000000E+02  0.51100000000E-03 0. -1.
         23    2    1    2    0    0  0.00000000000E+00  0.00000000000E+00  0.00000000000E+00  0.91188000000E+02  0.91188000000E+02 0.  0.
    9900012    2    3    3    0    0 -0.22770591601E+02 -0.67547998049E+01  0.28136314333E+02  0.54367090906E+02  0.40000015339E+02 0.  0.
         12    1    3    3    0    0  0.22770591601E+02  0.67547998049E+01 -0.28136314333E+02  0.36820909094E+02  0.00000000000E+00 0. -1.
         11    1    4    4    0    0 -0.21031739102E+02 -0.43804516024E+01  0.10673084561E+02  0.23988270888E+02  0.51100000000E-03 0. -1.
        -11    1    4    4    0    0 -0.97680457517E+01  0.73642574839E+01  0.83595453735E+01  0.14816511236E+02  0.51100000000E-03 0.  1.
        -12    1    4    4    0    0  0.80291932527E+01 -0.97386056865E+01  0.91036843986E+01  0.15562308782E+02  0.00000000000E+00 0.  1.
</event>
<event>
 8    1  0.2502431E-006  0.9118800E+02  0.7816164E-02  0.1184000E+00
        -11   -1    0    0    0    0  0.00000000000E+00  0.00000000000E+00  0.45593999997E+02  0.45594000000E+02  0.51100000000E-03 0.  1.
         11   -1    0    0    0    0 -0.00000000000E+00 -0.00000000000E+00 -0.45593999997E+02  0.45594000000E+02  0.51100000000E-03 0. -1.
         23    2    1    2    0    0  0.00000000000E+00  0.35527136788E-14  0.00000000000E+00  0.91188000000E+02  0.91188000000E+02 0.  0.
    9900012    2    3    3    0    0 -0.33011589275E+02 -0.10825026115E+02  0.12199730140E+02  0.54367087024E+02  0.40000006489E+02 0.  0.
         12    1    3    3    0    0  0.33011589275E+02  0.10825026115E+02 -0.12199730140E+02  0.36820912976E+02  0.00000000000E+00 0. -1.
         11    1    4    4    0    0 -0.87186841539E+00 -0.81103428649E+01  0.15390478851E+02  0.17418514731E+02  0.51100000000E-03 0. -1.
        -11    1    4    4    0    0 -0.12730765500E+02  0.10407236029E+01  0.71502195891E+01  0.14638344724E+02  0.51100000000E-03 0.  1.
        -12    1    4    4    0    0 -0.19408955360E+02 -0.37554068534E+01 -0.10340968300E+02  0.22310227569E+02  0.00000000000E+00 0.  1.
</event>
<event>
 8    1  0.2502431E-006  0.9118800E+02  0.7816164E-02  0.1184000E+00
        -11   -1    0    0    0    0  0.00000000000E+00  0.00000000000E+00  0.45593999997E+02  0.45594000000E+02  0.51100000000E-03 0. -1.
         11   -1    0    0    0    0 -0.00000000000E+00 -0.00000000000E+00 -0.45593999997E+02  0.45594000000E+02  0.51100000000E-03 0.  1.
         23    2    1    2    0    0 -0.17763568394E-14  0.00000000000E+00  0.00000000000E+00  0.91188000000E+02  0.91188000000E+02 0.  0.
    9900012    2    3    3    0    0 -0.10108254087E+02  0.27045852033E+02  0.22850058395E+02  0.54367080925E+02  0.39999992584E+02 0.  0.
        -12    1    3    3    0    0  0.10108254087E+02 -0.27045852033E+02 -0.22850058395E+02  0.36820919075E+02  0.00000000000E+00 0.  1.
         11    1    4    4    0    0 -0.14384821201E+02  0.17811746622E+02  0.19335133426E+02  0.29967128384E+02  0.51100000000E-03 0. -1.
        -11    1    4    4    0    0  0.29956281871E+01  0.10274093540E+01  0.12068501918E+02  0.12477102910E+02  0.51100000000E-03 0.  1.
        -12    1    4    4    0    0  0.12809389268E+01  0.82066960570E+01 -0.85535769491E+01  0.11922849631E+02  0.00000000000E+00 0.  1.
</event>
<event>
 8    1  0.2502431E-006  0.9118800E+02  0.7816164E-02  0.1184000E+00
        -11   -1    0    0    0    0  0.00000000000E+00  0.00000000000E+00  0.45593999997E+02  0.45594000000E+02  0.51100000000E-03 0.  1.
         11   -1    0    0    0    0 -0.00000000000E+00 -0.00000000000E+00 -0.45593999997E+02  0.45594000000E+02  0.51100000000E-03 0. -1.
         23    2    1    2    0    0  0.17763568394E-14  0.00000000000E+00  0.00000000000E+00  0.91188000000E+02  0.91188000000E+02 0.  0.
    9900012    2    3    3    0    0 -0.34701314341E+01  0.20866342936E+02 -0.30138584448E+02  0.54367077249E+02  0.39999984205E+02 0.  0.
        -12    1    3    3    0    0  0.34701314341E+01 -0.20866342936E+02  0.30138584448E+02  0.36820922751E+02  0.00000000000E+00 0.  1.
         11    1    4    4    0    0  0.20072003686E+01 -0.13943575781E+00 -0.73090854107E+01  0.75809646782E+01  0.51100000000E-03 0. -1.
        -11    1    4    4    0    0 -0.17063531865E+02  0.11349777240E+02 -0.24117743026E+02  0.31648808698E+02  0.51100000000E-03 0.  1.
        -12    1    4    4    0    0  0.11586200062E+02  0.96560014537E+01  0.12882439885E+01  0.15137303872E+02  0.00000000000E+00 0.  1.
</event>
<event>
 8    1  0.2502431E-006  0.9118800E+02  0.7816164E-02  0.1184000E+00
        -11   -1    0    0    0    0  0.00000000000E+00  0.00000000000E+00  0.45593999997E+02  0.45594000000E+02  0.51100000000E-03 0.  1.
         11   -1    0    0    0    0 -0.00000000000E+00 -0.00000000000E+00 -0.45593999997E+02  0.45594000000E+02  0.51100000000E-03 0. -1.
         23    2    1    2    0    0 -0.17763568394E-14  0.00000000000E+00  0.00000000000E+00  0.91188000000E+02  0.91188000000E+02 0.  0.
    9900012    2    3    3    0    0 -0.11802427091E+02 -0.10688000015E+02 -0.33200140444E+02  0.54367082642E+02  0.39999996499E+02 0.  0.
        -12    1    3    3    0    0  0.11802427091E+02  0.10688000015E+02  0.33200140444E+02  0.36820917358E+02  0.00000000000E+00 0.  1.
         11    1    4    4    0    0  0.64261848205E+01 -0.49798944373E+01 -0.23343175417E+02  0.24718394745E+02  0.51100000000E-03 0. -1.
        -11    1    4    4    0    0 -0.41167245016E+01 -0.10288013404E+02  0.11990995826E+01  0.11145783081E+02  0.51100000000E-03 0.  1.
        -12    1    4    4    0    0 -0.14111887410E+02  0.45799078261E+01 -0.11056064610E+02  0.18502904816E+02  0.00000000000E+00 0.  1.
</event>
<event>
 8    1  0.2502431E-006  0.9118800E+02  0.7816164E-02  0.1184000E+00
        -11   -1    0    0    0    0  0.00000000000E+00  0.00000000000E+00  0.45593999997E+02  0.45594000000E+02  0.51100000000E-03 0. -1.
         11   -1    0    0    0    0 -0.00000000000E+00 -0.00000000000E+00 -0.45593999997E+02  0.45594000000E+02  0.51100000000E-03 0.  1.
         23    2    1    2    0    0  0.13322676296E-14  0.00000000000E+00  0.00000000000E+00  0.91188000000E+02  0.91188000000E+02 0.  0.
    9900012    2    3    3    0    0  0.36662811542E+01  0.42509748321E+01 -0.36390573337E+02  0.54366997402E+02  0.39999802176E+02 0.  0.
         12    1    3    3    0    0 -0.36662811542E+01 -0.42509748321E+01  0.36390573337E+02  0.36821002598E+02  0.00000000000E+00 0. -1.
         11    1    4    4    0    0  0.33333903477E+01  0.68438737283E+01  0.28562952415E+01  0.81307147033E+01  0.51100000000E-03 0. -1.
        -11    1    4    4    0    0  0.86164225209E+01  0.59970374168E+01 -0.93967386670E+01  0.14089211925E+02  0.51100000000E-03 0.  1.
        -12    1    4    4    0    0 -0.82835317143E+01 -0.85899363129E+01 -0.29850129912E+02  0.32147070773E+02  0.00000000000E+00 0.  1.
</event>
<event>
 8    1  0.2502431E-006  0.9118800E+02  0.7816164E-02  0.1184000E+00
        -11   -1    0    0    0    0  0.00000000000E+00  0.00000000000E+00  0.45593999997E+02  0.45594000000E+02  0.51100000000E-03 0. -1.
         11   -1    0    0    0    0 -0.00000000000E+00 -0.00000000000E+00 -0.45593999997E+02  0.45594000000E+02  0.51100000000E-03 0.  1.
         23    2    1    2    0    0  0.00000000000E+00  0.00000000000E+00  0.00000000000E+00  0.91188000000E+02  0.91188000000E+02 0.  0.
    9900012    2    3    3    0    0  0.26868738374E+02  0.83070357717E+01 -0.23766445062E+02  0.54367083987E+02  0.39999999565E+02 0.  0.
         12    1    3    3    0    0 -0.26868738374E+02 -0.83070357717E+01  0.23766445062E+02  0.36820916013E+02  0.00000000000E+00 0. -1.
         11    1    4    4    0    0  0.17006473062E+02  0.18506249090E+01  0.70722399016E+01  0.18511118714E+02  0.51100000000E-03 0. -1.
        -11    1    4    4    0    0  0.11491943668E+02  0.81298856174E+01 -0.30369579097E+02  0.33473439384E+02  0.51100000000E-03 0.  1.
         12    1    4    4    0    0 -0.16296783557E+01 -0.16734747547E+01 -0.46910586737E+00  0.23825258891E+01  0.00000000000E+00 0. -1.
</event>
<event>
 8    1  0.2502431E-006  0.9118800E+02  0.7816164E-02  0.1184000E+00
        -11   -1    0    0    0    0  0.00000000000E+00  0.00000000000E+00  0.45593999997E+02  0.45594000000E+02  0.51100000000E-03 0.  1.
         11   -1    0    0    0    0 -0.00000000000E+00 -0.00000000000E+00 -0.45593999997E+02  0.45594000000E+02  0.51100000000E-03 0. -1.
         23    2    1    2    0    0 -0.88817841970E-15  0.00000000000E+00  0.35527136788E-14  0.91188000000E+02  0.91188000000E+02 0.  0.
    9900012    2    3    3    0    0 -0.78902454912E+01  0.27805062498E+02  0.22812289085E+02  0.54367109086E+02  0.40000056782E+02 0.  0.
         12    1    3    3    0    0  0.78902454912E+01 -0.27805062498E+02 -0.22812289085E+02  0.36820890914E+02  0.00000000000E+00 0. -1.
         11    1    4    4    0    0 -0.53131949166E+01  0.14550263982E+02  0.67308808204E+01  0.16889197111E+02  0.51100000000E-03 0. -1.
        -11    1    4    4    0    0 -0.16699924290E+01  0.15957604540E+02 -0.45286433364E+01  0.16671611442E+02  0.51100000000E-03 0.  1.
        -12    1    4    4    0    0 -0.90705814563E+00 -0.27028060230E+01  0.20610051601E+02  0.20806300533E+02  0.00000000000E+00 0.  1.
</event>
<event>
 8    1  0.2502431E-006  0.9118800E+02  0.7816164E-02  0.1184000E+00
        -11   -1    0    0    0    0  0.00000000000E+00  0.00000000000E+00  0.45593999997E+02  0.45594000000E+02  0.51100000000E-03 0. -1.
         11   -1    0    0    0    0 -0.00000000000E+00 -0.00000000000E+00 -0.45593999997E+02  0.45594000000E+02  0.51100000000E-03 0.  1.
         23    2    1    2    0    0  0.00000000000E+00 -0.35527136788E-14  0.35527136788E-14  0.91188000000E+02  0.91188000000E+02 0.  0.
    9900012    2    3    3    0    0 -0.24286819100E+02 -0.13148082613E+02  0.24352770164E+02  0.54367094619E+02  0.40000023803E+02 0.  0.
        -12    1    3    3    0    0  0.24286819100E+02  0.13148082613E+02 -0.24352770164E+02  0.36820905381E+02  0.00000000000E+00 0.  1.
         11    1    4    4    0    0 -0.16693400391E+02 -0.55724968208E+01  0.13878710068E+02  0.22412963455E+02  0.51100000000E-03 0. -1.
        -11    1    4    4    0    0 -0.64596243280E+01  0.97909910300E+01  0.17434339608E+00  0.11731182706E+02  0.51100000000E-03 0.  1.
         12    1    4    4    0    0 -0.11337943811E+01 -0.17366576822E+02  0.10299716701E+02  0.20222948458E+02  0.00000000000E+00 0. -1.
</event>
<event>
 8    1  0.2502431E-006  0.9118800E+02  0.7816164E-02  0.1184000E+00
        -11   -1    0    0    0    0  0.00000000000E+00  0.00000000000E+00  0.45593999997E+02  0.45594000000E+02  0.51100000000E-03 0. -1.
         11   -1    0    0    0    0 -0.00000000000E+00 -0.00000000000E+00 -0.45593999997E+02  0.45594000000E+02  0.51100000000E-03 0.  1.
         23    2    1    2    0    0 -0.35527136788E-14  0.00000000000E+00  0.17763568394E-14  0.91188000000E+02  0.91188000000E+02 0.  0.
    9900012    2    3    3    0    0 -0.29049453852E+02 -0.20287115328E+02 -0.10017095210E+02  0.54367081844E+02  0.39999994679E+02 0.  0.
         12    1    3    3    0    0  0.29049453852E+02  0.20287115328E+02  0.10017095210E+02  0.36820918156E+02  0.00000000000E+00 0. -1.
         11    1    4    4    0    0 -0.35768169365E+01 -0.24916816931E+02 -0.11219479304E+00  0.25172484448E+02  0.51100000000E-03 0. -1.
        -11    1    4    4    0    0 -0.24191212524E+02  0.17755697723E+01 -0.80486145960E+01  0.25556752700E+02  0.51100000000E-03 0.  1.
         12    1    4    4    0    0 -0.12814243916E+01  0.28541318305E+01 -0.18562858211E+01  0.36378446953E+01  0.00000000000E+00 0. -1.
</event>
<event>
 8    1  0.2502431E-006  0.9118800E+02  0.7816164E-02  0.1184000E+00
        -11   -1    0    0    0    0  0.00000000000E+00  0.00000000000E+00  0.45593999997E+02  0.45594000000E+02  0.51100000000E-03 0. -1.
         11   -1    0    0    0    0 -0.00000000000E+00 -0.00000000000E+00 -0.45593999997E+02  0.45594000000E+02  0.51100000000E-03 0.  1.
         23    2    1    2    0    0  0.35527136788E-14  0.00000000000E+00 -0.35527136788E-14  0.91188000000E+02  0.91188000000E+02 0.  0.
    9900012    2    3    3    0    0  0.27818208744E+02  0.82481105400E+01  0.22669274885E+02  0.54367080824E+02  0.39999992353E+02 0.  0.
        -12    1    3    3    0    0 -0.27818208744E+02 -0.82481105400E+01 -0.22669274885E+02  0.36820919176E+02  0.00000000000E+00 0.  1.
         11    1    4    4    0    0  0.93931609883E+01  0.64565061002E+01 -0.74238225715E+01  0.13602613212E+02  0.51100000000E-03 0. -1.
        -11    1    4    4    0    0  0.97814366442E+01 -0.71027621759E+01  0.24161076585E+02  0.27016353480E+02  0.51100000000E-03 0.  1.
         12    1    4    4    0    0  0.86436111113E+01  0.88943666156E+01  0.59320208709E+01  0.13748114131E+02  0.00000000000E+00 0. -1.
</event>
<event>
 8    1  0.2502431E-006  0.9118800E+02  0.7816164E-02  0.1184000E+00
        -11   -1    0    0    0    0  0.00000000000E+00  0.00000000000E+00  0.45593999997E+02  0.45594000000E+02  0.51100000000E-03 0. -1.
         11   -1    0    0    0    0 -0.00000000000E+00 -0.00000000000E+00 -0.45593999997E+02  0.45594000000E+02  0.51100000000E-03 0.  1.
         23    2    1    2    0    0  0.00000000000E+00  0.00000000000E+00  0.35527136788E-14  0.91188000000E+02  0.91188000000E+02 0.  0.
    9900012    2    3    3    0    0 -0.20968726997E+02 -0.11356636766E+01  0.30245749704E+02  0.54367046468E+02  0.39999914033E+02 0.  0.
        -12    1    3    3    0    0  0.20968726997E+02  0.11356636766E+01 -0.30245749704E+02  0.36820953532E+02  0.00000000000E+00 0.  1.
         11    1    4    4    0    0 -0.13756798078E+02 -0.19389394718E+01 -0.30864493006E+01  0.14231484433E+02  0.51100000000E-03 0. -1.
        -11    1    4    4    0    0  0.67907810819E+00  0.18692979026E+01 -0.26328453338E+01  0.32995903592E+01  0.51100000000E-03 0.  1.
         12    1    4    4    0    0 -0.78910070278E+01 -0.10660221073E+01  0.35965044338E+02  0.36835971676E+02  0.00000000000E+00 0. -1.
</event>
<event>
 8    1  0.2502431E-006  0.9118800E+02  0.7816164E-02  0.1184000E+00
        -11   -1    0    0    0    0  0.00000000000E+00  0.00000000000E+00  0.45593999997E+02  0.45594000000E+02  0.51100000000E-03 0.  1.
         11   -1    0    0    0    0 -0.00000000000E+00 -0.00000000000E+00 -0.45593999997E+02  0.45594000000E+02  0.51100000000E-03 0. -1.
         23    2    1    2    0    0  0.00000000000E+00 -0.35527136788E-14 -0.35527136788E-14  0.91188000000E+02  0.91188000000E+02 0.  0.
    9900012    2    3    3    0    0  0.92452852348E+01 -0.29689130127E+02 -0.19719456345E+02  0.54367126771E+02  0.40000097100E+02 0.  0.
        -12    1    3    3    0    0 -0.92452852348E+01  0.29689130127E+02  0.19719456345E+02  0.36820873229E+02  0.00000000000E+00 0.  1.
         11    1    4    4    0    0  0.46922414790E+01 -0.63028380143E+01  0.35475247343E+00  0.78656688661E+01  0.51100000000E-03 0. -1.
        -11    1    4    4    0    0  0.15418453938E+02 -0.20732490415E+02 -0.23372801682E+02  0.34840389483E+02  0.51100000000E-03 0.  1.
         12    1    4    4    0    0 -0.10865410182E+02 -0.26538016976E+01  0.32985928627E+01  0.11661068422E+02  0.00000000000E+00 0. -1.
</event>
<event>
 8    1  0.2502431E-006  0.9118800E+02  0.7816164E-02  0.1184000E+00
        -11   -1    0    0    0    0  0.00000000000E+00  0.00000000000E+00  0.45593999997E+02  0.45594000000E+02  0.51100000000E-03 0. -1.
         11   -1    0    0    0    0 -0.00000000000E+00 -0.00000000000E+00 -0.45593999997E+02  0.45594000000E+02  0.51100000000E-03 0.  1.
         23    2    1    2    0    0  0.10408340856E-15  0.71054273576E-14  0.00000000000E+00  0.91188000000E+02  0.91188000000E+02 0.  0.
    9900012    2    3    3    0    0 -0.32882748844E-01 -0.27021711361E+02  0.25012138111E+02  0.54367068194E+02  0.39999963562E+02 0.  0.
        -12    1    3    3    0    0  0.32882748844E-01  0.27021711361E+02 -0.25012138111E+02  0.36820931806E+02  0.00000000000E+00 0.  1.
         11    1    4    4    0    0  0.76663303391E+01 -0.17632574277E+02  0.67121369094E+01  0.20364996407E+02  0.51100000000E-03 0. -1.
        -11    1    4    4    0    0 -0.91420655587E+01 -0.58003489061E+01 -0.38695665318E+01  0.11497606513E+02  0.51100000000E-03 0.  1.
        -12    1    4    4    0    0  0.14428524708E+01 -0.35887881788E+01  0.22169567733E+02  0.22504465275E+02  0.00000000000E+00 0.  1.
</event>
<event>
 8    1  0.2502431E-006  0.9118800E+02  0.7816164E-02  0.1184000E+00
        -11   -1    0    0    0    0  0.00000000000E+00  0.00000000000E+00  0.45593999997E+02  0.45594000000E+02  0.51100000000E-03 0.  1.
         11   -1    0    0    0    0 -0.00000000000E+00 -0.00000000000E+00 -0.45593999997E+02  0.45594000000E+02  0.51100000000E-03 0. -1.
         23    2    1    2    0    0 -0.35527136788E-14  0.00000000000E+00  0.00000000000E+00  0.91188000000E+02  0.91188000000E+02 0.  0.
    9900012    2    3    3    0    0 -0.16828879382E+02 -0.67006490334E+01  0.32057283648E+02  0.54367091353E+02  0.40000016357E+02 0.  0.
         12    1    3    3    0    0  0.16828879382E+02  0.67006490334E+01 -0.32057283648E+02  0.36820908647E+02  0.00000000000E+00 0. -1.
         11    1    4    4    0    0  0.86459523963E+01 -0.25370568970E+01  0.84432924608E+01  0.12348211951E+02  0.51100000000E-03 0. -1.
        -11    1    4    4    0    0 -0.11893661301E+02 -0.12667107128E+02  0.18056114423E+02  0.25058692113E+02  0.51100000000E-03 0.  1.
         12    1    4    4    0    0 -0.13581170477E+02  0.85035149913E+01  0.55578767646E+01  0.16960187289E+02  0.00000000000E+00 0. -1.
</event>
<event>
 8    1  0.2502431E-006  0.9118800E+02  0.7816164E-02  0.1184000E+00
        -11   -1    0    0    0    0  0.00000000000E+00  0.00000000000E+00  0.45593999997E+02  0.45594000000E+02  0.51100000000E-03 0.  1.
         11   -1    0    0    0    0 -0.00000000000E+00 -0.00000000000E+00 -0.45593999997E+02  0.45594000000E+02  0.51100000000E-03 0. -1.
         23    2    1    2    0    0  0.35527136788E-14 -0.35527136788E-14 -0.35527136788E-14  0.91188000000E+02  0.91188000000E+02 0.  0.
    9900012    2    3    3    0    0  0.18915834564E+02 -0.26051480977E+02 -0.17868304858E+02  0.54367288751E+02  0.40000466364E+02 0.  0.
        -12    1    3    3    0    0 -0.18915834564E+02  0.26051480977E+02  0.17868304858E+02  0.36820711249E+02  0.00000000000E+00 0.  1.
         11    1    4    4    0    0  0.61396369437E+01 -0.26130667466E+02 -0.95534844729E+01  0.28491682819E+02  0.51100000000E-03 0. -1.
        -11    1    4    4    0    0  0.95036594745E+01  0.86412908820E+01 -0.10338516803E+02  0.16488674339E+02  0.51100000000E-03 0.  1.
         12    1    4    4    0    0  0.32725381461E+01 -0.85621043926E+01  0.20236964177E+01  0.93869315933E+01  0.00000000000E+00 0. -1.
</event>
<event>
 8    1  0.2502431E-006  0.9118800E+02  0.7816164E-02  0.1184000E+00
        -11   -1    0    0    0    0  0.00000000000E+00  0.00000000000E+00  0.45593999997E+02  0.45594000000E+02  0.51100000000E-03 0.  1.
         11   -1    0    0    0    0 -0.00000000000E+00 -0.00000000000E+00 -0.45593999997E+02  0.45594000000E+02  0.51100000000E-03 0. -1.
         23    2    1    2    0    0 -0.17763568394E-14  0.00000000000E+00 -0.35527136788E-14  0.91188000000E+02  0.91188000000E+02 0.  0.
    9900012    2    3    3    0    0  0.81595986081E+01 -0.21955358179E+02  0.28410544109E+02  0.54367138810E+02  0.40000124544E+02 0.  0.
         12    1    3    3    0    0 -0.81595986081E+01  0.21955358179E+02 -0.28410544109E+02  0.36820861190E+02  0.00000000000E+00 0. -1.
         11    1    4    4    0    0  0.12948802144E+02 -0.43724408956E+01  0.45785088048E+01  0.14413620624E+02  0.51100000000E-03 0. -1.
        -11    1    4    4    0    0  0.80230189077E+01 -0.17475541989E+02  0.15078688883E+02  0.24436248871E+02  0.51100000000E-03 0.  1.
         12    1    4    4    0    0 -0.12812222444E+02 -0.10737529457E+00  0.87533464215E+01  0.15517269315E+02  0.00000000000E+00 0. -1.
</event>
<event>
 8    1  0.2502431E-006  0.9118800E+02  0.7816164E-02  0.1184000E+00
        -11   -1    0    0    0    0  0.00000000000E+00  0.00000000000E+00  0.45593999997E+02  0.45594000000E+02  0.51100000000E-03 0. -1.
         11   -1    0    0    0    0 -0.00000000000E+00 -0.00000000000E+00 -0.45593999997E+02  0.45594000000E+02  0.51100000000E-03 0.  1.
         23    2    1    2    0    0  0.00000000000E+00 -0.35527136788E-14  0.00000000000E+00  0.91188000000E+02  0.91188000000E+02 0.  0.
    9900012    2    3    3    0    0 -0.13966239880E+02  0.28257536338E+02 -0.19032503762E+02  0.54367076387E+02  0.39999982239E+02 0.  0.
         12    1    3    3    0    0  0.13966239880E+02 -0.28257536338E+02  0.19032503762E+02  0.36820923613E+02  0.00000000000E+00 0. -1.
         11    1    4    4    0    0 -0.20970654196E+02  0.13719186588E+02 -0.65192732246E+01  0.25893731707E+02  0.51100000000E-03 0. -1.
        -11    1    4    4    0    0  0.12920489591E+02  0.14266432921E+02 -0.11622271882E+02  0.22484380434E+02  0.51100000000E-03 0.  1.
        -12    1    4    4    0    0 -0.59160752746E+01  0.27191682873E+00 -0.89095865594E+00  0.59889642462E+01  0.00000000000E+00 0.  1.
</event>
<event>
 8    1  0.2502431E-006  0.9118800E+02  0.7816164E-02  0.1184000E+00
        -11   -1    0    0    0    0  0.00000000000E+00  0.00000000000E+00  0.45593999997E+02  0.45594000000E+02  0.51100000000E-03 0. -1.
         11   -1    0    0    0    0 -0.00000000000E+00 -0.00000000000E+00 -0.45593999997E+02  0.45594000000E+02  0.51100000000E-03 0.  1.
         23    2    1    2    0    0  0.88817841970E-15  0.00000000000E+00  0.00000000000E+00  0.91188000000E+02  0.91188000000E+02 0.  0.
    9900012    2    3    3    0    0 -0.22791137860E+01  0.32442470717E+02  0.17264733256E+02  0.54367091805E+02  0.40000017389E+02 0.  0.
        -12    1    3    3    0    0  0.22791137860E+01 -0.32442470717E+02 -0.17264733256E+02  0.36820908195E+02  0.00000000000E+00 0.  1.
         11    1    4    4    0    0 -0.12734070971E+02  0.60773859491E+01  0.11653665869E+02  0.18300248958E+02  0.51100000000E-03 0. -1.
        -11    1    4    4    0    0 -0.41541822820E+01  0.86375419998E+01  0.86305233822E+01  0.12897685697E+02  0.51100000000E-03 0.  1.
        -12    1    4    4    0    0  0.14609139467E+02  0.17727542768E+02 -0.30194559948E+01  0.23169157150E+02  0.00000000000E+00 0.  1.
</event>
<event>
 8    1  0.2502431E-006  0.9118800E+02  0.7816164E-02  0.1184000E+00
        -11   -1    0    0    0    0  0.00000000000E+00  0.00000000000E+00  0.45593999997E+02  0.45594000000E+02  0.51100000000E-03 0. -1.
         11   -1    0    0    0    0 -0.00000000000E+00 -0.00000000000E+00 -0.45593999997E+02  0.45594000000E+02  0.51100000000E-03 0.  1.
         23    2    1    2    0    0 -0.88817841970E-15  0.35527136788E-14  0.00000000000E+00  0.91188000000E+02  0.91188000000E+02 0.  0.
    9900012    2    3    3    0    0 -0.33915688988E+01 -0.16463452919E+02  0.32760189695E+02  0.54367108506E+02  0.40000055460E+02 0.  0.
        -12    1    3    3    0    0  0.33915688988E+01  0.16463452919E+02 -0.32760189695E+02  0.36820891494E+02  0.00000000000E+00 0.  1.
         11    1    4    4    0    0 -0.34656111038E+01 -0.15397154928E+02  0.15102798814E+02  0.21844389954E+02  0.51100000000E-03 0. -1.
        -11    1    4    4    0    0 -0.10156585949E+02 -0.95670818480E+01  0.10093501841E+02  0.17221035767E+02  0.51100000000E-03 0.  1.
         12    1    4    4    0    0  0.10230628154E+02  0.85007838570E+01  0.75638890403E+01  0.15301682784E+02  0.00000000000E+00 0. -1.
</event>
<event>
 8    1  0.2502431E-006  0.9118800E+02  0.7816164E-02  0.1184000E+00
        -11   -1    0    0    0    0  0.00000000000E+00  0.00000000000E+00  0.45593999997E+02  0.45594000000E+02  0.51100000000E-03 0.  1.
         11   -1    0    0    0    0 -0.00000000000E+00 -0.00000000000E+00 -0.45593999997E+02  0.45594000000E+02  0.51100000000E-03 0. -1.
         23    2    1    2    0    0 -0.33306690739E-15 -0.17624790516E-14  0.00000000000E+00  0.91188000000E+02  0.91188000000E+02 0.  0.
    9900012    2    3    3    0    0 -0.83955948187E+00 -0.68996119994E-01  0.36811276304E+02  0.54367086327E+02  0.40000004900E+02 0.  0.
         12    1    3    3    0    0  0.83955948187E+00  0.68996119994E-01 -0.36811276304E+02  0.36820913673E+02  0.00000000000E+00 0. -1.
         11    1    4    4    0    0 -0.90686035409E+00 -0.56628139188E+01 -0.21348106720E+01  0.61194177866E+01  0.51100000000E-03 0.  1.
        -11    1    4    4    0    0  0.56125650798E+01  0.15792023685E+02  0.20891942278E+02  0.26783617217E+02  0.51100000000E-03 0. -1.
        -12    1    4    4    0    0 -0.55452642076E+01 -0.10198205887E+02  0.18054144698E+02  0.21464051323E+02  0.00000000000E+00 0.  1.
</event>
<event>
 8    1  0.2502431E-006  0.9118800E+02  0.7816164E-02  0.1184000E+00
        -11   -1    0    0    0    0  0.00000000000E+00  0.00000000000E+00  0.45593999997E+02  0.45594000000E+02  0.51100000000E-03 0.  1.
         11   -1    0    0    0    0 -0.00000000000E+00 -0.00000000000E+00 -0.45593999997E+02  0.45594000000E+02  0.51100000000E-03 0. -1.
         23    2    1    2    0    0  0.00000000000E+00  0.00000000000E+00  0.10658141036E-13  0.91188000000E+02  0.91188000000E+02 0.  0.
    9900012    2    3    3    0    0 -0.19758142348E+02  0.36508856656E+01  0.30855580760E+02  0.54367081771E+02  0.39999994513E+02 0.  0.
         12    1    3    3    0    0  0.19758142348E+02 -0.36508856656E+01 -0.30855580760E+02  0.36820918229E+02  0.00000000000E+00 0. -1.
         11    1    4    4    0    0  0.67038194722E+01  0.18510059293E+01 -0.13595446009E+01  0.70863093532E+01  0.51100000000E-03 0. -1.
        -11    1    4    4    0    0 -0.32382515855E+01  0.27426524529E+01 -0.29216491505E+01  0.51521306106E+01  0.51100000000E-03 0.  1.
        -12    1    4    4    0    0 -0.23223710234E+02 -0.94277271665E+00  0.35136774512E+02  0.42128641807E+02  0.00000000000E+00 0.  1.
</event>
<event>
 8    1  0.2502431E-006  0.9118800E+02  0.7816164E-02  0.1184000E+00
        -11   -1    0    0    0    0  0.00000000000E+00  0.00000000000E+00  0.45593999997E+02  0.45594000000E+02  0.51100000000E-03 0.  1.
         11   -1    0    0    0    0 -0.00000000000E+00 -0.00000000000E+00 -0.45593999997E+02  0.45594000000E+02  0.51100000000E-03 0. -1.
         23    2    1    2    0    0 -0.44408920985E-15  0.00000000000E+00  0.17763568394E-14  0.91188000000E+02  0.91188000000E+02 0.  0.
    9900012    2    3    3    0    0 -0.36697382662E+01  0.36377130939E+02  0.43608714416E+01  0.54367084286E+02  0.40000000246E+02 0.  0.
         12    1    3    3    0    0  0.36697382662E+01 -0.36377130939E+02 -0.43608714416E+01  0.36820915714E+02  0.00000000000E+00 0. -1.
         11    1    4    4    0    0  0.21649670355E+01 -0.86552298960E+00  0.32886017229E+01  0.40312670295E+01  0.51100000000E-03 0. -1.
        -11    1    4    4    0    0 -0.14564963688E+02  0.23542547845E+02  0.12599729977E+02  0.30416162184E+02  0.51100000000E-03 0.  1.
        -12    1    4    4    0    0  0.87302583859E+01  0.13700106083E+02 -0.11527460258E+02  0.19919655072E+02  0.00000000000E+00 0.  1.
</event>
<event>
 8    1  0.2502431E-006  0.9118800E+02  0.7816164E-02  0.1184000E+00
        -11   -1    0    0    0    0  0.00000000000E+00  0.00000000000E+00  0.45593999997E+02  0.45594000000E+02  0.51100000000E-03 0. -1.
         11   -1    0    0    0    0 -0.00000000000E+00 -0.00000000000E+00 -0.45593999997E+02  0.45594000000E+02  0.51100000000E-03 0.  1.
         23    2    1    2    0    0  0.00000000000E+00  0.00000000000E+00  0.00000000000E+00  0.91188000000E+02  0.91188000000E+02 0.  0.
    9900012    2    3    3    0    0 -0.31094379991E+02 -0.64343998376E+01 -0.18641814985E+02  0.54367092430E+02  0.40000018814E+02 0.  0.
         12    1    3    3    0    0  0.31094379991E+02  0.64343998376E+01  0.18641814985E+02  0.36820907570E+02  0.00000000000E+00 0. -1.
         11    1    4    4    0    0  0.63024186223E+00 -0.62704921912E+01  0.24455461374E+01  0.67599536460E+01  0.51100000000E-03 0. -1.
        -11    1    4    4    0    0 -0.16749230170E+02 -0.14317602216E+02 -0.98438774766E+01  0.24133635626E+02  0.51100000000E-03 0.  1.
        -12    1    4    4    0    0 -0.14975391684E+02  0.14153694569E+02 -0.11243483646E+02  0.23473503159E+02  0.00000000000E+00 0.  1.
</event>
<event>
 8    1  0.2502431E-006  0.9118800E+02  0.7816164E-02  0.1184000E+00
        -11   -1    0    0    0    0  0.00000000000E+00  0.00000000000E+00  0.45593999997E+02  0.45594000000E+02  0.51100000000E-03 0.  1.
         11   -1    0    0    0    0 -0.00000000000E+00 -0.00000000000E+00 -0.45593999997E+02  0.45594000000E+02  0.51100000000E-03 0. -1.
         23    2    1    2    0    0 -0.17763568394E-14  0.35527136788E-14  0.00000000000E+00  0.91188000000E+02  0.91188000000E+02 0.  0.
    9900012    2    3    3    0    0 -0.13662107532E+02  0.22807473726E+02  0.25474416325E+02  0.54367083022E+02  0.39999997365E+02 0.  0.
         12    1    3    3    0    0  0.13662107532E+02 -0.22807473726E+02 -0.25474416325E+02  0.36820916978E+02  0.00000000000E+00 0. -1.
         11    1    4    4    0    0  0.27199123474E+01  0.16149727115E+02  0.22262269830E+02  0.27637298480E+02  0.51100000000E-03 0. -1.
        -11    1    4    4    0    0  0.24355142738E+01  0.67814340655E+01  0.32674774078E+01  0.79117625491E+01  0.51100000000E-03 0.  1.
         12    1    4    4    0    0 -0.18817534153E+02 -0.12368745393E+00 -0.55330912631E-01  0.18818021993E+02  0.00000000000E+00 0. -1.
</event>
<event>
 8    1  0.2502431E-006  0.9118800E+02  0.7816164E-02  0.1184000E+00
        -11   -1    0    0    0    0  0.00000000000E+00  0.00000000000E+00  0.45593999997E+02  0.45594000000E+02  0.51100000000E-03 0. -1.
         11   -1    0    0    0    0 -0.00000000000E+00 -0.00000000000E+00 -0.45593999997E+02  0.45594000000E+02  0.51100000000E-03 0.  1.
         23    2    1    2    0    0  0.11102230246E-15  0.77715611724E-15  0.00000000000E+00  0.91188000000E+02  0.91188000000E+02 0.  0.
    9900012    2    3    3    0    0 -0.71132337247E+00 -0.96723779849E+00 -0.36801404701E+02  0.54367015251E+02  0.39999842867E+02 0.  0.
         12    1    3    3    0    0  0.71132337247E+00  0.96723779849E+00  0.36801404701E+02  0.36820984749E+02  0.00000000000E+00 0. -1.
         11    1    4    4    0    0 -0.24639215560E+00  0.67518057453E+01  0.41644073328E+01  0.79366163200E+01  0.51100000000E-03 0. -1.
        -11    1    4    4    0    0 -0.10518409612E+01 -0.13782405990E+02 -0.36028721329E+02  0.38589245200E+02  0.51100000000E-03 0.  1.
        -12    1    4    4    0    0  0.58690974431E+00  0.60633624459E+01 -0.49370907054E+01  0.78411537309E+01  0.00000000000E+00 0.  1.
</event>
<event>
 8    1  0.2502431E-006  0.9118800E+02  0.7816164E-02  0.1184000E+00
        -11   -1    0    0    0    0  0.00000000000E+00  0.00000000000E+00  0.45593999997E+02  0.45594000000E+02  0.51100000000E-03 0.  1.
         11   -1    0    0    0    0 -0.00000000000E+00 -0.00000000000E+00 -0.45593999997E+02  0.45594000000E+02  0.51100000000E-03 0. -1.
         23    2    1    2    0    0  0.00000000000E+00  0.00000000000E+00  0.00000000000E+00  0.91188000000E+02  0.91188000000E+02 0.  0.
    9900012    2    3    3    0    0 -0.16195006679E+02  0.23782453300E+02  0.22976000378E+02  0.54367083123E+02  0.39999997596E+02 0.  0.
         12    1    3    3    0    0  0.16195006679E+02 -0.23782453300E+02 -0.22976000378E+02  0.36820916877E+02  0.00000000000E+00 0. -1.
         11    1    4    4    0    0 -0.72328817980E+01  0.12486967675E+02  0.13475255012E+01  0.14493266231E+02  0.51100000000E-03 0. -1.
        -11    1    4    4    0    0 -0.80286906000E+01  0.21326742494E+02  0.11264237186E+02  0.25419930327E+02  0.51100000000E-03 0.  1.
         12    1    4    4    0    0 -0.93343428087E+00 -0.10031256869E+02  0.10364237691E+02  0.14453886565E+02  0.00000000000E+00 0. -1.
</event>
<event>
 8    1  0.2502431E-006  0.9118800E+02  0.7816164E-02  0.1184000E+00
        -11   -1    0    0    0    0  0.00000000000E+00  0.00000000000E+00  0.45593999997E+02  0.45594000000E+02  0.51100000000E-03 0. -1.
         11   -1    0    0    0    0 -0.00000000000E+00 -0.00000000000E+00 -0.45593999997E+02  0.45594000000E+02  0.51100000000E-03 0.  1.
         23    2    1    2    0    0  0.35527136788E-14 -0.17763568394E-14  0.00000000000E+00  0.91188000000E+02  0.91188000000E+02 0.  0.
    9900012    2    3    3    0    0  0.30807865815E+02  0.15015934010E+02  0.13460215860E+02  0.54367078213E+02  0.39999986402E+02 0.  0.
        -12    1    3    3    0    0 -0.30807865815E+02 -0.15015934010E+02 -0.13460215860E+02  0.36820921787E+02  0.00000000000E+00 0.  1.
         11    1    4    4    0    0  0.11499959481E+02 -0.33128274499E+01  0.49948948706E+01  0.12968148241E+02  0.51100000000E-03 0. -1.
        -11    1    4    4    0    0 -0.80457781030E+01  0.58613853374E+01  0.49980179421E+01  0.11138696825E+02  0.51100000000E-03 0.  1.
        -12    1    4    4    0    0  0.27353684437E+02  0.12467376123E+02  0.34673030469E+01  0.30260233147E+02  0.00000000000E+00 0.  1.
</event>
<event>
 8    1  0.2502431E-006  0.9118800E+02  0.7816164E-02  0.1184000E+00
        -11   -1    0    0    0    0  0.00000000000E+00  0.00000000000E+00  0.45593999997E+02  0.45594000000E+02  0.51100000000E-03 0. -1.
         11   -1    0    0    0    0 -0.00000000000E+00 -0.00000000000E+00 -0.45593999997E+02  0.45594000000E+02  0.51100000000E-03 0.  1.
         23    2    1    2    0    0  0.00000000000E+00 -0.35527136788E-14  0.35527136788E-14  0.91188000000E+02  0.91188000000E+02 0.  0.
    9900012    2    3    3    0    0  0.91423767265E+01  0.26387881306E+02 -0.23997475120E+02  0.54367052916E+02  0.39999928733E+02 0.  0.
         12    1    3    3    0    0 -0.91423767265E+01 -0.26387881306E+02  0.23997475120E+02  0.36820947084E+02  0.00000000000E+00 0. -1.
         11    1    4    4    0    0 -0.69649479823E+00  0.11332348309E+02  0.28540933618E+01  0.11706966831E+02  0.51100000000E-03 0. -1.
        -11    1    4    4    0    0  0.67929601385E+01  0.21463514883E+02 -0.10511055839E+02  0.24845705337E+02  0.51100000000E-03 0.  1.
         12    1    4    4    0    0  0.30459113863E+01 -0.64079818860E+01 -0.16340512643E+02  0.17814380748E+02  0.00000000000E+00 0. -1.
</event>
<event>
 8    1  0.2502431E-006  0.9118800E+02  0.7816164E-02  0.1184000E+00
        -11   -1    0    0    0    0  0.00000000000E+00  0.00000000000E+00  0.45593999997E+02  0.45594000000E+02  0.51100000000E-03 0.  1.
         11   -1    0    0    0    0 -0.00000000000E+00 -0.00000000000E+00 -0.45593999997E+02  0.45594000000E+02  0.51100000000E-03 0. -1.
         23    2    1    2    0    0  0.00000000000E+00 -0.35527136788E-14 -0.35527136788E-14  0.91188000000E+02  0.91188000000E+02 0.  0.
    9900012    2    3    3    0    0 -0.10440555598E+02 -0.17842057977E+02  0.30470229705E+02  0.54367093815E+02  0.40000021969E+02 0.  0.
         12    1    3    3    0    0  0.10440555598E+02  0.17842057977E+02 -0.30470229705E+02  0.36820906185E+02  0.00000000000E+00 0. -1.
         11    1    4    4    0    0 -0.24838317927E+01  0.11209714642E+02  0.22377097511E+01  0.11697626593E+02  0.51100000000E-03 0. -1.
        -11    1    4    4    0    0 -0.86235841346E+01 -0.14487779606E+02  0.11160172057E+02  0.20219085089E+02  0.51100000000E-03 0.  1.
         12    1    4    4    0    0  0.66686032927E+00 -0.14563993013E+02  0.17072347897E+02  0.22450382132E+02  0.00000000000E+00 0. -1.
</event>
<event>
 8    1  0.2502431E-006  0.9118800E+02  0.7816164E-02  0.1184000E+00
        -11   -1    0    0    0    0  0.00000000000E+00  0.00000000000E+00  0.45593999997E+02  0.45594000000E+02  0.51100000000E-03 0.  1.
         11   -1    0    0    0    0 -0.00000000000E+00 -0.00000000000E+00 -0.45593999997E+02  0.45594000000E+02  0.51100000000E-03 0. -1.
         23    2    1    2    0    0  0.00000000000E+00 -0.26645352591E-14 -0.44408920985E-15  0.91188000000E+02  0.91188000000E+02 0.  0.
    9900012    2    3    3    0    0 -0.36165409649E+02 -0.62273740022E+01 -0.30103381434E+01  0.54367093197E+02  0.40000020561E+02 0.  0.
         12    1    3    3    0    0  0.36165409649E+02  0.62273740022E+01  0.30103381434E+01  0.36820906803E+02  0.00000000000E+00 0. -1.
         11    1    4    4    0    0 -0.94258579798E+01  0.60447541408E+01  0.50192991190E+01  0.12271072292E+02  0.51100000000E-03 0. -1.
        -11    1    4    4    0    0 -0.30833202172E+02 -0.31346732050E+01 -0.82842725929E+01  0.32080238543E+02  0.51100000000E-03 0.  1.
         12    1    4    4    0    0  0.40936505026E+01 -0.91374549381E+01  0.25463533057E+00  0.10015782363E+02  0.00000000000E+00 0. -1.
</event>
<event>
 8    1  0.2502431E-006  0.9118800E+02  0.7816164E-02  0.1184000E+00
        -11   -1    0    0    0    0  0.00000000000E+00  0.00000000000E+00  0.45593999997E+02  0.45594000000E+02  0.51100000000E-03 0. -1.
         11   -1    0    0    0    0 -0.00000000000E+00 -0.00000000000E+00 -0.45593999997E+02  0.45594000000E+02  0.51100000000E-03 0.  1.
         23    2    1    2    0    0  0.00000000000E+00  0.35527136788E-14  0.00000000000E+00  0.91188000000E+02  0.91188000000E+02 0.  0.
    9900012    2    3    3    0    0 -0.14168744378E+02 -0.17628673005E+02 -0.29056085701E+02  0.54367088205E+02  0.40000009181E+02 0.  0.
         12    1    3    3    0    0  0.14168744378E+02  0.17628673005E+02  0.29056085701E+02  0.36820911795E+02  0.00000000000E+00 0. -1.
         11    1    4    4    0    0  0.29602576768E+00  0.43689593423E+01 -0.36923621826E+01  0.57279119877E+01  0.51100000000E-03 0. -1.
        -11    1    4    4    0    0  0.23515813518E+01 -0.21366479590E+02 -0.23273911368E+02  0.31681719265E+02  0.51100000000E-03 0.  1.
        -12    1    4    4    0    0 -0.16816351497E+02 -0.63115275757E+00 -0.20898121501E+01  0.16957456953E+02  0.00000000000E+00 0.  1.
</event>
<event>
 8    1  0.2502431E-006  0.9118800E+02  0.7816164E-02  0.1184000E+00
        -11   -1    0    0    0    0  0.00000000000E+00  0.00000000000E+00  0.45593999997E+02  0.45594000000E+02  0.51100000000E-03 0. -1.
         11   -1    0    0    0    0 -0.00000000000E+00 -0.00000000000E+00 -0.45593999997E+02  0.45594000000E+02  0.51100000000E-03 0.  1.
         23    2    1    2    0    0 -0.35527136788E-14  0.00000000000E+00  0.35527136788E-14  0.91188000000E+02  0.91188000000E+02 0.  0.
    9900012    2    3    3    0    0  0.20025029207E+02  0.24694419438E+02  0.18573208189E+02  0.54367079200E+02  0.39999988653E+02 0.  0.
        -12    1    3    3    0    0 -0.20025029207E+02 -0.24694419438E+02 -0.18573208189E+02  0.36820920800E+02  0.00000000000E+00 0.  1.
         11    1    4    4    0    0 -0.67664322659E+01  0.56421397941E+01  0.13191120561E+02  0.15862660842E+02  0.51100000000E-03 0. -1.
        -11    1    4    4    0    0  0.32359149930E+00  0.10190236351E+02  0.19788070758E+01  0.10385629786E+02  0.51100000000E-03 0.  1.
        -12    1    4    4    0    0  0.26467869974E+02  0.88620432930E+01  0.34032805516E+01  0.28118788573E+02  0.00000000000E+00 0.  1.
</event>
<event>
 8    1  0.2502431E-006  0.9118800E+02  0.7816164E-02  0.1184000E+00
        -11   -1    0    0    0    0  0.00000000000E+00  0.00000000000E+00  0.45593999997E+02  0.45594000000E+02  0.51100000000E-03 0.  1.
         11   -1    0    0    0    0 -0.00000000000E+00 -0.00000000000E+00 -0.45593999997E+02  0.45594000000E+02  0.51100000000E-03 0. -1.
         23    2    1    2    0    0 -0.88817841970E-15  0.17763568394E-14  0.71054273576E-14  0.91188000000E+02  0.91188000000E+02 0.  0.
    9900012    2    3    3    0    0 -0.43462715144E+01  0.10309145219E+02  0.35080068169E+02  0.54367085645E+02  0.40000003345E+02 0.  0.
         12    1    3    3    0    0  0.43462715144E+01 -0.10309145219E+02 -0.35080068169E+02  0.36820914355E+02  0.00000000000E+00 0. -1.
         11    1    4    4    0    0 -0.77074937763E+01  0.90018741970E+01 -0.46378018216E+01  0.12725895071E+02  0.51100000000E-03 0. -1.
        -11    1    4    4    0    0  0.61952735448E+01 -0.23555435339E+01  0.13756118840E+02  0.15269603971E+02  0.51100000000E-03 0.  1.
        -12    1    4    4    0    0 -0.28340512829E+01  0.36628145555E+01  0.25961751150E+02  0.26371586602E+02  0.00000000000E+00 0.  1.
</event>
<event>
 8    1  0.2502431E-006  0.9118800E+02  0.7816164E-02  0.1184000E+00
        -11   -1    0    0    0    0  0.00000000000E+00  0.00000000000E+00  0.45593999997E+02  0.45594000000E+02  0.51100000000E-03 0. -1.
         11   -1    0    0    0    0 -0.00000000000E+00 -0.00000000000E+00 -0.45593999997E+02  0.45594000000E+02  0.51100000000E-03 0.  1.
         23    2    1    2    0    0  0.00000000000E+00  0.35527136788E-14  0.00000000000E+00  0.91188000000E+02  0.91188000000E+02 0.  0.
    9900012    2    3    3    0    0 -0.98541038717E+01  0.25951114327E+02 -0.24191252143E+02  0.54367076897E+02  0.39999983402E+02 0.  0.
         12    1    3    3    0    0  0.98541038717E+01 -0.25951114327E+02  0.24191252143E+02  0.36820923103E+02  0.00000000000E+00 0. -1.
         11    1    4    4    0    0 -0.53359074505E+01  0.22556775560E+02 -0.12181702001E+02  0.26185375611E+02  0.51100000000E-03 0. -1.
        -11    1    4    4    0    0 -0.31452996954E+01  0.97556846915E+01 -0.17088241182E+02  0.19926722784E+02  0.51100000000E-03 0.  1.
         12    1    4    4    0    0 -0.13728967257E+01 -0.63613459242E+01  0.50786910401E+01  0.82549785020E+01  0.00000000000E+00 0. -1.
</event>
<event>
 8    1  0.2502431E-006  0.9118800E+02  0.7816164E-02  0.1184000E+00
        -11   -1    0    0    0    0  0.00000000000E+00  0.00000000000E+00  0.45593999997E+02  0.45594000000E+02  0.51100000000E-03 0. -1.
         11   -1    0    0    0    0 -0.00000000000E+00 -0.00000000000E+00 -0.45593999997E+02  0.45594000000E+02  0.51100000000E-03 0.  1.
         23    2    1    2    0    0 -0.35527136788E-14  0.00000000000E+00  0.17763568394E-14  0.91188000000E+02  0.91188000000E+02 0.  0.
    9900012    2    3    3    0    0 -0.18752669416E+02  0.30083401096E+02 -0.99551858449E+01  0.54367090764E+02  0.40000015016E+02 0.  0.
         12    1    3    3    0    0  0.18752669416E+02 -0.30083401096E+02  0.99551858449E+01  0.36820909236E+02  0.00000000000E+00 0. -1.
         11    1    4    4    0    0 -0.67354888800E+01  0.59862845847E+00  0.88950836170E+01  0.11173525822E+02  0.51100000000E-03 0. -1.
        -11    1    4    4    0    0  0.43149712806E+01 -0.56799888225E+00 -0.39777579907E+01  0.58961138707E+01  0.51100000000E-03 0.  1.
        -12    1    4    4    0    0 -0.16332151817E+02  0.30052771519E+02 -0.14872511471E+02  0.37297451072E+02  0.00000000000E+00 0.  1.
</event>
<event>
 8    1  0.2502431E-006  0.9118800E+02  0.7816164E-02  0.1184000E+00
        -11   -1    0    0    0    0  0.00000000000E+00  0.00000000000E+00  0.45593999997E+02  0.45594000000E+02  0.51100000000E-03 0.  1.
         11   -1    0    0    0    0 -0.00000000000E+00 -0.00000000000E+00 -0.45593999997E+02  0.45594000000E+02  0.51100000000E-03 0. -1.
         23    2    1    2    0    0 -0.17763568394E-14  0.41633363423E-15  0.71054273576E-14  0.91188000000E+02  0.91188000000E+02 0.  0.
    9900012    2    3    3    0    0  0.12251820274E+02 -0.22838860347E+00 -0.34722044982E+02  0.54367086525E+02  0.40000005351E+02 0.  0.
        -12    1    3    3    0    0 -0.12251820274E+02  0.22838860347E+00  0.34722044982E+02  0.36820913475E+02  0.00000000000E+00 0.  1.
         11    1    4    4    0    0  0.42347726269E+01 -0.41870990953E+01 -0.26438754069E+02  0.27101158924E+02  0.51100000000E-03 0. -1.
        -11    1    4    4    0    0 -0.55063557081E+01  0.41379394216E+00  0.53858853467E+01  0.77135555899E+01  0.51100000000E-03 0.  1.
         12    1    4    4    0    0  0.13523403355E+02  0.35449165496E+01 -0.13669176260E+02  0.19552372011E+02  0.00000000000E+00 0. -1.
</event>
<event>
 8    1  0.2502431E-006  0.9118800E+02  0.7816164E-02  0.1184000E+00
        -11   -1    0    0    0    0  0.00000000000E+00  0.00000000000E+00  0.45593999997E+02  0.45594000000E+02  0.51100000000E-03 0.  1.
         11   -1    0    0    0    0 -0.00000000000E+00 -0.00000000000E+00 -0.45593999997E+02  0.45594000000E+02  0.51100000000E-03 0. -1.
         23    2    1    2    0    0  0.00000000000E+00 -0.88817841970E-15  0.35527136788E-14  0.91188000000E+02  0.91188000000E+02 0.  0.
    9900012    2    3    3    0    0 -0.28725858087E+02 -0.20620528359E+01 -0.22942433060E+02  0.54367051893E+02  0.39999926401E+02 0.  0.
        -12    1    3    3    0    0  0.28725858087E+02  0.20620528359E+01  0.22942433060E+02  0.36820948107E+02  0.00000000000E+00 0.  1.
         11    1    4    4    0    0  0.58007384285E+00  0.15180386399E+01  0.23409724952E+01  0.28497507715E+01  0.51100000000E-03 0. -1.
        -11    1    4    4    0    0 -0.24353210025E+01 -0.11444402823E+02  0.26186210417E+01  0.11990092609E+02  0.51100000000E-03 0.  1.
         12    1    4    4    0    0 -0.26870610928E+02  0.78643113468E+01 -0.27902026597E+02  0.39527208513E+02  0.00000000000E+00 0. -1.
</event>
<event>
 8    1  0.2502431E-006  0.9118800E+02  0.7816164E-02  0.1184000E+00
        -11   -1    0    0    0    0  0.00000000000E+00  0.00000000000E+00  0.45593999997E+02  0.45594000000E+02  0.51100000000E-03 0. -1.
         11   -1    0    0    0    0 -0.00000000000E+00 -0.00000000000E+00 -0.45593999997E+02  0.45594000000E+02  0.51100000000E-03 0.  1.
         23    2    1    2    0    0  0.00000000000E+00  0.88817841970E-15  0.00000000000E+00  0.91188000000E+02  0.91188000000E+02 0.  0.
    9900012    2    3    3    0    0  0.21614418742E+02 -0.75195248162E+01 -0.28845342094E+02  0.54367080517E+02  0.39999991655E+02 0.  0.
         12    1    3    3    0    0 -0.21614418742E+02  0.75195248162E+01  0.28845342094E+02  0.36820919483E+02  0.00000000000E+00 0. -1.
         11    1    4    4    0    0  0.78288136012E+00 -0.71114224258E+00  0.34143565555E+01  0.35744170800E+01  0.51100000000E-03 0. -1.
        -11    1    4    4    0    0  0.23635988488E+02 -0.92168693510E+01 -0.85126382662E+01  0.26759589738E+02  0.51100000000E-03 0.  1.
         12    1    4    4    0    0 -0.28044511058E+01  0.24084867774E+01 -0.23747060384E+02  0.24033073699E+02  0.00000000000E+00 0. -1.
</event>
<event>
 8    1  0.2502431E-006  0.9118800E+02  0.7816164E-02  0.1184000E+00
        -11   -1    0    0    0    0  0.00000000000E+00  0.00000000000E+00  0.45593999997E+02  0.45594000000E+02  0.51100000000E-03 0. -1.
         11   -1    0    0    0    0 -0.00000000000E+00 -0.00000000000E+00 -0.45593999997E+02  0.45594000000E+02  0.51100000000E-03 0.  1.
         23    2    1    2    0    0  0.00000000000E+00  0.00000000000E+00  0.00000000000E+00  0.91188000000E+02  0.91188000000E+02 0.  0.
    9900012    2    3    3    0    0  0.13738000110E+02 -0.20540001631E+02  0.27297538703E+02  0.54367082939E+02  0.39999997175E+02 0.  0.
        -12    1    3    3    0    0 -0.13738000110E+02  0.20540001631E+02 -0.27297538703E+02  0.36820917061E+02  0.00000000000E+00 0.  1.
         11    1    4    4    0    0  0.18996966422E+02 -0.16819428728E+02  0.14019108078E+02  0.28988158057E+02  0.51100000000E-03 0. -1.
        -11    1    4    4    0    0 -0.11392258114E+02 -0.80822301705E+01  0.72582100030E+01  0.15741270666E+02  0.51100000000E-03 0.  1.
        -12    1    4    4    0    0  0.61332918016E+01  0.43616572679E+01  0.60202206214E+01  0.96376542155E+01  0.00000000000E+00 0.  1.
</event>
<event>
 8    1  0.2502431E-006  0.9118800E+02  0.7816164E-02  0.1184000E+00
        -11   -1    0    0    0    0  0.00000000000E+00  0.00000000000E+00  0.45593999997E+02  0.45594000000E+02  0.51100000000E-03 0. -1.
         11   -1    0    0    0    0 -0.00000000000E+00 -0.00000000000E+00 -0.45593999997E+02  0.45594000000E+02  0.51100000000E-03 0.  1.
         23    2    1    2    0    0  0.00000000000E+00  0.00000000000E+00  0.00000000000E+00  0.91188000000E+02  0.91188000000E+02 0.  0.
    9900012    2    3    3    0    0 -0.23292018872E+02 -0.12965830280E+02 -0.25399923845E+02  0.54366986579E+02  0.39999777504E+02 0.  0.
         12    1    3    3    0    0  0.23292018872E+02  0.12965830280E+02  0.25399923845E+02  0.36821013421E+02  0.00000000000E+00 0. -1.
         11    1    4    4    0    0 -0.32353400790E+01 -0.81187002149E+01 -0.47214713334E+01  0.99334289357E+01  0.51100000000E-03 0. -1.
        -11    1    4    4    0    0 -0.26270674729E+02  0.15564880983E+01 -0.55896548352E+01  0.26903814736E+02  0.51100000000E-03 0.  1.
        -12    1    4    4    0    0  0.62139959363E+01 -0.64036181636E+01 -0.15088797677E+02  0.17529742908E+02  0.00000000000E+00 0.  1.
</event>
<event>
 8    1  0.2502431E-006  0.9118800E+02  0.7816164E-02  0.1184000E+00
        -11   -1    0    0    0    0  0.00000000000E+00  0.00000000000E+00  0.45593999997E+02  0.45594000000E+02  0.51100000000E-03 0.  1.
         11   -1    0    0    0    0 -0.00000000000E+00 -0.00000000000E+00 -0.45593999997E+02  0.45594000000E+02  0.51100000000E-03 0. -1.
         23    2    1    2    0    0  0.00000000000E+00  0.00000000000E+00  0.00000000000E+00  0.91188000000E+02  0.91188000000E+02 0.  0.
    9900012    2    3    3    0    0 -0.23385963532E+02 -0.20255078286E+02  0.19965183468E+02  0.54367081521E+02  0.39999993944E+02 0.  0.
         12    1    3    3    0    0  0.23385963532E+02  0.20255078286E+02 -0.19965183468E+02  0.36820918479E+02  0.00000000000E+00 0. -1.
         11    1    4    4    0    0 -0.86165178870E+01 -0.10522379724E+02 -0.78277071847E+00  0.13622686439E+02  0.51100000000E-03 0. -1.
        -11    1    4    4    0    0 -0.39940737752E+01 -0.78521514023E+01  0.26822794435E+02  0.28232449566E+02  0.51100000000E-03 0.  1.
        -12    1    4    4    0    0 -0.10775371870E+02 -0.18805471593E+01 -0.60748402482E+01  0.12511945516E+02  0.00000000000E+00 0.  1.
</event>
<event>
 8    1  0.2502431E-006  0.9118800E+02  0.7816164E-02  0.1184000E+00
        -11   -1    0    0    0    0  0.00000000000E+00  0.00000000000E+00  0.45593999997E+02  0.45594000000E+02  0.51100000000E-03 0.  1.
         11   -1    0    0    0    0 -0.00000000000E+00 -0.00000000000E+00 -0.45593999997E+02  0.45594000000E+02  0.51100000000E-03 0. -1.
         23    2    1    2    0    0  0.00000000000E+00 -0.35527136788E-14  0.88817841970E-15  0.91188000000E+02  0.91188000000E+02 0.  0.
    9900012    2    3    3    0    0 -0.25415964351E+02  0.25951491727E+02  0.60273493140E+01  0.54367080586E+02  0.39999991811E+02 0.  0.
        -12    1    3    3    0    0  0.25415964351E+02 -0.25951491727E+02 -0.60273493140E+01  0.36820919414E+02  0.00000000000E+00 0.  1.
         11    1    4    4    0    0 -0.34568783561E+02  0.17796446140E+02  0.86482577797E+01  0.39830976074E+02  0.51100000000E-03 0. -1.
        -11    1    4    4    0    0  0.30409221149E+01  0.59608639363E+01  0.14831505300E+01  0.68541113160E+01  0.51100000000E-03 0.  1.
         12    1    4    4    0    0  0.61118970951E+01  0.21941816505E+01 -0.41040589956E+01  0.76819931955E+01  0.00000000000E+00 0. -1.
</event>
<event>
 8    1  0.2502431E-006  0.9118800E+02  0.7816164E-02  0.1184000E+00
        -11   -1    0    0    0    0  0.00000000000E+00  0.00000000000E+00  0.45593999997E+02  0.45594000000E+02  0.51100000000E-03 0. -1.
         11   -1    0    0    0    0 -0.00000000000E+00 -0.00000000000E+00 -0.45593999997E+02  0.45594000000E+02  0.51100000000E-03 0.  1.
         23    2    1    2    0    0  0.17763568394E-14  0.00000000000E+00  0.35527136788E-14  0.91188000000E+02  0.91188000000E+02 0.  0.
    9900012    2    3    3    0    0 -0.99180819241E+01 -0.26319497900E+02  0.23763317370E+02  0.54367087855E+02  0.40000008383E+02 0.  0.
        -12    1    3    3    0    0  0.99180819241E+01  0.26319497900E+02 -0.23763317370E+02  0.36820912145E+02  0.00000000000E+00 0.  1.
         11    1    4    4    0    0 -0.68135403924E+00  0.72448277221E+01 -0.52236818954E-01  0.72769843339E+01  0.51100000000E-03 0.  1.
        -11    1    4    4    0    0  0.28330980953E+01 -0.11087614771E+00  0.73914401583E+01  0.79165728830E+01  0.51100000000E-03 0. -1.
        -12    1    4    4    0    0 -0.12069825980E+02 -0.33453449475E+02  0.16424114031E+02  0.39173530638E+02  0.00000000000E+00 0.  1.
</event>
<event>
 8    1  0.2502431E-006  0.9118800E+02  0.7816164E-02  0.1184000E+00
        -11   -1    0    0    0    0  0.00000000000E+00  0.00000000000E+00  0.45593999997E+02  0.45594000000E+02  0.51100000000E-03 0. -1.
         11   -1    0    0    0    0 -0.00000000000E+00 -0.00000000000E+00 -0.45593999997E+02  0.45594000000E+02  0.51100000000E-03 0.  1.
         23    2    1    2    0    0  0.00000000000E+00  0.35527136788E-14  0.00000000000E+00  0.91188000000E+02  0.91188000000E+02 0.  0.
    9900012    2    3    3    0    0 -0.12745801507E+02  0.10471620467E+02 -0.32919138831E+02  0.54367082132E+02  0.39999995336E+02 0.  0.
         12    1    3    3    0    0  0.12745801507E+02 -0.10471620467E+02  0.32919138831E+02  0.36820917868E+02  0.00000000000E+00 0. -1.
         11    1    4    4    0    0  0.74851217986E+01  0.72193731371E+01 -0.16960506214E+01  0.10536744507E+02  0.51100000000E-03 0. -1.
        -11    1    4    4    0    0 -0.17764074547E+02 -0.77697419469E+01 -0.18213926561E+02  0.26602224634E+02  0.51100000000E-03 0.  1.
        -12    1    4    4    0    0 -0.24668487581E+01  0.11021989277E+02 -0.13009161649E+02  0.17228112991E+02  0.00000000000E+00 0.  1.
</event>
<event>
 8    1  0.2502431E-006  0.9118800E+02  0.7816164E-02  0.1184000E+00
        -11   -1    0    0    0    0  0.00000000000E+00  0.00000000000E+00  0.45593999997E+02  0.45594000000E+02  0.51100000000E-03 0. -1.
         11   -1    0    0    0    0 -0.00000000000E+00 -0.00000000000E+00 -0.45593999997E+02  0.45594000000E+02  0.51100000000E-03 0.  1.
         23    2    1    2    0    0 -0.17763568394E-14  0.35527136788E-14  0.00000000000E+00  0.91188000000E+02  0.91188000000E+02 0.  0.
    9900012    2    3    3    0    0  0.84833646046E+01 -0.14766925393E+02 -0.32645864329E+02  0.54367054624E+02  0.39999932626E+02 0.  0.
         12    1    3    3    0    0 -0.84833646046E+01  0.14766925393E+02  0.32645864329E+02  0.36820945376E+02  0.00000000000E+00 0. -1.
         11    1    4    4    0    0  0.11476885360E+02 -0.60502187042E+01 -0.12434878945E-02  0.12973975711E+02  0.51100000000E-03 0. -1.
        -11    1    4    4    0    0  0.38409566482E+01 -0.12613161007E+02 -0.30516625768E+02  0.33243183168E+02  0.51100000000E-03 0.  1.
         12    1    4    4    0    0 -0.68344774035E+01  0.38964543186E+01 -0.21279950730E+01  0.81498957458E+01  0.00000000000E+00 0. -1.
</event>
<event>
 8    1  0.2502431E-006  0.9118800E+02  0.7816164E-02  0.1184000E+00
        -11   -1    0    0    0    0  0.00000000000E+00  0.00000000000E+00  0.45593999997E+02  0.45594000000E+02  0.51100000000E-03 0.  1.
         11   -1    0    0    0    0 -0.00000000000E+00 -0.00000000000E+00 -0.45593999997E+02  0.45594000000E+02  0.51100000000E-03 0. -1.
         23    2    1    2    0    0  0.00000000000E+00  0.35527136788E-14 -0.44408920985E-15  0.91188000000E+02  0.91188000000E+02 0.  0.
    9900012    2    3    3    0    0  0.27525096042E+02 -0.24300777421E+02 -0.27605748283E+01  0.54367089246E+02  0.40000011553E+02 0.  0.
         12    1    3    3    0    0 -0.27525096042E+02  0.24300777421E+02  0.27605748283E+01  0.36820910754E+02  0.00000000000E+00 0. -1.
         11    1    4    4    0    0  0.28974870256E+02 -0.16791413338E+02 -0.69675952994E+01  0.34205877459E+02  0.51100000000E-03 0. -1.
        -11    1    4    4    0    0  0.13840950258E+01  0.58405588466E+01  0.52148384746E+00  0.60249308997E+01  0.51100000000E-03 0.  1.
         12    1    4    4    0    0 -0.28338692400E+01 -0.13349922930E+02  0.36855366236E+01  0.14136280887E+02  0.00000000000E+00 0. -1.
</event>
<event>
 8    1  0.2502431E-006  0.9118800E+02  0.7816164E-02  0.1184000E+00
        -11   -1    0    0    0    0  0.00000000000E+00  0.00000000000E+00  0.45593999997E+02  0.45594000000E+02  0.51100000000E-03 0. -1.
         11   -1    0    0    0    0 -0.00000000000E+00 -0.00000000000E+00 -0.45593999997E+02  0.45594000000E+02  0.51100000000E-03 0.  1.
         23    2    1    2    0    0  0.35527136788E-14  0.00000000000E+00 -0.35527136788E-14  0.91188000000E+02  0.91188000000E+02 0.  0.
    9900012    2    3    3    0    0  0.28470985230E+02  0.90775564749E+01 -0.21512592978E+02  0.54366936895E+02  0.39999664238E+02 0.  0.
         12    1    3    3    0    0 -0.28470985230E+02 -0.90775564749E+01  0.21512592978E+02  0.36821063105E+02  0.00000000000E+00 0. -1.
         11    1    4    4    0    0 -0.24218383214E+01 -0.54592635977E+01 -0.94980512056E+00  0.60473952999E+01  0.51100000000E-03 0.  1.
        -11    1    4    4    0    0  0.17352272635E+02  0.92454598746E+00  0.33042491530E+01  0.17688250722E+02  0.51100000000E-03 0. -1.
        -12    1    4    4    0    0  0.13540550917E+02  0.13612274085E+02 -0.23867037011E+02  0.30631290873E+02  0.00000000000E+00 0.  1.
</event>
<event>
 8    1  0.2502431E-006  0.9118800E+02  0.7816164E-02  0.1184000E+00
        -11   -1    0    0    0    0  0.00000000000E+00  0.00000000000E+00  0.45593999997E+02  0.45594000000E+02  0.51100000000E-03 0. -1.
         11   -1    0    0    0    0 -0.00000000000E+00 -0.00000000000E+00 -0.45593999997E+02  0.45594000000E+02  0.51100000000E-03 0.  1.
         23    2    1    2    0    0  0.00000000000E+00  0.00000000000E+00  0.00000000000E+00  0.91188000000E+02  0.91188000000E+02 0.  0.
    9900012    2    3    3    0    0  0.35152092612E+02  0.10241928605E+02 -0.39003795302E+01  0.54367086418E+02  0.40000005107E+02 0.  0.
        -12    1    3    3    0    0 -0.35152092612E+02 -0.10241928605E+02  0.39003795302E+01  0.36820913582E+02  0.00000000000E+00 0.  1.
         11    1    4    4    0    0  0.32733826305E+02  0.30135292100E+00  0.49646798183E+01  0.33109549138E+02  0.51100000000E-03 0. -1.
        -11    1    4    4    0    0 -0.30851481633E+01 -0.33941892999E+01 -0.58391421221E+00  0.46238097129E+01  0.51100000000E-03 0.  1.
        -12    1    4    4    0    0  0.55034144699E+01  0.13334764984E+02 -0.82811451363E+01  0.16633727567E+02  0.00000000000E+00 0.  1.
</event>
<event>
 8    1  0.2502431E-006  0.9118800E+02  0.7816164E-02  0.1184000E+00
        -11   -1    0    0    0    0  0.00000000000E+00  0.00000000000E+00  0.45593999997E+02  0.45594000000E+02  0.51100000000E-03 0.  1.
         11   -1    0    0    0    0 -0.00000000000E+00 -0.00000000000E+00 -0.45593999997E+02  0.45594000000E+02  0.51100000000E-03 0. -1.
         23    2    1    2    0    0  0.00000000000E+00  0.17763568394E-14 -0.22204460493E-15  0.91188000000E+02  0.91188000000E+02 0.  0.
    9900012    2    3    3    0    0  0.34585576975E+02  0.12575052997E+02 -0.12187196476E+01  0.54367090585E+02  0.40000014606E+02 0.  0.
         12    1    3    3    0    0 -0.34585576975E+02 -0.12575052997E+02  0.12187196476E+01  0.36820909415E+02  0.00000000000E+00 0. -1.
         11    1    4    4    0    0  0.13675683985E+01 -0.93178949431E+01 -0.53937810946E+01  0.10852938968E+02  0.51100000000E-03 0. -1.
        -11    1    4    4    0    0  0.12420312768E+02  0.17223002397E+02 -0.19835232164E+01  0.21326751873E+02  0.51100000000E-03 0.  1.
         12    1    4    4    0    0  0.20797695808E+02  0.46699455429E+01  0.61585846634E+01  0.22187399743E+02  0.00000000000E+00 0. -1.
</event>
<event>
 8    1  0.2502431E-006  0.9118800E+02  0.7816164E-02  0.1184000E+00
        -11   -1    0    0    0    0  0.00000000000E+00  0.00000000000E+00  0.45593999997E+02  0.45594000000E+02  0.51100000000E-03 0.  1.
         11   -1    0    0    0    0 -0.00000000000E+00 -0.00000000000E+00 -0.45593999997E+02  0.45594000000E+02  0.51100000000E-03 0. -1.
         23    2    1    2    0    0  0.00000000000E+00  0.00000000000E+00 -0.35527136788E-14  0.91188000000E+02  0.91188000000E+02 0.  0.
    9900012    2    3    3    0    0  0.61904914415E+01  0.23223837551E+02  0.27894663533E+02  0.54367067522E+02  0.39999962031E+02 0.  0.
         12    1    3    3    0    0 -0.61904914415E+01 -0.23223837551E+02 -0.27894663533E+02  0.36820932478E+02  0.00000000000E+00 0. -1.
         11    1    4    4    0    0  0.36880611372E+00  0.13860116603E+02 -0.54463842545E+01  0.14896373784E+02  0.51100000000E-03 0. -1.
        -11    1    4    4    0    0  0.93244781816E+01  0.17324097762E+01  0.69002372891E+01  0.11728615089E+02  0.51100000000E-03 0.  1.
         12    1    4    4    0    0 -0.35027928539E+01  0.76313111713E+01  0.26440810499E+02  0.27742078650E+02  0.00000000000E+00 0. -1.
</event>
<event>
 8    1  0.2502431E-006  0.9118800E+02  0.7816164E-02  0.1184000E+00
        -11   -1    0    0    0    0  0.00000000000E+00  0.00000000000E+00  0.45593999997E+02  0.45594000000E+02  0.51100000000E-03 0.  1.
         11   -1    0    0    0    0 -0.00000000000E+00 -0.00000000000E+00 -0.45593999997E+02  0.45594000000E+02  0.51100000000E-03 0. -1.
         23    2    1    2    0    0  0.00000000000E+00  0.00000000000E+00  0.00000000000E+00  0.91188000000E+02  0.91188000000E+02 0.  0.
    9900012    2    3    3    0    0  0.13934282106E+02 -0.27501004730E+02 -0.20132367669E+02  0.54367058853E+02  0.39999942267E+02 0.  0.
        -12    1    3    3    0    0 -0.13934282106E+02  0.27501004730E+02  0.20132367669E+02  0.36820941147E+02  0.00000000000E+00 0.  1.
         11    1    4    4    0    0  0.11557572744E+02 -0.23168154055E+02 -0.87640437261E+00  0.25905770302E+02  0.51100000000E-03 0.  1.
        -11    1    4    4    0    0 -0.38523591779E+01  0.39141091861E+01  0.11283976049E+01  0.56066213865E+01  0.51100000000E-03 0. -1.
         12    1    4    4    0    0  0.62290685399E+01 -0.82469598613E+01 -0.20384360901E+02  0.22854667164E+02  0.00000000000E+00 0. -1.
</event>
<event>
 8    1  0.2502431E-006  0.9118800E+02  0.7816164E-02  0.1184000E+00
        -11   -1    0    0    0    0  0.00000000000E+00  0.00000000000E+00  0.45593999997E+02  0.45594000000E+02  0.51100000000E-03 0. -1.
         11   -1    0    0    0    0 -0.00000000000E+00 -0.00000000000E+00 -0.45593999997E+02  0.45594000000E+02  0.51100000000E-03 0.  1.
         23    2    1    2    0    0  0.00000000000E+00  0.88817841970E-15 -0.17763568394E-14  0.91188000000E+02  0.91188000000E+02 0.  0.
    9900012    2    3    3    0    0  0.34011085448E+02 -0.49194545463E+01 -0.13222116697E+02  0.54367091044E+02  0.40000015654E+02 0.  0.
         12    1    3    3    0    0 -0.34011085448E+02  0.49194545463E+01  0.13222116697E+02  0.36820908956E+02  0.00000000000E+00 0. -1.
         11    1    4    4    0    0  0.34853616441E+01 -0.86217849632E+01 -0.19387107945E+02  0.21502159810E+02  0.51100000000E-03 0. -1.
        -11    1    4    4    0    0  0.27884561626E+02  0.51801211366E+01  0.30555113880E+01  0.28525752965E+02  0.51100000000E-03 0.  1.
         12    1    4    4    0    0  0.26411621775E+01 -0.14777907196E+01  0.31094798604E+01  0.43391782703E+01  0.00000000000E+00 0. -1.
</event>
<event>
 8    1  0.2502431E-006  0.9118800E+02  0.7816164E-02  0.1184000E+00
        -11   -1    0    0    0    0  0.00000000000E+00  0.00000000000E+00  0.45593999997E+02  0.45594000000E+02  0.51100000000E-03 0.  1.
         11   -1    0    0    0    0 -0.00000000000E+00 -0.00000000000E+00 -0.45593999997E+02  0.45594000000E+02  0.51100000000E-03 0. -1.
         23    2    1    2    0    0  0.00000000000E+00  0.00000000000E+00  0.00000000000E+00  0.91188000000E+02  0.91188000000E+02 0.  0.
    9900012    2    3    3    0    0  0.63985273059E+01 -0.28615425946E+02  0.22270964567E+02  0.54367087240E+02  0.40000006981E+02 0.  0.
         12    1    3    3    0    0 -0.63985273059E+01  0.28615425946E+02 -0.22270964567E+02  0.36820912760E+02  0.00000000000E+00 0. -1.
         11    1    4    4    0    0  0.14195914705E+02 -0.18207288672E+02  0.66426591040E+01  0.24024035367E+02  0.51100000000E-03 0. -1.
        -11    1    4    4    0    0  0.46027095548E+01 -0.10535811594E+02  0.13548064438E+02  0.17769026745E+02  0.51100000000E-03 0.  1.
         12    1    4    4    0    0 -0.12400096954E+02  0.12767432002E+00  0.20802410246E+01  0.12574025128E+02  0.00000000000E+00 0. -1.
</event>
<event>
 8    1  0.2502431E-006  0.9118800E+02  0.7816164E-02  0.1184000E+00
        -11   -1    0    0    0    0  0.00000000000E+00  0.00000000000E+00  0.45593999997E+02  0.45594000000E+02  0.51100000000E-03 0.  1.
         11   -1    0    0    0    0 -0.00000000000E+00 -0.00000000000E+00 -0.45593999997E+02  0.45594000000E+02  0.51100000000E-03 0. -1.
         23    2    1    2    0    0  0.35527136788E-14  0.00000000000E+00  0.00000000000E+00  0.91188000000E+02  0.91188000000E+02 0.  0.
    9900012    2    3    3    0    0 -0.70886140823E+01 -0.30755019495E+02  0.18964615918E+02  0.54367131859E+02  0.40000108699E+02 0.  0.
         12    1    3    3    0    0  0.70886140823E+01  0.30755019495E+02 -0.18964615918E+02  0.36820868141E+02  0.00000000000E+00 0. -1.
         11    1    4    4    0    0 -0.81411516982E+01 -0.89737355404E+01 -0.44881028982E+01  0.12920888066E+02  0.51100000000E-03 0. -1.
        -11    1    4    4    0    0  0.10352827148E+02 -0.17755636466E+02  0.23620248731E+02  0.31310697959E+02  0.51100000000E-03 0.  1.
        -12    1    4    4    0    0 -0.93002895322E+01 -0.40256474888E+01 -0.16752991533E+00  0.10135545834E+02  0.00000000000E+00 0.  1.
</event>
<event>
 8    1  0.2502431E-006  0.9118800E+02  0.7816164E-02  0.1184000E+00
        -11   -1    0    0    0    0  0.00000000000E+00  0.00000000000E+00  0.45593999997E+02  0.45594000000E+02  0.51100000000E-03 0.  1.
         11   -1    0    0    0    0 -0.00000000000E+00 -0.00000000000E+00 -0.45593999997E+02  0.45594000000E+02  0.51100000000E-03 0. -1.
         23    2    1    2    0    0  0.00000000000E+00  0.00000000000E+00 -0.17763568394E-14  0.91188000000E+02  0.91188000000E+02 0.  0.
    9900012    2    3    3    0    0 -0.32734456426E+02 -0.11446422858E+02  0.12378022039E+02  0.54367073024E+02  0.39999974572E+02 0.  0.
        -12    1    3    3    0    0  0.32734456426E+02  0.11446422858E+02 -0.12378022039E+02  0.36820926976E+02  0.00000000000E+00 0.  1.
         11    1    4    4    0    0 -0.12404842354E+02  0.28492812609E+01 -0.14831793303E+01  0.12813989961E+02  0.51100000000E-03 0. -1.
        -11    1    4    4    0    0 -0.51202510590E+01 -0.34667049986E+01  0.20750313303E+02  0.21652032627E+02  0.51100000000E-03 0.  1.
        -12    1    4    4    0    0 -0.15209363014E+02 -0.10828999121E+02 -0.68891119333E+01  0.19901050436E+02  0.00000000000E+00 0.  1.
</event>
<event>
 8    1  0.2502431E-006  0.9118800E+02  0.7816164E-02  0.1184000E+00
        -11   -1    0    0    0    0  0.00000000000E+00  0.00000000000E+00  0.45593999997E+02  0.45594000000E+02  0.51100000000E-03 0. -1.
         11   -1    0    0    0    0 -0.00000000000E+00 -0.00000000000E+00 -0.45593999997E+02  0.45594000000E+02  0.51100000000E-03 0.  1.
         23    2    1    2    0    0 -0.88817841970E-15 -0.71054273576E-14  0.00000000000E+00  0.91188000000E+02  0.91188000000E+02 0.  0.
    9900012    2    3    3    0    0  0.75246882209E+01  0.34903668974E+02 -0.89939510301E+01  0.54367106532E+02  0.40000050960E+02 0.  0.
        -12    1    3    3    0    0 -0.75246882209E+01 -0.34903668974E+02  0.89939510301E+01  0.36820893468E+02  0.00000000000E+00 0.  1.
         11    1    4    4    0    0  0.82004678354E+01  0.37003200309E+02  0.19383279087E+01  0.37950515427E+02  0.51100000000E-03 0. -1.
        -11    1    4    4    0    0 -0.98646718985E+00  0.49934120644E+01 -0.53560916000E+01  0.73888428762E+01  0.51100000000E-03 0.  1.
         12    1    4    4    0    0  0.31068757538E+00 -0.70929433995E+01 -0.55761873388E+01  0.90277482284E+01  0.00000000000E+00 0. -1.
</event>
<event>
 8    1  0.2502431E-006  0.9118800E+02  0.7816164E-02  0.1184000E+00
        -11   -1    0    0    0    0  0.00000000000E+00  0.00000000000E+00  0.45593999997E+02  0.45594000000E+02  0.51100000000E-03 0.  1.
         11   -1    0    0    0    0 -0.00000000000E+00 -0.00000000000E+00 -0.45593999997E+02  0.45594000000E+02  0.51100000000E-03 0. -1.
         23    2    1    2    0    0  0.00000000000E+00  0.00000000000E+00  0.00000000000E+00  0.91188000000E+02  0.91188000000E+02 0.  0.
    9900012    2    3    3    0    0  0.19604473838E+02 -0.31134687080E+02 -0.14409746084E+01  0.54367074674E+02  0.39999978334E+02 0.  0.
        -12    1    3    3    0    0 -0.19604473838E+02  0.31134687080E+02  0.14409746084E+01  0.36820925326E+02  0.00000000000E+00 0.  1.
         11    1    4    4    0    0  0.21723211538E+01 -0.10553922244E+02  0.62014357739E+01  0.12432299057E+02  0.51100000000E-03 0. -1.
        -11    1    4    4    0    0  0.19583575386E+02 -0.18214216964E+02  0.64273402799E+01  0.27506087105E+02  0.51100000000E-03 0.  1.
         12    1    4    4    0    0 -0.21514227010E+01 -0.23665478719E+01 -0.14069750662E+02  0.14428688512E+02  0.00000000000E+00 0. -1.
</event>
<event>
 8    1  0.2502431E-006  0.9118800E+02  0.7816164E-02  0.1184000E+00
        -11   -1    0    0    0    0  0.00000000000E+00  0.00000000000E+00  0.45593999997E+02  0.45594000000E+02  0.51100000000E-03 0.  1.
         11   -1    0    0    0    0 -0.00000000000E+00 -0.00000000000E+00 -0.45593999997E+02  0.45594000000E+02  0.51100000000E-03 0. -1.
         23    2    1    2    0    0  0.00000000000E+00  0.00000000000E+00  0.00000000000E+00  0.91188000000E+02  0.91188000000E+02 0.  0.
    9900012    2    3    3    0    0 -0.23847602829E+02 -0.17849875956E+02 -0.21643807029E+02  0.54367073680E+02  0.39999976069E+02 0.  0.
        -12    1    3    3    0    0  0.23847602829E+02  0.17849875956E+02  0.21643807029E+02  0.36820926320E+02  0.00000000000E+00 0.  1.
         11    1    4    4    0    0 -0.10026709407E+02  0.11652817867E-01 -0.12286381681E+02  0.15858442937E+02  0.51100000000E-03 0. -1.
        -11    1    4    4    0    0 -0.83250074496E+01 -0.26109651690E+02 -0.60976796217E+01  0.28074923997E+02  0.51100000000E-03 0.  1.
        -12    1    4    4    0    0 -0.54958859726E+01  0.82481229162E+01 -0.32597457260E+01  0.10433706746E+02  0.00000000000E+00 0.  1.
</event>
<event>
 8    1  0.2502431E-006  0.9118800E+02  0.7816164E-02  0.1184000E+00
        -11   -1    0    0    0    0  0.00000000000E+00  0.00000000000E+00  0.45593999997E+02  0.45594000000E+02  0.51100000000E-03 0. -1.
         11   -1    0    0    0    0 -0.00000000000E+00 -0.00000000000E+00 -0.45593999997E+02  0.45594000000E+02  0.51100000000E-03 0.  1.
         23    2    1    2    0    0  0.00000000000E+00  0.00000000000E+00 -0.35527136788E-14  0.91188000000E+02  0.91188000000E+02 0.  0.
    9900012    2    3    3    0    0 -0.23706174354E+01  0.27281392955E+02 -0.24614740584E+02  0.54367086342E+02  0.40000004934E+02 0.  0.
         12    1    3    3    0    0  0.23706174354E+01 -0.27281392955E+02  0.24614740584E+02  0.36820913658E+02  0.00000000000E+00 0. -1.
         11    1    4    4    0    0  0.42818858219E+01 -0.66595910344E+01  0.68404281981E+00  0.79468618824E+01  0.51100000000E-03 0. -1.
        -11    1    4    4    0    0 -0.39810769870E+01  0.20862866524E+02 -0.45065937370E+01  0.21712152380E+02  0.51100000000E-03 0.  1.
        -12    1    4    4    0    0 -0.26714262703E+01  0.13078117465E+02 -0.20792189667E+02  0.24708072080E+02  0.00000000000E+00 0.  1.
</event>
<event>
 8    1  0.2502431E-006  0.9118800E+02  0.7816164E-02  0.1184000E+00
        -11   -1    0    0    0    0  0.00000000000E+00  0.00000000000E+00  0.45593999997E+02  0.45594000000E+02  0.51100000000E-03 0.  1.
         11   -1    0    0    0    0 -0.00000000000E+00 -0.00000000000E+00 -0.45593999997E+02  0.45594000000E+02  0.51100000000E-03 0. -1.
         23    2    1    2    0    0  0.00000000000E+00 -0.88817841970E-15  0.00000000000E+00  0.91188000000E+02  0.91188000000E+02 0.  0.
    9900012    2    3    3    0    0  0.17214516572E+02  0.64911104334E+01 -0.31895222924E+02  0.54367090983E+02  0.40000015514E+02 0.  0.
         12    1    3    3    0    0 -0.17214516572E+02 -0.64911104334E+01  0.31895222924E+02  0.36820909017E+02  0.00000000000E+00 0. -1.
         11    1    4    4    0    0 -0.77617571434E+01  0.11338506572E+02 -0.13743056506E+02  0.19433944726E+02  0.51100000000E-03 0. -1.
        -11    1    4    4    0    0  0.10671369875E+02  0.31025138540E+01 -0.89386746635E+00  0.11149113262E+02  0.51100000000E-03 0.  1.
         12    1    4    4    0    0  0.14304903841E+02 -0.79499099927E+01 -0.17258298952E+02  0.23784032995E+02  0.00000000000E+00 0. -1.
</event>
<event>
 8    1  0.2502431E-006  0.9118800E+02  0.7816164E-02  0.1184000E+00
        -11   -1    0    0    0    0  0.00000000000E+00  0.00000000000E+00  0.45593999997E+02  0.45594000000E+02  0.51100000000E-03 0.  1.
         11   -1    0    0    0    0 -0.00000000000E+00 -0.00000000000E+00 -0.45593999997E+02  0.45594000000E+02  0.51100000000E-03 0. -1.
         23    2    1    2    0    0  0.00000000000E+00 -0.17763568394E-14  0.35527136788E-14  0.91188000000E+02  0.91188000000E+02 0.  0.
    9900012    2    3    3    0    0  0.25810433092E+02 -0.10374540828E+02  0.24124067583E+02  0.54367079445E+02  0.39999989211E+02 0.  0.
        -12    1    3    3    0    0 -0.25810433092E+02  0.10374540828E+02 -0.24124067583E+02  0.36820920555E+02  0.00000000000E+00 0.  1.
         11    1    4    4    0    0  0.95581756516E+01  0.30756597939E+01  0.98412911471E+01  0.14059495605E+02  0.51100000000E-03 0. -1.
        -11    1    4    4    0    0  0.14387269065E+02  0.37184413308E+01  0.17268181774E+02  0.22781800173E+02  0.51100000000E-03 0.  1.
        -12    1    4    4    0    0  0.18649883749E+01 -0.17168641952E+02 -0.29854053384E+01  0.17525783668E+02  0.00000000000E+00 0.  1.
</event>
<event>
 8    1  0.2502431E-006  0.9118800E+02  0.7816164E-02  0.1184000E+00
        -11   -1    0    0    0    0  0.00000000000E+00  0.00000000000E+00  0.45593999997E+02  0.45594000000E+02  0.51100000000E-03 0. -1.
         11   -1    0    0    0    0 -0.00000000000E+00 -0.00000000000E+00 -0.45593999997E+02  0.45594000000E+02  0.51100000000E-03 0.  1.
         23    2    1    2    0    0  0.00000000000E+00 -0.44408920985E-15  0.00000000000E+00  0.91188000000E+02  0.91188000000E+02 0.  0.
    9900012    2    3    3    0    0  0.32295277650E+02  0.36110682560E+01  0.17313456553E+02  0.54367074560E+02  0.39999978075E+02 0.  0.
         12    1    3    3    0    0 -0.32295277650E+02 -0.36110682560E+01 -0.17313456553E+02  0.36820925440E+02  0.00000000000E+00 0. -1.
         11    1    4    4    0    0  0.20281295341E+01 -0.42772533230E+01 -0.56263431715E+00  0.47670497199E+01  0.51100000000E-03 0. -1.
        -11    1    4    4    0    0  0.24526278228E+02 -0.57363686712E+01 -0.14937297505E+01  0.25232429096E+02  0.51100000000E-03 0.  1.
        -12    1    4    4    0    0  0.57408698873E+01  0.13624690250E+02  0.19369820621E+02  0.24367595744E+02  0.00000000000E+00 0.  1.
</event>
<event>
 8    1  0.2502431E-006  0.9118800E+02  0.7816164E-02  0.1184000E+00
        -11   -1    0    0    0    0  0.00000000000E+00  0.00000000000E+00  0.45593999997E+02  0.45594000000E+02  0.51100000000E-03 0. -1.
         11   -1    0    0    0    0 -0.00000000000E+00 -0.00000000000E+00 -0.45593999997E+02  0.45594000000E+02  0.51100000000E-03 0.  1.
         23    2    1    2    0    0  0.00000000000E+00  0.00000000000E+00  0.35527136788E-14  0.91188000000E+02  0.91188000000E+02 0.  0.
    9900012    2    3    3    0    0 -0.18563076154E+02  0.18390038291E+02  0.25942305688E+02  0.54367020531E+02  0.39999854904E+02 0.  0.
        -12    1    3    3    0    0  0.18563076154E+02 -0.18390038291E+02 -0.25942305688E+02  0.36820979469E+02  0.00000000000E+00 0.  1.
         11    1    4    4    0    0 -0.81961517722E+01 -0.34967447737E+01  0.19536113632E+02  0.21472397724E+02  0.51100000000E-03 0.  1.
        -11    1    4    4    0    0  0.60047786369E+00  0.20896198024E+02  0.64674582387E+01  0.21882405760E+02  0.51100000000E-03 0. -1.
        -12    1    4    4    0    0 -0.10967402246E+02  0.99058504033E+00 -0.61266182979E-01  0.11012217047E+02  0.00000000000E+00 0.  1.
</event>
<event>
 8    1  0.2502431E-006  0.9118800E+02  0.7816164E-02  0.1184000E+00
        -11   -1    0    0    0    0  0.00000000000E+00  0.00000000000E+00  0.45593999997E+02  0.45594000000E+02  0.51100000000E-03 0. -1.
         11   -1    0    0    0    0 -0.00000000000E+00 -0.00000000000E+00 -0.45593999997E+02  0.45594000000E+02  0.51100000000E-03 0.  1.
         23    2    1    2    0    0  0.88817841970E-15  0.11102230246E-15  0.00000000000E+00  0.91188000000E+02  0.91188000000E+02 0.  0.
    9900012    2    3    3    0    0  0.79258777769E+01 -0.78058991136E+00 -0.35949257160E+02  0.54367109877E+02  0.40000058586E+02 0.  0.
         12    1    3    3    0    0 -0.79258777769E+01  0.78058991136E+00  0.35949257160E+02  0.36820890123E+02  0.00000000000E+00 0. -1.
         11    1    4    4    0    0 -0.47373928457E+01 -0.14250668165E+01 -0.52520858765E+01  0.72151308180E+01  0.51100000000E-03 0. -1.
        -11    1    4    4    0    0  0.79355203768E+00 -0.64077841101E+01 -0.32583460935E+02  0.33217034015E+02  0.51100000000E-03 0.  1.
         12    1    4    4    0    0  0.11869718585E+02  0.70522610152E+01  0.18862896515E+01  0.13934945043E+02  0.00000000000E+00 0. -1.
</event>
<event>
 8    1  0.2502431E-006  0.9118800E+02  0.7816164E-02  0.1184000E+00
        -11   -1    0    0    0    0  0.00000000000E+00  0.00000000000E+00  0.45593999997E+02  0.45594000000E+02  0.51100000000E-03 0. -1.
         11   -1    0    0    0    0 -0.00000000000E+00 -0.00000000000E+00 -0.45593999997E+02  0.45594000000E+02  0.51100000000E-03 0.  1.
         23    2    1    2    0    0  0.00000000000E+00  0.00000000000E+00 -0.35527136788E-14  0.91188000000E+02  0.91188000000E+02 0.  0.
    9900012    2    3    3    0    0  0.14954174309E+02 -0.15042478698E+02  0.30097783126E+02  0.54367081438E+02  0.39999993754E+02 0.  0.
        -12    1    3    3    0    0 -0.14954174309E+02  0.15042478698E+02 -0.30097783126E+02  0.36820918562E+02  0.00000000000E+00 0.  1.
         11    1    4    4    0    0  0.19399406629E+02 -0.34351311159E+01  0.23183231223E+02  0.30423663710E+02  0.51100000000E-03 0. -1.
        -11    1    4    4    0    0  0.18158759139E+01  0.22871302873E+01 -0.41755051233E+01  0.50954110316E+01  0.51100000000E-03 0.  1.
         12    1    4    4    0    0 -0.62611082338E+01 -0.13894477869E+02  0.11090057026E+02  0.18848006696E+02  0.00000000000E+00 0. -1.
</event>
<event>
 8    1  0.2502431E-006  0.9118800E+02  0.7816164E-02  0.1184000E+00
        -11   -1    0    0    0    0  0.00000000000E+00  0.00000000000E+00  0.45593999997E+02  0.45594000000E+02  0.51100000000E-03 0.  1.
         11   -1    0    0    0    0 -0.00000000000E+00 -0.00000000000E+00 -0.45593999997E+02  0.45594000000E+02  0.51100000000E-03 0. -1.
         23    2    1    2    0    0  0.00000000000E+00  0.00000000000E+00  0.00000000000E+00  0.91188000000E+02  0.91188000000E+02 0.  0.
    9900012    2    3    3    0    0 -0.19644240524E+02  0.29870639232E+02  0.88107560593E+01  0.54367072578E+02  0.39999973557E+02 0.  0.
         12    1    3    3    0    0  0.19644240524E+02 -0.29870639232E+02 -0.88107560593E+01  0.36820927422E+02  0.00000000000E+00 0. -1.
         11    1    4    4    0    0 -0.11007449815E+02  0.60694720133E+01 -0.84780497709E+01  0.15161786509E+02  0.51100000000E-03 0. -1.
        -11    1    4    4    0    0 -0.11515395126E+02  0.20384120650E+02  0.22534200208E+01  0.23520089320E+02  0.51100000000E-03 0.  1.
         12    1    4    4    0    0  0.28786044174E+01  0.34170465688E+01  0.15035385809E+02  0.15685196750E+02  0.00000000000E+00 0. -1.
</event>
<event>
 8    1  0.2502431E-006  0.9118800E+02  0.7816164E-02  0.1184000E+00
        -11   -1    0    0    0    0  0.00000000000E+00  0.00000000000E+00  0.45593999997E+02  0.45594000000E+02  0.51100000000E-03 0.  1.
         11   -1    0    0    0    0 -0.00000000000E+00 -0.00000000000E+00 -0.45593999997E+02  0.45594000000E+02  0.51100000000E-03 0. -1.
         23    2    1    2    0    0  0.00000000000E+00  0.00000000000E+00  0.17763568394E-14  0.91188000000E+02  0.91188000000E+02 0.  0.
    9900012    2    3    3    0    0 -0.20642181526E+02 -0.27145475081E+02  0.13885366052E+02  0.54367083852E+02  0.39999999258E+02 0.  0.
         12    1    3    3    0    0  0.20642181526E+02  0.27145475081E+02 -0.13885366052E+02  0.36820916148E+02  0.00000000000E+00 0. -1.
         11    1    4    4    0    0  0.72146915083E+01 -0.80110374460E+01 -0.29061112131E+01  0.11165750184E+02  0.51100000000E-03 0. -1.
        -11    1    4    4    0    0 -0.22395063209E+02 -0.15964457233E+02  0.25478485556E+01  0.27620540969E+02  0.51100000000E-03 0.  1.
        -12    1    4    4    0    0 -0.54618098253E+01 -0.31699804021E+01  0.14243628710E+02  0.15580792699E+02  0.00000000000E+00 0.  1.
</event>
<event>
 8    1  0.2502431E-006  0.9118800E+02  0.7816164E-02  0.1184000E+00
        -11   -1    0    0    0    0  0.00000000000E+00  0.00000000000E+00  0.45593999997E+02  0.45594000000E+02  0.51100000000E-03 0. -1.
         11   -1    0    0    0    0 -0.00000000000E+00 -0.00000000000E+00 -0.45593999997E+02  0.45594000000E+02  0.51100000000E-03 0.  1.
         23    2    1    2    0    0  0.35527136788E-14  0.35527136788E-14  0.35527136788E-14  0.91188000000E+02  0.91188000000E+02 0.  0.
    9900012    2    3    3    0    0 -0.17628271164E+02 -0.21895589034E+02 -0.23782513664E+02  0.54367072261E+02  0.39999972834E+02 0.  0.
         12    1    3    3    0    0  0.17628271164E+02  0.21895589034E+02  0.23782513664E+02  0.36820927739E+02  0.00000000000E+00 0. -1.
         11    1    4    4    0    0  0.64024276854E-01 -0.64363895297E+01  0.21013743796E+01  0.67710400849E+01  0.51100000000E-03 0. -1.
        -11    1    4    4    0    0 -0.39895592772E+01 -0.42705724622E+01 -0.29043525446E+02  0.29625677089E+02  0.51100000000E-03 0.  1.
         12    1    4    4    0    0 -0.13702736164E+02 -0.11188627042E+02  0.31596374025E+01  0.17970355088E+02  0.00000000000E+00 0. -1.
</event>
<event>
 8    1  0.2502431E-006  0.9118800E+02  0.7816164E-02  0.1184000E+00
        -11   -1    0    0    0    0  0.00000000000E+00  0.00000000000E+00  0.45593999997E+02  0.45594000000E+02  0.51100000000E-03 0.  1.
         11   -1    0    0    0    0 -0.00000000000E+00 -0.00000000000E+00 -0.45593999997E+02  0.45594000000E+02  0.51100000000E-03 0. -1.
         23    2    1    2    0    0  0.00000000000E+00 -0.17763568394E-14 -0.17763568394E-14  0.91188000000E+02  0.91188000000E+02 0.  0.
    9900012    2    3    3    0    0  0.33347588681E+02 -0.10751509561E+02 -0.11319194136E+02  0.54367071378E+02  0.39999970821E+02 0.  0.
        -12    1    3    3    0    0 -0.33347588681E+02  0.10751509561E+02  0.11319194136E+02  0.36820928622E+02  0.00000000000E+00 0.  1.
         11    1    4    4    0    0  0.35707571960E+02  0.14770879143E+01 -0.16220192161E+02  0.39246746591E+02  0.51100000000E-03 0. -1.
        -11    1    4    4    0    0  0.18274441168E+01 -0.67492453228E+01  0.42754024914E+01  0.81957874029E+01  0.51100000000E-03 0.  1.
         12    1    4    4    0    0 -0.41874273965E+01 -0.54793521527E+01  0.62559553331E+00  0.69245373842E+01  0.00000000000E+00 0. -1.
</event>
<event>
 8    1  0.2502431E-006  0.9118800E+02  0.7816164E-02  0.1184000E+00
        -11   -1    0    0    0    0  0.00000000000E+00  0.00000000000E+00  0.45593999997E+02  0.45594000000E+02  0.51100000000E-03 0.  1.
         11   -1    0    0    0    0 -0.00000000000E+00 -0.00000000000E+00 -0.45593999997E+02  0.45594000000E+02  0.51100000000E-03 0. -1.
         23    2    1    2    0    0 -0.17763568394E-14  0.17763568394E-14  0.71054273576E-14  0.91188000000E+02  0.91188000000E+02 0.  0.
    9900012    2    3    3    0    0  0.10381950726E+02 -0.46504779410E+01 -0.35019526207E+02  0.54367094773E+02  0.40000024154E+02 0.  0.
        -12    1    3    3    0    0 -0.10381950726E+02  0.46504779410E+01  0.35019526207E+02  0.36820905227E+02  0.00000000000E+00 0.  1.
         11    1    4    4    0    0 -0.17495523894E+01 -0.12468102781E+02 -0.25990178989E+00  0.12592937295E+02  0.51100000000E-03 0. -1.
        -11    1    4    4    0    0 -0.85904135126E+00 -0.29728829555E+00 -0.21488481047E+02  0.21507699792E+02  0.51100000000E-03 0.  1.
        -12    1    4    4    0    0  0.12990544467E+02  0.81149131357E+01 -0.13271143370E+02  0.20266457685E+02  0.00000000000E+00 0.  1.
</event>
<event>
 8    1  0.2502431E-006  0.9118800E+02  0.7816164E-02  0.1184000E+00
        -11   -1    0    0    0    0  0.00000000000E+00  0.00000000000E+00  0.45593999997E+02  0.45594000000E+02  0.51100000000E-03 0. -1.
         11   -1    0    0    0    0 -0.00000000000E+00 -0.00000000000E+00 -0.45593999997E+02  0.45594000000E+02  0.51100000000E-03 0.  1.
         23    2    1    2    0    0  0.00000000000E+00  0.35527136788E-14  0.35527136788E-14  0.91188000000E+02  0.91188000000E+02 0.  0.
    9900012    2    3    3    0    0 -0.23994721930E+02  0.21130172567E+02 -0.18263311601E+02  0.54367089856E+02  0.40000012945E+02 0.  0.
         12    1    3    3    0    0  0.23994721930E+02 -0.21130172567E+02  0.18263311601E+02  0.36820910144E+02  0.00000000000E+00 0. -1.
         11    1    4    4    0    0 -0.19577921591E+02 -0.20758858577E+01  0.66633013796E+00  0.19698941901E+02  0.51100000000E-03 0. -1.
        -11    1    4    4    0    0  0.30429390595E+01  0.23988967271E+00  0.11511597061E+01  0.32622375917E+01  0.51100000000E-03 0.  1.
        -12    1    4    4    0    0 -0.74597393981E+01  0.22966168752E+02 -0.20080801445E+02  0.31405910363E+02  0.00000000000E+00 0.  1.
</event>
<event>
 8    1  0.2502431E-006  0.9118800E+02  0.7816164E-02  0.1184000E+00
        -11   -1    0    0    0    0  0.00000000000E+00  0.00000000000E+00  0.45593999997E+02  0.45594000000E+02  0.51100000000E-03 0.  1.
         11   -1    0    0    0    0 -0.00000000000E+00 -0.00000000000E+00 -0.45593999997E+02  0.45594000000E+02  0.51100000000E-03 0. -1.
         23    2    1    2    0    0  0.00000000000E+00  0.00000000000E+00  0.00000000000E+00  0.91188000000E+02  0.91188000000E+02 0.  0.
    9900012    2    3    3    0    0  0.24507885011E+02 -0.67088103519E+01 -0.26648371764E+02  0.54367078206E+02  0.39999986387E+02 0.  0.
        -12    1    3    3    0    0 -0.24507885011E+02  0.67088103519E+01  0.26648371764E+02  0.36820921794E+02  0.00000000000E+00 0.  1.
         11    1    4    4    0    0 -0.46640752296E+01 -0.23000001028E+01 -0.11655612886E+02  0.12763107390E+02  0.51100000000E-03 0. -1.
        -11    1    4    4    0    0  0.17886446723E+02 -0.92269591235E+01  0.24527406044E+01  0.20275050869E+02  0.51100000000E-03 0.  1.
        -12    1    4    4    0    0  0.11285513518E+02  0.48181488744E+01 -0.17445499482E+02  0.21328919947E+02  0.00000000000E+00 0.  1.
</event>
<event>
 8    1  0.2502431E-006  0.9118800E+02  0.7816164E-02  0.1184000E+00
        -11   -1    0    0    0    0  0.00000000000E+00  0.00000000000E+00  0.45593999997E+02  0.45594000000E+02  0.51100000000E-03 0.  1.
         11   -1    0    0    0    0 -0.00000000000E+00 -0.00000000000E+00 -0.45593999997E+02  0.45594000000E+02  0.51100000000E-03 0. -1.
         23    2    1    2    0    0 -0.17763568394E-14  0.00000000000E+00  0.00000000000E+00  0.91188000000E+02  0.91188000000E+02 0.  0.
    9900012    2    3    3    0    0 -0.14725748150E+02 -0.25169731515E+02 -0.22481428872E+02  0.54367113438E+02  0.40000066704E+02 0.  0.
        -12    1    3    3    0    0  0.14725748150E+02  0.25169731515E+02  0.22481428872E+02  0.36820886562E+02  0.00000000000E+00 0.  1.
         11    1    4    4    0    0 -0.10591286596E+02 -0.76696338709E+00 -0.25244140697E+01  0.10914955394E+02  0.51100000000E-03 0. -1.
        -11    1    4    4    0    0  0.11397188977E+02 -0.13295993713E+02 -0.27079182783E+01  0.17720389021E+02  0.51100000000E-03 0.  1.
        -12    1    4    4    0    0 -0.15531650531E+02 -0.11106774414E+02 -0.17249096524E+02  0.25731769022E+02  0.00000000000E+00 0.  1.
</event>
<event>
 8    1  0.2502431E-006  0.9118800E+02  0.7816164E-02  0.1184000E+00
        -11   -1    0    0    0    0  0.00000000000E+00  0.00000000000E+00  0.45593999997E+02  0.45594000000E+02  0.51100000000E-03 0. -1.
         11   -1    0    0    0    0 -0.00000000000E+00 -0.00000000000E+00 -0.45593999997E+02  0.45594000000E+02  0.51100000000E-03 0.  1.
         23    2    1    2    0    0  0.35527136788E-14  0.88817841970E-15  0.00000000000E+00  0.91188000000E+02  0.91188000000E+02 0.  0.
    9900012    2    3    3    0    0 -0.28278463229E+02 -0.22124759270E+01  0.23477936313E+02  0.54367081681E+02  0.39999994308E+02 0.  0.
        -12    1    3    3    0    0  0.28278463229E+02  0.22124759270E+01 -0.23477936313E+02  0.36820918319E+02  0.00000000000E+00 0.  1.
         11    1    4    4    0    0 -0.18304627448E+02  0.91836523228E+01  0.10361577282E+02  0.22951277525E+02  0.51100000000E-03 0. -1.
        -11    1    4    4    0    0 -0.12207211084E+02 -0.14778461484E+02  0.17133303611E+02  0.25709317750E+02  0.51100000000E-03 0.  1.
         12    1    4    4    0    0  0.22333753031E+01  0.33823332339E+01 -0.40169445796E+01  0.57064864063E+01  0.00000000000E+00 0. -1.
</event>
<event>
 8    1  0.2502431E-006  0.9118800E+02  0.7816164E-02  0.1184000E+00
        -11   -1    0    0    0    0  0.00000000000E+00  0.00000000000E+00  0.45593999997E+02  0.45594000000E+02  0.51100000000E-03 0. -1.
         11   -1    0    0    0    0 -0.00000000000E+00 -0.00000000000E+00 -0.45593999997E+02  0.45594000000E+02  0.51100000000E-03 0.  1.
         23    2    1    2    0    0 -0.17763568394E-14  0.00000000000E+00 -0.35527136788E-14  0.91188000000E+02  0.91188000000E+02 0.  0.
    9900012    2    3    3    0    0  0.13739406870E+02 -0.13408532563E+02  0.31420045779E+02  0.54367091220E+02  0.40000016053E+02 0.  0.
        -12    1    3    3    0    0 -0.13739406870E+02  0.13408532563E+02 -0.31420045779E+02  0.36820908780E+02  0.00000000000E+00 0.  1.
         11    1    4    4    0    0  0.54771055686E+01 -0.95067404061E+01  0.27349091460E+02  0.29467772269E+02  0.51100000000E-03 0. -1.
        -11    1    4    4    0    0 -0.65226105411E+01 -0.65403613767E+01  0.34750871668E+01  0.98689921616E+01  0.51100000000E-03 0.  1.
        -12    1    4    4    0    0  0.14784911843E+02  0.26385692202E+01  0.59586715298E+00  0.15030326789E+02  0.00000000000E+00 0.  1.
</event>
<event>
 8    1  0.2502431E-006  0.9118800E+02  0.7816164E-02  0.1184000E+00
        -11   -1    0    0    0    0  0.00000000000E+00  0.00000000000E+00  0.45593999997E+02  0.45594000000E+02  0.51100000000E-03 0. -1.
         11   -1    0    0    0    0 -0.00000000000E+00 -0.00000000000E+00 -0.45593999997E+02  0.45594000000E+02  0.51100000000E-03 0.  1.
         23    2    1    2    0    0  0.00000000000E+00  0.00000000000E+00 -0.35527136788E-14  0.91188000000E+02  0.91188000000E+02 0.  0.
    9900012    2    3    3    0    0  0.16070930286E+02  0.13173549773E+02  0.30396765231E+02  0.54367074558E+02  0.39999978069E+02 0.  0.
        -12    1    3    3    0    0 -0.16070930286E+02 -0.13173549773E+02 -0.30396765231E+02  0.36820925442E+02  0.00000000000E+00 0.  1.
         11    1    4    4    0    0  0.59464580566E+01  0.21497181006E+02  0.24490237928E+02  0.33124928810E+02  0.51100000000E-03 0. -1.
        -11    1    4    4    0    0  0.13984360976E+02 -0.74078253770E+01  0.67193778755E+01  0.17192680653E+02  0.51100000000E-03 0.  1.
         12    1    4    4    0    0 -0.38598887469E+01 -0.91580585520E+00 -0.81285057261E+00  0.40494650951E+01  0.00000000000E+00 0. -1.
</event>
<event>
 8    1  0.2502431E-006  0.9118800E+02  0.7816164E-02  0.1184000E+00
        -11   -1    0    0    0    0  0.00000000000E+00  0.00000000000E+00  0.45593999997E+02  0.45594000000E+02  0.51100000000E-03 0.  1.
         11   -1    0    0    0    0 -0.00000000000E+00 -0.00000000000E+00 -0.45593999997E+02  0.45594000000E+02  0.51100000000E-03 0. -1.
         23    2    1    2    0    0  0.00000000000E+00  0.35527136788E-14  0.35527136788E-14  0.91188000000E+02  0.91188000000E+02 0.  0.
    9900012    2    3    3    0    0 -0.12374764291E+02  0.20256336513E+02  0.28148277390E+02  0.54367089091E+02  0.40000011201E+02 0.  0.
         12    1    3    3    0    0  0.12374764291E+02 -0.20256336513E+02 -0.28148277390E+02  0.36820910909E+02  0.00000000000E+00 0. -1.
         11    1    4    4    0    0 -0.78136133054E+01  0.11011513693E+02  0.17941082204E+02  0.22454140322E+02  0.51100000000E-03 0. -1.
        -11    1    4    4    0    0 -0.12650095819E+02  0.19254984981E+01  0.15239659558E+02  0.19899238488E+02  0.51100000000E-03 0.  1.
         12    1    4    4    0    0  0.80889448337E+01  0.73193243210E+01 -0.50324643726E+01  0.12013710280E+02  0.00000000000E+00 0. -1.
</event>
<event>
 8    1  0.2502431E-006  0.9118800E+02  0.7816164E-02  0.1184000E+00
        -11   -1    0    0    0    0  0.00000000000E+00  0.00000000000E+00  0.45593999997E+02  0.45594000000E+02  0.51100000000E-03 0.  1.
         11   -1    0    0    0    0 -0.00000000000E+00 -0.00000000000E+00 -0.45593999997E+02  0.45594000000E+02  0.51100000000E-03 0. -1.
         23    2    1    2    0    0  0.00000000000E+00  0.35527136788E-14  0.00000000000E+00  0.91188000000E+02  0.91188000000E+02 0.  0.
    9900012    2    3    3    0    0 -0.17565050297E+02  0.22777413570E+02  0.22987812111E+02  0.54367067549E+02  0.39999962092E+02 0.  0.
         12    1    3    3    0    0  0.17565050297E+02 -0.22777413570E+02 -0.22987812111E+02  0.36820932451E+02  0.00000000000E+00 0. -1.
         11    1    4    4    0    0  0.26934878820E+01 -0.17324750550E+01  0.35140560495E+01  0.47544649506E+01  0.51100000000E-03 0. -1.
        -11    1    4    4    0    0 -0.71849268904E+01  0.29204273584E+02  0.68562593669E+01  0.30846735042E+02  0.51100000000E-03 0.  1.
         12    1    4    4    0    0 -0.13073611289E+02 -0.46943849599E+01  0.12617496695E+02  0.18765867556E+02  0.00000000000E+00 0. -1.
</event>
<event>
 8    1  0.2502431E-006  0.9118800E+02  0.7816164E-02  0.1184000E+00
        -11   -1    0    0    0    0  0.00000000000E+00  0.00000000000E+00  0.45593999997E+02  0.45594000000E+02  0.51100000000E-03 0. -1.
         11   -1    0    0    0    0 -0.00000000000E+00 -0.00000000000E+00 -0.45593999997E+02  0.45594000000E+02  0.51100000000E-03 0.  1.
         23    2    1    2    0    0 -0.88817841970E-15  0.00000000000E+00  0.00000000000E+00  0.91188000000E+02  0.91188000000E+02 0.  0.
    9900012    2    3    3    0    0  0.52455830668E+01 -0.32438256628E+02  0.16613970846E+02  0.54367073042E+02  0.39999974614E+02 0.  0.
        -12    1    3    3    0    0 -0.52455830668E+01  0.32438256628E+02 -0.16613970846E+02  0.36820926958E+02  0.00000000000E+00 0.  1.
         11    1    4    4    0    0 -0.54840771199E+01 -0.22071448303E+02 -0.22000615301E+01  0.22848724320E+02  0.51100000000E-03 0. -1.
        -11    1    4    4    0    0  0.17102696805E+01 -0.64784203974E+01 -0.31905626351E+01  0.74212292388E+01  0.51100000000E-03 0.  1.
         12    1    4    4    0    0  0.90193905061E+01 -0.38883879276E+01  0.22004595011E+02  0.24097119483E+02  0.00000000000E+00 0. -1.
</event>
<event>
 8    1  0.2502431E-006  0.9118800E+02  0.7816164E-02  0.1184000E+00
        -11   -1    0    0    0    0  0.00000000000E+00  0.00000000000E+00  0.45593999997E+02  0.45594000000E+02  0.51100000000E-03 0. -1.
         11   -1    0    0    0    0 -0.00000000000E+00 -0.00000000000E+00 -0.45593999997E+02  0.45594000000E+02  0.51100000000E-03 0.  1.
         23    2    1    2    0    0 -0.71054273576E-14  0.00000000000E+00  0.17763568394E-14  0.91188000000E+02  0.91188000000E+02 0.  0.
    9900012    2    3    3    0    0  0.32494504613E+02  0.17101598193E+02  0.27242543473E+01  0.54367094898E+02  0.40000024438E+02 0.  0.
         12    1    3    3    0    0 -0.32494504613E+02 -0.17101598193E+02 -0.27242543473E+01  0.36820905102E+02  0.00000000000E+00 0. -1.
         11    1    4    4    0    0  0.84837134054E+01  0.11346094913E+02 -0.87451665057E+01  0.16648879854E+02  0.51100000000E-03 0. -1.
        -11    1    4    4    0    0  0.63110732637E+01  0.39403712080E+01 -0.82828948770E+01  0.11133845643E+02  0.51100000000E-03 0.  1.
         12    1    4    4    0    0  0.17699717944E+02  0.18151320719E+01  0.19752315730E+02  0.26584369401E+02  0.00000000000E+00 0. -1.
</event>
<event>
 8    1  0.2502431E-006  0.9118800E+02  0.7816164E-02  0.1184000E+00
        -11   -1    0    0    0    0  0.00000000000E+00  0.00000000000E+00  0.45593999997E+02  0.45594000000E+02  0.51100000000E-03 0.  1.
         11   -1    0    0    0    0 -0.00000000000E+00 -0.00000000000E+00 -0.45593999997E+02  0.45594000000E+02  0.51100000000E-03 0. -1.
         23    2    1    2    0    0 -0.35527136788E-14  0.35527136788E-14  0.44408920985E-15  0.91188000000E+02  0.91188000000E+02 0.  0.
    9900012    2    3    3    0    0 -0.28635893941E+02  0.23021796378E+02  0.24006380695E+01  0.54367073973E+02  0.39999976737E+02 0.  0.
         12    1    3    3    0    0  0.28635893941E+02 -0.23021796378E+02 -0.24006380695E+01  0.36820926027E+02  0.00000000000E+00 0. -1.
         11    1    4    4    0    0  0.63304323136E+01  0.27210587158E+01  0.17712446856E+01  0.71144811343E+01  0.51100000000E-03 0. -1.
        -11    1    4    4    0    0 -0.17795900241E+02  0.21171219231E+02  0.76287489869E+01  0.28689935526E+02  0.51100000000E-03 0.  1.
         12    1    4    4    0    0 -0.17170426014E+02 -0.87048156847E+00 -0.69993556030E+01  0.18562657313E+02  0.00000000000E+00 0. -1.
</event>
<event>
 8    1  0.2502431E-006  0.9118800E+02  0.7816164E-02  0.1184000E+00
        -11   -1    0    0    0    0  0.00000000000E+00  0.00000000000E+00  0.45593999997E+02  0.45594000000E+02  0.51100000000E-03 0.  1.
         11   -1    0    0    0    0 -0.00000000000E+00 -0.00000000000E+00 -0.45593999997E+02  0.45594000000E+02  0.51100000000E-03 0. -1.
         23    2    1    2    0    0  0.71054273576E-14 -0.88817841970E-15 -0.35527136788E-14  0.91188000000E+02  0.91188000000E+02 0.  0.
    9900012    2    3    3    0    0  0.32270779046E+02 -0.55290348812E+01 -0.16846540395E+02  0.54367091127E+02  0.40000015842E+02 0.  0.
        -12    1    3    3    0    0 -0.32270779046E+02  0.55290348812E+01  0.16846540395E+02  0.36820908873E+02  0.00000000000E+00 0.  1.
         11    1    4    4    0    0  0.10409288271E+02 -0.28823567409E+01 -0.14828360648E+02  0.18345068614E+02  0.51100000000E-03 0. -1.
        -11    1    4    4    0    0  0.15569320347E+01 -0.48410413896E+01 -0.12188646865E+02  0.13206923629E+02  0.51100000000E-03 0.  1.
         12    1    4    4    0    0  0.20304558740E+02  0.21943632493E+01  0.10170467117E+02  0.22815098884E+02  0.00000000000E+00 0. -1.
</event>
<event>
 8    1  0.2502431E-006  0.9118800E+02  0.7816164E-02  0.1184000E+00
        -11   -1    0    0    0    0  0.00000000000E+00  0.00000000000E+00  0.45593999997E+02  0.45594000000E+02  0.51100000000E-03 0. -1.
         11   -1    0    0    0    0 -0.00000000000E+00 -0.00000000000E+00 -0.45593999997E+02  0.45594000000E+02  0.51100000000E-03 0.  1.
         23    2    1    2    0    0  0.00000000000E+00  0.00000000000E+00 -0.17763568394E-14  0.91188000000E+02  0.91188000000E+02 0.  0.
    9900012    2    3    3    0    0 -0.10910192423E+02  0.32492072319E+02  0.13453924604E+02  0.54367147898E+02  0.40000145262E+02 0.  0.
        -12    1    3    3    0    0  0.10910192423E+02 -0.32492072319E+02 -0.13453924604E+02  0.36820852102E+02  0.00000000000E+00 0.  1.
         11    1    4    4    0    0 -0.61894044726E+01 -0.84998701617E+00  0.30097732321E+01  0.69346911123E+01  0.51100000000E-03 0. -1.
        -11    1    4    4    0    0  0.62670069184E+01  0.31255986792E+01 -0.77855357939E+01  0.10471834160E+02  0.51100000000E-03 0.  1.
         12    1    4    4    0    0 -0.10987794869E+02  0.30216460656E+02  0.18229687166E+02  0.36960622625E+02  0.00000000000E+00 0. -1.
</event>
<event>
 8    1  0.2502431E-006  0.9118800E+02  0.7816164E-02  0.1184000E+00
        -11   -1    0    0    0    0  0.00000000000E+00  0.00000000000E+00  0.45593999997E+02  0.45594000000E+02  0.51100000000E-03 0.  1.
         11   -1    0    0    0    0 -0.00000000000E+00 -0.00000000000E+00 -0.45593999997E+02  0.45594000000E+02  0.51100000000E-03 0. -1.
         23    2    1    2    0    0  0.00000000000E+00 -0.35527136788E-14 -0.35527136788E-14  0.91188000000E+02  0.91188000000E+02 0.  0.
    9900012    2    3    3    0    0 -0.92258560915E+01  0.16076036867E+02  0.31815484125E+02  0.54367076436E+02  0.39999982352E+02 0.  0.
         12    1    3    3    0    0  0.92258560915E+01 -0.16076036867E+02 -0.31815484125E+02  0.36820923564E+02  0.00000000000E+00 0. -1.
         11    1    4    4    0    0 -0.46479806890E+01 -0.26916105550E+01 -0.73943932593E+01  0.91392310289E+01  0.51100000000E-03 0. -1.
        -11    1    4    4    0    0  0.32756278986E+01  0.49503339623E+01  0.61572144209E+01  0.85525922476E+01  0.51100000000E-03 0.  1.
         12    1    4    4    0    0 -0.78535033012E+01  0.13817313460E+02  0.33052662963E+02  0.36675253160E+02  0.00000000000E+00 0. -1.
</event>
<event>
 8    1  0.2502431E-006  0.9118800E+02  0.7816164E-02  0.1184000E+00
        -11   -1    0    0    0    0  0.00000000000E+00  0.00000000000E+00  0.45593999997E+02  0.45594000000E+02  0.51100000000E-03 0.  1.
         11   -1    0    0    0    0 -0.00000000000E+00 -0.00000000000E+00 -0.45593999997E+02  0.45594000000E+02  0.51100000000E-03 0. -1.
         23    2    1    2    0    0  0.00000000000E+00  0.17763568394E-14  0.35527136788E-14  0.91188000000E+02  0.91188000000E+02 0.  0.
    9900012    2    3    3    0    0 -0.19268048565E+02  0.92036577009E+01 -0.29996912165E+02  0.54367085427E+02  0.40000002847E+02 0.  0.
        -12    1    3    3    0    0  0.19268048565E+02 -0.92036577009E+01  0.29996912165E+02  0.36820914573E+02  0.00000000000E+00 0.  1.
         11    1    4    4    0    0 -0.14685527058E+02 -0.10502082234E+02 -0.22305536924E+02  0.28696609799E+02  0.51100000000E-03 0. -1.
        -11    1    4    4    0    0 -0.45403118803E+01  0.19835355640E+02 -0.10473108002E+02  0.22885404886E+02  0.51100000000E-03 0.  1.
         12    1    4    4    0    0 -0.42209626543E-01 -0.12961570497E+00  0.27817327607E+01  0.27850707416E+01  0.00000000000E+00 0. -1.
</event>
<event>
 8    1  0.2502431E-006  0.9118800E+02  0.7816164E-02  0.1184000E+00
        -11   -1    0    0    0    0  0.00000000000E+00  0.00000000000E+00  0.45593999997E+02  0.45594000000E+02  0.51100000000E-03 0. -1.
         11   -1    0    0    0    0 -0.00000000000E+00 -0.00000000000E+00 -0.45593999997E+02  0.45594000000E+02  0.51100000000E-03 0.  1.
         23    2    1    2    0    0 -0.35527136788E-14 -0.88817841970E-15  0.00000000000E+00  0.91188000000E+02  0.91188000000E+02 0.  0.
    9900012    2    3    3    0    0 -0.26985084982E+02  0.26157062765E+01 -0.24914713050E+02  0.54367086688E+02  0.40000005722E+02 0.  0.
         12    1    3    3    0    0  0.26985084982E+02 -0.26157062765E+01  0.24914713050E+02  0.36820913312E+02  0.00000000000E+00 0. -1.
         11    1    4    4    0    0 -0.17801829051E+02 -0.16899936351E+01 -0.28590022385E+02  0.33721663308E+02  0.51100000000E-03 0.  1.
        -11    1    4    4    0    0 -0.10233110691E+02 -0.45596380684E+01  0.65904441656E+00  0.11222352406E+02  0.51100000000E-03 0. -1.
        -12    1    4    4    0    0  0.10498547600E+01  0.88653379800E+01  0.30162649185E+01  0.94230709737E+01  0.00000000000E+00 0.  1.
</event>
<event>
 8    1  0.2502431E-006  0.9118800E+02  0.7816164E-02  0.1184000E+00
        -11   -1    0    0    0    0  0.00000000000E+00  0.00000000000E+00  0.45593999997E+02  0.45594000000E+02  0.51100000000E-03 0.  1.
         11   -1    0    0    0    0 -0.00000000000E+00 -0.00000000000E+00 -0.45593999997E+02  0.45594000000E+02  0.51100000000E-03 0. -1.
         23    2    1    2    0    0  0.00000000000E+00  0.00000000000E+00  0.71054273576E-14  0.91188000000E+02  0.91188000000E+02 0.  0.
    9900012    2    3    3    0    0 -0.14505667389E+02 -0.42436383442E+01 -0.33576220400E+02  0.54367008309E+02  0.39999827041E+02 0.  0.
        -12    1    3    3    0    0  0.14505667389E+02  0.42436383442E+01  0.33576220400E+02  0.36820991691E+02  0.00000000000E+00 0.  1.
         11    1    4    4    0    0 -0.92377339400E+01  0.35934591326E+01  0.24445388828E+00  0.99150610108E+01  0.51100000000E-03 0. -1.
        -11    1    4    4    0    0 -0.88352485953E+01  0.52728168567E+00 -0.34223694637E+02  0.35349694745E+02  0.51100000000E-03 0.  1.
        -12    1    4    4    0    0  0.35673151467E+01 -0.83643791624E+01  0.40302034870E+00  0.91022525525E+01  0.00000000000E+00 0.  1.
</event>
<event>
 8    1  0.2502431E-006  0.9118800E+02  0.7816164E-02  0.1184000E+00
        -11   -1    0    0    0    0  0.00000000000E+00  0.00000000000E+00  0.45593999997E+02  0.45594000000E+02  0.51100000000E-03 0. -1.
         11   -1    0    0    0    0 -0.00000000000E+00 -0.00000000000E+00 -0.45593999997E+02  0.45594000000E+02  0.51100000000E-03 0.  1.
         23    2    1    2    0    0  0.00000000000E+00  0.17763568394E-14  0.35527136788E-14  0.91188000000E+02  0.91188000000E+02 0.  0.
    9900012    2    3    3    0    0  0.22201493427E+02  0.12160241583E+02  0.26739536850E+02  0.54367073659E+02  0.39999976019E+02 0.  0.
        -12    1    3    3    0    0 -0.22201493427E+02 -0.12160241583E+02 -0.26739536850E+02  0.36820926341E+02  0.00000000000E+00 0.  1.
         11    1    4    4    0    0 -0.99020195728E+00  0.92451224596E+01  0.15899904328E+02  0.18419005053E+02  0.51100000000E-03 0. -1.
        -11    1    4    4    0    0  0.12451331029E+02  0.13633468189E+02  0.93651847201E+01  0.20702989745E+02  0.51100000000E-03 0.  1.
        -12    1    4    4    0    0  0.10740364355E+02 -0.10718349066E+02  0.14744478010E+01  0.15245078861E+02  0.00000000000E+00 0.  1.
</event>
<event>
 8    1  0.2502431E-006  0.9118800E+02  0.7816164E-02  0.1184000E+00
        -11   -1    0    0    0    0  0.00000000000E+00  0.00000000000E+00  0.45593999997E+02  0.45594000000E+02  0.51100000000E-03 0.  1.
         11   -1    0    0    0    0 -0.00000000000E+00 -0.00000000000E+00 -0.45593999997E+02  0.45594000000E+02  0.51100000000E-03 0. -1.
         23    2    1    2    0    0 -0.35527136788E-14 -0.26645352591E-14  0.00000000000E+00  0.91188000000E+02  0.91188000000E+02 0.  0.
    9900012    2    3    3    0    0 -0.26744334424E+02 -0.58033682481E+01  0.24634144581E+02  0.54367087654E+02  0.40000007924E+02 0.  0.
         12    1    3    3    0    0  0.26744334424E+02  0.58033682481E+01 -0.24634144581E+02  0.36820912346E+02  0.00000000000E+00 0. -1.
         11    1    4    4    0    0 -0.20985156128E+02 -0.14729649931E+02  0.15472479992E+01  0.25685274798E+02  0.51100000000E-03 0. -1.
        -11    1    4    4    0    0 -0.53165667663E+01 -0.22564637694E+01  0.68216119587E+01  0.89382269438E+01  0.51100000000E-03 0.  1.
         12    1    4    4    0    0 -0.44261152913E+00  0.11182745452E+02  0.16265284623E+02  0.19743585912E+02  0.00000000000E+00 0. -1.
</event>
<event>
 8    1  0.2502431E-006  0.9118800E+02  0.7816164E-02  0.1184000E+00
        -11   -1    0    0    0    0  0.00000000000E+00  0.00000000000E+00  0.45593999997E+02  0.45594000000E+02  0.51100000000E-03 0.  1.
         11   -1    0    0    0    0 -0.00000000000E+00 -0.00000000000E+00 -0.45593999997E+02  0.45594000000E+02  0.51100000000E-03 0. -1.
         23    2    1    2    0    0 -0.44408920985E-15  0.44408920985E-15  0.00000000000E+00  0.91188000000E+02  0.91188000000E+02 0.  0.
    9900012    2    3    3    0    0  0.17338719156E+01  0.29334698209E+01  0.36662893514E+02  0.54367091295E+02  0.40000016225E+02 0.  0.
         12    1    3    3    0    0 -0.17338719156E+01 -0.29334698209E+01 -0.36662893514E+02  0.36820908705E+02  0.00000000000E+00 0. -1.
         11    1    4    4    0    0 -0.13481274418E+01 -0.50323769435E+01  0.46696184141E+01  0.69962562628E+01  0.51100000000E-03 0. -1.
        -11    1    4    4    0    0  0.10710999083E+02  0.31028413046E+01  0.35843795071E+02  0.37538390628E+02  0.51100000000E-03 0.  1.
        -12    1    4    4    0    0 -0.76289997260E+01  0.48630054597E+01 -0.38505199713E+01  0.98324444046E+01  0.00000000000E+00 0.  1.
</event>
<event>
 8    1  0.2502431E-006  0.9118800E+02  0.7816164E-02  0.1184000E+00
        -11   -1    0    0    0    0  0.00000000000E+00  0.00000000000E+00  0.45593999997E+02  0.45594000000E+02  0.51100000000E-03 0. -1.
         11   -1    0    0    0    0 -0.00000000000E+00 -0.00000000000E+00 -0.45593999997E+02  0.45594000000E+02  0.51100000000E-03 0.  1.
         23    2    1    2    0    0  0.00000000000E+00  0.17763568394E-14  0.00000000000E+00  0.91188000000E+02  0.91188000000E+02 0.  0.
    9900012    2    3    3    0    0  0.26763257896E+02 -0.10300826857E+02 -0.23095457493E+02  0.54367093385E+02  0.40000020989E+02 0.  0.
         12    1    3    3    0    0 -0.26763257896E+02  0.10300826857E+02  0.23095457493E+02  0.36820906615E+02  0.00000000000E+00 0. -1.
         11    1    4    4    0    0  0.16168779495E+02 -0.16757061598E+02 -0.37961150620E+01  0.23593198884E+02  0.51100000000E-03 0. -1.
        -11    1    4    4    0    0  0.15140441821E+02 -0.72644829912E+00 -0.14671656546E+02  0.21095454765E+02  0.51100000000E-03 0.  1.
         12    1    4    4    0    0 -0.45459634198E+01  0.71826830404E+01 -0.46276858858E+01  0.96784397364E+01  0.00000000000E+00 0. -1.
</event>
<event>
 8    1  0.2502431E-006  0.9118800E+02  0.7816164E-02  0.1184000E+00
        -11   -1    0    0    0    0  0.00000000000E+00  0.00000000000E+00  0.45593999997E+02  0.45594000000E+02  0.51100000000E-03 0.  1.
         11   -1    0    0    0    0 -0.00000000000E+00 -0.00000000000E+00 -0.45593999997E+02  0.45594000000E+02  0.51100000000E-03 0. -1.
         23    2    1    2    0    0  0.00000000000E+00  0.71054273576E-14  0.00000000000E+00  0.91188000000E+02  0.91188000000E+02 0.  0.
    9900012    2    3    3    0    0 -0.25063260482E+01  0.35539879871E+02 -0.92959689690E+01  0.54367085147E+02  0.40000002210E+02 0.  0.
        -12    1    3    3    0    0  0.25063260482E+01 -0.35539879871E+02  0.92959689690E+01  0.36820914853E+02  0.00000000000E+00 0.  1.
         11    1    4    4    0    0 -0.65793388055E+01  0.11336211038E+02 -0.66833390195E+01  0.14712729201E+02  0.51100000000E-03 0. -1.
        -11    1    4    4    0    0  0.13433909416E+01 -0.10645152026E+01 -0.12327214888E+02  0.12445807286E+02  0.51100000000E-03 0.  1.
         12    1    4    4    0    0  0.27296218158E+01  0.25268184035E+02  0.97145849384E+01  0.27208548661E+02  0.00000000000E+00 0. -1.
</event>
<event>
 8    1  0.2502431E-006  0.9118800E+02  0.7816164E-02  0.1184000E+00
        -11   -1    0    0    0    0  0.00000000000E+00  0.00000000000E+00  0.45593999997E+02  0.45594000000E+02  0.51100000000E-03 0.  1.
         11   -1    0    0    0    0 -0.00000000000E+00 -0.00000000000E+00 -0.45593999997E+02  0.45594000000E+02  0.51100000000E-03 0. -1.
         23    2    1    2    0    0 -0.17763568394E-14  0.35527136788E-14  0.00000000000E+00  0.91188000000E+02  0.91188000000E+02 0.  0.
    9900012    2    3    3    0    0 -0.15101188995E+02  0.20144044532E+02  0.26869177842E+02  0.54367066319E+02  0.39999959288E+02 0.  0.
         12    1    3    3    0    0  0.15101188995E+02 -0.20144044532E+02 -0.26869177842E+02  0.36820933681E+02  0.00000000000E+00 0. -1.
         11    1    4    4    0    0  0.15281651069E+01  0.12410700977E+02  0.95466266925E+00  0.12540820085E+02  0.51100000000E-03 0. -1.
        -11    1    4    4    0    0 -0.69785537831E+01  0.12474375899E+02  0.27465699399E+02  0.30962475849E+02  0.51100000000E-03 0.  1.
        -12    1    4    4    0    0 -0.96508003189E+01 -0.47410323440E+01 -0.15511842257E+01  0.10863770385E+02  0.00000000000E+00 0.  1.
</event>
<event>
 8    1  0.2502431E-006  0.9118800E+02  0.7816164E-02  0.1184000E+00
        -11   -1    0    0    0    0  0.00000000000E+00  0.00000000000E+00  0.45593999997E+02  0.45594000000E+02  0.51100000000E-03 0. -1.
         11   -1    0    0    0    0 -0.00000000000E+00 -0.00000000000E+00 -0.45593999997E+02  0.45594000000E+02  0.51100000000E-03 0.  1.
         23    2    1    2    0    0  0.00000000000E+00 -0.35527136788E-14 -0.88817841970E-15  0.91188000000E+02  0.91188000000E+02 0.  0.
    9900012    2    3    3    0    0 -0.30486494701E+02 -0.19075583083E+02  0.79041302978E+01  0.54367088755E+02  0.40000010435E+02 0.  0.
         12    1    3    3    0    0  0.30486494701E+02  0.19075583083E+02 -0.79041302978E+01  0.36820911245E+02  0.00000000000E+00 0. -1.
         11    1    4    4    0    0 -0.10202447068E+02 -0.22442705070E+02 -0.56942035747E+00  0.24659464245E+02  0.51100000000E-03 0. -1.
        -11    1    4    4    0    0 -0.64944140595E+01  0.86247334742E+01  0.10195427357E+02  0.14849585204E+02  0.51100000000E-03 0.  1.
        -12    1    4    4    0    0 -0.13789633573E+02 -0.52576114874E+01 -0.17218767020E+01  0.14858039306E+02  0.00000000000E+00 0.  1.
</event>
<event>
 8    1  0.2502431E-006  0.9118800E+02  0.7816164E-02  0.1184000E+00
        -11   -1    0    0    0    0  0.00000000000E+00  0.00000000000E+00  0.45593999997E+02  0.45594000000E+02  0.51100000000E-03 0.  1.
         11   -1    0    0    0    0 -0.00000000000E+00 -0.00000000000E+00 -0.45593999997E+02  0.45594000000E+02  0.51100000000E-03 0. -1.
         23    2    1    2    0    0  0.17763568394E-14 -0.35527136788E-14 -0.71054273576E-14  0.91188000000E+02  0.91188000000E+02 0.  0.
    9900012    2    3    3    0    0 -0.90141886080E+01  0.12674999873E+02  0.33374663241E+02  0.54367090662E+02  0.40000014781E+02 0.  0.
         12    1    3    3    0    0  0.90141886080E+01 -0.12674999873E+02 -0.33374663241E+02  0.36820909338E+02  0.00000000000E+00 0. -1.
         11    1    4    4    0    0 -0.20049268053E+01  0.48782256458E+01 -0.41900561985E+01  0.67359771492E+01  0.51100000000E-03 0. -1.
        -11    1    4    4    0    0  0.73860275639E+01  0.20424278772E+01  0.76754093678E+00  0.77015605015E+01  0.51100000000E-03 0.  1.
        -12    1    4    4    0    0 -0.14395289367E+02  0.57543463501E+01  0.36797178503E+02  0.39929553011E+02  0.00000000000E+00 0.  1.
</event>
<event>
 8    1  0.2502431E-006  0.9118800E+02  0.7816164E-02  0.1184000E+00
        -11   -1    0    0    0    0  0.00000000000E+00  0.00000000000E+00  0.45593999997E+02  0.45594000000E+02  0.51100000000E-03 0. -1.
         11   -1    0    0    0    0 -0.00000000000E+00 -0.00000000000E+00 -0.45593999997E+02  0.45594000000E+02  0.51100000000E-03 0.  1.
         23    2    1    2    0    0 -0.35527136788E-14  0.00000000000E+00  0.00000000000E+00  0.91188000000E+02  0.91188000000E+02 0.  0.
    9900012    2    3    3    0    0 -0.24091314366E+02  0.21861380948E+02  0.17247261833E+02  0.54367089560E+02  0.40000012271E+02 0.  0.
        -12    1    3    3    0    0  0.24091314366E+02 -0.21861380948E+02 -0.17247261833E+02  0.36820910440E+02  0.00000000000E+00 0.  1.
         11    1    4    4    0    0 -0.19932231151E+02 -0.16239815841E+01  0.58443116204E+01  0.20834757820E+02  0.51100000000E-03 0. -1.
        -11    1    4    4    0    0  0.83020648056E+01  0.71498028043E+01  0.46851005994E+01  0.11916128904E+02  0.51100000000E-03 0.  1.
         12    1    4    4    0    0 -0.12461148021E+02  0.16335559728E+02  0.67178496136E+01  0.21616202836E+02  0.00000000000E+00 0. -1.
</event>
<event>
 8    1  0.2502431E-006  0.9118800E+02  0.7816164E-02  0.1184000E+00
        -11   -1    0    0    0    0  0.00000000000E+00  0.00000000000E+00  0.45593999997E+02  0.45594000000E+02  0.51100000000E-03 0.  1.
         11   -1    0    0    0    0 -0.00000000000E+00 -0.00000000000E+00 -0.45593999997E+02  0.45594000000E+02  0.51100000000E-03 0. -1.
         23    2    1    2    0    0  0.22204460493E-15  0.00000000000E+00  0.35527136788E-14  0.91188000000E+02  0.91188000000E+02 0.  0.
    9900012    2    3    3    0    0  0.63404168615E+00  0.30403769488E+02 -0.20760256099E+02  0.54367089620E+02  0.40000012406E+02 0.  0.
        -12    1    3    3    0    0 -0.63404168615E+00 -0.30403769488E+02  0.20760256099E+02  0.36820910380E+02  0.00000000000E+00 0.  1.
         11    1    4    4    0    0 -0.56692237277E+00  0.33535034505E+02 -0.10524457273E+02  0.35152299233E+02  0.51100000000E-03 0. -1.
        -11    1    4    4    0    0 -0.34609163583E+01  0.41784470419E+01  0.46167028736E+00  0.54452273999E+01  0.51100000000E-03 0.  1.
        -12    1    4    4    0    0  0.46618804172E+01 -0.73097120587E+01 -0.10697469114E+02  0.13769562987E+02  0.00000000000E+00 0.  1.
</event>
<event>
 8    1  0.2502431E-006  0.9118800E+02  0.7816164E-02  0.1184000E+00
        -11   -1    0    0    0    0  0.00000000000E+00  0.00000000000E+00  0.45593999997E+02  0.45594000000E+02  0.51100000000E-03 0. -1.
         11   -1    0    0    0    0 -0.00000000000E+00 -0.00000000000E+00 -0.45593999997E+02  0.45594000000E+02  0.51100000000E-03 0.  1.
         23    2    1    2    0    0  0.00000000000E+00  0.00000000000E+00  0.00000000000E+00  0.91188000000E+02  0.91188000000E+02 0.  0.
    9900012    2    3    3    0    0 -0.69238348096E+01 -0.15276688991E+02  0.32779008370E+02  0.54367080610E+02  0.39999991866E+02 0.  0.
        -12    1    3    3    0    0  0.69238348096E+01  0.15276688991E+02 -0.32779008370E+02  0.36820919390E+02  0.00000000000E+00 0.  1.
         11    1    4    4    0    0  0.18399269319E+01  0.78280811490E+01  0.22737625653E+02  0.24117707316E+02  0.51100000000E-03 0. -1.
        -11    1    4    4    0    0 -0.41939298359E+01 -0.12795419428E+02 -0.21572821593E+01  0.13636923127E+02  0.51100000000E-03 0.  1.
         12    1    4    4    0    0 -0.45698319056E+01 -0.10309350712E+02  0.12198664877E+02  0.16612450167E+02  0.00000000000E+00 0. -1.
</event>
<event>
 8    1  0.2502431E-006  0.9118800E+02  0.7816164E-02  0.1184000E+00
        -11   -1    0    0    0    0  0.00000000000E+00  0.00000000000E+00  0.45593999997E+02  0.45594000000E+02  0.51100000000E-03 0. -1.
         11   -1    0    0    0    0 -0.00000000000E+00 -0.00000000000E+00 -0.45593999997E+02  0.45594000000E+02  0.51100000000E-03 0.  1.
         23    2    1    2    0    0  0.35527136788E-14  0.71054273576E-14  0.88817841970E-15  0.91188000000E+02  0.91188000000E+02 0.  0.
    9900012    2    3    3    0    0  0.17526629848E+02  0.31983341904E+02  0.50657960714E+01  0.54367092855E+02  0.40000019781E+02 0.  0.
         12    1    3    3    0    0 -0.17526629848E+02 -0.31983341904E+02 -0.50657960714E+01  0.36820907145E+02  0.00000000000E+00 0. -1.
         11    1    4    4    0    0  0.88027568777E+01  0.27415978076E+01 -0.54391802144E+01  0.10704651739E+02  0.51100000000E-03 0. -1.
        -11    1    4    4    0    0  0.88705877748E+01  0.34990554481E+02  0.65599911234E+01  0.36688686460E+02  0.51100000000E-03 0.  1.
         12    1    4    4    0    0 -0.14671480467E+00 -0.57488103847E+01  0.39449851624E+01  0.69737546561E+01  0.00000000000E+00 0. -1.
</event>
<event>
 8    1  0.2502431E-006  0.9118800E+02  0.7816164E-02  0.1184000E+00
        -11   -1    0    0    0    0  0.00000000000E+00  0.00000000000E+00  0.45593999997E+02  0.45594000000E+02  0.51100000000E-03 0. -1.
         11   -1    0    0    0    0 -0.00000000000E+00 -0.00000000000E+00 -0.45593999997E+02  0.45594000000E+02  0.51100000000E-03 0.  1.
         23    2    1    2    0    0 -0.35527136788E-14  0.00000000000E+00  0.00000000000E+00  0.91188000000E+02  0.91188000000E+02 0.  0.
    9900012    2    3    3    0    0 -0.17323180388E+02  0.18768860913E+02  0.26522033026E+02  0.54367069070E+02  0.39999965559E+02 0.  0.
        -12    1    3    3    0    0  0.17323180388E+02 -0.18768860913E+02 -0.26522033026E+02  0.36820930930E+02  0.00000000000E+00 0.  1.
         11    1    4    4    0    0  0.35691591642E+01  0.12159744479E+02  0.63349726625E+01  0.14167927224E+02  0.51100000000E-03 0. -1.
        -11    1    4    4    0    0 -0.42840211978E+01  0.11100924661E+02 -0.20595077678E+01  0.12075799703E+02  0.51100000000E-03 0.  1.
         12    1    4    4    0    0 -0.16608318354E+02 -0.44918082268E+01  0.22246568131E+02  0.28123342143E+02  0.00000000000E+00 0. -1.
</event>
<event>
 8    1  0.2502431E-006  0.9118800E+02  0.7816164E-02  0.1184000E+00
        -11   -1    0    0    0    0  0.00000000000E+00  0.00000000000E+00  0.45593999997E+02  0.45594000000E+02  0.51100000000E-03 0. -1.
         11   -1    0    0    0    0 -0.00000000000E+00 -0.00000000000E+00 -0.45593999997E+02  0.45594000000E+02  0.51100000000E-03 0.  1.
         23    2    1    2    0    0  0.35527136788E-14 -0.33306690739E-15  0.00000000000E+00  0.91188000000E+02  0.91188000000E+02 0.  0.
    9900012    2    3    3    0    0 -0.31465197967E+02 -0.90192230264E+00 -0.19102566235E+02  0.54367079537E+02  0.39999989421E+02 0.  0.
        -12    1    3    3    0    0  0.31465197967E+02  0.90192230264E+00  0.19102566235E+02  0.36820920463E+02  0.00000000000E+00 0.  1.
         11    1    4    4    0    0 -0.85989719906E+01 -0.97696446825E+01 -0.20436324871E+02  0.24228736059E+02  0.51100000000E-03 0.  1.
        -11    1    4    4    0    0 -0.51293499812E+01  0.11100935471E+02  0.32572464043E+00  0.12233033000E+02  0.51100000000E-03 0. -1.
         12    1    4    4    0    0 -0.17736875996E+02 -0.22332130915E+01  0.10080339962E+01  0.17905310479E+02  0.00000000000E+00 0. -1.
</event>
<event>
 8    1  0.2502431E-006  0.9118800E+02  0.7816164E-02  0.1184000E+00
        -11   -1    0    0    0    0  0.00000000000E+00  0.00000000000E+00  0.45593999997E+02  0.45594000000E+02  0.51100000000E-03 0. -1.
         11   -1    0    0    0    0 -0.00000000000E+00 -0.00000000000E+00 -0.45593999997E+02  0.45594000000E+02  0.51100000000E-03 0.  1.
         23    2    1    2    0    0 -0.88817841970E-15 -0.35527136788E-14  0.00000000000E+00  0.91188000000E+02  0.91188000000E+02 0.  0.
    9900012    2    3    3    0    0  0.53578423460E+01  0.16623486233E+02  0.32414998737E+02  0.54367096803E+02  0.40000028782E+02 0.  0.
        -12    1    3    3    0    0 -0.53578423460E+01 -0.16623486233E+02 -0.32414998737E+02  0.36820903197E+02  0.00000000000E+00 0.  1.
         11    1    4    4    0    0  0.10753356864E+02  0.97708753734E+01  0.13529967539E+02  0.19853581825E+02  0.51100000000E-03 0. -1.
        -11    1    4    4    0    0 -0.33749038692E+01 -0.56283470871E+01  0.20722853752E+02  0.21737178633E+02  0.51100000000E-03 0.  1.
        -12    1    4    4    0    0 -0.20206106483E+01  0.12480957947E+02 -0.18378225539E+01  0.12776336345E+02  0.00000000000E+00 0.  1.
</event>
<event>
 8    1  0.2502431E-006  0.9118800E+02  0.7816164E-02  0.1184000E+00
        -11   -1    0    0    0    0  0.00000000000E+00  0.00000000000E+00  0.45593999997E+02  0.45594000000E+02  0.51100000000E-03 0. -1.
         11   -1    0    0    0    0 -0.00000000000E+00 -0.00000000000E+00 -0.45593999997E+02  0.45594000000E+02  0.51100000000E-03 0.  1.
         23    2    1    2    0    0 -0.71054273576E-14  0.00000000000E+00  0.35527136788E-14  0.91188000000E+02  0.91188000000E+02 0.  0.
    9900012    2    3    3    0    0 -0.29367774346E+02 -0.47473511642E+01  0.21697376755E+02  0.54367086498E+02  0.40000005289E+02 0.  0.
         12    1    3    3    0    0  0.29367774346E+02  0.47473511642E+01 -0.21697376755E+02  0.36820913502E+02  0.00000000000E+00 0. -1.
         11    1    4    4    0    0 -0.23017711093E+02  0.49686286910E+01  0.10223572587E+02  0.25671457530E+02  0.51100000000E-03 0.  1.
        -11    1    4    4    0    0 -0.13978609875E+02 -0.92067847389E+00  0.93982473424E+01  0.16869387549E+02  0.51100000000E-03 0. -1.
        -12    1    4    4    0    0  0.76285466225E+01 -0.87953013813E+01  0.20755568255E+01  0.11826241419E+02  0.00000000000E+00 0.  1.
</event>
<event>
 8    1  0.2502431E-006  0.9118800E+02  0.7816164E-02  0.1184000E+00
        -11   -1    0    0    0    0  0.00000000000E+00  0.00000000000E+00  0.45593999997E+02  0.45594000000E+02  0.51100000000E-03 0.  1.
         11   -1    0    0    0    0 -0.00000000000E+00 -0.00000000000E+00 -0.45593999997E+02  0.45594000000E+02  0.51100000000E-03 0. -1.
         23    2    1    2    0    0 -0.35527136788E-14  0.00000000000E+00  0.00000000000E+00  0.91188000000E+02  0.91188000000E+02 0.  0.
    9900012    2    3    3    0    0 -0.18586162350E+02  0.12376365350E+02 -0.29277280685E+02  0.54367095414E+02  0.40000025616E+02 0.  0.
        -12    1    3    3    0    0  0.18586162350E+02 -0.12376365350E+02  0.29277280685E+02  0.36820904586E+02  0.00000000000E+00 0.  1.
         11    1    4    4    0    0 -0.22455365147E+02  0.13032312488E+02 -0.20811872112E+02  0.33274894646E+02  0.51100000000E-03 0. -1.
        -11    1    4    4    0    0  0.10638737096E+02 -0.15858239165E+01 -0.74476835983E+00  0.10782033419E+02  0.51100000000E-03 0.  1.
         12    1    4    4    0    0 -0.67695342995E+01  0.92987677879E+00 -0.77206402132E+01  0.10310167349E+02  0.00000000000E+00 0. -1.
</event>
<event>
 8    1  0.2502431E-006  0.9118800E+02  0.7816164E-02  0.1184000E+00
        -11   -1    0    0    0    0  0.00000000000E+00  0.00000000000E+00  0.45593999997E+02  0.45594000000E+02  0.51100000000E-03 0.  1.
         11   -1    0    0    0    0 -0.00000000000E+00 -0.00000000000E+00 -0.45593999997E+02  0.45594000000E+02  0.51100000000E-03 0. -1.
         23    2    1    2    0    0  0.35527136788E-14  0.00000000000E+00  0.00000000000E+00  0.91188000000E+02  0.91188000000E+02 0.  0.
    9900012    2    3    3    0    0  0.22354970461E+02  0.21073689371E+02 -0.20296158856E+02  0.54367093543E+02  0.40000021349E+02 0.  0.
        -12    1    3    3    0    0 -0.22354970461E+02 -0.21073689371E+02  0.20296158856E+02  0.36820906457E+02  0.00000000000E+00 0.  1.
         11    1    4    4    0    0  0.20005245173E+02  0.16625802430E+02 -0.16536889779E+02  0.30823625106E+02  0.51100000000E-03 0. -1.
        -11    1    4    4    0    0 -0.15852394241E+01  0.83677450170E+01 -0.11317465692E+02  0.14163939094E+02  0.51100000000E-03 0.  1.
        -12    1    4    4    0    0  0.39349647127E+01 -0.39198580758E+01  0.75581966150E+01  0.93795293429E+01  0.00000000000E+00 0.  1.
</event>
<event>
 8    1  0.2502431E-006  0.9118800E+02  0.7816164E-02  0.1184000E+00
        -11   -1    0    0    0    0  0.00000000000E+00  0.00000000000E+00  0.45593999997E+02  0.45594000000E+02  0.51100000000E-03 0. -1.
         11   -1    0    0    0    0 -0.00000000000E+00 -0.00000000000E+00 -0.45593999997E+02  0.45594000000E+02  0.51100000000E-03 0.  1.
         23    2    1    2    0    0  0.00000000000E+00  0.00000000000E+00  0.00000000000E+00  0.91188000000E+02  0.91188000000E+02 0.  0.
    9900012    2    3    3    0    0 -0.33994816428E+01  0.35692835727E+02  0.83811667703E+01  0.54367096235E+02  0.40000027486E+02 0.  0.
        -12    1    3    3    0    0  0.33994816428E+01 -0.35692835727E+02 -0.83811667703E+01  0.36820903765E+02  0.00000000000E+00 0.  1.
         11    1    4    4    0    0 -0.16171184713E+01  0.13586971469E+02 -0.52172608164E+01  0.14643793107E+02  0.51100000000E-03 0. -1.
        -11    1    4    4    0    0 -0.45951364597E+01  0.25800081219E+02  0.92093218463E+00  0.26222272715E+02  0.51100000000E-03 0.  1.
        -12    1    4    4    0    0  0.28127732882E+01 -0.36942169617E+01  0.12677495402E+02  0.13501030413E+02  0.00000000000E+00 0.  1.
</event>
<event>
 8    1  0.2502431E-006  0.9118800E+02  0.7816164E-02  0.1184000E+00
        -11   -1    0    0    0    0  0.00000000000E+00  0.00000000000E+00  0.45593999997E+02  0.45594000000E+02  0.51100000000E-03 0. -1.
         11   -1    0    0    0    0 -0.00000000000E+00 -0.00000000000E+00 -0.45593999997E+02  0.45594000000E+02  0.51100000000E-03 0.  1.
         23    2    1    2    0    0 -0.35527136788E-14  0.00000000000E+00 -0.35527136788E-14  0.91188000000E+02  0.91188000000E+02 0.  0.
    9900012    2    3    3    0    0  0.25196709509E+02 -0.20131326963E+02  0.17766156450E+02  0.54367071028E+02  0.39999970022E+02 0.  0.
        -12    1    3    3    0    0 -0.25196709509E+02  0.20131326963E+02 -0.17766156450E+02  0.36820928972E+02  0.00000000000E+00 0.  1.
         11    1    4    4    0    0 -0.40521395998E+01  0.74644726158E+01  0.67455211426E+01  0.10846208670E+02  0.51100000000E-03 0. -1.
        -11    1    4    4    0    0  0.29011227111E+01 -0.64636366320E+01 -0.19376951884E+01  0.73450510141E+01  0.51100000000E-03 0.  1.
         12    1    4    4    0    0  0.26347726398E+02 -0.21132162947E+02  0.12958330496E+02  0.36175811344E+02  0.00000000000E+00 0. -1.
</event>
<event>
 8    1  0.2502431E-006  0.9118800E+02  0.7816164E-02  0.1184000E+00
        -11   -1    0    0    0    0  0.00000000000E+00  0.00000000000E+00  0.45593999997E+02  0.45594000000E+02  0.51100000000E-03 0. -1.
         11   -1    0    0    0    0 -0.00000000000E+00 -0.00000000000E+00 -0.45593999997E+02  0.45594000000E+02  0.51100000000E-03 0.  1.
         23    2    1    2    0    0  0.35527136788E-14  0.00000000000E+00 -0.35527136788E-14  0.91188000000E+02  0.91188000000E+02 0.  0.
    9900012    2    3    3    0    0 -0.25525743398E+02 -0.20217034233E+02  0.17189525240E+02  0.54367193014E+02  0.40000248112E+02 0.  0.
        -12    1    3    3    0    0  0.25525743398E+02  0.20217034233E+02 -0.17189525240E+02  0.36820806986E+02  0.00000000000E+00 0.  1.
         11    1    4    4    0    0 -0.17865120273E+02 -0.28092458745E+02  0.87055209695E+01  0.34411260604E+02  0.51100000000E-03 0. -1.
        -11    1    4    4    0    0  0.11989311292E+00  0.55879191574E+01  0.10232772198E+02  0.11659710201E+02  0.51100000000E-03 0.  1.
        -12    1    4    4    0    0 -0.77805162372E+01  0.22875053553E+01 -0.17487679274E+01  0.82962222084E+01  0.00000000000E+00 0.  1.
</event>
<event>
 8    1  0.2502431E-006  0.9118800E+02  0.7816164E-02  0.1184000E+00
        -11   -1    0    0    0    0  0.00000000000E+00  0.00000000000E+00  0.45593999997E+02  0.45594000000E+02  0.51100000000E-03 0. -1.
         11   -1    0    0    0    0 -0.00000000000E+00 -0.00000000000E+00 -0.45593999997E+02  0.45594000000E+02  0.51100000000E-03 0.  1.
         23    2    1    2    0    0  0.00000000000E+00  0.00000000000E+00  0.35527136788E-14  0.91188000000E+02  0.91188000000E+02 0.  0.
    9900012    2    3    3    0    0  0.23042354555E+02  0.13304497101E+02  0.25452328062E+02  0.54367071843E+02  0.39999971880E+02 0.  0.
        -12    1    3    3    0    0 -0.23042354555E+02 -0.13304497101E+02 -0.25452328062E+02  0.36820928157E+02  0.00000000000E+00 0.  1.
         11    1    4    4    0    0  0.10704663129E+02  0.16628561252E+01  0.20799504561E+02  0.23451530727E+02  0.51100000000E-03 0. -1.
        -11    1    4    4    0    0  0.13861668819E+02 -0.32022233033E+01 -0.23714295716E+01  0.14423029329E+02  0.51100000000E-03 0.  1.
        -12    1    4    4    0    0 -0.15239773927E+01  0.14843864279E+02  0.70242530729E+01  0.16492511788E+02  0.00000000000E+00 0.  1.
</event>
<event>
 8    1  0.2502431E-006  0.9118800E+02  0.7816164E-02  0.1184000E+00
        -11   -1    0    0    0    0  0.00000000000E+00  0.00000000000E+00  0.45593999997E+02  0.45594000000E+02  0.51100000000E-03 0.  1.
         11   -1    0    0    0    0 -0.00000000000E+00 -0.00000000000E+00 -0.45593999997E+02  0.45594000000E+02  0.51100000000E-03 0. -1.
         23    2    1    2    0    0  0.35527136788E-14  0.00000000000E+00 -0.17763568394E-14  0.91188000000E+02  0.91188000000E+02 0.  0.
    9900012    2    3    3    0    0 -0.31708761448E+02 -0.10939648116E+02  0.15187456097E+02  0.54367078282E+02  0.39999986559E+02 0.  0.
         12    1    3    3    0    0  0.31708761448E+02  0.10939648116E+02 -0.15187456097E+02  0.36820921718E+02  0.00000000000E+00 0. -1.
         11    1    4    4    0    0  0.18720605247E+01 -0.73698904102E+01 -0.96041902022E+01  0.12249912855E+02  0.51100000000E-03 0. -1.
        -11    1    4    4    0    0 -0.29968579907E+02 -0.44162011440E+01  0.22738353983E+02  0.37876791790E+02  0.51100000000E-03 0.  1.
         12    1    4    4    0    0 -0.36122420665E+01  0.84644343832E+00  0.20532923156E+01  0.42403736362E+01  0.00000000000E+00 0. -1.
</event>
<event>
 8    1  0.2502431E-006  0.9118800E+02  0.7816164E-02  0.1184000E+00
        -11   -1    0    0    0    0  0.00000000000E+00  0.00000000000E+00  0.45593999997E+02  0.45594000000E+02  0.51100000000E-03 0.  1.
         11   -1    0    0    0    0 -0.00000000000E+00 -0.00000000000E+00 -0.45593999997E+02  0.45594000000E+02  0.51100000000E-03 0. -1.
         23    2    1    2    0    0  0.35527136788E-14 -0.32474023470E-14  0.35527136788E-14  0.91188000000E+02  0.91188000000E+02 0.  0.
    9900012    2    3    3    0    0  0.18567047190E+02  0.14811257385E+00  0.31796579661E+02  0.54367086692E+02  0.40000005732E+02 0.  0.
         12    1    3    3    0    0 -0.18567047190E+02 -0.14811257385E+00 -0.31796579661E+02  0.36820913308E+02  0.00000000000E+00 0. -1.
         11    1    4    4    0    0 -0.11512742204E+01 -0.12571503214E+02  0.52181340652E+01  0.13660053030E+02  0.51100000000E-03 0. -1.
        -11    1    4    4    0    0  0.29625247482E+01  0.12861198582E+02  0.16590140034E+02  0.21199521892E+02  0.51100000000E-03 0.  1.
         12    1    4    4    0    0  0.16755796663E+02 -0.14158279349E+00  0.99883055613E+01  0.19507511770E+02  0.00000000000E+00 0. -1.
</event>
<event>
 8    1  0.2502431E-006  0.9118800E+02  0.7816164E-02  0.1184000E+00
        -11   -1    0    0    0    0  0.00000000000E+00  0.00000000000E+00  0.45593999997E+02  0.45594000000E+02  0.51100000000E-03 0.  1.
         11   -1    0    0    0    0 -0.00000000000E+00 -0.00000000000E+00 -0.45593999997E+02  0.45594000000E+02  0.51100000000E-03 0. -1.
         23    2    1    2    0    0  0.88817841970E-15 -0.71054273576E-14 -0.17763568394E-14  0.91188000000E+02  0.91188000000E+02 0.  0.
    9900012    2    3    3    0    0 -0.73817007829E+01  0.33012581593E+02  0.14541558189E+02  0.54367123252E+02  0.40000089078E+02 0.  0.
         12    1    3    3    0    0  0.73817007829E+01 -0.33012581593E+02 -0.14541558189E+02  0.36820876748E+02  0.00000000000E+00 0. -1.
         11    1    4    4    0    0  0.94482713059E+01  0.16198923977E+01  0.55976442183E+01  0.11100788400E+02  0.51100000000E-03 0. -1.
        -11    1    4    4    0    0 -0.11303749345E+02  0.36802645444E+01 -0.34961579272E+01  0.12391215311E+02  0.51100000000E-03 0.  1.
        -12    1    4    4    0    0 -0.55262227438E+01  0.27712424651E+02  0.12440071898E+02  0.30875119541E+02  0.00000000000E+00 0.  1.
</event>
<event>
 8    1  0.2502431E-006  0.9118800E+02  0.7816164E-02  0.1184000E+00
        -11   -1    0    0    0    0  0.00000000000E+00  0.00000000000E+00  0.45593999997E+02  0.45594000000E+02  0.51100000000E-03 0.  1.
         11   -1    0    0    0    0 -0.00000000000E+00 -0.00000000000E+00 -0.45593999997E+02  0.45594000000E+02  0.51100000000E-03 0. -1.
         23    2    1    2    0    0 -0.35527136788E-14  0.00000000000E+00  0.00000000000E+00  0.91188000000E+02  0.91188000000E+02 0.  0.
    9900012    2    3    3    0    0  0.26634232894E+02  0.12527401638E+02  0.22123675107E+02  0.54367147839E+02  0.40000145128E+02 0.  0.
         12    1    3    3    0    0 -0.26634232894E+02 -0.12527401638E+02 -0.22123675107E+02  0.36820852161E+02  0.00000000000E+00 0. -1.
         11    1    4    4    0    0  0.76532623646E+01  0.55569464478E+01 -0.49130646789E+01  0.10657874246E+02  0.51100000000E-03 0. -1.
        -11    1    4    4    0    0  0.11648065065E+02 -0.82038599143E+01  0.33446992071E+01  0.14634471302E+02  0.51100000000E-03 0.  1.
        -12    1    4    4    0    0  0.73329054641E+01  0.15174315104E+02  0.23692040579E+02  0.29074802290E+02  0.00000000000E+00 0.  1.
</event>
<event>
 8    1  0.2502431E-006  0.9118800E+02  0.7816164E-02  0.1184000E+00
        -11   -1    0    0    0    0  0.00000000000E+00  0.00000000000E+00  0.45593999997E+02  0.45594000000E+02  0.51100000000E-03 0.  1.
         11   -1    0    0    0    0 -0.00000000000E+00 -0.00000000000E+00 -0.45593999997E+02  0.45594000000E+02  0.51100000000E-03 0. -1.
         23    2    1    2    0    0  0.00000000000E+00  0.11102230246E-15  0.00000000000E+00  0.91188000000E+02  0.91188000000E+02 0.  0.
    9900012    2    3    3    0    0  0.25444325675E+02  0.45262140328E+00 -0.26611379420E+02  0.54367026496E+02  0.39999868502E+02 0.  0.
        -12    1    3    3    0    0 -0.25444325675E+02 -0.45262140328E+00  0.26611379420E+02  0.36820973504E+02  0.00000000000E+00 0.  1.
         11    1    4    4    0    0 -0.31761410246E+01 -0.62701728958E+00  0.24879275038E+01  0.40829898377E+01  0.51100000000E-03 0. -1.
        -11    1    4    4    0    0  0.12818199865E+01  0.24620880275E-01  0.57994679033E+01  0.59394862478E+01  0.51100000000E-03 0.  1.
         12    1    4    4    0    0  0.27338646713E+02  0.10550178126E+01 -0.34898774827E+02  0.44344550410E+02  0.00000000000E+00 0. -1.
</event>
<event>
 8    1  0.2502431E-006  0.9118800E+02  0.7816164E-02  0.1184000E+00
        -11   -1    0    0    0    0  0.00000000000E+00  0.00000000000E+00  0.45593999997E+02  0.45594000000E+02  0.51100000000E-03 0.  1.
         11   -1    0    0    0    0 -0.00000000000E+00 -0.00000000000E+00 -0.45593999997E+02  0.45594000000E+02  0.51100000000E-03 0. -1.
         23    2    1    2    0    0  0.00000000000E+00  0.00000000000E+00 -0.71054273576E-14  0.91188000000E+02  0.91188000000E+02 0.  0.
    9900012    2    3    3    0    0 -0.19250571650E+02 -0.22901523559E+02  0.21464284301E+02  0.54367084874E+02  0.40000001587E+02 0.  0.
         12    1    3    3    0    0  0.19250571650E+02  0.22901523559E+02 -0.21464284301E+02  0.36820915126E+02  0.00000000000E+00 0. -1.
         11    1    4    4    0    0 -0.30192210457E+01 -0.18527158521E+00  0.37042272031E+01  0.47823969635E+01  0.51100000000E-03 0. -1.
        -11    1    4    4    0    0 -0.88134745378E+01  0.17635545802E+01 -0.88923997447E+01  0.12643663696E+02  0.51100000000E-03 0.  1.
        -12    1    4    4    0    0 -0.74178760662E+01 -0.24479806554E+02  0.26652456843E+02  0.36941024214E+02  0.00000000000E+00 0.  1.
</event>
<event>
 8    1  0.2502431E-006  0.9118800E+02  0.7816164E-02  0.1184000E+00
        -11   -1    0    0    0    0  0.00000000000E+00  0.00000000000E+00  0.45593999997E+02  0.45594000000E+02  0.51100000000E-03 0.  1.
         11   -1    0    0    0    0 -0.00000000000E+00 -0.00000000000E+00 -0.45593999997E+02  0.45594000000E+02  0.51100000000E-03 0. -1.
         23    2    1    2    0    0  0.00000000000E+00  0.00000000000E+00  0.00000000000E+00  0.91188000000E+02  0.91188000000E+02 0.  0.
    9900012    2    3    3    0    0  0.73058233890E+01 -0.34321007710E+02 -0.11156713707E+02  0.54367097154E+02  0.40000029583E+02 0.  0.
        -12    1    3    3    0    0 -0.73058233890E+01  0.34321007710E+02  0.11156713707E+02  0.36820902846E+02  0.00000000000E+00 0.  1.
         11    1    4    4    0    0 -0.37268713574E+00 -0.10178505562E+02 -0.15706900434E+02  0.18720245529E+02  0.51100000000E-03 0. -1.
        -11    1    4    4    0    0  0.53723556620E+01 -0.15507580845E+02  0.14763541169E+02  0.22075085892E+02  0.51100000000E-03 0.  1.
        -12    1    4    4    0    0  0.23061548627E+01 -0.86349213035E+01 -0.10213354442E+02  0.13571765733E+02  0.00000000000E+00 0.  1.
</event>
<event>
 8    1  0.2502431E-006  0.9118800E+02  0.7816164E-02  0.1184000E+00
        -11   -1    0    0    0    0  0.00000000000E+00  0.00000000000E+00  0.45593999997E+02  0.45594000000E+02  0.51100000000E-03 0. -1.
         11   -1    0    0    0    0 -0.00000000000E+00 -0.00000000000E+00 -0.45593999997E+02  0.45594000000E+02  0.51100000000E-03 0.  1.
         23    2    1    2    0    0  0.00000000000E+00 -0.17763568394E-14 -0.35527136788E-14  0.91188000000E+02  0.91188000000E+02 0.  0.
    9900012    2    3    3    0    0  0.22413204910E+02 -0.11343658325E+02 -0.26921189227E+02  0.54367071605E+02  0.39999971337E+02 0.  0.
         12    1    3    3    0    0 -0.22413204910E+02  0.11343658325E+02  0.26921189227E+02  0.36820928395E+02  0.00000000000E+00 0. -1.
         11    1    4    4    0    0 -0.80558153636E+01 -0.37305024890E+00 -0.23644038373E+01  0.84039117932E+01  0.51100000000E-03 0. -1.
        -11    1    4    4    0    0  0.65390529145E+01  0.57555482059E+01 -0.16794408872E+01  0.88716441612E+01  0.51100000000E-03 0.  1.
        -12    1    4    4    0    0  0.23929967359E+02 -0.16726156282E+02 -0.22877344502E+02  0.37091515650E+02  0.00000000000E+00 0.  1.
</event>
<event>
 8    1  0.2502431E-006  0.9118800E+02  0.7816164E-02  0.1184000E+00
        -11   -1    0    0    0    0  0.00000000000E+00  0.00000000000E+00  0.45593999997E+02  0.45594000000E+02  0.51100000000E-03 0. -1.
         11   -1    0    0    0    0 -0.00000000000E+00 -0.00000000000E+00 -0.45593999997E+02  0.45594000000E+02  0.51100000000E-03 0.  1.
         23    2    1    2    0    0  0.88817841970E-15  0.88817841970E-15  0.00000000000E+00  0.91188000000E+02  0.91188000000E+02 0.  0.
    9900012    2    3    3    0    0 -0.30323615357E+01 -0.71993996988E+01 -0.35982674357E+02  0.54367089822E+02  0.40000012866E+02 0.  0.
         12    1    3    3    0    0  0.30323615357E+01  0.71993996988E+01  0.35982674357E+02  0.36820910178E+02  0.00000000000E+00 0. -1.
         11    1    4    4    0    0  0.70693462718E+01  0.11168785235E+02 -0.14321475186E+02  0.19489024401E+02  0.51100000000E-03 0. -1.
        -11    1    4    4    0    0  0.43261090823E+01 -0.28106885848E+01 -0.83974745921E+01  0.98555958673E+01  0.51100000000E-03 0.  1.
         12    1    4    4    0    0 -0.14427816890E+02 -0.15557496349E+02 -0.13263724578E+02  0.25022469553E+02  0.00000000000E+00 0. -1.
</event>
<event>
 8    1  0.2502431E-006  0.9118800E+02  0.7816164E-02  0.1184000E+00
        -11   -1    0    0    0    0  0.00000000000E+00  0.00000000000E+00  0.45593999997E+02  0.45594000000E+02  0.51100000000E-03 0. -1.
         11   -1    0    0    0    0 -0.00000000000E+00 -0.00000000000E+00 -0.45593999997E+02  0.45594000000E+02  0.51100000000E-03 0.  1.
         23    2    1    2    0    0  0.00000000000E+00  0.55511151231E-15  0.88817841970E-15  0.91188000000E+02  0.91188000000E+02 0.  0.
    9900012    2    3    3    0    0 -0.36598180935E+02 -0.51769649536E+00  0.40108026737E+01  0.54367063082E+02  0.39999951909E+02 0.  0.
         12    1    3    3    0    0  0.36598180935E+02  0.51769649536E+00 -0.40108026737E+01  0.36820936918E+02  0.00000000000E+00 0. -1.
         11    1    4    4    0    0  0.43359618528E+01 -0.58289243417E+01 -0.15490819784E+01  0.74280939282E+01  0.51100000000E-03 0. -1.
        -11    1    4    4    0    0 -0.18224641585E+02 -0.19706885619E+01  0.12397598376E+02  0.22129654766E+02  0.51100000000E-03 0.  1.
        -12    1    4    4    0    0 -0.22709501203E+02  0.72819164082E+01 -0.68377137239E+01  0.24809314388E+02  0.00000000000E+00 0.  1.
</event>
<event>
 8    1  0.2502431E-006  0.9118800E+02  0.7816164E-02  0.1184000E+00
        -11   -1    0    0    0    0  0.00000000000E+00  0.00000000000E+00  0.45593999997E+02  0.45594000000E+02  0.51100000000E-03 0. -1.
         11   -1    0    0    0    0 -0.00000000000E+00 -0.00000000000E+00 -0.45593999997E+02  0.45594000000E+02  0.51100000000E-03 0.  1.
         23    2    1    2    0    0  0.35527136788E-14 -0.44408920985E-15 -0.35527136788E-14  0.91188000000E+02  0.91188000000E+02 0.  0.
    9900012    2    3    3    0    0 -0.19060449839E+02 -0.39163076967E+01  0.31259263400E+02  0.54367085259E+02  0.40000002466E+02 0.  0.
        -12    1    3    3    0    0  0.19060449839E+02  0.39163076967E+01 -0.31259263400E+02  0.36820914741E+02  0.00000000000E+00 0.  1.
         11    1    4    4    0    0  0.72599408890E+01  0.33665245396E+01 -0.38571648856E+01  0.88835775678E+01  0.51100000000E-03 0. -1.
        -11    1    4    4    0    0 -0.86361938779E+01  0.19107198707E+01  0.88629065180E+01  0.12521413951E+02  0.51100000000E-03 0.  1.
         12    1    4    4    0    0 -0.17684196850E+02 -0.91935521070E+01  0.26253521768E+02  0.32962093741E+02  0.00000000000E+00 0. -1.
</event>
<event>
 8    1  0.2502431E-006  0.9118800E+02  0.7816164E-02  0.1184000E+00
        -11   -1    0    0    0    0  0.00000000000E+00  0.00000000000E+00  0.45593999997E+02  0.45594000000E+02  0.51100000000E-03 0.  1.
         11   -1    0    0    0    0 -0.00000000000E+00 -0.00000000000E+00 -0.45593999997E+02  0.45594000000E+02  0.51100000000E-03 0. -1.
         23    2    1    2    0    0  0.17763568394E-14  0.88817841970E-15  0.00000000000E+00  0.91188000000E+02  0.91188000000E+02 0.  0.
    9900012    2    3    3    0    0  0.55619709136E+01 -0.68461111407E+01  0.35748762414E+02  0.54367098703E+02  0.40000033114E+02 0.  0.
         12    1    3    3    0    0 -0.55619709136E+01  0.68461111407E+01 -0.35748762414E+02  0.36820901297E+02  0.00000000000E+00 0. -1.
         11    1    4    4    0    0 -0.12218081748E+02  0.43522956691E+00  0.33591549005E+00  0.12230445039E+02  0.51100000000E-03 0. -1.
        -11    1    4    4    0    0  0.19497721703E+02 -0.58865283263E+01  0.29720983835E+02  0.36029838297E+02  0.51100000000E-03 0.  1.
        -12    1    4    4    0    0 -0.17176690413E+01 -0.13948123813E+01  0.56918630889E+01  0.61068153679E+01  0.00000000000E+00 0.  1.
</event>
<event>
 8    1  0.2502431E-006  0.9118800E+02  0.7816164E-02  0.1184000E+00
        -11   -1    0    0    0    0  0.00000000000E+00  0.00000000000E+00  0.45593999997E+02  0.45594000000E+02  0.51100000000E-03 0.  1.
         11   -1    0    0    0    0 -0.00000000000E+00 -0.00000000000E+00 -0.45593999997E+02  0.45594000000E+02  0.51100000000E-03 0. -1.
         23    2    1    2    0    0  0.88817841970E-15  0.17763568394E-14  0.71054273576E-14  0.91188000000E+02  0.91188000000E+02 0.  0.
    9900012    2    3    3    0    0  0.56340540714E+01  0.14618563658E+02  0.33321695743E+02  0.54367076928E+02  0.39999983473E+02 0.  0.
         12    1    3    3    0    0 -0.56340540714E+01 -0.14618563658E+02 -0.33321695743E+02  0.36820923072E+02  0.00000000000E+00 0. -1.
         11    1    4    4    0    0 -0.46708631285E+01  0.20428555859E+01  0.19361355706E+02  0.20021296570E+02  0.51100000000E-03 0. -1.
        -11    1    4    4    0    0  0.60771054110E+01 -0.52745755659E+01  0.13830612874E+02  0.16001194028E+02  0.51100000000E-03 0.  1.
         12    1    4    4    0    0  0.42278117889E+01  0.17850283638E+02  0.12972716237E+00  0.18344586330E+02  0.00000000000E+00 0. -1.
</event>
<event>
 8    1  0.2502431E-006  0.9118800E+02  0.7816164E-02  0.1184000E+00
        -11   -1    0    0    0    0  0.00000000000E+00  0.00000000000E+00  0.45593999997E+02  0.45594000000E+02  0.51100000000E-03 0. -1.
         11   -1    0    0    0    0 -0.00000000000E+00 -0.00000000000E+00 -0.45593999997E+02  0.45594000000E+02  0.51100000000E-03 0.  1.
         23    2    1    2    0    0  0.00000000000E+00  0.35527136788E-14  0.00000000000E+00  0.91188000000E+02  0.91188000000E+02 0.  0.
    9900012    2    3    3    0    0 -0.31971020595E+02 -0.18178854919E+02 -0.17782866016E+01  0.54367092525E+02  0.40000019029E+02 0.  0.
        -12    1    3    3    0    0  0.31971020595E+02  0.18178854919E+02  0.17782866016E+01  0.36820907475E+02  0.00000000000E+00 0.  1.
         11    1    4    4    0    0 -0.18028414657E+02 -0.78472828168E+01 -0.48865337295E+01  0.20260350313E+02  0.51100000000E-03 0. -1.
        -11    1    4    4    0    0  0.23997384390E+01 -0.16258094708E+02  0.30939944480E+01  0.16722953986E+02  0.51100000000E-03 0.  1.
        -12    1    4    4    0    0 -0.16342344377E+02  0.59265226064E+01  0.14252679969E-01  0.17383788226E+02  0.00000000000E+00 0.  1.
</event>
<event>
 8    1  0.2502431E-006  0.9118800E+02  0.7816164E-02  0.1184000E+00
        -11   -1    0    0    0    0  0.00000000000E+00  0.00000000000E+00  0.45593999997E+02  0.45594000000E+02  0.51100000000E-03 0.  1.
         11   -1    0    0    0    0 -0.00000000000E+00 -0.00000000000E+00 -0.45593999997E+02  0.45594000000E+02  0.51100000000E-03 0. -1.
         23    2    1    2    0    0  0.35527136788E-14  0.35527136788E-14  0.00000000000E+00  0.91188000000E+02  0.91188000000E+02 0.  0.
    9900012    2    3    3    0    0 -0.10272987335E+02 -0.31561515607E+02 -0.15941034881E+02  0.54367080277E+02  0.39999991107E+02 0.  0.
        -12    1    3    3    0    0  0.10272987335E+02  0.31561515607E+02  0.15941034881E+02  0.36820919723E+02  0.00000000000E+00 0.  1.
         11    1    4    4    0    0  0.79112123829E+01 -0.25352113538E+02 -0.21288572072E+02  0.34037042224E+02  0.51100000000E-03 0. -1.
        -11    1    4    4    0    0 -0.50100719775E+01 -0.15719593330E+01  0.33319735749E+01  0.62188363485E+01  0.51100000000E-03 0.  1.
         12    1    4    4    0    0 -0.13174127740E+02 -0.46374427355E+01  0.20155636163E+01  0.14111201704E+02  0.00000000000E+00 0. -1.
</event>
<event>
 8    1  0.2502431E-006  0.9118800E+02  0.7816164E-02  0.1184000E+00
        -11   -1    0    0    0    0  0.00000000000E+00  0.00000000000E+00  0.45593999997E+02  0.45594000000E+02  0.51100000000E-03 0.  1.
         11   -1    0    0    0    0 -0.00000000000E+00 -0.00000000000E+00 -0.45593999997E+02  0.45594000000E+02  0.51100000000E-03 0. -1.
         23    2    1    2    0    0  0.00000000000E+00  0.00000000000E+00 -0.26645352591E-14  0.91188000000E+02  0.91188000000E+02 0.  0.
    9900012    2    3    3    0    0  0.35599431162E+02 -0.82931239635E+01  0.44367799024E+01  0.54367076329E+02  0.39999982106E+02 0.  0.
        -12    1    3    3    0    0 -0.35599431162E+02  0.82931239635E+01 -0.44367799024E+01  0.36820923671E+02  0.00000000000E+00 0.  1.
         11    1    4    4    0    0  0.10459537894E+02 -0.47220056465E+01  0.59914798449E+01  0.12945929912E+02  0.51100000000E-03 0. -1.
        -11    1    4    4    0    0  0.17872635141E+02 -0.12929011020E+02 -0.12445861849E+02  0.25327650706E+02  0.51100000000E-03 0.  1.
        -12    1    4    4    0    0  0.72672581269E+01  0.93578927033E+01  0.10891161907E+02  0.16093495711E+02  0.00000000000E+00 0.  1.
</event>
<event>
 8    1  0.2502431E-006  0.9118800E+02  0.7816164E-02  0.1184000E+00
        -11   -1    0    0    0    0  0.00000000000E+00  0.00000000000E+00  0.45593999997E+02  0.45594000000E+02  0.51100000000E-03 0.  1.
         11   -1    0    0    0    0 -0.00000000000E+00 -0.00000000000E+00 -0.45593999997E+02  0.45594000000E+02  0.51100000000E-03 0. -1.
         23    2    1    2    0    0  0.22204460493E-15  0.00000000000E+00  0.00000000000E+00  0.91188000000E+02  0.91188000000E+02 0.  0.
    9900012    2    3    3    0    0  0.96375790330E+00 -0.77755724931E+01 -0.35977636281E+02  0.54367100102E+02  0.40000036303E+02 0.  0.
        -12    1    3    3    0    0 -0.96375790330E+00  0.77755724931E+01  0.35977636281E+02  0.36820899898E+02  0.00000000000E+00 0.  1.
         11    1    4    4    0    0  0.16430971624E+02 -0.91058209291E+01 -0.14673969211E+02  0.23837327367E+02  0.51100000000E-03 0. -1.
        -11    1    4    4    0    0 -0.77806941977E+01 -0.52779155001E+01 -0.34799438739E+01  0.10025248319E+02  0.51100000000E-03 0.  1.
         12    1    4    4    0    0 -0.76865195233E+01  0.66081639361E+01 -0.17823723196E+02  0.20504524417E+02  0.00000000000E+00 0. -1.
</event>
<event>
 8    1  0.2502431E-006  0.9118800E+02  0.7816164E-02  0.1184000E+00
        -11   -1    0    0    0    0  0.00000000000E+00  0.00000000000E+00  0.45593999997E+02  0.45594000000E+02  0.51100000000E-03 0. -1.
         11   -1    0    0    0    0 -0.00000000000E+00 -0.00000000000E+00 -0.45593999997E+02  0.45594000000E+02  0.51100000000E-03 0.  1.
         23    2    1    2    0    0  0.00000000000E+00  0.00000000000E+00  0.71054273576E-14  0.91188000000E+02  0.91188000000E+02 0.  0.
    9900012    2    3    3    0    0 -0.62311170337E+01 -0.24727319953E+02  0.26561495643E+02  0.54367079013E+02  0.39999988225E+02 0.  0.
        -12    1    3    3    0    0  0.62311170337E+01  0.24727319953E+02 -0.26561495643E+02  0.36820920987E+02  0.00000000000E+00 0.  1.
         11    1    4    4    0    0 -0.50036164971E+01  0.25932049815E+01 -0.58797387604E+01  0.81444593607E+01  0.51100000000E-03 0. -1.
        -11    1    4    4    0    0  0.23494951143E+01 -0.23140116764E+01 -0.17331939172E+01  0.37254179291E+01  0.51100000000E-03 0.  1.
         12    1    4    4    0    0 -0.35769956508E+01 -0.25006513259E+02  0.34174428321E+02  0.42497201723E+02  0.00000000000E+00 0. -1.
</event>
<event>
 8    1  0.2502431E-006  0.9118800E+02  0.7816164E-02  0.1184000E+00
        -11   -1    0    0    0    0  0.00000000000E+00  0.00000000000E+00  0.45593999997E+02  0.45594000000E+02  0.51100000000E-03 0.  1.
         11   -1    0    0    0    0 -0.00000000000E+00 -0.00000000000E+00 -0.45593999997E+02  0.45594000000E+02  0.51100000000E-03 0. -1.
         23    2    1    2    0    0  0.00000000000E+00  0.00000000000E+00  0.00000000000E+00  0.91188000000E+02  0.91188000000E+02 0.  0.
    9900012    2    3    3    0    0  0.25514835987E+02 -0.25695029196E+02 -0.66736422375E+01  0.54367097220E+02  0.40000029733E+02 0.  0.
        -12    1    3    3    0    0 -0.25514835987E+02  0.25695029196E+02  0.66736422375E+01  0.36820902780E+02  0.00000000000E+00 0.  1.
         11    1    4    4    0    0  0.29011228384E+02 -0.11140724786E+02 -0.53392742185E+01  0.31532126008E+02  0.51100000000E-03 0. -1.
        -11    1    4    4    0    0  0.20504776214E+01 -0.10816728481E+02  0.63004584699E+01  0.12684709327E+02  0.51100000000E-03 0.  1.
         12    1    4    4    0    0 -0.55468700190E+01 -0.37375759293E+01 -0.76348264889E+01  0.10150261886E+02  0.00000000000E+00 0. -1.
</event>
<event>
 8    1  0.2502431E-006  0.9118800E+02  0.7816164E-02  0.1184000E+00
        -11   -1    0    0    0    0  0.00000000000E+00  0.00000000000E+00  0.45593999997E+02  0.45594000000E+02  0.51100000000E-03 0.  1.
         11   -1    0    0    0    0 -0.00000000000E+00 -0.00000000000E+00 -0.45593999997E+02  0.45594000000E+02  0.51100000000E-03 0. -1.
         23    2    1    2    0    0  0.00000000000E+00  0.00000000000E+00  0.00000000000E+00  0.91188000000E+02  0.91188000000E+02 0.  0.
    9900012    2    3    3    0    0 -0.15090143954E+02 -0.21219554660E+02 -0.26034551814E+02  0.54367084304E+02  0.40000000288E+02 0.  0.
        -12    1    3    3    0    0  0.15090143954E+02  0.21219554660E+02  0.26034551814E+02  0.36820915696E+02  0.00000000000E+00 0.  1.
         11    1    4    4    0    0 -0.19787117526E+02 -0.10567882270E+02 -0.11934500645E+02  0.25409495500E+02  0.51100000000E-03 0. -1.
        -11    1    4    4    0    0  0.27500720065E+01 -0.17038004580E+02 -0.14092202642E+02  0.22281083270E+02  0.51100000000E-03 0.  1.
         12    1    4    4    0    0  0.19469015659E+01  0.63863321897E+01 -0.78485267939E-02  0.66765055339E+01  0.00000000000E+00 0. -1.
</event>
<event>
 8    1  0.2502431E-006  0.9118800E+02  0.7816164E-02  0.1184000E+00
        -11   -1    0    0    0    0  0.00000000000E+00  0.00000000000E+00  0.45593999997E+02  0.45594000000E+02  0.51100000000E-03 0. -1.
         11   -1    0    0    0    0 -0.00000000000E+00 -0.00000000000E+00 -0.45593999997E+02  0.45594000000E+02  0.51100000000E-03 0.  1.
         23    2    1    2    0    0  0.00000000000E+00  0.16653345369E-15 -0.71054273576E-14  0.91188000000E+02  0.91188000000E+02 0.  0.
    9900012    2    3    3    0    0  0.31748461589E+02  0.31873878533E+00  0.18646955621E+02  0.54367145018E+02  0.40000138698E+02 0.  0.
        -12    1    3    3    0    0 -0.31748461589E+02 -0.31873878533E+00 -0.18646955621E+02  0.36820854982E+02  0.00000000000E+00 0.  1.
         11    1    4    4    0    0  0.15327670645E+02  0.99789780347E+01 -0.65979238397E+00  0.18301716211E+02  0.51100000000E-03 0. -1.
        -11    1    4    4    0    0 -0.27504286811E+01  0.53472044631E+01  0.26812901077E+01  0.65838264256E+01  0.51100000000E-03 0.  1.
         12    1    4    4    0    0  0.19171219625E+02 -0.15007443712E+02  0.16625457897E+02  0.29481602381E+02  0.00000000000E+00 0. -1.
</event>
<event>
 8    1  0.2502431E-006  0.9118800E+02  0.7816164E-02  0.1184000E+00
        -11   -1    0    0    0    0  0.00000000000E+00  0.00000000000E+00  0.45593999997E+02  0.45594000000E+02  0.51100000000E-03 0.  1.
         11   -1    0    0    0    0 -0.00000000000E+00 -0.00000000000E+00 -0.45593999997E+02  0.45594000000E+02  0.51100000000E-03 0. -1.
         23    2    1    2    0    0  0.00000000000E+00  0.00000000000E+00 -0.88817841970E-15  0.91188000000E+02  0.91188000000E+02 0.  0.
    9900012    2    3    3    0    0 -0.25302720592E+02  0.26011232754E+02 -0.62424882117E+01  0.54367074457E+02  0.39999977840E+02 0.  0.
        -12    1    3    3    0    0  0.25302720592E+02 -0.26011232754E+02  0.62424882117E+01  0.36820925543E+02  0.00000000000E+00 0.  1.
         11    1    4    4    0    0 -0.48630329648E+01  0.50576597212E+01  0.37348938899E+01  0.79484869065E+01  0.51100000000E-03 0.  1.
        -11    1    4    4    0    0 -0.24252110049E+02  0.22727927859E+02 -0.17676842331E+02  0.37645641204E+02  0.51100000000E-03 0. -1.
         12    1    4    4    0    0  0.38124224215E+01 -0.17743548261E+01  0.76994602298E+01  0.87729463465E+01  0.00000000000E+00 0. -1.
</event>
<event>
 8    1  0.2502431E-006  0.9118800E+02  0.7816164E-02  0.1184000E+00
        -11   -1    0    0    0    0  0.00000000000E+00  0.00000000000E+00  0.45593999997E+02  0.45594000000E+02  0.51100000000E-03 0. -1.
         11   -1    0    0    0    0 -0.00000000000E+00 -0.00000000000E+00 -0.45593999997E+02  0.45594000000E+02  0.51100000000E-03 0.  1.
         23    2    1    2    0    0  0.00000000000E+00  0.00000000000E+00  0.00000000000E+00  0.91188000000E+02  0.91188000000E+02 0.  0.
    9900012    2    3    3    0    0  0.23585504107E+02 -0.80243887258E+01  0.27113057315E+02  0.54367018273E+02  0.39999849756E+02 0.  0.
        -12    1    3    3    0    0 -0.23585504107E+02  0.80243887258E+01 -0.27113057315E+02  0.36820981727E+02  0.00000000000E+00 0.  1.
         11    1    4    4    0    0  0.92747231119E+00 -0.44732983347E+01  0.21839757902E+01  0.50636304557E+01  0.51100000000E-03 0. -1.
        -11    1    4    4    0    0 -0.32873481176E+01 -0.24808493594E+01  0.22888303698E+02  0.23255874906E+02  0.51100000000E-03 0.  1.
        -12    1    4    4    0    0  0.25945379914E+02 -0.10702410318E+01  0.20407778263E+01  0.26047512911E+02  0.00000000000E+00 0.  1.
</event>
<event>
 8    1  0.2502431E-006  0.9118800E+02  0.7816164E-02  0.1184000E+00
        -11   -1    0    0    0    0  0.00000000000E+00  0.00000000000E+00  0.45593999997E+02  0.45594000000E+02  0.51100000000E-03 0.  1.
         11   -1    0    0    0    0 -0.00000000000E+00 -0.00000000000E+00 -0.45593999997E+02  0.45594000000E+02  0.51100000000E-03 0. -1.
         23    2    1    2    0    0 -0.88817841970E-15  0.00000000000E+00  0.00000000000E+00  0.91188000000E+02  0.91188000000E+02 0.  0.
    9900012    2    3    3    0    0 -0.74245212430E+01  0.35974480534E+02  0.25492079039E+01  0.54367011063E+02  0.39999833320E+02 0.  0.
        -12    1    3    3    0    0  0.74245212430E+01 -0.35974480534E+02 -0.25492079039E+01  0.36820988937E+02  0.00000000000E+00 0.  1.
         11    1    4    4    0    0 -0.16231264571E+02  0.42943084041E+01  0.38731396076E+00  0.16794196813E+02  0.51100000000E-03 0. -1.
        -11    1    4    4    0    0  0.22474388955E+01 -0.11809975607E+01 -0.27072797856E+01  0.37114823085E+01  0.51100000000E-03 0.  1.
         12    1    4    4    0    0  0.65593044324E+01  0.32861169690E+02  0.48691737288E+01  0.33861331941E+02  0.00000000000E+00 0. -1.
</event>
<event>
 8    1  0.2502431E-006  0.9118800E+02  0.7816164E-02  0.1184000E+00
        -11   -1    0    0    0    0  0.00000000000E+00  0.00000000000E+00  0.45593999997E+02  0.45594000000E+02  0.51100000000E-03 0.  1.
         11   -1    0    0    0    0 -0.00000000000E+00 -0.00000000000E+00 -0.45593999997E+02  0.45594000000E+02  0.51100000000E-03 0. -1.
         23    2    1    2    0    0  0.44408920985E-14  0.00000000000E+00  0.00000000000E+00  0.91188000000E+02  0.91188000000E+02 0.  0.
    9900012    2    3    3    0    0  0.53180153171E+01 -0.11778258179E+02  0.34478558542E+02  0.54367086760E+02  0.40000005887E+02 0.  0.
         12    1    3    3    0    0 -0.53180153171E+01  0.11778258179E+02 -0.34478558542E+02  0.36820913240E+02  0.00000000000E+00 0. -1.
         11    1    4    4    0    0 -0.40722801285E+01 -0.40541554729E+01 -0.45286403763E+01  0.73162986518E+01  0.51100000000E-03 0. -1.
        -11    1    4    4    0    0 -0.68274533802E+01 -0.71620040214E+01  0.17564796240E+02  0.20160121242E+02  0.51100000000E-03 0.  1.
        -12    1    4    4    0    0  0.16217748826E+02 -0.56209868458E+00  0.21442402679E+02  0.26890666867E+02  0.00000000000E+00 0.  1.
</event>
<event>
 8    1  0.2502431E-006  0.9118800E+02  0.7816164E-02  0.1184000E+00
        -11   -1    0    0    0    0  0.00000000000E+00  0.00000000000E+00  0.45593999997E+02  0.45594000000E+02  0.51100000000E-03 0. -1.
         11   -1    0    0    0    0 -0.00000000000E+00 -0.00000000000E+00 -0.45593999997E+02  0.45594000000E+02  0.51100000000E-03 0.  1.
         23    2    1    2    0    0  0.62172489379E-14 -0.17763568394E-14  0.00000000000E+00  0.91188000000E+02  0.91188000000E+02 0.  0.
    9900012    2    3    3    0    0  0.73956262798E+01 -0.69719519595E+01  0.35390344560E+02  0.54367083522E+02  0.39999998506E+02 0.  0.
        -12    1    3    3    0    0 -0.73956262798E+01  0.69719519595E+01 -0.35390344560E+02  0.36820916478E+02  0.00000000000E+00 0.  1.
         11    1    4    4    0    0  0.20502373023E+01  0.57394586584E+01  0.12607774328E+02  0.14003600696E+02  0.51100000000E-03 0. -1.
        -11    1    4    4    0    0 -0.10839219106E+02 -0.62861696213E+00  0.15434755905E+02  0.18871023295E+02  0.51100000000E-03 0.  1.
        -12    1    4    4    0    0  0.16184608083E+02 -0.12082793656E+02  0.73478143272E+01  0.21492459532E+02  0.00000000000E+00 0.  1.
</event>
<event>
 8    1  0.2502431E-006  0.9118800E+02  0.7816164E-02  0.1184000E+00
        -11   -1    0    0    0    0  0.00000000000E+00  0.00000000000E+00  0.45593999997E+02  0.45594000000E+02  0.51100000000E-03 0.  1.
         11   -1    0    0    0    0 -0.00000000000E+00 -0.00000000000E+00 -0.45593999997E+02  0.45594000000E+02  0.51100000000E-03 0. -1.
         23    2    1    2    0    0  0.00000000000E+00 -0.35527136788E-14  0.00000000000E+00  0.91188000000E+02  0.91188000000E+02 0.  0.
    9900012    2    3    3    0    0 -0.21502229884E+02 -0.25567950296E+02 -0.15482738853E+02  0.54367066080E+02  0.39999958743E+02 0.  0.
        -12    1    3    3    0    0  0.21502229884E+02  0.25567950296E+02  0.15482738853E+02  0.36820933920E+02  0.00000000000E+00 0.  1.
         11    1    4    4    0    0 -0.26250665560E+02 -0.13487747717E+02 -0.35381179455E+01  0.29724317649E+02  0.51100000000E-03 0. -1.
        -11    1    4    4    0    0 -0.19028710166E+00 -0.53121626107E+01  0.39854557662E+01  0.66437292772E+01  0.51100000000E-03 0.  1.
        -12    1    4    4    0    0  0.49387227780E+01 -0.67680399684E+01 -0.15930076673E+02  0.17999019154E+02  0.00000000000E+00 0.  1.
</event>
<event>
 8    1  0.2502431E-006  0.9118800E+02  0.7816164E-02  0.1184000E+00
        -11   -1    0    0    0    0  0.00000000000E+00  0.00000000000E+00  0.45593999997E+02  0.45594000000E+02  0.51100000000E-03 0. -1.
         11   -1    0    0    0    0 -0.00000000000E+00 -0.00000000000E+00 -0.45593999997E+02  0.45594000000E+02  0.51100000000E-03 0.  1.
         23    2    1    2    0    0  0.35527136788E-14 -0.22204460493E-15  0.00000000000E+00  0.91188000000E+02  0.91188000000E+02 0.  0.
    9900012    2    3    3    0    0  0.25817348742E+02 -0.55508076176E+00 -0.26247591395E+02  0.54367086585E+02  0.40000005487E+02 0.  0.
         12    1    3    3    0    0 -0.25817348742E+02  0.55508076176E+00  0.26247591395E+02  0.36820913415E+02  0.00000000000E+00 0. -1.
         11    1    4    4    0    0  0.74503870442E+01  0.22738892029E+01  0.78722475367E+00  0.78293398373E+01  0.51100000000E-03 0. -1.
        -11    1    4    4    0    0  0.64493638387E+01  0.15017038737E+02 -0.13164461871E+02  0.20985919159E+02  0.51100000000E-03 0.  1.
        -12    1    4    4    0    0  0.11917597860E+02 -0.17846008701E+02 -0.13870354277E+02  0.25551827588E+02  0.00000000000E+00 0.  1.
</event>
<event>
 8    1  0.2502431E-006  0.9118800E+02  0.7816164E-02  0.1184000E+00
        -11   -1    0    0    0    0  0.00000000000E+00  0.00000000000E+00  0.45593999997E+02  0.45594000000E+02  0.51100000000E-03 0.  1.
         11   -1    0    0    0    0 -0.00000000000E+00 -0.00000000000E+00 -0.45593999997E+02  0.45594000000E+02  0.51100000000E-03 0. -1.
         23    2    1    2    0    0 -0.17763568394E-14  0.00000000000E+00  0.17763568394E-14  0.91188000000E+02  0.91188000000E+02 0.  0.
    9900012    2    3    3    0    0  0.12467655975E+02 -0.33466161898E+02 -0.89640263831E+01  0.54367079225E+02  0.39999988710E+02 0.  0.
         12    1    3    3    0    0 -0.12467655975E+02  0.33466161898E+02  0.89640263831E+01  0.36820920775E+02  0.00000000000E+00 0. -1.
         11    1    4    4    0    0  0.41218863191E+01 -0.41685448904E+01 -0.15636199044E+02  0.16699024945E+02  0.51100000000E-03 0. -1.
        -11    1    4    4    0    0  0.11379810581E+02 -0.14385887256E+02 -0.43828687190E+01  0.18859039728E+02  0.51100000000E-03 0.  1.
         12    1    4    4    0    0 -0.30340409244E+01 -0.14911729752E+02  0.11055041380E+02  0.18809014552E+02  0.00000000000E+00 0. -1.
</event>
<event>
 8    1  0.2502431E-006  0.9118800E+02  0.7816164E-02  0.1184000E+00
        -11   -1    0    0    0    0  0.00000000000E+00  0.00000000000E+00  0.45593999997E+02  0.45594000000E+02  0.51100000000E-03 0. -1.
         11   -1    0    0    0    0 -0.00000000000E+00 -0.00000000000E+00 -0.45593999997E+02  0.45594000000E+02  0.51100000000E-03 0.  1.
         23    2    1    2    0    0  0.00000000000E+00  0.17763568394E-14  0.00000000000E+00  0.91188000000E+02  0.91188000000E+02 0.  0.
    9900012    2    3    3    0    0 -0.22089994149E+02 -0.15752382189E+02  0.24893265059E+02  0.54367081605E+02  0.39999994135E+02 0.  0.
        -12    1    3    3    0    0  0.22089994149E+02  0.15752382189E+02 -0.24893265059E+02  0.36820918395E+02  0.00000000000E+00 0.  1.
         11    1    4    4    0    0 -0.13759495799E+02  0.48539309451E+01  0.22807217703E+02  0.27074961679E+02  0.51100000000E-03 0. -1.
        -11    1    4    4    0    0 -0.93875058724E+01 -0.21771600988E+02  0.47669242959E+01  0.24183702024E+02  0.51100000000E-03 0.  1.
         12    1    4    4    0    0  0.10570075232E+01  0.11652878540E+01 -0.26808769400E+01  0.31084179021E+01  0.00000000000E+00 0. -1.
</event>
<event>
 8    1  0.2502431E-006  0.9118800E+02  0.7816164E-02  0.1184000E+00
        -11   -1    0    0    0    0  0.00000000000E+00  0.00000000000E+00  0.45593999997E+02  0.45594000000E+02  0.51100000000E-03 0.  1.
         11   -1    0    0    0    0 -0.00000000000E+00 -0.00000000000E+00 -0.45593999997E+02  0.45594000000E+02  0.51100000000E-03 0. -1.
         23    2    1    2    0    0 -0.35527136788E-14 -0.17763568394E-14  0.00000000000E+00  0.91188000000E+02  0.91188000000E+02 0.  0.
    9900012    2    3    3    0    0 -0.30916265304E+02  0.15511415807E+02 -0.12623790911E+02  0.54367087767E+02  0.40000008183E+02 0.  0.
        -12    1    3    3    0    0  0.30916265304E+02 -0.15511415807E+02  0.12623790911E+02  0.36820912233E+02  0.00000000000E+00 0.  1.
         11    1    4    4    0    0 -0.12330996308E+02  0.16436582534E+02 -0.12736776134E+02  0.24175197660E+02  0.51100000000E-03 0. -1.
        -11    1    4    4    0    0 -0.19875543334E+02 -0.22519502308E+01  0.84042806905E+01  0.21696553571E+02  0.51100000000E-03 0.  1.
         12    1    4    4    0    0  0.12902743380E+01  0.13267835032E+01 -0.82912954681E+01  0.84953365366E+01  0.00000000000E+00 0. -1.
</event>
<event>
 8    1  0.2502431E-006  0.9118800E+02  0.7816164E-02  0.1184000E+00
        -11   -1    0    0    0    0  0.00000000000E+00  0.00000000000E+00  0.45593999997E+02  0.45594000000E+02  0.51100000000E-03 0. -1.
         11   -1    0    0    0    0 -0.00000000000E+00 -0.00000000000E+00 -0.45593999997E+02  0.45594000000E+02  0.51100000000E-03 0.  1.
         23    2    1    2    0    0 -0.44408920985E-15  0.00000000000E+00  0.71054273576E-14  0.91188000000E+02  0.91188000000E+02 0.  0.
    9900012    2    3    3    0    0  0.35979851487E+01  0.17259629525E+02 -0.32325519650E+02  0.54367088426E+02  0.40000009685E+02 0.  0.
         12    1    3    3    0    0 -0.35979851487E+01 -0.17259629525E+02  0.32325519650E+02  0.36820911574E+02  0.00000000000E+00 0. -1.
         11    1    4    4    0    0  0.27576343656E+01  0.51600573641E+01  0.35765606167E+01  0.68572972373E+01  0.51100000000E-03 0. -1.
        -11    1    4    4    0    0  0.29962926457E+00  0.21198687057E+02 -0.19811371598E+02  0.29016625501E+02  0.51100000000E-03 0.  1.
        -12    1    4    4    0    0  0.54072151848E+00 -0.90991148964E+01 -0.16090708669E+02  0.18493165687E+02  0.00000000000E+00 0.  1.
</event>
<event>
 8    1  0.2502431E-006  0.9118800E+02  0.7816164E-02  0.1184000E+00
        -11   -1    0    0    0    0  0.00000000000E+00  0.00000000000E+00  0.45593999997E+02  0.45594000000E+02  0.51100000000E-03 0.  1.
         11   -1    0    0    0    0 -0.00000000000E+00 -0.00000000000E+00 -0.45593999997E+02  0.45594000000E+02  0.51100000000E-03 0. -1.
         23    2    1    2    0    0  0.00000000000E+00  0.35527136788E-14  0.00000000000E+00  0.91188000000E+02  0.91188000000E+02 0.  0.
    9900012    2    3    3    0    0  0.22641671470E+02  0.16447258886E+02  0.23929518428E+02  0.54367089311E+02  0.40000011702E+02 0.  0.
         12    1    3    3    0    0 -0.22641671470E+02 -0.16447258886E+02 -0.23929518428E+02  0.36820910689E+02  0.00000000000E+00 0. -1.
         11    1    4    4    0    0  0.33260773094E+01  0.18127171679E+02  0.50555674723E+01  0.19110622859E+02  0.51100000000E-03 0. -1.
        -11    1    4    4    0    0  0.15873104899E+02 -0.10989311743E+02  0.91612602179E+01  0.21369350031E+02  0.51100000000E-03 0.  1.
        -12    1    4    4    0    0  0.34424892617E+01  0.93093989502E+01  0.97126907373E+01  0.13887116421E+02  0.00000000000E+00 0.  1.
</event>
<event>
 8    1  0.2502431E-006  0.9118800E+02  0.7816164E-02  0.1184000E+00
        -11   -1    0    0    0    0  0.00000000000E+00  0.00000000000E+00  0.45593999997E+02  0.45594000000E+02  0.51100000000E-03 0. -1.
         11   -1    0    0    0    0 -0.00000000000E+00 -0.00000000000E+00 -0.45593999997E+02  0.45594000000E+02  0.51100000000E-03 0.  1.
         23    2    1    2    0    0  0.17763568394E-14 -0.35527136788E-14  0.00000000000E+00  0.91188000000E+02  0.91188000000E+02 0.  0.
    9900012    2    3    3    0    0  0.13156427236E+02 -0.30409972092E+02 -0.16059827968E+02  0.54367135608E+02  0.40000117244E+02 0.  0.
         12    1    3    3    0    0 -0.13156427236E+02  0.30409972092E+02  0.16059827968E+02  0.36820864392E+02  0.00000000000E+00 0. -1.
         11    1    4    4    0    0 -0.48803869714E+01 -0.24433254638E+02  0.10143977716E+01  0.24936541707E+02  0.51100000000E-03 0. -1.
        -11    1    4    4    0    0  0.20331607760E+02 -0.44693655837E+01 -0.13085283091E+02  0.24588089326E+02  0.51100000000E-03 0.  1.
        -12    1    4    4    0    0 -0.22947935531E+01 -0.15073518704E+01 -0.39889426480E+01  0.48425045752E+01  0.00000000000E+00 0.  1.
</event>
<event>
 8    1  0.2502431E-006  0.9118800E+02  0.7816164E-02  0.1184000E+00
        -11   -1    0    0    0    0  0.00000000000E+00  0.00000000000E+00  0.45593999997E+02  0.45594000000E+02  0.51100000000E-03 0. -1.
         11   -1    0    0    0    0 -0.00000000000E+00 -0.00000000000E+00 -0.45593999997E+02  0.45594000000E+02  0.51100000000E-03 0.  1.
         23    2    1    2    0    0 -0.35527136788E-14  0.00000000000E+00 -0.17763568394E-14  0.91188000000E+02  0.91188000000E+02 0.  0.
    9900012    2    3    3    0    0  0.16772642327E+02  0.31464397642E+02  0.91896458648E+01  0.54367089627E+02  0.40000012422E+02 0.  0.
        -12    1    3    3    0    0 -0.16772642327E+02 -0.31464397642E+02 -0.91896458648E+01  0.36820910373E+02  0.00000000000E+00 0.  1.
         11    1    4    4    0    0 -0.66045125262E+01  0.11000095933E+02  0.90993483061E+01  0.15729584741E+02  0.51100000000E-03 0. -1.
        -11    1    4    4    0    0  0.23778367390E+02  0.20049612903E+02 -0.67051911993E+01  0.31817563115E+02  0.51100000000E-03 0.  1.
        -12    1    4    4    0    0 -0.40121253680E+00  0.41468880575E+00  0.67954887581E+01  0.68199417715E+01  0.00000000000E+00 0.  1.
</event>
<event>
 8    1  0.2502431E-006  0.9118800E+02  0.7816164E-02  0.1184000E+00
        -11   -1    0    0    0    0  0.00000000000E+00  0.00000000000E+00  0.45593999997E+02  0.45594000000E+02  0.51100000000E-03 0. -1.
         11   -1    0    0    0    0 -0.00000000000E+00 -0.00000000000E+00 -0.45593999997E+02  0.45594000000E+02  0.51100000000E-03 0.  1.
         23    2    1    2    0    0  0.35527136788E-14  0.00000000000E+00  0.00000000000E+00  0.91188000000E+02  0.91188000000E+02 0.  0.
    9900012    2    3    3    0    0  0.16646394223E+02 -0.18932954514E+02 -0.26836942908E+02  0.54367072365E+02  0.39999973070E+02 0.  0.
         12    1    3    3    0    0 -0.16646394223E+02  0.18932954514E+02  0.26836942908E+02  0.36820927635E+02  0.00000000000E+00 0. -1.
         11    1    4    4    0    0 -0.20845090000E+01 -0.32478766457E+00 -0.89961128393E+00  0.22934614715E+01  0.51100000000E-03 0. -1.
        -11    1    4    4    0    0  0.11523207394E+02 -0.29499614425E+02 -0.21505157657E+02  0.38281632227E+02  0.51100000000E-03 0.  1.
         12    1    4    4    0    0  0.72076958285E+01  0.10891447576E+02 -0.44321739676E+01  0.13791978666E+02  0.00000000000E+00 0. -1.
</event>
<event>
 8    1  0.2502431E-006  0.9118800E+02  0.7816164E-02  0.1184000E+00
        -11   -1    0    0    0    0  0.00000000000E+00  0.00000000000E+00  0.45593999997E+02  0.45594000000E+02  0.51100000000E-03 0.  1.
         11   -1    0    0    0    0 -0.00000000000E+00 -0.00000000000E+00 -0.45593999997E+02  0.45594000000E+02  0.51100000000E-03 0. -1.
         23    2    1    2    0    0  0.00000000000E+00  0.88817841970E-15 -0.88817841970E-15  0.91188000000E+02  0.91188000000E+02 0.  0.
    9900012    2    3    3    0    0  0.36506467999E+02 -0.43607497295E+01 -0.20104371337E+01  0.54367079297E+02  0.39999988873E+02 0.  0.
         12    1    3    3    0    0 -0.36506467999E+02  0.43607497295E+01  0.20104371337E+01  0.36820920703E+02  0.00000000000E+00 0. -1.
         11    1    4    4    0    0  0.10805784540E+02 -0.25994588151E+01 -0.14452004034E+02  0.18231362717E+02  0.51100000000E-03 0. -1.
        -11    1    4    4    0    0  0.14875036941E+02 -0.17741079714E+01 -0.48403923949E+01  0.15743048685E+02  0.51100000000E-03 0.  1.
         12    1    4    4    0    0  0.10825646518E+02  0.12817056955E-01  0.17281959295E+02  0.20392667896E+02  0.00000000000E+00 0. -1.
</event>
<event>
 8    1  0.2502431E-006  0.9118800E+02  0.7816164E-02  0.1184000E+00
        -11   -1    0    0    0    0  0.00000000000E+00  0.00000000000E+00  0.45593999997E+02  0.45594000000E+02  0.51100000000E-03 0. -1.
         11   -1    0    0    0    0 -0.00000000000E+00 -0.00000000000E+00 -0.45593999997E+02  0.45594000000E+02  0.51100000000E-03 0.  1.
         23    2    1    2    0    0  0.00000000000E+00  0.00000000000E+00  0.00000000000E+00  0.91188000000E+02  0.91188000000E+02 0.  0.
    9900012    2    3    3    0    0  0.57963381147E+01  0.59380496102E+01 -0.35873724317E+02  0.54367053990E+02  0.39999931181E+02 0.  0.
         12    1    3    3    0    0 -0.57963381147E+01 -0.59380496102E+01  0.35873724317E+02  0.36820946010E+02  0.00000000000E+00 0. -1.
         11    1    4    4    0    0 -0.21305370368E+01 -0.44242904991E+00  0.13320518121E+01  0.25513317739E+01  0.51100000000E-03 0. -1.
        -11    1    4    4    0    0  0.95390003096E+01  0.19988355554E+02 -0.25666362569E+02  0.33901165945E+02  0.51100000000E-03 0.  1.
        -12    1    4    4    0    0 -0.16121251581E+01 -0.13607876894E+02 -0.11539413560E+02  0.17914556271E+02  0.00000000000E+00 0.  1.
</event>
<event>
 8    1  0.2502431E-006  0.9118800E+02  0.7816164E-02  0.1184000E+00
        -11   -1    0    0    0    0  0.00000000000E+00  0.00000000000E+00  0.45593999997E+02  0.45594000000E+02  0.51100000000E-03 0. -1.
         11   -1    0    0    0    0 -0.00000000000E+00 -0.00000000000E+00 -0.45593999997E+02  0.45594000000E+02  0.51100000000E-03 0.  1.
         23    2    1    2    0    0  0.00000000000E+00  0.00000000000E+00  0.17763568394E-14  0.91188000000E+02  0.91188000000E+02 0.  0.
    9900012    2    3    3    0    0 -0.24894829119E+02 -0.24327727375E+02 -0.12007924492E+02  0.54367067275E+02  0.39999961466E+02 0.  0.
         12    1    3    3    0    0  0.24894829119E+02  0.24327727375E+02  0.12007924492E+02  0.36820932725E+02  0.00000000000E+00 0. -1.
         11    1    4    4    0    0 -0.45487691956E+01 -0.86182185349E+01  0.13551562722E+02  0.16691610000E+02  0.51100000000E-03 0. -1.
        -11    1    4    4    0    0 -0.11340411249E+02 -0.13508754044E+02 -0.12326599861E+02  0.21518281240E+02  0.51100000000E-03 0.  1.
         12    1    4    4    0    0 -0.90056486748E+01 -0.22007547965E+01 -0.13232887354E+02  0.16157176036E+02  0.00000000000E+00 0. -1.
</event>
<event>
 8    1  0.2502431E-006  0.9118800E+02  0.7816164E-02  0.1184000E+00
        -11   -1    0    0    0    0  0.00000000000E+00  0.00000000000E+00  0.45593999997E+02  0.45594000000E+02  0.51100000000E-03 0.  1.
         11   -1    0    0    0    0 -0.00000000000E+00 -0.00000000000E+00 -0.45593999997E+02  0.45594000000E+02  0.51100000000E-03 0. -1.
         23    2    1    2    0    0  0.00000000000E+00  0.35527136788E-14 -0.35527136788E-14  0.91188000000E+02  0.91188000000E+02 0.  0.
    9900012    2    3    3    0    0 -0.37206455848E+01 -0.29487613340E+02  0.21735163445E+02  0.54367083743E+02  0.39999999008E+02 0.  0.
        -12    1    3    3    0    0  0.37206455848E+01  0.29487613340E+02 -0.21735163445E+02  0.36820916257E+02  0.00000000000E+00 0.  1.
         11    1    4    4    0    0  0.67941185534E+01 -0.20916657481E+00  0.21951948484E+02  0.22980248912E+02  0.51100000000E-03 0. -1.
        -11    1    4    4    0    0 -0.10381413044E+02 -0.24568690735E+02 -0.32479579528E+00  0.26673953472E+02  0.51100000000E-03 0.  1.
         12    1    4    4    0    0 -0.13335109374E+00 -0.47097560300E+01  0.10801075593E+00  0.47128813586E+01  0.00000000000E+00 0. -1.
</event>
<event>
 8    1  0.2502431E-006  0.9118800E+02  0.7816164E-02  0.1184000E+00
        -11   -1    0    0    0    0  0.00000000000E+00  0.00000000000E+00  0.45593999997E+02  0.45594000000E+02  0.51100000000E-03 0. -1.
         11   -1    0    0    0    0 -0.00000000000E+00 -0.00000000000E+00 -0.45593999997E+02  0.45594000000E+02  0.51100000000E-03 0.  1.
         23    2    1    2    0    0  0.22204460493E-15 -0.53290705182E-14  0.00000000000E+00  0.91188000000E+02  0.91188000000E+02 0.  0.
    9900012    2    3    3    0    0 -0.57510795191E+00  0.14353894710E+02 -0.33903021358E+02  0.54367083394E+02  0.39999998214E+02 0.  0.
         12    1    3    3    0    0  0.57510795191E+00 -0.14353894710E+02  0.33903021358E+02  0.36820916606E+02  0.00000000000E+00 0. -1.
         11    1    4    4    0    0  0.26722574349E+01 -0.94723931709E+01  0.36668268521E+00  0.98489414982E+01  0.51100000000E-03 0. -1.
        -11    1    4    4    0    0  0.41894820402E+00  0.28849713765E+01 -0.16657603233E+02  0.16910775357E+02  0.51100000000E-03 0.  1.
         12    1    4    4    0    0 -0.36663135908E+01  0.20941316505E+02 -0.17612100810E+02  0.27607366539E+02  0.00000000000E+00 0. -1.
</event>
<event>
 8    1  0.2502431E-006  0.9118800E+02  0.7816164E-02  0.1184000E+00
        -11   -1    0    0    0    0  0.00000000000E+00  0.00000000000E+00  0.45593999997E+02  0.45594000000E+02  0.51100000000E-03 0.  1.
         11   -1    0    0    0    0 -0.00000000000E+00 -0.00000000000E+00 -0.45593999997E+02  0.45594000000E+02  0.51100000000E-03 0. -1.
         23    2    1    2    0    0  0.35527136788E-14 -0.35527136788E-14  0.17763568394E-14  0.91188000000E+02  0.91188000000E+02 0.  0.
    9900012    2    3    3    0    0 -0.29783890700E+02  0.16079447187E+02 -0.14496580123E+02  0.54367087432E+02  0.40000007419E+02 0.  0.
        -12    1    3    3    0    0  0.29783890700E+02 -0.16079447187E+02  0.14496580123E+02  0.36820912568E+02  0.00000000000E+00 0.  1.
         11    1    4    4    0    0 -0.21350619136E+02  0.22853525601E+01 -0.11002949584E+02  0.24127508649E+02  0.51100000000E-03 0. -1.
        -11    1    4    4    0    0 -0.14115513988E+02 -0.86752157606E+00 -0.47787586576E-01  0.14142227998E+02  0.51100000000E-03 0.  1.
         12    1    4    4    0    0  0.56822424240E+01  0.14661616203E+02 -0.34458429521E+01  0.16097350785E+02  0.00000000000E+00 0. -1.
</event>
<event>
 8    1  0.2502431E-006  0.9118800E+02  0.7816164E-02  0.1184000E+00
        -11   -1    0    0    0    0  0.00000000000E+00  0.00000000000E+00  0.45593999997E+02  0.45594000000E+02  0.51100000000E-03 0. -1.
         11   -1    0    0    0    0 -0.00000000000E+00 -0.00000000000E+00 -0.45593999997E+02  0.45594000000E+02  0.51100000000E-03 0.  1.
         23    2    1    2    0    0  0.00000000000E+00 -0.35527136788E-14 -0.17763568394E-14  0.91188000000E+02  0.91188000000E+02 0.  0.
    9900012    2    3    3    0    0 -0.19010615316E+02  0.31205115076E+02  0.45408246153E+01  0.54367057728E+02  0.39999939703E+02 0.  0.
        -12    1    3    3    0    0  0.19010615316E+02 -0.31205115076E+02 -0.45408246153E+01  0.36820942272E+02  0.00000000000E+00 0.  1.
         11    1    4    4    0    0 -0.11205215636E+02  0.32617777576E+02  0.14425590769E+02  0.37384140231E+02  0.51100000000E-03 0. -1.
        -11    1    4    4    0    0  0.28216639573E+01 -0.11852302984E+01 -0.31906344804E+01  0.44211657961E+01  0.51100000000E-03 0.  1.
         12    1    4    4    0    0 -0.10627063637E+02 -0.22743220204E+00 -0.66941316737E+01  0.12561751702E+02  0.00000000000E+00 0. -1.
</event>
<event>
 8    1  0.2502431E-006  0.9118800E+02  0.7816164E-02  0.1184000E+00
        -11   -1    0    0    0    0  0.00000000000E+00  0.00000000000E+00  0.45593999997E+02  0.45594000000E+02  0.51100000000E-03 0. -1.
         11   -1    0    0    0    0 -0.00000000000E+00 -0.00000000000E+00 -0.45593999997E+02  0.45594000000E+02  0.51100000000E-03 0.  1.
         23    2    1    2    0    0 -0.88817841970E-15 -0.17763568394E-14  0.71054273576E-14  0.91188000000E+02  0.91188000000E+02 0.  0.
    9900012    2    3    3    0    0 -0.60906062234E+01 -0.13475045666E+02  0.33721004608E+02  0.54367102514E+02  0.40000041801E+02 0.  0.
        -12    1    3    3    0    0  0.60906062234E+01  0.13475045666E+02 -0.33721004608E+02  0.36820897486E+02  0.00000000000E+00 0.  1.
         11    1    4    4    0    0 -0.95471334435E+00 -0.15785267941E+02  0.22304659430E+02  0.27341982263E+02  0.51100000000E-03 0. -1.
        -11    1    4    4    0    0 -0.12285905794E+02 -0.47924198091E+01  0.22030616399E+01  0.13370274854E+02  0.51100000000E-03 0.  1.
        -12    1    4    4    0    0  0.71500129152E+01  0.71026420841E+01  0.92132835388E+01  0.13654845397E+02  0.00000000000E+00 0.  1.
</event>
<event>
 8    1  0.2502431E-006  0.9118800E+02  0.7816164E-02  0.1184000E+00
        -11   -1    0    0    0    0  0.00000000000E+00  0.00000000000E+00  0.45593999997E+02  0.45594000000E+02  0.51100000000E-03 0.  1.
         11   -1    0    0    0    0 -0.00000000000E+00 -0.00000000000E+00 -0.45593999997E+02  0.45594000000E+02  0.51100000000E-03 0. -1.
         23    2    1    2    0    0  0.00000000000E+00 -0.88817841970E-15  0.00000000000E+00  0.91188000000E+02  0.91188000000E+02 0.  0.
    9900012    2    3    3    0    0 -0.26534979580E+02 -0.56986624930E+01 -0.24883721532E+02  0.54367088920E+02  0.40000010810E+02 0.  0.
         12    1    3    3    0    0  0.26534979580E+02  0.56986624930E+01  0.24883721532E+02  0.36820911080E+02  0.00000000000E+00 0. -1.
         11    1    4    4    0    0 -0.66950238299E+01  0.76282257849E+01 -0.37633145562E+01  0.10824772950E+02  0.51100000000E-03 0. -1.
        -11    1    4    4    0    0 -0.26646537625E+02 -0.10739560433E+02 -0.22030586517E+02  0.36203906809E+02  0.51100000000E-03 0.  1.
        -12    1    4    4    0    0  0.68065818756E+01 -0.25873278453E+01  0.91017954153E+00  0.73384091605E+01  0.00000000000E+00 0.  1.
</event>
<event>
 8    1  0.2502431E-006  0.9118800E+02  0.7816164E-02  0.1184000E+00
        -11   -1    0    0    0    0  0.00000000000E+00  0.00000000000E+00  0.45593999997E+02  0.45594000000E+02  0.51100000000E-03 0. -1.
         11   -1    0    0    0    0 -0.00000000000E+00 -0.00000000000E+00 -0.45593999997E+02  0.45594000000E+02  0.51100000000E-03 0.  1.
         23    2    1    2    0    0  0.00000000000E+00  0.35527136788E-14  0.00000000000E+00  0.91188000000E+02  0.91188000000E+02 0.  0.
    9900012    2    3    3    0    0 -0.18559297580E+02  0.30336687081E+02 -0.95403140132E+01  0.54367086090E+02  0.40000004359E+02 0.  0.
        -12    1    3    3    0    0  0.18559297580E+02 -0.30336687081E+02  0.95403140132E+01  0.36820913910E+02  0.00000000000E+00 0.  1.
         11    1    4    4    0    0 -0.15448674899E+02  0.47636217531E+01  0.28552103796E+01  0.16416634092E+02  0.51100000000E-03 0. -1.
        -11    1    4    4    0    0  0.91435190350E+01  0.15341535916E+02 -0.19929751683E+00  0.17860749827E+02  0.51100000000E-03 0.  1.
        -12    1    4    4    0    0 -0.12254141716E+02  0.10231529412E+02 -0.12196226876E+02  0.20089702170E+02  0.00000000000E+00 0.  1.
</event>
<event>
 8    1  0.2502431E-006  0.9118800E+02  0.7816164E-02  0.1184000E+00
        -11   -1    0    0    0    0  0.00000000000E+00  0.00000000000E+00  0.45593999997E+02  0.45594000000E+02  0.51100000000E-03 0. -1.
         11   -1    0    0    0    0 -0.00000000000E+00 -0.00000000000E+00 -0.45593999997E+02  0.45594000000E+02  0.51100000000E-03 0.  1.
         23    2    1    2    0    0  0.17763568394E-14  0.00000000000E+00  0.00000000000E+00  0.91188000000E+02  0.91188000000E+02 0.  0.
    9900012    2    3    3    0    0 -0.12554287892E+02  0.31639809871E+01  0.34469600795E+02  0.54367159445E+02  0.40000171587E+02 0.  0.
        -12    1    3    3    0    0  0.12554287892E+02 -0.31639809871E+01 -0.34469600795E+02  0.36820840555E+02  0.00000000000E+00 0.  1.
         11    1    4    4    0    0 -0.15919408251E+02 -0.65401342071E+01  0.30734945564E+02  0.35225527584E+02  0.51100000000E-03 0. -1.
        -11    1    4    4    0    0  0.92323300048E+01  0.30171704848E+01  0.32123908132E+01  0.10230282990E+02  0.51100000000E-03 0.  1.
        -12    1    4    4    0    0 -0.58672096462E+01  0.66869447094E+01  0.52226441801E+00  0.89113488710E+01  0.00000000000E+00 0.  1.
</event>
<event>
 8    1  0.2502431E-006  0.9118800E+02  0.7816164E-02  0.1184000E+00
        -11   -1    0    0    0    0  0.00000000000E+00  0.00000000000E+00  0.45593999997E+02  0.45594000000E+02  0.51100000000E-03 0.  1.
         11   -1    0    0    0    0 -0.00000000000E+00 -0.00000000000E+00 -0.45593999997E+02  0.45594000000E+02  0.51100000000E-03 0. -1.
         23    2    1    2    0    0 -0.88817841970E-15  0.00000000000E+00  0.00000000000E+00  0.91188000000E+02  0.91188000000E+02 0.  0.
    9900012    2    3    3    0    0  0.75159919912E+01 -0.26639147706E+02  0.24282629913E+02  0.54367076036E+02  0.39999981439E+02 0.  0.
         12    1    3    3    0    0 -0.75159919912E+01  0.26639147706E+02 -0.24282629913E+02  0.36820923964E+02  0.00000000000E+00 0. -1.
         11    1    4    4    0    0 -0.83163239693E+00  0.34648405357E+01 -0.20472147603E+01  0.41094793974E+01  0.51100000000E-03 0.  1.
        -11    1    4    4    0    0  0.10512941063E+02 -0.65531866919E+01 -0.28353357793E+01  0.12708474135E+02  0.51100000000E-03 0. -1.
        -12    1    4    4    0    0 -0.21653166746E+01 -0.23550801550E+02  0.29165180452E+02  0.37549122503E+02  0.00000000000E+00 0.  1.
</event>
<event>
 8    1  0.2502431E-006  0.9118800E+02  0.7816164E-02  0.1184000E+00
        -11   -1    0    0    0    0  0.00000000000E+00  0.00000000000E+00  0.45593999997E+02  0.45594000000E+02  0.51100000000E-03 0. -1.
         11   -1    0    0    0    0 -0.00000000000E+00 -0.00000000000E+00 -0.45593999997E+02  0.45594000000E+02  0.51100000000E-03 0.  1.
         23    2    1    2    0    0  0.00000000000E+00  0.00000000000E+00 -0.35527136788E-14  0.91188000000E+02  0.91188000000E+02 0.  0.
    9900012    2    3    3    0    0 -0.84676664872E+01  0.33587914357E+02  0.12487238700E+02  0.54367075284E+02  0.39999979724E+02 0.  0.
        -12    1    3    3    0    0  0.84676664872E+01 -0.33587914357E+02 -0.12487238700E+02  0.36820924716E+02  0.00000000000E+00 0.  1.
         11    1    4    4    0    0 -0.50307742228E+01  0.40003483549E+01 -0.27432370770E+01  0.69883350065E+01  0.51100000000E-03 0.  1.
        -11    1    4    4    0    0 -0.13496785225E+02  0.64086438222E+01  0.16270006304E+02  0.22089523138E+02  0.51100000000E-03 0. -1.
         12    1    4    4    0    0  0.10059892961E+02  0.23178922180E+02 -0.10395305268E+01  0.25289217140E+02  0.00000000000E+00 0. -1.
</event>
<event>
 8    1  0.2502431E-006  0.9118800E+02  0.7816164E-02  0.1184000E+00
        -11   -1    0    0    0    0  0.00000000000E+00  0.00000000000E+00  0.45593999997E+02  0.45594000000E+02  0.51100000000E-03 0. -1.
         11   -1    0    0    0    0 -0.00000000000E+00 -0.00000000000E+00 -0.45593999997E+02  0.45594000000E+02  0.51100000000E-03 0.  1.
         23    2    1    2    0    0  0.00000000000E+00  0.00000000000E+00  0.00000000000E+00  0.91188000000E+02  0.91188000000E+02 0.  0.
    9900012    2    3    3    0    0  0.17175703091E+02  0.22230359944E+02 -0.23803066326E+02  0.54367086834E+02  0.40000006055E+02 0.  0.
         12    1    3    3    0    0 -0.17175703091E+02 -0.22230359944E+02  0.23803066326E+02  0.36820913166E+02  0.00000000000E+00 0. -1.
         11    1    4    4    0    0  0.17153475182E+01  0.21808246606E+02 -0.12574249318E+02  0.25231999194E+02  0.51100000000E-03 0. -1.
        -11    1    4    4    0    0  0.14134392513E+02  0.29511779478E+01 -0.17235304745E+02  0.22484355292E+02  0.51100000000E-03 0.  1.
         12    1    4    4    0    0  0.13259630598E+01 -0.25290646105E+01  0.60064877366E+01  0.66507323484E+01  0.00000000000E+00 0. -1.
</event>
<event>
 8    1  0.2502431E-006  0.9118800E+02  0.7816164E-02  0.1184000E+00
        -11   -1    0    0    0    0  0.00000000000E+00  0.00000000000E+00  0.45593999997E+02  0.45594000000E+02  0.51100000000E-03 0. -1.
         11   -1    0    0    0    0 -0.00000000000E+00 -0.00000000000E+00 -0.45593999997E+02  0.45594000000E+02  0.51100000000E-03 0.  1.
         23    2    1    2    0    0 -0.71054273576E-14 -0.88817841970E-15  0.00000000000E+00  0.91188000000E+02  0.91188000000E+02 0.  0.
    9900012    2    3    3    0    0  0.33226857465E+02 -0.77189272505E+01 -0.13862679997E+02  0.54367084862E+02  0.40000001559E+02 0.  0.
         12    1    3    3    0    0 -0.33226857465E+02  0.77189272505E+01  0.13862679997E+02  0.36820915138E+02  0.00000000000E+00 0. -1.
         11    1    4    4    0    0  0.34593816717E+00  0.69985390819E+01  0.55442859685E+01  0.89352296925E+01  0.51100000000E-03 0. -1.
        -11    1    4    4    0    0  0.19317801769E+02  0.22482520322E+00 -0.32713519651E+01  0.19594125536E+02  0.51100000000E-03 0.  1.
        -12    1    4    4    0    0  0.13563117529E+02 -0.14942291536E+02 -0.16135614000E+02  0.25837729633E+02  0.00000000000E+00 0.  1.
</event>
<event>
 8    1  0.2502431E-006  0.9118800E+02  0.7816164E-02  0.1184000E+00
        -11   -1    0    0    0    0  0.00000000000E+00  0.00000000000E+00  0.45593999997E+02  0.45594000000E+02  0.51100000000E-03 0.  1.
         11   -1    0    0    0    0 -0.00000000000E+00 -0.00000000000E+00 -0.45593999997E+02  0.45594000000E+02  0.51100000000E-03 0. -1.
         23    2    1    2    0    0  0.00000000000E+00  0.00000000000E+00  0.00000000000E+00  0.91188000000E+02  0.91188000000E+02 0.  0.
    9900012    2    3    3    0    0 -0.12077245053E+01 -0.18932613106E+02  0.31557531166E+02  0.54367079169E+02  0.39999988582E+02 0.  0.
         12    1    3    3    0    0  0.12077245053E+01  0.18932613106E+02 -0.31557531166E+02  0.36820920831E+02  0.00000000000E+00 0. -1.
         11    1    4    4    0    0 -0.22936777931E+01 -0.22942082236E+02  0.13361088890E+02  0.26648054183E+02  0.51100000000E-03 0. -1.
        -11    1    4    4    0    0  0.14171572174E+00 -0.58557058126E+01  0.16698716723E+02  0.17696228817E+02  0.51100000000E-03 0.  1.
         12    1    4    4    0    0  0.94423756599E+00  0.98651749421E+01  0.14977255531E+01  0.10022796169E+02  0.00000000000E+00 0. -1.
</event>
<event>
 8    1  0.2502431E-006  0.9118800E+02  0.7816164E-02  0.1184000E+00
        -11   -1    0    0    0    0  0.00000000000E+00  0.00000000000E+00  0.45593999997E+02  0.45594000000E+02  0.51100000000E-03 0.  1.
         11   -1    0    0    0    0 -0.00000000000E+00 -0.00000000000E+00 -0.45593999997E+02  0.45594000000E+02  0.51100000000E-03 0. -1.
         23    2    1    2    0    0  0.35527136788E-14  0.17763568394E-14 -0.71054273576E-14  0.91188000000E+02  0.91188000000E+02 0.  0.
    9900012    2    3    3    0    0 -0.23285474785E+02 -0.15921264825E+02  0.23666001671E+02  0.54367086857E+02  0.40000006109E+02 0.  0.
         12    1    3    3    0    0  0.23285474785E+02  0.15921264825E+02 -0.23666001671E+02  0.36820913143E+02  0.00000000000E+00 0. -1.
         11    1    4    4    0    0  0.99774714572E+00  0.33612506614E+01 -0.50360954454E+01  0.61364291711E+01  0.51100000000E-03 0.  1.
        -11    1    4    4    0    0  0.16305556492E+01 -0.11599825056E+02  0.80062406170E+01  0.14188535588E+02  0.51100000000E-03 0. -1.
        -12    1    4    4    0    0 -0.25913777580E+02 -0.76826904295E+01  0.20695856499E+02  0.34042122098E+02  0.00000000000E+00 0.  1.
</event>
<event>
 8    1  0.2502431E-006  0.9118800E+02  0.7816164E-02  0.1184000E+00
        -11   -1    0    0    0    0  0.00000000000E+00  0.00000000000E+00  0.45593999997E+02  0.45594000000E+02  0.51100000000E-03 0. -1.
         11   -1    0    0    0    0 -0.00000000000E+00 -0.00000000000E+00 -0.45593999997E+02  0.45594000000E+02  0.51100000000E-03 0.  1.
         23    2    1    2    0    0  0.00000000000E+00  0.00000000000E+00 -0.17763568394E-14  0.91188000000E+02  0.91188000000E+02 0.  0.
    9900012    2    3    3    0    0  0.31190497977E+02  0.15890022387E+02  0.11421034870E+02  0.54367081855E+02  0.39999994705E+02 0.  0.
        -12    1    3    3    0    0 -0.31190497977E+02 -0.15890022387E+02 -0.11421034870E+02  0.36820918145E+02  0.00000000000E+00 0.  1.
         11    1    4    4    0    0  0.87887925711E+01  0.10752868885E+02 -0.13905006687E+01  0.13957096994E+02  0.51100000000E-03 0. -1.
        -11    1    4    4    0    0  0.19485999699E+02 -0.50781967364E+01  0.19357235438E+02  0.27931967894E+02  0.51100000000E-03 0.  1.
        -12    1    4    4    0    0  0.29157057070E+01  0.10215350239E+02 -0.65456998993E+01  0.12478016968E+02  0.00000000000E+00 0.  1.
</event>
<event>
 8    1  0.2502431E-006  0.9118800E+02  0.7816164E-02  0.1184000E+00
        -11   -1    0    0    0    0  0.00000000000E+00  0.00000000000E+00  0.45593999997E+02  0.45594000000E+02  0.51100000000E-03 0. -1.
         11   -1    0    0    0    0 -0.00000000000E+00 -0.00000000000E+00 -0.45593999997E+02  0.45594000000E+02  0.51100000000E-03 0.  1.
         23    2    1    2    0    0  0.00000000000E+00  0.00000000000E+00  0.88817841970E-15  0.91188000000E+02  0.91188000000E+02 0.  0.
    9900012    2    3    3    0    0  0.34816565703E+02  0.95184909603E+01  0.72790906364E+01  0.54367080973E+02  0.39999992693E+02 0.  0.
        -12    1    3    3    0    0 -0.34816565703E+02 -0.95184909603E+01 -0.72790906364E+01  0.36820919027E+02  0.00000000000E+00 0.  1.
         11    1    4    4    0    0  0.18374394798E+01 -0.53237520991E+01 -0.76020411098E+00  0.56829948800E+01  0.51100000000E-03 0. -1.
        -11    1    4    4    0    0  0.48032613261E+01  0.15817232207E+02 -0.54831390883E+01  0.17416112327E+02  0.51100000000E-03 0.  1.
        -12    1    4    4    0    0  0.28175864897E+02 -0.97498914805E+00  0.13522433836E+02  0.31267973765E+02  0.00000000000E+00 0.  1.
</event>
<event>
 8    1  0.2502431E-006  0.9118800E+02  0.7816164E-02  0.1184000E+00
        -11   -1    0    0    0    0  0.00000000000E+00  0.00000000000E+00  0.45593999997E+02  0.45594000000E+02  0.51100000000E-03 0.  1.
         11   -1    0    0    0    0 -0.00000000000E+00 -0.00000000000E+00 -0.45593999997E+02  0.45594000000E+02  0.51100000000E-03 0. -1.
         23    2    1    2    0    0  0.17763568394E-14 -0.53290705182E-14 -0.71054273576E-14  0.91188000000E+02  0.91188000000E+02 0.  0.
    9900012    2    3    3    0    0 -0.13070500055E+02  0.14043863858E+02  0.31427875227E+02  0.54367089840E+02  0.40000012908E+02 0.  0.
         12    1    3    3    0    0  0.13070500055E+02 -0.14043863858E+02 -0.31427875227E+02  0.36820910160E+02  0.00000000000E+00 0. -1.
         11    1    4    4    0    0  0.32765199393E+01 -0.52805595867E+00  0.38319016692E+00  0.33408473436E+01  0.51100000000E-03 0. -1.
        -11    1    4    4    0    0  0.42931156031E+01  0.18920850816E+02  0.15015536158E+02  0.24533564020E+02  0.51100000000E-03 0.  1.
         12    1    4    4    0    0 -0.20640135597E+02 -0.43489309993E+01  0.16029148902E+02  0.26492678476E+02  0.00000000000E+00 0. -1.
</event>
<event>
 8    1  0.2502431E-006  0.9118800E+02  0.7816164E-02  0.1184000E+00
        -11   -1    0    0    0    0  0.00000000000E+00  0.00000000000E+00  0.45593999997E+02  0.45594000000E+02  0.51100000000E-03 0. -1.
         11   -1    0    0    0    0 -0.00000000000E+00 -0.00000000000E+00 -0.45593999997E+02  0.45594000000E+02  0.51100000000E-03 0.  1.
         23    2    1    2    0    0 -0.71054273576E-14  0.44408920985E-15  0.00000000000E+00  0.91188000000E+02  0.91188000000E+02 0.  0.
    9900012    2    3    3    0    0 -0.27500217665E+02 -0.93384993851E+00 -0.24467225407E+02  0.54367093351E+02  0.40000020912E+02 0.  0.
         12    1    3    3    0    0  0.27500217665E+02  0.93384993851E+00  0.24467225407E+02  0.36820906649E+02  0.00000000000E+00 0. -1.
         11    1    4    4    0    0 -0.38933112901E+01 -0.13035007234E+02 -0.13816596054E+02  0.19389884301E+02  0.51100000000E-03 0. -1.
        -11    1    4    4    0    0 -0.68252725578E+01 -0.70087231679E-01 -0.12419087995E+02  0.14171203357E+02  0.51100000000E-03 0.  1.
         12    1    4    4    0    0 -0.16781633817E+02  0.12171244527E+02  0.17684586428E+01  0.20806005693E+02  0.00000000000E+00 0. -1.
</event>
<event>
 8    1  0.2502431E-006  0.9118800E+02  0.7816164E-02  0.1184000E+00
        -11   -1    0    0    0    0  0.00000000000E+00  0.00000000000E+00  0.45593999997E+02  0.45594000000E+02  0.51100000000E-03 0.  1.
         11   -1    0    0    0    0 -0.00000000000E+00 -0.00000000000E+00 -0.45593999997E+02  0.45594000000E+02  0.51100000000E-03 0. -1.
         23    2    1    2    0    0  0.00000000000E+00 -0.35527136788E-14  0.00000000000E+00  0.91188000000E+02  0.91188000000E+02 0.  0.
    9900012    2    3    3    0    0 -0.71033575438E+01 -0.19699151960E+02 -0.30286394024E+02  0.54367082856E+02  0.39999996987E+02 0.  0.
        -12    1    3    3    0    0  0.71033575438E+01  0.19699151960E+02  0.30286394024E+02  0.36820917144E+02  0.00000000000E+00 0.  1.
         11    1    4    4    0    0  0.44363330700E+01  0.29593948419E+01 -0.15436018519E+02  0.16331250317E+02  0.51100000000E-03 0. -1.
        -11    1    4    4    0    0 -0.33350209069E+01  0.44148472293E+01 -0.65080120135E+01  0.85420993401E+01  0.51100000000E-03 0.  1.
        -12    1    4    4    0    0 -0.82046697069E+01 -0.27073394032E+02 -0.83423634913E+01  0.29493733199E+02  0.00000000000E+00 0.  1.
</event>
<event>
 8    1  0.2502431E-006  0.9118800E+02  0.7816164E-02  0.1184000E+00
        -11   -1    0    0    0    0  0.00000000000E+00  0.00000000000E+00  0.45593999997E+02  0.45594000000E+02  0.51100000000E-03 0.  1.
         11   -1    0    0    0    0 -0.00000000000E+00 -0.00000000000E+00 -0.45593999997E+02  0.45594000000E+02  0.51100000000E-03 0. -1.
         23    2    1    2    0    0  0.88817841970E-15  0.00000000000E+00 -0.71054273576E-14  0.91188000000E+02  0.91188000000E+02 0.  0.
    9900012    2    3    3    0    0  0.39294328869E+01 -0.13947043768E+02  0.33849972383E+02  0.54367067054E+02  0.39999960963E+02 0.  0.
         12    1    3    3    0    0 -0.39294328869E+01  0.13947043768E+02 -0.33849972383E+02  0.36820932946E+02  0.00000000000E+00 0. -1.
         11    1    4    4    0    0  0.68826238448E+01 -0.24686155249E+02  0.11124547602E+02  0.27938008726E+02  0.51100000000E-03 0. -1.
        -11    1    4    4    0    0 -0.53523285203E+01  0.67424368107E+01  0.12346360092E+02  0.15051261825E+02  0.51100000000E-03 0.  1.
         12    1    4    4    0    0  0.23991375623E+01  0.39966746697E+01  0.10379064689E+02  0.11377796504E+02  0.00000000000E+00 0. -1.
</event>
<event>
 8    1  0.2502431E-006  0.9118800E+02  0.7816164E-02  0.1184000E+00
        -11   -1    0    0    0    0  0.00000000000E+00  0.00000000000E+00  0.45593999997E+02  0.45594000000E+02  0.51100000000E-03 0. -1.
         11   -1    0    0    0    0 -0.00000000000E+00 -0.00000000000E+00 -0.45593999997E+02  0.45594000000E+02  0.51100000000E-03 0.  1.
         23    2    1    2    0    0 -0.35527136788E-14  0.00000000000E+00  0.17763568394E-14  0.91188000000E+02  0.91188000000E+02 0.  0.
    9900012    2    3    3    0    0  0.17932861283E+02  0.30542052571E+02 -0.10068530099E+02  0.54367084919E+02  0.40000001689E+02 0.  0.
         12    1    3    3    0    0 -0.17932861283E+02 -0.30542052571E+02  0.10068530099E+02  0.36820915081E+02  0.00000000000E+00 0. -1.
         11    1    4    4    0    0  0.26145078310E+02  0.20999745997E+02  0.50102365366E+01  0.33906591132E+02  0.51100000000E-03 0. -1.
        -11    1    4    4    0    0  0.84057847844E+00  0.14028421308E+01 -0.14424972371E+01  0.21806734654E+01  0.51100000000E-03 0.  1.
         12    1    4    4    0    0 -0.90527955051E+01  0.81394644435E+01 -0.13636269398E+02  0.18279820322E+02  0.00000000000E+00 0. -1.
</event>
<event>
 8    1  0.2502431E-006  0.9118800E+02  0.7816164E-02  0.1184000E+00
        -11   -1    0    0    0    0  0.00000000000E+00  0.00000000000E+00  0.45593999997E+02  0.45594000000E+02  0.51100000000E-03 0. -1.
         11   -1    0    0    0    0 -0.00000000000E+00 -0.00000000000E+00 -0.45593999997E+02  0.45594000000E+02  0.51100000000E-03 0.  1.
         23    2    1    2    0    0 -0.17763568394E-14 -0.17763568394E-14  0.00000000000E+00  0.91188000000E+02  0.91188000000E+02 0.  0.
    9900012    2    3    3    0    0  0.62086756880E+01  0.14205295967E+02  0.33398240373E+02  0.54367074600E+02  0.39999978165E+02 0.  0.
        -12    1    3    3    0    0 -0.62086756880E+01 -0.14205295967E+02 -0.33398240373E+02  0.36820925400E+02  0.00000000000E+00 0.  1.
         11    1    4    4    0    0 -0.33851798325E+01  0.11649622739E+02  0.51875217183E+01  0.13194071937E+02  0.51100000000E-03 0. -1.
        -11    1    4    4    0    0  0.73783198272E+01 -0.12918689541E+01 -0.41132082335E+01  0.85455843043E+01  0.51100000000E-03 0.  1.
         12    1    4    4    0    0  0.22155356933E+01  0.38475421828E+01  0.32323926888E+02  0.32627418358E+02  0.00000000000E+00 0. -1.
</event>
<event>
 8    1  0.2502431E-006  0.9118800E+02  0.7816164E-02  0.1184000E+00
        -11   -1    0    0    0    0  0.00000000000E+00  0.00000000000E+00  0.45593999997E+02  0.45594000000E+02  0.51100000000E-03 0.  1.
         11   -1    0    0    0    0 -0.00000000000E+00 -0.00000000000E+00 -0.45593999997E+02  0.45594000000E+02  0.51100000000E-03 0. -1.
         23    2    1    2    0    0  0.00000000000E+00  0.00000000000E+00  0.00000000000E+00  0.91188000000E+02  0.91188000000E+02 0.  0.
    9900012    2    3    3    0    0  0.72243726941E+01  0.28522194848E+02 -0.22137589313E+02  0.54367081755E+02  0.39999994477E+02 0.  0.
         12    1    3    3    0    0 -0.72243726941E+01 -0.28522194848E+02  0.22137589313E+02  0.36820918245E+02  0.00000000000E+00 0. -1.
         11    1    4    4    0    0 -0.28595825550E+01  0.46744405479E+01  0.40575811549E+01  0.68184728432E+01  0.51100000000E-03 0. -1.
        -11    1    4    4    0    0 -0.38633580045E+01  0.21950907672E+02 -0.24892669216E+02  0.33412764981E+02  0.51100000000E-03 0.  1.
         12    1    4    4    0    0  0.13947313254E+02  0.18968466281E+01 -0.13025012518E+01  0.14135843931E+02  0.00000000000E+00 0. -1.
</event>
<event>
 8    1  0.2502431E-006  0.9118800E+02  0.7816164E-02  0.1184000E+00
        -11   -1    0    0    0    0  0.00000000000E+00  0.00000000000E+00  0.45593999997E+02  0.45594000000E+02  0.51100000000E-03 0.  1.
         11   -1    0    0    0    0 -0.00000000000E+00 -0.00000000000E+00 -0.45593999997E+02  0.45594000000E+02  0.51100000000E-03 0. -1.
         23    2    1    2    0    0  0.00000000000E+00  0.00000000000E+00  0.00000000000E+00  0.91188000000E+02  0.91188000000E+02 0.  0.
    9900012    2    3    3    0    0 -0.20296895922E+02 -0.21180354796E+02  0.22253289516E+02  0.54367077855E+02  0.39999985585E+02 0.  0.
         12    1    3    3    0    0  0.20296895922E+02  0.21180354796E+02 -0.22253289516E+02  0.36820922145E+02  0.00000000000E+00 0. -1.
         11    1    4    4    0    0  0.81989081369E+01  0.16215654029E+01  0.12493931874E+02  0.15031630082E+02  0.51100000000E-03 0. -1.
        -11    1    4    4    0    0 -0.10768090698E+02 -0.10295460362E+02  0.94417532759E+01  0.17637884979E+02  0.51100000000E-03 0.  1.
         12    1    4    4    0    0 -0.17727713360E+02 -0.12506459836E+02  0.31760436641E+00  0.21697562793E+02  0.00000000000E+00 0. -1.
</event>
<event>
 8    1  0.2502431E-006  0.9118800E+02  0.7816164E-02  0.1184000E+00
        -11   -1    0    0    0    0  0.00000000000E+00  0.00000000000E+00  0.45593999997E+02  0.45594000000E+02  0.51100000000E-03 0.  1.
         11   -1    0    0    0    0 -0.00000000000E+00 -0.00000000000E+00 -0.45593999997E+02  0.45594000000E+02  0.51100000000E-03 0. -1.
         23    2    1    2    0    0  0.22204460493E-14  0.00000000000E+00  0.22204460493E-15  0.91188000000E+02  0.91188000000E+02 0.  0.
    9900012    2    3    3    0    0  0.34601423496E+01 -0.36609123297E+02  0.18912886701E+01  0.54367116435E+02  0.40000073537E+02 0.  0.
         12    1    3    3    0    0 -0.34601423496E+01  0.36609123297E+02 -0.18912886701E+01  0.36820883565E+02  0.00000000000E+00 0. -1.
         11    1    4    4    0    0  0.13034801908E+02 -0.55872886632E+01  0.38618338149E+01  0.14698218125E+02  0.51100000000E-03 0. -1.
        -11    1    4    4    0    0 -0.51871872520E+01  0.71574387333E+00  0.45916492477E+01  0.69643696021E+01  0.51100000000E-03 0.  1.
         12    1    4    4    0    0 -0.43874723060E+01 -0.31737578507E+02 -0.65621943924E+01  0.32704528708E+02  0.00000000000E+00 0. -1.
</event>
<event>
 8    1  0.2502431E-006  0.9118800E+02  0.7816164E-02  0.1184000E+00
        -11   -1    0    0    0    0  0.00000000000E+00  0.00000000000E+00  0.45593999997E+02  0.45594000000E+02  0.51100000000E-03 0.  1.
         11   -1    0    0    0    0 -0.00000000000E+00 -0.00000000000E+00 -0.45593999997E+02  0.45594000000E+02  0.51100000000E-03 0. -1.
         23    2    1    2    0    0  0.35527136788E-14  0.13322676296E-14  0.71054273576E-14  0.91188000000E+02  0.91188000000E+02 0.  0.
    9900012    2    3    3    0    0  0.27899184969E+02  0.37231094224E+01  0.23739263005E+02  0.54367100042E+02  0.40000036166E+02 0.  0.
         12    1    3    3    0    0 -0.27899184969E+02 -0.37231094224E+01 -0.23739263005E+02  0.36820899958E+02  0.00000000000E+00 0. -1.
         11    1    4    4    0    0  0.13353604604E+02 -0.80733933779E+00 -0.32959038593E+01  0.13778009118E+02  0.51100000000E-03 0. -1.
        -11    1    4    4    0    0  0.16101603647E+02 -0.54040938769E+00  0.35299879225E+01  0.16492862010E+02  0.51100000000E-03 0.  1.
        -12    1    4    4    0    0 -0.15560232819E+01  0.50708581479E+01  0.23505178942E+02  0.24096228914E+02  0.00000000000E+00 0.  1.
</event>
<event>
 8    1  0.2502431E-006  0.9118800E+02  0.7816164E-02  0.1184000E+00
        -11   -1    0    0    0    0  0.00000000000E+00  0.00000000000E+00  0.45593999997E+02  0.45594000000E+02  0.51100000000E-03 0. -1.
         11   -1    0    0    0    0 -0.00000000000E+00 -0.00000000000E+00 -0.45593999997E+02  0.45594000000E+02  0.51100000000E-03 0.  1.
         23    2    1    2    0    0 -0.17763568394E-14  0.00000000000E+00  0.00000000000E+00  0.91188000000E+02  0.91188000000E+02 0.  0.
    9900012    2    3    3    0    0 -0.11629289587E+02  0.11460932408E+02  0.33002823294E+02  0.54367086196E+02  0.40000004602E+02 0.  0.
        -12    1    3    3    0    0  0.11629289587E+02 -0.11460932408E+02 -0.33002823294E+02  0.36820913804E+02  0.00000000000E+00 0.  1.
         11    1    4    4    0    0  0.39716326717E+01  0.12492533399E+02  0.13688538481E+02  0.18952924387E+02  0.51100000000E-03 0. -1.
        -11    1    4    4    0    0 -0.12771280706E+02  0.52712955995E+01 -0.11022934005E+01  0.13860274859E+02  0.51100000000E-03 0.  1.
         12    1    4    4    0    0 -0.28296415534E+01 -0.63028965905E+01  0.20416578214E+02  0.21553886951E+02  0.00000000000E+00 0. -1.
</event>
<event>
 8    1  0.2502431E-006  0.9118800E+02  0.7816164E-02  0.1184000E+00
        -11   -1    0    0    0    0  0.00000000000E+00  0.00000000000E+00  0.45593999997E+02  0.45594000000E+02  0.51100000000E-03 0. -1.
         11   -1    0    0    0    0 -0.00000000000E+00 -0.00000000000E+00 -0.45593999997E+02  0.45594000000E+02  0.51100000000E-03 0.  1.
         23    2    1    2    0    0  0.00000000000E+00 -0.17763568394E-14  0.71054273576E-14  0.91188000000E+02  0.91188000000E+02 0.  0.
    9900012    2    3    3    0    0  0.59919046217E+01  0.13171508087E+02 -0.33858350313E+02  0.54367089742E+02  0.40000012685E+02 0.  0.
         12    1    3    3    0    0 -0.59919046217E+01 -0.13171508087E+02  0.33858350313E+02  0.36820910258E+02  0.00000000000E+00 0. -1.
         11    1    4    4    0    0  0.65101974134E+00  0.12438627052E+02  0.47169818574E+00  0.12464580582E+02  0.51100000000E-03 0. -1.
        -11    1    4    4    0    0  0.87121073032E+01  0.36815765799E+01 -0.25327216741E+01  0.97912971110E+01  0.51100000000E-03 0.  1.
        -12    1    4    4    0    0 -0.33712224229E+01 -0.29486955446E+01 -0.31797326825E+02  0.32111212049E+02  0.00000000000E+00 0.  1.
</event>
<event>
 8    1  0.2502431E-006  0.9118800E+02  0.7816164E-02  0.1184000E+00
        -11   -1    0    0    0    0  0.00000000000E+00  0.00000000000E+00  0.45593999997E+02  0.45594000000E+02  0.51100000000E-03 0.  1.
         11   -1    0    0    0    0 -0.00000000000E+00 -0.00000000000E+00 -0.45593999997E+02  0.45594000000E+02  0.51100000000E-03 0. -1.
         23    2    1    2    0    0  0.00000000000E+00 -0.44408920985E-15  0.35527136788E-14  0.91188000000E+02  0.91188000000E+02 0.  0.
    9900012    2    3    3    0    0  0.20096856187E+02 -0.33178424462E+01  0.30673897831E+02  0.54367085899E+02  0.40000003924E+02 0.  0.
         12    1    3    3    0    0 -0.20096856187E+02  0.33178424462E+01 -0.30673897831E+02  0.36820914101E+02  0.00000000000E+00 0. -1.
         11    1    4    4    0    0  0.89517891766E+01  0.86657333242E+01  0.80754680006E+01  0.14847311110E+02  0.51100000000E-03 0. -1.
        -11    1    4    4    0    0  0.16621610111E+02 -0.99817147138E+00  0.38178863038E+01  0.17083633251E+02  0.51100000000E-03 0.  1.
         12    1    4    4    0    0 -0.54765431007E+01 -0.10985404299E+02  0.18780543527E+02  0.22436141538E+02  0.00000000000E+00 0. -1.
</event>
<event>
 8    1  0.2502431E-006  0.9118800E+02  0.7816164E-02  0.1184000E+00
        -11   -1    0    0    0    0  0.00000000000E+00  0.00000000000E+00  0.45593999997E+02  0.45594000000E+02  0.51100000000E-03 0.  1.
         11   -1    0    0    0    0 -0.00000000000E+00 -0.00000000000E+00 -0.45593999997E+02  0.45594000000E+02  0.51100000000E-03 0. -1.
         23    2    1    2    0    0  0.35527136788E-14  0.00000000000E+00  0.35527136788E-14  0.91188000000E+02  0.91188000000E+02 0.  0.
    9900012    2    3    3    0    0  0.30611671643E+02 -0.60877834717E+01  0.19535718164E+02  0.54367084306E+02  0.40000000292E+02 0.  0.
         12    1    3    3    0    0 -0.30611671643E+02  0.60877834717E+01 -0.19535718164E+02  0.36820915694E+02  0.00000000000E+00 0. -1.
         11    1    4    4    0    0  0.26127387466E+01 -0.16803460130E+02  0.27740211694E+01  0.17230144219E+02  0.51100000000E-03 0.  1.
        -11    1    4    4    0    0  0.38000457659E+00  0.60911483043E+00 -0.20858169678E+01  0.22059141052E+01  0.51100000000E-03 0. -1.
        -12    1    4    4    0    0  0.27618928320E+02  0.10106561828E+02  0.18847513963E+02  0.34931025981E+02  0.00000000000E+00 0.  1.
</event>
<event>
 8    1  0.2502431E-006  0.9118800E+02  0.7816164E-02  0.1184000E+00
        -11   -1    0    0    0    0  0.00000000000E+00  0.00000000000E+00  0.45593999997E+02  0.45594000000E+02  0.51100000000E-03 0.  1.
         11   -1    0    0    0    0 -0.00000000000E+00 -0.00000000000E+00 -0.45593999997E+02  0.45594000000E+02  0.51100000000E-03 0. -1.
         23    2    1    2    0    0 -0.17763568394E-14  0.00000000000E+00  0.71054273576E-14  0.91188000000E+02  0.91188000000E+02 0.  0.
    9900012    2    3    3    0    0 -0.15793758814E+02 -0.60339065682E+01  0.32709787752E+02  0.54367067628E+02  0.39999962271E+02 0.  0.
         12    1    3    3    0    0  0.15793758814E+02  0.60339065682E+01 -0.32709787752E+02  0.36820932372E+02  0.00000000000E+00 0. -1.
         11    1    4    4    0    0 -0.16826189034E+02 -0.45892669318E+01  0.12377617649E+02  0.21386617949E+02  0.51100000000E-03 0. -1.
        -11    1    4    4    0    0  0.20830676431E+01 -0.13458229200E+02  0.13221139356E+02  0.18980559269E+02  0.51100000000E-03 0.  1.
        -12    1    4    4    0    0 -0.10506374226E+01  0.12013589564E+02  0.71110307475E+01  0.13999890410E+02  0.00000000000E+00 0.  1.
</event>
<event>
 8    1  0.2502431E-006  0.9118800E+02  0.7816164E-02  0.1184000E+00
        -11   -1    0    0    0    0  0.00000000000E+00  0.00000000000E+00  0.45593999997E+02  0.45594000000E+02  0.51100000000E-03 0.  1.
         11   -1    0    0    0    0 -0.00000000000E+00 -0.00000000000E+00 -0.45593999997E+02  0.45594000000E+02  0.51100000000E-03 0. -1.
         23    2    1    2    0    0  0.00000000000E+00  0.00000000000E+00  0.00000000000E+00  0.91188000000E+02  0.91188000000E+02 0.  0.
    9900012    2    3    3    0    0  0.18187590408E+02  0.16537706033E+02  0.27413461787E+02  0.54367054157E+02  0.39999931561E+02 0.  0.
         12    1    3    3    0    0 -0.18187590408E+02 -0.16537706033E+02 -0.27413461787E+02  0.36820945843E+02  0.00000000000E+00 0. -1.
         11    1    4    4    0    0 -0.48054603003E+01  0.17237905943E+02 -0.82087785523E+00  0.17914008225E+02  0.51100000000E-03 0. -1.
        -11    1    4    4    0    0  0.10671903769E+02 -0.11040241226E+01  0.12982832627E+02  0.16842278427E+02  0.51100000000E-03 0.  1.
         12    1    4    4    0    0  0.12321146939E+02  0.40382421310E+00  0.15251507015E+02  0.19610767504E+02  0.00000000000E+00 0. -1.
</event>
<event>
 8    1  0.2502431E-006  0.9118800E+02  0.7816164E-02  0.1184000E+00
        -11   -1    0    0    0    0  0.00000000000E+00  0.00000000000E+00  0.45593999997E+02  0.45594000000E+02  0.51100000000E-03 0. -1.
         11   -1    0    0    0    0 -0.00000000000E+00 -0.00000000000E+00 -0.45593999997E+02  0.45594000000E+02  0.51100000000E-03 0.  1.
         23    2    1    2    0    0  0.00000000000E+00  0.17763568394E-14 -0.71054273576E-14  0.91188000000E+02  0.91188000000E+02 0.  0.
    9900012    2    3    3    0    0  0.18679638827E+02 -0.10792613120E+02  0.29839075964E+02  0.54367083946E+02  0.39999999471E+02 0.  0.
        -12    1    3    3    0    0 -0.18679638827E+02  0.10792613120E+02 -0.29839075964E+02  0.36820916054E+02  0.00000000000E+00 0.  1.
         11    1    4    4    0    0  0.18846894554E+02 -0.54995755063E+01  0.30084990570E+02  0.35924329123E+02  0.51100000000E-03 0. -1.
        -11    1    4    4    0    0 -0.41324758327E+01 -0.75414722922E+01  0.61617387800E+01  0.10579139185E+02  0.51100000000E-03 0.  1.
        -12    1    4    4    0    0  0.39652201060E+01  0.22484346788E+01 -0.64076533854E+01  0.78636156379E+01  0.00000000000E+00 0.  1.
</event>
<event>
 8    1  0.2502431E-006  0.9118800E+02  0.7816164E-02  0.1184000E+00
        -11   -1    0    0    0    0  0.00000000000E+00  0.00000000000E+00  0.45593999997E+02  0.45594000000E+02  0.51100000000E-03 0. -1.
         11   -1    0    0    0    0 -0.00000000000E+00 -0.00000000000E+00 -0.45593999997E+02  0.45594000000E+02  0.51100000000E-03 0.  1.
         23    2    1    2    0    0  0.66613381478E-15  0.00000000000E+00  0.00000000000E+00  0.91188000000E+02  0.91188000000E+02 0.  0.
    9900012    2    3    3    0    0  0.18212707546E+01  0.35849323201E+02  0.82028695708E+01  0.54367108235E+02  0.40000054844E+02 0.  0.
        -12    1    3    3    0    0 -0.18212707546E+01 -0.35849323201E+02 -0.82028695708E+01  0.36820891765E+02  0.00000000000E+00 0.  1.
         11    1    4    4    0    0 -0.58031692827E+01  0.17711040163E+02 -0.11684254473E+02  0.21997261653E+02  0.51100000000E-03 0.  1.
        -11    1    4    4    0    0  0.11588121740E+02  0.12404046833E+02  0.84156026442E+01  0.18946432683E+02  0.51100000000E-03 0. -1.
        -12    1    4    4    0    0 -0.39636817023E+01  0.57342362056E+01  0.11471521399E+02  0.13423413899E+02  0.00000000000E+00 0.  1.
</event>
<event>
 8    1  0.2502431E-006  0.9118800E+02  0.7816164E-02  0.1184000E+00
        -11   -1    0    0    0    0  0.00000000000E+00  0.00000000000E+00  0.45593999997E+02  0.45594000000E+02  0.51100000000E-03 0.  1.
         11   -1    0    0    0    0 -0.00000000000E+00 -0.00000000000E+00 -0.45593999997E+02  0.45594000000E+02  0.51100000000E-03 0. -1.
         23    2    1    2    0    0 -0.17763568394E-14  0.00000000000E+00 -0.17763568394E-14  0.91188000000E+02  0.91188000000E+02 0.  0.
    9900012    2    3    3    0    0 -0.88887608252E+01 -0.34441853553E+02 -0.95144152678E+01  0.54367143912E+02  0.40000136176E+02 0.  0.
        -12    1    3    3    0    0  0.88887608252E+01  0.34441853553E+02  0.95144152678E+01  0.36820856088E+02  0.00000000000E+00 0.  1.
         11    1    4    4    0    0 -0.16917707419E+02  0.36536640493E+00 -0.52583625546E+01  0.17719838993E+02  0.51100000000E-03 0. -1.
        -11    1    4    4    0    0  0.19207973013E+01 -0.11572684810E+02  0.18086647396E+01  0.11869615175E+02  0.51100000000E-03 0.  1.
         12    1    4    4    0    0  0.61081492920E+01 -0.23234535147E+02 -0.60647174528E+01  0.24777689745E+02  0.00000000000E+00 0. -1.
</event>
<event>
 8    1  0.2502431E-006  0.9118800E+02  0.7816164E-02  0.1184000E+00
        -11   -1    0    0    0    0  0.00000000000E+00  0.00000000000E+00  0.45593999997E+02  0.45594000000E+02  0.51100000000E-03 0.  1.
         11   -1    0    0    0    0 -0.00000000000E+00 -0.00000000000E+00 -0.45593999997E+02  0.45594000000E+02  0.51100000000E-03 0. -1.
         23    2    1    2    0    0  0.00000000000E+00  0.00000000000E+00  0.00000000000E+00  0.91188000000E+02  0.91188000000E+02 0.  0.
    9900012    2    3    3    0    0 -0.72650769467E+01  0.28542552406E+02 -0.22097997060E+02  0.54367080471E+02  0.39999991549E+02 0.  0.
        -12    1    3    3    0    0  0.72650769467E+01 -0.28542552406E+02  0.22097997060E+02  0.36820919529E+02  0.00000000000E+00 0.  1.
         11    1    4    4    0    0  0.18846877484E+01  0.25818552262E+01  0.63614847934E+01  0.71194461411E+01  0.51100000000E-03 0. -1.
        -11    1    4    4    0    0  0.58737296472E+01  0.90147448624E+01  0.14890541883E+00  0.10760506400E+02  0.51100000000E-03 0.  1.
         12    1    4    4    0    0 -0.15023494342E+02  0.16945952318E+02 -0.28608387273E+02  0.36487127929E+02  0.00000000000E+00 0. -1.
</event>
<event>
 8    1  0.2502431E-006  0.9118800E+02  0.7816164E-02  0.1184000E+00
        -11   -1    0    0    0    0  0.00000000000E+00  0.00000000000E+00  0.45593999997E+02  0.45594000000E+02  0.51100000000E-03 0. -1.
         11   -1    0    0    0    0 -0.00000000000E+00 -0.00000000000E+00 -0.45593999997E+02  0.45594000000E+02  0.51100000000E-03 0.  1.
         23    2    1    2    0    0  0.00000000000E+00  0.16098233857E-14  0.35527136788E-14  0.91188000000E+02  0.91188000000E+02 0.  0.
    9900012    2    3    3    0    0 -0.20573418007E+02  0.38036844626E+00 -0.30534748055E+02  0.54367067809E+02  0.39999962684E+02 0.  0.
         12    1    3    3    0    0  0.20573418007E+02 -0.38036844626E+00  0.30534748055E+02  0.36820932191E+02  0.00000000000E+00 0. -1.
         11    1    4    4    0    0 -0.78857708011E+01 -0.96877863926E+01 -0.91356705683E+00  0.12524902848E+02  0.51100000000E-03 0. -1.
        -11    1    4    4    0    0 -0.93909578519E+01 -0.71811033746E+01 -0.97581326583E+01  0.15329040684E+02  0.51100000000E-03 0.  1.
         12    1    4    4    0    0 -0.32966893544E+01  0.17249258213E+02 -0.19863048339E+02  0.26513124277E+02  0.00000000000E+00 0. -1.
</event>
<event>
 8    1  0.2502431E-006  0.9118800E+02  0.7816164E-02  0.1184000E+00
        -11   -1    0    0    0    0  0.00000000000E+00  0.00000000000E+00  0.45593999997E+02  0.45594000000E+02  0.51100000000E-03 0.  1.
         11   -1    0    0    0    0 -0.00000000000E+00 -0.00000000000E+00 -0.45593999997E+02  0.45594000000E+02  0.51100000000E-03 0. -1.
         23    2    1    2    0    0 -0.22204460493E-15  0.00000000000E+00  0.00000000000E+00  0.91188000000E+02  0.91188000000E+02 0.  0.
    9900012    2    3    3    0    0 -0.10043341195E+01 -0.17449463420E+02 -0.32408098806E+02  0.54367118304E+02  0.40000077798E+02 0.  0.
        -12    1    3    3    0    0  0.10043341195E+01  0.17449463420E+02  0.32408098806E+02  0.36820881696E+02  0.00000000000E+00 0.  1.
         11    1    4    4    0    0 -0.30156919849E+01 -0.78763272077E+01 -0.79628145109E+01  0.11599023391E+02  0.51100000000E-03 0. -1.
        -11    1    4    4    0    0 -0.11101636689E+00 -0.13549558773E+02  0.38735396966E+01  0.14092805882E+02  0.51100000000E-03 0.  1.
        -12    1    4    4    0    0  0.21223742324E+01  0.39764225611E+01 -0.28318823991E+02  0.28675289031E+02  0.00000000000E+00 0.  1.
</event>
<event>
 8    1  0.2502431E-006  0.9118800E+02  0.7816164E-02  0.1184000E+00
        -11   -1    0    0    0    0  0.00000000000E+00  0.00000000000E+00  0.45593999997E+02  0.45594000000E+02  0.51100000000E-03 0.  1.
         11   -1    0    0    0    0 -0.00000000000E+00 -0.00000000000E+00 -0.45593999997E+02  0.45594000000E+02  0.51100000000E-03 0. -1.
         23    2    1    2    0    0 -0.35527136788E-14  0.00000000000E+00 -0.71054273576E-14  0.91188000000E+02  0.91188000000E+02 0.  0.
    9900012    2    3    3    0    0  0.21542822902E+02 -0.96462727430E+01 -0.28260153546E+02  0.54367081015E+02  0.39999992791E+02 0.  0.
         12    1    3    3    0    0 -0.21542822902E+02  0.96462727430E+01  0.28260153546E+02  0.36820918985E+02  0.00000000000E+00 0. -1.
         11    1    4    4    0    0 -0.68913545356E+00 -0.10194089846E+02  0.57511249757E+01  0.11724752202E+02  0.51100000000E-03 0. -1.
        -11    1    4    4    0    0  0.78519834927E+01 -0.36410545093E+01 -0.50067925867E+01  0.99989446931E+01  0.51100000000E-03 0.  1.
         12    1    4    4    0    0  0.14379974863E+02  0.41888716120E+01 -0.29004485935E+02  0.32643384120E+02  0.00000000000E+00 0. -1.
</event>
<event>
 8    1  0.2502431E-006  0.9118800E+02  0.7816164E-02  0.1184000E+00
        -11   -1    0    0    0    0  0.00000000000E+00  0.00000000000E+00  0.45593999997E+02  0.45594000000E+02  0.51100000000E-03 0.  1.
         11   -1    0    0    0    0 -0.00000000000E+00 -0.00000000000E+00 -0.45593999997E+02  0.45594000000E+02  0.51100000000E-03 0. -1.
         23    2    1    2    0    0  0.35527136788E-14  0.35527136788E-14  0.35527136788E-14  0.91188000000E+02  0.91188000000E+02 0.  0.
    9900012    2    3    3    0    0 -0.21049105041E+02  0.18091733248E+02  0.24195099380E+02  0.54367102822E+02  0.40000042503E+02 0.  0.
         12    1    3    3    0    0  0.21049105041E+02 -0.18091733248E+02 -0.24195099380E+02  0.36820897178E+02  0.00000000000E+00 0. -1.
         11    1    4    4    0    0 -0.14468061791E+02 -0.23402313917E+01  0.49554266129E+01  0.15471190909E+02  0.51100000000E-03 0. -1.
        -11    1    4    4    0    0  0.62855761691E+01  0.66544736397E+01  0.17768015913E+02  0.19987317903E+02  0.51100000000E-03 0.  1.
        -12    1    4    4    0    0 -0.12866619419E+02  0.13777491000E+02  0.14716568544E+01  0.18908594010E+02  0.00000000000E+00 0.  1.
</event>
<event>
 8    1  0.2502431E-006  0.9118800E+02  0.7816164E-02  0.1184000E+00
        -11   -1    0    0    0    0  0.00000000000E+00  0.00000000000E+00  0.45593999997E+02  0.45594000000E+02  0.51100000000E-03 0. -1.
         11   -1    0    0    0    0 -0.00000000000E+00 -0.00000000000E+00 -0.45593999997E+02  0.45594000000E+02  0.51100000000E-03 0.  1.
         23    2    1    2    0    0  0.44408920985E-15 -0.35527136788E-14  0.00000000000E+00  0.91188000000E+02  0.91188000000E+02 0.  0.
    9900012    2    3    3    0    0 -0.29521647789E+01  0.16473058118E+02  0.32797931680E+02  0.54367065151E+02  0.39999956625E+02 0.  0.
        -12    1    3    3    0    0  0.29521647789E+01 -0.16473058118E+02 -0.32797931680E+02  0.36820934849E+02  0.00000000000E+00 0.  1.
         11    1    4    4    0    0  0.69334979590E+01  0.70288997205E+01  0.12752193703E+02  0.16127531421E+02  0.51100000000E-03 0. -1.
        -11    1    4    4    0    0 -0.18907552988E+02  0.12825539793E+02  0.12836737056E+02  0.26206332240E+02  0.51100000000E-03 0.  1.
        -12    1    4    4    0    0  0.90218902503E+01 -0.33813813948E+01  0.72090009211E+01  0.12033201490E+02  0.00000000000E+00 0.  1.
</event>
<event>
 8    1  0.2502431E-006  0.9118800E+02  0.7816164E-02  0.1184000E+00
        -11   -1    0    0    0    0  0.00000000000E+00  0.00000000000E+00  0.45593999997E+02  0.45594000000E+02  0.51100000000E-03 0.  1.
         11   -1    0    0    0    0 -0.00000000000E+00 -0.00000000000E+00 -0.45593999997E+02  0.45594000000E+02  0.51100000000E-03 0. -1.
         23    2    1    2    0    0  0.00000000000E+00  0.88817841970E-15 -0.35527136788E-14  0.91188000000E+02  0.91188000000E+02 0.  0.
    9900012    2    3    3    0    0  0.24388604176E+02  0.61554394490E+01 -0.26890275890E+02  0.54367076792E+02  0.39999983163E+02 0.  0.
        -12    1    3    3    0    0 -0.24388604176E+02 -0.61554394490E+01  0.26890275890E+02  0.36820923208E+02  0.00000000000E+00 0.  1.
         11    1    4    4    0    0  0.10388714990E+02  0.10950920317E+02 -0.35661903457E+01  0.15510182745E+02  0.51100000000E-03 0. -1.
        -11    1    4    4    0    0 -0.53042179269E+01 -0.58456014212E+01  0.80940020838E+00  0.79347912859E+01  0.51100000000E-03 0.  1.
         12    1    4    4    0    0  0.19304107113E+02  0.10501205528E+01 -0.24133485752E+02  0.30922102761E+02  0.00000000000E+00 0. -1.
</event>
<event>
 8    1  0.2502431E-006  0.9118800E+02  0.7816164E-02  0.1184000E+00
        -11   -1    0    0    0    0  0.00000000000E+00  0.00000000000E+00  0.45593999997E+02  0.45594000000E+02  0.51100000000E-03 0.  1.
         11   -1    0    0    0    0 -0.00000000000E+00 -0.00000000000E+00 -0.45593999997E+02  0.45594000000E+02  0.51100000000E-03 0. -1.
         23    2    1    2    0    0  0.17763568394E-14  0.17763568394E-14  0.00000000000E+00  0.91188000000E+02  0.91188000000E+02 0.  0.
    9900012    2    3    3    0    0  0.10829243604E+02  0.87511888155E+01  0.34086841350E+02  0.54367237162E+02  0.40000348758E+02 0.  0.
         12    1    3    3    0    0 -0.10829243604E+02 -0.87511888155E+01 -0.34086841350E+02  0.36820762838E+02  0.00000000000E+00 0. -1.
         11    1    4    4    0    0  0.21575901313E+02  0.14235089917E+02  0.19761552885E+02  0.32537305898E+02  0.51100000000E-03 0.  1.
        -11    1    4    4    0    0 -0.50895549543E+01 -0.14640698298E+01 -0.63935721811E+00  0.53344023107E+01  0.51100000000E-03 0. -1.
        -12    1    4    4    0    0 -0.56571027552E+01 -0.40198312714E+01  0.14964645683E+02  0.16495528953E+02  0.00000000000E+00 0.  1.
</event>
<event>
 8    1  0.2502431E-006  0.9118800E+02  0.7816164E-02  0.1184000E+00
        -11   -1    0    0    0    0  0.00000000000E+00  0.00000000000E+00  0.45593999997E+02  0.45594000000E+02  0.51100000000E-03 0.  1.
         11   -1    0    0    0    0 -0.00000000000E+00 -0.00000000000E+00 -0.45593999997E+02  0.45594000000E+02  0.51100000000E-03 0. -1.
         23    2    1    2    0    0  0.17763568394E-14 -0.17763568394E-14  0.00000000000E+00  0.91188000000E+02  0.91188000000E+02 0.  0.
    9900012    2    3    3    0    0 -0.82962346238E+01  0.15761723508E+02  0.32226085711E+02  0.54367081528E+02  0.39999993959E+02 0.  0.
         12    1    3    3    0    0  0.82962346238E+01 -0.15761723508E+02 -0.32226085711E+02  0.36820918472E+02  0.00000000000E+00 0. -1.
         11    1    4    4    0    0 -0.14748263286E+02 -0.35468127454E+01  0.77089908266E+01  0.17015278148E+02  0.51100000000E-03 0. -1.
        -11    1    4    4    0    0  0.31855055104E+01 -0.10058763084E+01  0.13709624152E+02  0.14110741552E+02  0.51100000000E-03 0.  1.
         12    1    4    4    0    0  0.32665231523E+01  0.20314412562E+02  0.10807470733E+02  0.23241061828E+02  0.00000000000E+00 0. -1.
</event>
<event>
 8    1  0.2502431E-006  0.9118800E+02  0.7816164E-02  0.1184000E+00
        -11   -1    0    0    0    0  0.00000000000E+00  0.00000000000E+00  0.45593999997E+02  0.45594000000E+02  0.51100000000E-03 0.  1.
         11   -1    0    0    0    0 -0.00000000000E+00 -0.00000000000E+00 -0.45593999997E+02  0.45594000000E+02  0.51100000000E-03 0. -1.
         23    2    1    2    0    0  0.71054273576E-14  0.00000000000E+00  0.00000000000E+00  0.91188000000E+02  0.91188000000E+02 0.  0.
    9900012    2    3    3    0    0 -0.31699093266E+02 -0.16846241652E+02 -0.81946660255E+01  0.54367069499E+02  0.39999966537E+02 0.  0.
        -12    1    3    3    0    0  0.31699093266E+02  0.16846241652E+02  0.81946660255E+01  0.36820930501E+02  0.00000000000E+00 0.  1.
         11    1    4    4    0    0  0.42501818710E+01 -0.70829919556E+01  0.14829510748E+01  0.83923754165E+01  0.51100000000E-03 0.  1.
        -11    1    4    4    0    0 -0.41548727858E+00 -0.41023103610E+01  0.55409528218E+01  0.69067892983E+01  0.51100000000E-03 0. -1.
         12    1    4    4    0    0 -0.35533787859E+02 -0.56609393351E+01 -0.15218569922E+02  0.39067904784E+02  0.00000000000E+00 0. -1.
</event>
<event>
 8    1  0.2502431E-006  0.9118800E+02  0.7816164E-02  0.1184000E+00
        -11   -1    0    0    0    0  0.00000000000E+00  0.00000000000E+00  0.45593999997E+02  0.45594000000E+02  0.51100000000E-03 0. -1.
         11   -1    0    0    0    0 -0.00000000000E+00 -0.00000000000E+00 -0.45593999997E+02  0.45594000000E+02  0.51100000000E-03 0.  1.
         23    2    1    2    0    0  0.17763568394E-14  0.35527136788E-14  0.00000000000E+00  0.91188000000E+02  0.91188000000E+02 0.  0.
    9900012    2    3    3    0    0 -0.14745184958E+02 -0.25592527961E+02 -0.21985858168E+02  0.54367137351E+02  0.40000121218E+02 0.  0.
         12    1    3    3    0    0  0.14745184958E+02  0.25592527961E+02  0.21985858168E+02  0.36820862649E+02  0.00000000000E+00 0. -1.
         11    1    4    4    0    0 -0.46577968872E+01 -0.11234364211E+02 -0.50060373653E+01  0.13151669910E+02  0.51100000000E-03 0. -1.
        -11    1    4    4    0    0 -0.19615318937E+02 -0.18345013471E+02 -0.14780183439E+02  0.30655408642E+02  0.51100000000E-03 0.  1.
         12    1    4    4    0    0  0.95279308662E+01  0.39868497212E+01 -0.21996373635E+01  0.10560058798E+02  0.00000000000E+00 0. -1.
</event>
<event>
 8    1  0.2502431E-006  0.9118800E+02  0.7816164E-02  0.1184000E+00
        -11   -1    0    0    0    0  0.00000000000E+00  0.00000000000E+00  0.45593999997E+02  0.45594000000E+02  0.51100000000E-03 0.  1.
         11   -1    0    0    0    0 -0.00000000000E+00 -0.00000000000E+00 -0.45593999997E+02  0.45594000000E+02  0.51100000000E-03 0. -1.
         23    2    1    2    0    0  0.00000000000E+00 -0.17763568394E-14  0.71054273576E-14  0.91188000000E+02  0.91188000000E+02 0.  0.
    9900012    2    3    3    0    0  0.25217880637E+02  0.15015678959E+02 -0.22234357275E+02  0.54367098846E+02  0.40000033439E+02 0.  0.
        -12    1    3    3    0    0 -0.25217880637E+02 -0.15015678959E+02  0.22234357275E+02  0.36820901154E+02  0.00000000000E+00 0.  1.
         11    1    4    4    0    0  0.20605507483E+02  0.25658197167E+02 -0.13487236734E+02  0.35564526926E+02  0.51100000000E-03 0. -1.
        -11    1    4    4    0    0 -0.38620004662E+01 -0.29143841078E+01 -0.43922533357E+01  0.65345674650E+01  0.51100000000E-03 0.  1.
        -12    1    4    4    0    0  0.84743736200E+01 -0.77281341008E+01 -0.43548672047E+01  0.12268004455E+02  0.00000000000E+00 0.  1.
</event>
<event>
 8    1  0.2502431E-006  0.9118800E+02  0.7816164E-02  0.1184000E+00
        -11   -1    0    0    0    0  0.00000000000E+00  0.00000000000E+00  0.45593999997E+02  0.45594000000E+02  0.51100000000E-03 0.  1.
         11   -1    0    0    0    0 -0.00000000000E+00 -0.00000000000E+00 -0.45593999997E+02  0.45594000000E+02  0.51100000000E-03 0. -1.
         23    2    1    2    0    0  0.00000000000E+00 -0.88817841970E-15  0.35527136788E-14  0.91188000000E+02  0.91188000000E+02 0.  0.
    9900012    2    3    3    0    0  0.29000838420E+02 -0.59432561475E+01 -0.21895415040E+02  0.54367080369E+02  0.39999991317E+02 0.  0.
        -12    1    3    3    0    0 -0.29000838420E+02  0.59432561475E+01  0.21895415040E+02  0.36820919631E+02  0.00000000000E+00 0.  1.
         11    1    4    4    0    0  0.11996946694E+02 -0.28989845862E+01 -0.24914417657E+02  0.27803939452E+02  0.51100000000E-03 0. -1.
        -11    1    4    4    0    0  0.18246926289E+02  0.43719194897E+01  0.32359891608E+01  0.19040368304E+02  0.51100000000E-03 0.  1.
         12    1    4    4    0    0 -0.12430345626E+01 -0.74161910510E+01 -0.21698654398E+00  0.75227726132E+01  0.00000000000E+00 0. -1.
</event>
<event>
 8    1  0.2502431E-006  0.9118800E+02  0.7816164E-02  0.1184000E+00
        -11   -1    0    0    0    0  0.00000000000E+00  0.00000000000E+00  0.45593999997E+02  0.45594000000E+02  0.51100000000E-03 0. -1.
         11   -1    0    0    0    0 -0.00000000000E+00 -0.00000000000E+00 -0.45593999997E+02  0.45594000000E+02  0.51100000000E-03 0.  1.
         23    2    1    2    0    0  0.00000000000E+00  0.53290705182E-14  0.00000000000E+00  0.91188000000E+02  0.91188000000E+02 0.  0.
    9900012    2    3    3    0    0  0.34817236623E+02  0.96661870794E+01 -0.70784467177E+01  0.54367088188E+02  0.40000009143E+02 0.  0.
         12    1    3    3    0    0 -0.34817236623E+02 -0.96661870794E+01  0.70784467177E+01  0.36820911812E+02  0.00000000000E+00 0. -1.
         11    1    4    4    0    0  0.11986929311E+02  0.12461036658E+02 -0.33218216180E+01  0.17606771653E+02  0.51100000000E-03 0. -1.
        -11    1    4    4    0    0  0.19535569370E+02 -0.14547554152E+02 -0.27873496541E+01  0.24516099216E+02  0.51100000000E-03 0.  1.
        -12    1    4    4    0    0  0.32947379419E+01  0.11752704573E+02 -0.96927544556E+00  0.12244217320E+02  0.00000000000E+00 0.  1.
</event>
<event>
 8    1  0.2502431E-006  0.9118800E+02  0.7816164E-02  0.1184000E+00
        -11   -1    0    0    0    0  0.00000000000E+00  0.00000000000E+00  0.45593999997E+02  0.45594000000E+02  0.51100000000E-03 0.  1.
         11   -1    0    0    0    0 -0.00000000000E+00 -0.00000000000E+00 -0.45593999997E+02  0.45594000000E+02  0.51100000000E-03 0. -1.
         23    2    1    2    0    0  0.00000000000E+00  0.35527136788E-14  0.00000000000E+00  0.91188000000E+02  0.91188000000E+02 0.  0.
    9900012    2    3    3    0    0  0.32113917890E+02 -0.17261018916E+02  0.51510110268E+01  0.54367090032E+02  0.40000013346E+02 0.  0.
         12    1    3    3    0    0 -0.32113917890E+02  0.17261018916E+02 -0.51510110268E+01  0.36820909968E+02  0.00000000000E+00 0. -1.
         11    1    4    4    0    0  0.41531067017E+01 -0.21369231566E+00  0.11680350452E+02  0.12398570346E+02  0.51100000000E-03 0. -1.
        -11    1    4    4    0    0  0.24758094486E+02 -0.19787294503E+02  0.27137322221E+01  0.31809819383E+02  0.51100000000E-03 0.  1.
         12    1    4    4    0    0  0.32027167019E+01  0.27399679024E+01 -0.92430716472E+01  0.10158700303E+02  0.00000000000E+00 0. -1.
</event>
<event>
 8    1  0.2502431E-006  0.9118800E+02  0.7816164E-02  0.1184000E+00
        -11   -1    0    0    0    0  0.00000000000E+00  0.00000000000E+00  0.45593999997E+02  0.45594000000E+02  0.51100000000E-03 0. -1.
         11   -1    0    0    0    0 -0.00000000000E+00 -0.00000000000E+00 -0.45593999997E+02  0.45594000000E+02  0.51100000000E-03 0.  1.
         23    2    1    2    0    0 -0.35527136788E-14 -0.55511151231E-15  0.00000000000E+00  0.91188000000E+02  0.91188000000E+02 0.  0.
    9900012    2    3    3    0    0 -0.30525178641E+02 -0.90950932169E+00 -0.20571003114E+02  0.54367083290E+02  0.39999997976E+02 0.  0.
         12    1    3    3    0    0  0.30525178641E+02  0.90950932169E+00  0.20571003114E+02  0.36820916710E+02  0.00000000000E+00 0. -1.
         11    1    4    4    0    0  0.42170807834E+01 -0.44114407440E+01 -0.40444636015E+01  0.73213568317E+01  0.51100000000E-03 0. -1.
        -11    1    4    4    0    0 -0.79374311066E+01 -0.10365011997E+02 -0.92547074515E+01  0.16002684042E+02  0.51100000000E-03 0.  1.
         12    1    4    4    0    0 -0.26804828318E+02  0.13866943420E+02 -0.72718320606E+01  0.31043042416E+02  0.00000000000E+00 0. -1.
</event>
<event>
 8    1  0.2502431E-006  0.9118800E+02  0.7816164E-02  0.1184000E+00
        -11   -1    0    0    0    0  0.00000000000E+00  0.00000000000E+00  0.45593999997E+02  0.45594000000E+02  0.51100000000E-03 0. -1.
         11   -1    0    0    0    0 -0.00000000000E+00 -0.00000000000E+00 -0.45593999997E+02  0.45594000000E+02  0.51100000000E-03 0.  1.
         23    2    1    2    0    0  0.00000000000E+00  0.00000000000E+00  0.00000000000E+00  0.91188000000E+02  0.91188000000E+02 0.  0.
    9900012    2    3    3    0    0 -0.15542372649E+01  0.33005543458E+02  0.16247978111E+02  0.54367104504E+02  0.40000046338E+02 0.  0.
        -12    1    3    3    0    0  0.15542372649E+01 -0.33005543458E+02 -0.16247978111E+02  0.36820895496E+02  0.00000000000E+00 0.  1.
         11    1    4    4    0    0 -0.14747081060E+01 -0.12511285088E+01  0.15381049156E+02  0.15502153397E+02  0.51100000000E-03 0. -1.
        -11    1    4    4    0    0  0.78263408864E+01  0.74883936298E+01  0.15686254362E+01  0.10944781261E+02  0.51100000000E-03 0.  1.
         12    1    4    4    0    0 -0.79058700452E+01  0.26768278337E+02 -0.70169648116E+00  0.27920169846E+02  0.00000000000E+00 0. -1.
</event>
<event>
 8    1  0.2502431E-006  0.9118800E+02  0.7816164E-02  0.1184000E+00
        -11   -1    0    0    0    0  0.00000000000E+00  0.00000000000E+00  0.45593999997E+02  0.45594000000E+02  0.51100000000E-03 0.  1.
         11   -1    0    0    0    0 -0.00000000000E+00 -0.00000000000E+00 -0.45593999997E+02  0.45594000000E+02  0.51100000000E-03 0. -1.
         23    2    1    2    0    0 -0.35527136788E-14  0.88817841970E-15 -0.35527136788E-14  0.91188000000E+02  0.91188000000E+02 0.  0.
    9900012    2    3    3    0    0  0.31879549635E+02 -0.55871444060E+01  0.17557275205E+02  0.54367085017E+02  0.40000001914E+02 0.  0.
         12    1    3    3    0    0 -0.31879549635E+02  0.55871444060E+01 -0.17557275205E+02  0.36820914983E+02  0.00000000000E+00 0. -1.
         11    1    4    4    0    0  0.89048965208E+01  0.34619750513E+01 -0.72072325664E+01  0.11967733905E+02  0.51100000000E-03 0. -1.
        -11    1    4    4    0    0 -0.33708625633E+01  0.38199399846E+01  0.36064402388E+01  0.62418801145E+01  0.51100000000E-03 0.  1.
        -12    1    4    4    0    0  0.26345515677E+02 -0.12869059442E+02  0.21158067533E+02  0.36157470998E+02  0.00000000000E+00 0.  1.
</event>
<event>
 8    1  0.2502431E-006  0.9118800E+02  0.7816164E-02  0.1184000E+00
        -11   -1    0    0    0    0  0.00000000000E+00  0.00000000000E+00  0.45593999997E+02  0.45594000000E+02  0.51100000000E-03 0.  1.
         11   -1    0    0    0    0 -0.00000000000E+00 -0.00000000000E+00 -0.45593999997E+02  0.45594000000E+02  0.51100000000E-03 0. -1.
         23    2    1    2    0    0  0.00000000000E+00 -0.88817841970E-15 -0.17763568394E-14  0.91188000000E+02  0.91188000000E+02 0.  0.
    9900012    2    3    3    0    0 -0.33705524064E+02 -0.30105878321E+01  0.14513830315E+02  0.54367119212E+02  0.40000079868E+02 0.  0.
         12    1    3    3    0    0  0.33705524064E+02  0.30105878321E+01 -0.14513830315E+02  0.36820880788E+02  0.00000000000E+00 0. -1.
         11    1    4    4    0    0 -0.24065680061E+01 -0.12253164910E+01 -0.42461604694E+01  0.50321813425E+01  0.51100000000E-03 0. -1.
        -11    1    4    4    0    0 -0.18056246082E+02 -0.12968453144E+02  0.22470690891E+02  0.31609187729E+02  0.51100000000E-03 0.  1.
        -12    1    4    4    0    0 -0.13242709977E+02  0.11183181803E+02 -0.37107001061E+01  0.17725750141E+02  0.00000000000E+00 0.  1.
</event>
<event>
 8    1  0.2502431E-006  0.9118800E+02  0.7816164E-02  0.1184000E+00
        -11   -1    0    0    0    0  0.00000000000E+00  0.00000000000E+00  0.45593999997E+02  0.45594000000E+02  0.51100000000E-03 0.  1.
         11   -1    0    0    0    0 -0.00000000000E+00 -0.00000000000E+00 -0.45593999997E+02  0.45594000000E+02  0.51100000000E-03 0. -1.
         23    2    1    2    0    0  0.00000000000E+00  0.00000000000E+00  0.00000000000E+00  0.91188000000E+02  0.91188000000E+02 0.  0.
    9900012    2    3    3    0    0  0.18324457977E+02 -0.18077912609E+02  0.26328374417E+02  0.54367082250E+02  0.39999995606E+02 0.  0.
        -12    1    3    3    0    0 -0.18324457977E+02  0.18077912609E+02 -0.26328374417E+02  0.36820917750E+02  0.00000000000E+00 0.  1.
         11    1    4    4    0    0  0.62651383184E+01 -0.19313557340E+00 -0.10869858919E+01  0.63616662981E+01  0.51100000000E-03 0. -1.
        -11    1    4    4    0    0 -0.11175056837E+02 -0.68673644810E+01  0.13265324298E+02  0.18655064171E+02  0.51100000000E-03 0.  1.
        -12    1    4    4    0    0  0.23234376496E+02 -0.11017412555E+02  0.14150036011E+02  0.29350351781E+02  0.00000000000E+00 0.  1.
</event>
<event>
 8    1  0.2502431E-006  0.9118800E+02  0.7816164E-02  0.1184000E+00
        -11   -1    0    0    0    0  0.00000000000E+00  0.00000000000E+00  0.45593999997E+02  0.45594000000E+02  0.51100000000E-03 0.  1.
         11   -1    0    0    0    0 -0.00000000000E+00 -0.00000000000E+00 -0.45593999997E+02  0.45594000000E+02  0.51100000000E-03 0. -1.
         23    2    1    2    0    0  0.00000000000E+00  0.00000000000E+00  0.00000000000E+00  0.91188000000E+02  0.91188000000E+02 0.  0.
    9900012    2    3    3    0    0 -0.11096959818E+02 -0.16585253445E+02 -0.30944561988E+02  0.54367094720E+02  0.40000024033E+02 0.  0.
        -12    1    3    3    0    0  0.11096959818E+02  0.16585253445E+02  0.30944561988E+02  0.36820905280E+02  0.00000000000E+00 0.  1.
         11    1    4    4    0    0 -0.26855098136E+01 -0.59488549655E+01 -0.81195918550E+01  0.10417706586E+02  0.51100000000E-03 0. -1.
        -11    1    4    4    0    0 -0.13827673013E+01  0.90505799537E+01  0.39578199360E+01  0.99744364159E+01  0.51100000000E-03 0.  1.
        -12    1    4    4    0    0 -0.70286827032E+01 -0.19686978433E+02 -0.26782790068E+02  0.33974951718E+02  0.00000000000E+00 0.  1.
</event>
<event>
 8    1  0.2502431E-006  0.9118800E+02  0.7816164E-02  0.1184000E+00
        -11   -1    0    0    0    0  0.00000000000E+00  0.00000000000E+00  0.45593999997E+02  0.45594000000E+02  0.51100000000E-03 0. -1.
         11   -1    0    0    0    0 -0.00000000000E+00 -0.00000000000E+00 -0.45593999997E+02  0.45594000000E+02  0.51100000000E-03 0.  1.
         23    2    1    2    0    0  0.00000000000E+00 -0.17763568394E-14  0.00000000000E+00  0.91188000000E+02  0.91188000000E+02 0.  0.
    9900012    2    3    3    0    0 -0.22855510445E+01  0.15395175690E+02 -0.33369778052E+02  0.54367119167E+02  0.40000079764E+02 0.  0.
         12    1    3    3    0    0  0.22855510445E+01 -0.15395175690E+02  0.33369778052E+02  0.36820880833E+02  0.00000000000E+00 0. -1.
         11    1    4    4    0    0  0.74260215560E+01  0.12878027003E+02 -0.37269544137E+01  0.15325781060E+02  0.51100000000E-03 0. -1.
        -11    1    4    4    0    0 -0.28748109369E+01 -0.82105254201E+01 -0.24777527535E+01  0.90452487288E+01  0.51100000000E-03 0.  1.
         12    1    4    4    0    0 -0.68367616636E+01  0.10727674107E+02 -0.27165070885E+02  0.29996089378E+02  0.00000000000E+00 0. -1.
</event>
<event>
 8    1  0.2502431E-006  0.9118800E+02  0.7816164E-02  0.1184000E+00
        -11   -1    0    0    0    0  0.00000000000E+00  0.00000000000E+00  0.45593999997E+02  0.45594000000E+02  0.51100000000E-03 0.  1.
         11   -1    0    0    0    0 -0.00000000000E+00 -0.00000000000E+00 -0.45593999997E+02  0.45594000000E+02  0.51100000000E-03 0. -1.
         23    2    1    2    0    0 -0.88817841970E-15 -0.21684043450E-15  0.71054273576E-14  0.91188000000E+02  0.91188000000E+02 0.  0.
    9900012    2    3    3    0    0  0.72646245384E+01 -0.13504789238E-01 -0.36097171534E+02  0.54367071918E+02  0.39999972052E+02 0.  0.
        -12    1    3    3    0    0 -0.72646245384E+01  0.13504789238E-01  0.36097171534E+02  0.36820928082E+02  0.00000000000E+00 0.  1.
         11    1    4    4    0    0  0.14107579460E+01  0.13479281149E+01 -0.17222343766E+02  0.17332520683E+02  0.51100000000E-03 0. -1.
        -11    1    4    4    0    0  0.92285079779E+01 -0.14020433719E+02 -0.40818923856E+01  0.17274251558E+02  0.51100000000E-03 0.  1.
        -12    1    4    4    0    0 -0.33746413855E+01  0.12659000815E+02 -0.14792935382E+02  0.19760299677E+02  0.00000000000E+00 0.  1.
</event>
<event>
 8    1  0.2502431E-006  0.9118800E+02  0.7816164E-02  0.1184000E+00
        -11   -1    0    0    0    0  0.00000000000E+00  0.00000000000E+00  0.45593999997E+02  0.45594000000E+02  0.51100000000E-03 0. -1.
         11   -1    0    0    0    0 -0.00000000000E+00 -0.00000000000E+00 -0.45593999997E+02  0.45594000000E+02  0.51100000000E-03 0.  1.
         23    2    1    2    0    0  0.00000000000E+00 -0.71054273576E-14  0.00000000000E+00  0.91188000000E+02  0.91188000000E+02 0.  0.
    9900012    2    3    3    0    0  0.10487355879E+02  0.34155065752E+02  0.89009662275E+01  0.54367077284E+02  0.39999984284E+02 0.  0.
         12    1    3    3    0    0 -0.10487355879E+02 -0.34155065752E+02 -0.89009662275E+01  0.36820922716E+02  0.00000000000E+00 0. -1.
         11    1    4    4    0    0  0.13571982192E+01 -0.44792159997E+01  0.78979243586E+01  0.91805540363E+01  0.51100000000E-03 0. -1.
        -11    1    4    4    0    0  0.30690509087E+01  0.40933653927E+01 -0.75215603984E+01  0.90966249129E+01  0.51100000000E-03 0.  1.
         12    1    4    4    0    0  0.60611067515E+01  0.34540916359E+02  0.85246022673E+01  0.36089898335E+02  0.00000000000E+00 0. -1.
</event>
<event>
 8    1  0.2502431E-006  0.9118800E+02  0.7816164E-02  0.1184000E+00
        -11   -1    0    0    0    0  0.00000000000E+00  0.00000000000E+00  0.45593999997E+02  0.45594000000E+02  0.51100000000E-03 0.  1.
         11   -1    0    0    0    0 -0.00000000000E+00 -0.00000000000E+00 -0.45593999997E+02  0.45594000000E+02  0.51100000000E-03 0. -1.
         23    2    1    2    0    0  0.00000000000E+00  0.00000000000E+00  0.17763568394E-14  0.91188000000E+02  0.91188000000E+02 0.  0.
    9900012    2    3    3    0    0  0.16516769285E+02  0.30310371646E+02 -0.12816259939E+02  0.54367098113E+02  0.40000031769E+02 0.  0.
        -12    1    3    3    0    0 -0.16516769285E+02 -0.30310371646E+02  0.12816259939E+02  0.36820901887E+02  0.00000000000E+00 0.  1.
         11    1    4    4    0    0  0.24206066118E+02  0.35426875092E+02 -0.11468745881E+02  0.44413165256E+02  0.51100000000E-03 0. -1.
        -11    1    4    4    0    0 -0.47591704780E+01 -0.23638554590E+01  0.83551771538E+00  0.53791826874E+01  0.51100000000E-03 0.  1.
         12    1    4    4    0    0 -0.29301263548E+01 -0.27526479871E+01 -0.21830317734E+01  0.45747501702E+01  0.00000000000E+00 0. -1.
</event>
<event>
 8    1  0.2502431E-006  0.9118800E+02  0.7816164E-02  0.1184000E+00
        -11   -1    0    0    0    0  0.00000000000E+00  0.00000000000E+00  0.45593999997E+02  0.45594000000E+02  0.51100000000E-03 0.  1.
         11   -1    0    0    0    0 -0.00000000000E+00 -0.00000000000E+00 -0.45593999997E+02  0.45594000000E+02  0.51100000000E-03 0. -1.
         23    2    1    2    0    0 -0.88817841970E-15 -0.35527136788E-14  0.71054273576E-14  0.91188000000E+02  0.91188000000E+02 0.  0.
    9900012    2    3    3    0    0 -0.67133249024E+01 -0.25009813412E+02  0.26176728167E+02  0.54367073943E+02  0.39999976669E+02 0.  0.
         12    1    3    3    0    0  0.67133249024E+01  0.25009813412E+02 -0.26176728167E+02  0.36820926057E+02  0.00000000000E+00 0. -1.
         11    1    4    4    0    0  0.12443025065E+02 -0.13548142272E+02  0.72676351454E+01  0.19778765195E+02  0.51100000000E-03 0. -1.
        -11    1    4    4    0    0 -0.46029038504E+01 -0.91701726684E+00 -0.35058040714E+01  0.58581829070E+01  0.51100000000E-03 0.  1.
        -12    1    4    4    0    0 -0.14553446117E+02 -0.10544653873E+02  0.22414897093E+02  0.28730125841E+02  0.00000000000E+00 0.  1.
</event>
<event>
 8    1  0.2502431E-006  0.9118800E+02  0.7816164E-02  0.1184000E+00
        -11   -1    0    0    0    0  0.00000000000E+00  0.00000000000E+00  0.45593999997E+02  0.45594000000E+02  0.51100000000E-03 0.  1.
         11   -1    0    0    0    0 -0.00000000000E+00 -0.00000000000E+00 -0.45593999997E+02  0.45594000000E+02  0.51100000000E-03 0. -1.
         23    2    1    2    0    0  0.00000000000E+00  0.00000000000E+00  0.44408920985E-14  0.91188000000E+02  0.91188000000E+02 0.  0.
    9900012    2    3    3    0    0 -0.83552828258E+01  0.35092372519E+02  0.73818456520E+01  0.54367122697E+02  0.40000087813E+02 0.  0.
         12    1    3    3    0    0  0.83552828258E+01 -0.35092372519E+02 -0.73818456520E+01  0.36820877303E+02  0.00000000000E+00 0. -1.
         11    1    4    4    0    0  0.13742696349E+00  0.48029884672E+00  0.63545729365E+01  0.63741799958E+01  0.51100000000E-03 0.  1.
        -11    1    4    4    0    0 -0.44665963520E+01  0.14874166299E+02 -0.15495966511E+02  0.21938921679E+02  0.51100000000E-03 0. -1.
        -12    1    4    4    0    0 -0.40261134373E+01  0.19737907373E+02  0.16523239227E+02  0.26054021022E+02  0.00000000000E+00 0.  1.
</event>
<event>
 8    1  0.2502431E-006  0.9118800E+02  0.7816164E-02  0.1184000E+00
        -11   -1    0    0    0    0  0.00000000000E+00  0.00000000000E+00  0.45593999997E+02  0.45594000000E+02  0.51100000000E-03 0.  1.
         11   -1    0    0    0    0 -0.00000000000E+00 -0.00000000000E+00 -0.45593999997E+02  0.45594000000E+02  0.51100000000E-03 0. -1.
         23    2    1    2    0    0  0.00000000000E+00 -0.22204460493E-15  0.71054273576E-14  0.91188000000E+02  0.91188000000E+02 0.  0.
    9900012    2    3    3    0    0 -0.13548371064E+02  0.65723013150E+00  0.34231430647E+02  0.54367066361E+02  0.39999959383E+02 0.  0.
         12    1    3    3    0    0  0.13548371064E+02 -0.65723013150E+00 -0.34231430647E+02  0.36820933639E+02  0.00000000000E+00 0. -1.
         11    1    4    4    0    0 -0.15212663163E+02 -0.52073976680E+01  0.13278340210E+00  0.16079792993E+02  0.51100000000E-03 0. -1.
        -11    1    4    4    0    0  0.41961570365E+00 -0.57112012713E+01  0.10000504025E+02  0.11524060843E+02  0.51100000000E-03 0.  1.
        -12    1    4    4    0    0  0.12446763961E+01  0.11575829071E+02  0.24098143220E+02  0.26763212525E+02  0.00000000000E+00 0.  1.
</event>
<event>
 8    1  0.2502431E-006  0.9118800E+02  0.7816164E-02  0.1184000E+00
        -11   -1    0    0    0    0  0.00000000000E+00  0.00000000000E+00  0.45593999997E+02  0.45594000000E+02  0.51100000000E-03 0.  1.
         11   -1    0    0    0    0 -0.00000000000E+00 -0.00000000000E+00 -0.45593999997E+02  0.45594000000E+02  0.51100000000E-03 0. -1.
         23    2    1    2    0    0  0.00000000000E+00 -0.88817841970E-15  0.00000000000E+00  0.91188000000E+02  0.91188000000E+02 0.  0.
    9900012    2    3    3    0    0 -0.18855124401E+02 -0.48685738696E+01  0.31249977695E+02  0.54367084292E+02  0.40000000260E+02 0.  0.
         12    1    3    3    0    0  0.18855124401E+02  0.48685738696E+01 -0.31249977695E+02  0.36820915708E+02  0.00000000000E+00 0. -1.
         11    1    4    4    0    0 -0.44790125616E+01  0.54682121408E+01 -0.29930089313E+01  0.76760015807E+01  0.51100000000E-03 0. -1.
        -11    1    4    4    0    0  0.76047512103E+01 -0.30428403238E+01  0.59277039906E+01  0.10110825538E+02  0.51100000000E-03 0.  1.
         12    1    4    4    0    0 -0.21980863050E+02 -0.72939456866E+01  0.28315282635E+02  0.36580257172E+02  0.00000000000E+00 0. -1.
</event>
<event>
 8    1  0.2502431E-006  0.9118800E+02  0.7816164E-02  0.1184000E+00
        -11   -1    0    0    0    0  0.00000000000E+00  0.00000000000E+00  0.45593999997E+02  0.45594000000E+02  0.51100000000E-03 0.  1.
         11   -1    0    0    0    0 -0.00000000000E+00 -0.00000000000E+00 -0.45593999997E+02  0.45594000000E+02  0.51100000000E-03 0. -1.
         23    2    1    2    0    0 -0.17763568394E-14 -0.88817841970E-15  0.00000000000E+00  0.91188000000E+02  0.91188000000E+02 0.  0.
    9900012    2    3    3    0    0 -0.60218689758E+01 -0.46852527422E+01 -0.36021700749E+02  0.54367117011E+02  0.40000074850E+02 0.  0.
        -12    1    3    3    0    0  0.60218689758E+01  0.46852527422E+01  0.36021700749E+02  0.36820882989E+02  0.00000000000E+00 0.  1.
         11    1    4    4    0    0  0.36389061126E+01  0.97474457154E+01 -0.25932157920E+02  0.27941566712E+02  0.51100000000E-03 0. -1.
        -11    1    4    4    0    0  0.31710226514E+01  0.70785105403E+00 -0.49553305985E+01  0.59255159582E+01  0.51100000000E-03 0.  1.
         12    1    4    4    0    0 -0.12831797740E+02 -0.15140549512E+02 -0.51342122306E+01  0.20500034341E+02  0.00000000000E+00 0. -1.
</event>
<event>
 8    1  0.2502431E-006  0.9118800E+02  0.7816164E-02  0.1184000E+00
        -11   -1    0    0    0    0  0.00000000000E+00  0.00000000000E+00  0.45593999997E+02  0.45594000000E+02  0.51100000000E-03 0.  1.
         11   -1    0    0    0    0 -0.00000000000E+00 -0.00000000000E+00 -0.45593999997E+02  0.45594000000E+02  0.51100000000E-03 0. -1.
         23    2    1    2    0    0  0.17763568394E-14  0.17763568394E-14  0.00000000000E+00  0.91188000000E+02  0.91188000000E+02 0.  0.
    9900012    2    3    3    0    0  0.54424641765E+01 -0.15976738326E+02 -0.32724651122E+02  0.54367090520E+02  0.40000014459E+02 0.  0.
        -12    1    3    3    0    0 -0.54424641765E+01  0.15976738326E+02  0.32724651122E+02  0.36820909480E+02  0.00000000000E+00 0.  1.
         11    1    4    4    0    0  0.63403240945E+01 -0.61635648022E+01 -0.21236903335E+02  0.23004245352E+02  0.51100000000E-03 0. -1.
        -11    1    4    4    0    0 -0.79296172377E+00  0.90554976284E+01  0.33432724411E+00  0.90962959802E+01  0.51100000000E-03 0.  1.
        -12    1    4    4    0    0 -0.10489819424E+00 -0.18868671153E+02 -0.11822075031E+02  0.22266549188E+02  0.00000000000E+00 0.  1.
</event>
<event>
 8    1  0.2502431E-006  0.9118800E+02  0.7816164E-02  0.1184000E+00
        -11   -1    0    0    0    0  0.00000000000E+00  0.00000000000E+00  0.45593999997E+02  0.45594000000E+02  0.51100000000E-03 0.  1.
         11   -1    0    0    0    0 -0.00000000000E+00 -0.00000000000E+00 -0.45593999997E+02  0.45594000000E+02  0.51100000000E-03 0. -1.
         23    2    1    2    0    0 -0.17763568394E-14  0.71054273576E-14  0.00000000000E+00  0.91188000000E+02  0.91188000000E+02 0.  0.
    9900012    2    3    3    0    0 -0.95287852459E+01  0.29890716521E+02 -0.19275046683E+02  0.54367080579E+02  0.39999991796E+02 0.  0.
        -12    1    3    3    0    0  0.95287852459E+01 -0.29890716521E+02  0.19275046683E+02  0.36820919421E+02  0.00000000000E+00 0.  1.
         11    1    4    4    0    0 -0.59958085802E+01  0.63230290156E+01  0.86861048491E+01  0.12303610615E+02  0.51100000000E-03 0. -1.
        -11    1    4    4    0    0 -0.29647772161E+01 -0.33646538154E+01 -0.38331413069E+01  0.58994721611E+01  0.51100000000E-03 0.  1.
         12    1    4    4    0    0 -0.56819944950E+00  0.26932341320E+02 -0.24128010226E+02  0.36163997802E+02  0.00000000000E+00 0. -1.
</event>
<event>
 8    1  0.2502431E-006  0.9118800E+02  0.7816164E-02  0.1184000E+00
        -11   -1    0    0    0    0  0.00000000000E+00  0.00000000000E+00  0.45593999997E+02  0.45594000000E+02  0.51100000000E-03 0.  1.
         11   -1    0    0    0    0 -0.00000000000E+00 -0.00000000000E+00 -0.45593999997E+02  0.45594000000E+02  0.51100000000E-03 0. -1.
         23    2    1    2    0    0  0.00000000000E+00  0.00000000000E+00  0.00000000000E+00  0.91188000000E+02  0.91188000000E+02 0.  0.
    9900012    2    3    3    0    0  0.73906413750E+01 -0.11204700180E+02 -0.34287225129E+02  0.54367072620E+02  0.39999973652E+02 0.  0.
        -12    1    3    3    0    0 -0.73906413750E+01  0.11204700180E+02  0.34287225129E+02  0.36820927380E+02  0.00000000000E+00 0.  1.
         11    1    4    4    0    0 -0.78374462805E+01  0.33458529693E+00 -0.58723781811E+01  0.97990987996E+01  0.51100000000E-03 0. -1.
        -11    1    4    4    0    0  0.54593525649E+01 -0.19947614847E+02 -0.12804607037E+02  0.24324264226E+02  0.51100000000E-03 0.  1.
         12    1    4    4    0    0  0.97687350906E+01  0.84083293702E+01 -0.15610239911E+02  0.20243709594E+02  0.00000000000E+00 0. -1.
</event>
<event>
 8    1  0.2502431E-006  0.9118800E+02  0.7816164E-02  0.1184000E+00
        -11   -1    0    0    0    0  0.00000000000E+00  0.00000000000E+00  0.45593999997E+02  0.45594000000E+02  0.51100000000E-03 0.  1.
         11   -1    0    0    0    0 -0.00000000000E+00 -0.00000000000E+00 -0.45593999997E+02  0.45594000000E+02  0.51100000000E-03 0. -1.
         23    2    1    2    0    0 -0.53290705182E-14 -0.71054273576E-14  0.88817841970E-15  0.91188000000E+02  0.91188000000E+02 0.  0.
    9900012    2    3    3    0    0  0.50203462577E+01  0.35890073586E+02 -0.65175549504E+01  0.54367085005E+02  0.40000001885E+02 0.  0.
        -12    1    3    3    0    0 -0.50203462577E+01 -0.35890073586E+02  0.65175549504E+01  0.36820914995E+02  0.00000000000E+00 0.  1.
         11    1    4    4    0    0 -0.94877284060E+01  0.98327991597E+01 -0.77332870566E+01  0.15700466827E+02  0.51100000000E-03 0.  1.
        -11    1    4    4    0    0 -0.30508645131E+01  0.12189409425E+02  0.84603249213E+01  0.15148154160E+02  0.51100000000E-03 0. -1.
         12    1    4    4    0    0  0.17558939177E+02  0.13867865001E+02 -0.72445928151E+01  0.23518464018E+02  0.00000000000E+00 0. -1.
</event>
<event>
 8    1  0.2502431E-006  0.9118800E+02  0.7816164E-02  0.1184000E+00
        -11   -1    0    0    0    0  0.00000000000E+00  0.00000000000E+00  0.45593999997E+02  0.45594000000E+02  0.51100000000E-03 0.  1.
         11   -1    0    0    0    0 -0.00000000000E+00 -0.00000000000E+00 -0.45593999997E+02  0.45594000000E+02  0.51100000000E-03 0. -1.
         23    2    1    2    0    0  0.71054273576E-14  0.17763568394E-14  0.00000000000E+00  0.91188000000E+02  0.91188000000E+02 0.  0.
    9900012    2    3    3    0    0  0.35219803793E+02  0.18409635452E+01  0.10580925429E+02  0.54367085984E+02  0.40000004119E+02 0.  0.
         12    1    3    3    0    0 -0.35219803793E+02 -0.18409635452E+01 -0.10580925429E+02  0.36820914016E+02  0.00000000000E+00 0. -1.
         11    1    4    4    0    0  0.51269173746E+01 -0.33511507759E+01  0.13258126003E+01  0.62668391236E+01  0.51100000000E-03 0. -1.
        -11    1    4    4    0    0  0.97782493005E+01  0.17449925990E+02  0.13314808438E+02  0.24029111520E+02  0.51100000000E-03 0.  1.
        -12    1    4    4    0    0  0.20314637118E+02 -0.12257811669E+02 -0.40596956091E+01  0.24071135341E+02  0.00000000000E+00 0.  1.
</event>
<event>
 8    1  0.2502431E-006  0.9118800E+02  0.7816164E-02  0.1184000E+00
        -11   -1    0    0    0    0  0.00000000000E+00  0.00000000000E+00  0.45593999997E+02  0.45594000000E+02  0.51100000000E-03 0. -1.
         11   -1    0    0    0    0 -0.00000000000E+00 -0.00000000000E+00 -0.45593999997E+02  0.45594000000E+02  0.51100000000E-03 0.  1.
         23    2    1    2    0    0  0.00000000000E+00  0.35527136788E-14 -0.44408920985E-15  0.91188000000E+02  0.91188000000E+02 0.  0.
    9900012    2    3    3    0    0 -0.24171330135E+02 -0.27759776710E+02 -0.95998200914E+00  0.54367082454E+02  0.39999996071E+02 0.  0.
         12    1    3    3    0    0  0.24171330135E+02  0.27759776710E+02  0.95998200914E+00  0.36820917546E+02  0.00000000000E+00 0. -1.
         11    1    4    4    0    0  0.10774988426E+01 -0.19386904043E+02  0.36067211099E+01  0.19748961733E+02  0.51100000000E-03 0. -1.
        -11    1    4    4    0    0 -0.21999482046E+02 -0.30700355742E+00  0.40555890566E+01  0.22372287865E+02  0.51100000000E-03 0.  1.
        -12    1    4    4    0    0 -0.32493469312E+01 -0.80658691092E+01 -0.86222921756E+01  0.12245832856E+02  0.00000000000E+00 0.  1.
</event>
<event>
 8    1  0.2502431E-006  0.9118800E+02  0.7816164E-02  0.1184000E+00
        -11   -1    0    0    0    0  0.00000000000E+00  0.00000000000E+00  0.45593999997E+02  0.45594000000E+02  0.51100000000E-03 0. -1.
         11   -1    0    0    0    0 -0.00000000000E+00 -0.00000000000E+00 -0.45593999997E+02  0.45594000000E+02  0.51100000000E-03 0.  1.
         23    2    1    2    0    0  0.00000000000E+00 -0.17763568394E-14 -0.35527136788E-14  0.91188000000E+02  0.91188000000E+02 0.  0.
    9900012    2    3    3    0    0 -0.29049907144E+02  0.10418815815E+02  0.20083099042E+02  0.54367086171E+02  0.40000004543E+02 0.  0.
        -12    1    3    3    0    0  0.29049907144E+02 -0.10418815815E+02 -0.20083099042E+02  0.36820913829E+02  0.00000000000E+00 0.  1.
         11    1    4    4    0    0 -0.62253171628E+01 -0.18902709612E+01 -0.10162825225E+02  0.12066926489E+02  0.51100000000E-03 0.  1.
        -11    1    4    4    0    0 -0.12696168718E+02  0.26039028390E+00  0.19393815481E+02  0.23181470669E+02  0.51100000000E-03 0. -1.
        -12    1    4    4    0    0 -0.10128421264E+02  0.12048696492E+02  0.10852108786E+02  0.19118689013E+02  0.00000000000E+00 0.  1.
</event>
<event>
 8    1  0.2502431E-006  0.9118800E+02  0.7816164E-02  0.1184000E+00
        -11   -1    0    0    0    0  0.00000000000E+00  0.00000000000E+00  0.45593999997E+02  0.45594000000E+02  0.51100000000E-03 0. -1.
         11   -1    0    0    0    0 -0.00000000000E+00 -0.00000000000E+00 -0.45593999997E+02  0.45594000000E+02  0.51100000000E-03 0.  1.
         23    2    1    2    0    0  0.00000000000E+00  0.00000000000E+00  0.35527136788E-14  0.91188000000E+02  0.91188000000E+02 0.  0.
    9900012    2    3    3    0    0 -0.16640968108E+02  0.23040860947E+02 -0.23408909183E+02  0.54367080377E+02  0.39999991335E+02 0.  0.
         12    1    3    3    0    0  0.16640968108E+02 -0.23040860947E+02  0.23408909183E+02  0.36820919623E+02  0.00000000000E+00 0. -1.
         11    1    4    4    0    0  0.59628558392E+01  0.53629598352E+01 -0.11467475810E+00  0.80206071163E+01  0.51100000000E-03 0. -1.
        -11    1    4    4    0    0 -0.17692243353E+02  0.25013764091E+02 -0.21245151625E+02  0.37283512933E+02  0.51100000000E-03 0.  1.
         12    1    4    4    0    0 -0.49115805942E+01 -0.73358629785E+01 -0.20490828002E+01  0.90629603273E+01  0.00000000000E+00 0. -1.
</event>
<event>
 8    1  0.2502431E-006  0.9118800E+02  0.7816164E-02  0.1184000E+00
        -11   -1    0    0    0    0  0.00000000000E+00  0.00000000000E+00  0.45593999997E+02  0.45594000000E+02  0.51100000000E-03 0.  1.
         11   -1    0    0    0    0 -0.00000000000E+00 -0.00000000000E+00 -0.45593999997E+02  0.45594000000E+02  0.51100000000E-03 0. -1.
         23    2    1    2    0    0  0.00000000000E+00  0.00000000000E+00 -0.17763568394E-14  0.91188000000E+02  0.91188000000E+02 0.  0.
    9900012    2    3    3    0    0 -0.98180601687E+01 -0.35408372277E+02 -0.23730849680E+01  0.54367100160E+02  0.40000036435E+02 0.  0.
        -12    1    3    3    0    0  0.98180601687E+01  0.35408372277E+02  0.23730849680E+01  0.36820899840E+02  0.00000000000E+00 0.  1.
         11    1    4    4    0    0 -0.59274231383E+01  0.32870179624E+01 -0.11077593795E+02  0.12986605280E+02  0.51100000000E-03 0. -1.
        -11    1    4    4    0    0 -0.33775094307E+01 -0.29971974102E+01  0.24416420571E+01  0.51334567755E+01  0.51100000000E-03 0.  1.
         12    1    4    4    0    0 -0.51312759974E+00 -0.35698192829E+02  0.62628667700E+01  0.36247038105E+02  0.00000000000E+00 0. -1.
</event>
<event>
 8    1  0.2502431E-006  0.9118800E+02  0.7816164E-02  0.1184000E+00
        -11   -1    0    0    0    0  0.00000000000E+00  0.00000000000E+00  0.45593999997E+02  0.45594000000E+02  0.51100000000E-03 0. -1.
         11   -1    0    0    0    0 -0.00000000000E+00 -0.00000000000E+00 -0.45593999997E+02  0.45594000000E+02  0.51100000000E-03 0.  1.
         23    2    1    2    0    0  0.71054273576E-14 -0.17763568394E-14 -0.71054273576E-14  0.91188000000E+02  0.91188000000E+02 0.  0.
    9900012    2    3    3    0    0 -0.24664199320E+02 -0.22617203259E+01  0.27245938040E+02  0.54367092263E+02  0.40000018431E+02 0.  0.
        -12    1    3    3    0    0  0.24664199320E+02  0.22617203259E+01 -0.27245938040E+02  0.36820907737E+02  0.00000000000E+00 0.  1.
         11    1    4    4    0    0 -0.49374628965E+01 -0.90884080729E+01 -0.48001995860E+01  0.11402614502E+02  0.51100000000E-03 0. -1.
        -11    1    4    4    0    0 -0.10045824847E+02  0.96271014472E+01  0.62186401797E+01  0.15240445042E+02  0.51100000000E-03 0.  1.
         12    1    4    4    0    0 -0.96809115761E+01 -0.28004137001E+01  0.25827497446E+02  0.27724032719E+02  0.00000000000E+00 0. -1.
</event>
<event>
 8    1  0.2502431E-006  0.9118800E+02  0.7816164E-02  0.1184000E+00
        -11   -1    0    0    0    0  0.00000000000E+00  0.00000000000E+00  0.45593999997E+02  0.45594000000E+02  0.51100000000E-03 0. -1.
         11   -1    0    0    0    0 -0.00000000000E+00 -0.00000000000E+00 -0.45593999997E+02  0.45594000000E+02  0.51100000000E-03 0.  1.
         23    2    1    2    0    0 -0.35527136788E-14 -0.35527136788E-14  0.17763568394E-14  0.91188000000E+02  0.91188000000E+02 0.  0.
    9900012    2    3    3    0    0  0.29639897502E+02  0.20984596667E+02  0.60747807074E+01  0.54367084995E+02  0.40000001863E+02 0.  0.
        -12    1    3    3    0    0 -0.29639897502E+02 -0.20984596667E+02 -0.60747807074E+01  0.36820915005E+02  0.00000000000E+00 0.  1.
         11    1    4    4    0    0  0.25973333735E+02  0.14186184858E+02  0.10388844734E+02  0.31365426847E+02  0.51100000000E-03 0. -1.
        -11    1    4    4    0    0 -0.18867624664E+01  0.11474379581E+01  0.80330992103E+01  0.83310965458E+01  0.51100000000E-03 0.  1.
        -12    1    4    4    0    0  0.55533262332E+01  0.56509738508E+01 -0.12347163237E+02  0.14670561602E+02  0.00000000000E+00 0.  1.
</event>
<event>
 8    1  0.2502431E-006  0.9118800E+02  0.7816164E-02  0.1184000E+00
        -11   -1    0    0    0    0  0.00000000000E+00  0.00000000000E+00  0.45593999997E+02  0.45594000000E+02  0.51100000000E-03 0. -1.
         11   -1    0    0    0    0 -0.00000000000E+00 -0.00000000000E+00 -0.45593999997E+02  0.45594000000E+02  0.51100000000E-03 0.  1.
         23    2    1    2    0    0  0.00000000000E+00  0.35527136788E-14 -0.44408920985E-15  0.91188000000E+02  0.91188000000E+02 0.  0.
    9900012    2    3    3    0    0 -0.32079562073E+02 -0.17734339487E+02  0.34892214860E+01  0.54367085204E+02  0.40000002340E+02 0.  0.
         12    1    3    3    0    0  0.32079562073E+02  0.17734339487E+02 -0.34892214860E+01  0.36820914796E+02  0.00000000000E+00 0. -1.
         11    1    4    4    0    0 -0.14618371398E+02  0.84405337602E+01  0.12535181369E+02  0.21025464672E+02  0.51100000000E-03 0. -1.
        -11    1    4    4    0    0 -0.76402056232E+01 -0.75989565765E+01 -0.92783012787E+00  0.10815625364E+02  0.51100000000E-03 0.  1.
         12    1    4    4    0    0 -0.98209850518E+01 -0.18575916671E+02 -0.81181297552E+01  0.22525995167E+02  0.00000000000E+00 0. -1.
</event>
<event>
 8    1  0.2502431E-006  0.9118800E+02  0.7816164E-02  0.1184000E+00
        -11   -1    0    0    0    0  0.00000000000E+00  0.00000000000E+00  0.45593999997E+02  0.45594000000E+02  0.51100000000E-03 0. -1.
         11   -1    0    0    0    0 -0.00000000000E+00 -0.00000000000E+00 -0.45593999997E+02  0.45594000000E+02  0.51100000000E-03 0.  1.
         23    2    1    2    0    0  0.35527136788E-14 -0.35527136788E-14  0.17763568394E-14  0.91188000000E+02  0.91188000000E+02 0.  0.
    9900012    2    3    3    0    0 -0.19271926964E+02  0.29583122400E+02  0.10450445966E+02  0.54367080393E+02  0.39999991371E+02 0.  0.
        -12    1    3    3    0    0  0.19271926964E+02 -0.29583122400E+02 -0.10450445966E+02  0.36820919607E+02  0.00000000000E+00 0.  1.
         11    1    4    4    0    0 -0.16478048848E+02  0.11699960314E+02 -0.10646822535E+02  0.22842285252E+02  0.51100000000E-03 0.  1.
        -11    1    4    4    0    0  0.39988113541E+01  0.15649920875E+02  0.16062463591E+02  0.22779667524E+02  0.51100000000E-03 0. -1.
        -12    1    4    4    0    0 -0.67926894701E+01  0.22332412116E+01  0.50348049111E+01  0.87451276171E+01  0.00000000000E+00 0.  1.
</event>
<event>
 8    1  0.2502431E-006  0.9118800E+02  0.7816164E-02  0.1184000E+00
        -11   -1    0    0    0    0  0.00000000000E+00  0.00000000000E+00  0.45593999997E+02  0.45594000000E+02  0.51100000000E-03 0. -1.
         11   -1    0    0    0    0 -0.00000000000E+00 -0.00000000000E+00 -0.45593999997E+02  0.45594000000E+02  0.51100000000E-03 0.  1.
         23    2    1    2    0    0  0.35527136788E-14  0.00000000000E+00  0.00000000000E+00  0.91188000000E+02  0.91188000000E+02 0.  0.
    9900012    2    3    3    0    0  0.28828257422E+02  0.43394883249E+01  0.22491802986E+02  0.54367071352E+02  0.39999970761E+02 0.  0.
        -12    1    3    3    0    0 -0.28828257422E+02 -0.43394883249E+01 -0.22491802986E+02  0.36820928648E+02  0.00000000000E+00 0.  1.
         11    1    4    4    0    0  0.25260413840E+01  0.75648188651E+01  0.22916228122E+02  0.24264395339E+02  0.51100000000E-03 0. -1.
        -11    1    4    4    0    0  0.45745041666E+01  0.40065167810E+01 -0.34700617090E+01  0.70013994038E+01  0.51100000000E-03 0.  1.
         12    1    4    4    0    0  0.21727711872E+02 -0.72318473213E+01  0.30456365730E+01  0.23101276609E+02  0.00000000000E+00 0. -1.
</event>
<event>
 8    1  0.2502431E-006  0.9118800E+02  0.7816164E-02  0.1184000E+00
        -11   -1    0    0    0    0  0.00000000000E+00  0.00000000000E+00  0.45593999997E+02  0.45594000000E+02  0.51100000000E-03 0. -1.
         11   -1    0    0    0    0 -0.00000000000E+00 -0.00000000000E+00 -0.45593999997E+02  0.45594000000E+02  0.51100000000E-03 0.  1.
         23    2    1    2    0    0 -0.44408920985E-15  0.00000000000E+00  0.00000000000E+00  0.91188000000E+02  0.91188000000E+02 0.  0.
    9900012    2    3    3    0    0  0.31973213271E+01 -0.83678323785E+01 -0.35714648933E+02  0.54367087046E+02  0.40000006539E+02 0.  0.
         12    1    3    3    0    0 -0.31973213271E+01  0.83678323785E+01  0.35714648933E+02  0.36820912954E+02  0.00000000000E+00 0. -1.
         11    1    4    4    0    0  0.24351151747E+01  0.45167750861E+01  0.20832830078E+01  0.55381505437E+01  0.51100000000E-03 0. -1.
        -11    1    4    4    0    0  0.13317156412E+02 -0.43390921061E+01 -0.10194880885E+02  0.17323682395E+02  0.51100000000E-03 0.  1.
         12    1    4    4    0    0 -0.12554950260E+02 -0.85455153585E+01 -0.27603051056E+02  0.31505254107E+02  0.00000000000E+00 0. -1.
</event>
<event>
 8    1  0.2502431E-006  0.9118800E+02  0.7816164E-02  0.1184000E+00
        -11   -1    0    0    0    0  0.00000000000E+00  0.00000000000E+00  0.45593999997E+02  0.45594000000E+02  0.51100000000E-03 0.  1.
         11   -1    0    0    0    0 -0.00000000000E+00 -0.00000000000E+00 -0.45593999997E+02  0.45594000000E+02  0.51100000000E-03 0. -1.
         23    2    1    2    0    0  0.35527136788E-14  0.88817841970E-15  0.35527136788E-14  0.91188000000E+02  0.91188000000E+02 0.  0.
    9900012    2    3    3    0    0 -0.26711428660E+02 -0.62266356405E+01  0.24566398755E+02  0.54367090720E+02  0.40000014914E+02 0.  0.
         12    1    3    3    0    0  0.26711428660E+02  0.62266356405E+01 -0.24566398755E+02  0.36820909280E+02  0.00000000000E+00 0. -1.
         11    1    4    4    0    0 -0.76254886211E+01  0.28378823111E+01 -0.95376578284E+01  0.12536688950E+02  0.51100000000E-03 0. -1.
        -11    1    4    4    0    0 -0.98834131037E+01  0.17125914784E+01  0.14967443907E+02  0.18017746850E+02  0.51100000000E-03 0.  1.
         12    1    4    4    0    0 -0.92025269348E+01 -0.10777109430E+02  0.19136612676E+02  0.23812654920E+02  0.00000000000E+00 0. -1.
</event>
<event>
 8    1  0.2502431E-006  0.9118800E+02  0.7816164E-02  0.1184000E+00
        -11   -1    0    0    0    0  0.00000000000E+00  0.00000000000E+00  0.45593999997E+02  0.45594000000E+02  0.51100000000E-03 0.  1.
         11   -1    0    0    0    0 -0.00000000000E+00 -0.00000000000E+00 -0.45593999997E+02  0.45594000000E+02  0.51100000000E-03 0. -1.
         23    2    1    2    0    0  0.00000000000E+00  0.55511151231E-16  0.17763568394E-14  0.91188000000E+02  0.91188000000E+02 0.  0.
    9900012    2    3    3    0    0 -0.33556159918E+02  0.14262195456E+00  0.15157316304E+02  0.54367075962E+02  0.39999981272E+02 0.  0.
         12    1    3    3    0    0  0.33556159918E+02 -0.14262195456E+00 -0.15157316304E+02  0.36820924038E+02  0.00000000000E+00 0. -1.
         11    1    4    4    0    0 -0.16530534512E+02 -0.43449071645E+01  0.23723923045E+01  0.17255869582E+02  0.51100000000E-03 0. -1.
        -11    1    4    4    0    0 -0.17821375011E+02  0.10103201886E+02  0.19526407470E+02  0.28301178148E+02  0.51100000000E-03 0.  1.
         12    1    4    4    0    0  0.79574960570E+00 -0.56156727667E+01 -0.67414834710E+01  0.88100282319E+01  0.00000000000E+00 0. -1.
</event>
<event>
 8    1  0.2502431E-006  0.9118800E+02  0.7816164E-02  0.1184000E+00
        -11   -1    0    0    0    0  0.00000000000E+00  0.00000000000E+00  0.45593999997E+02  0.45594000000E+02  0.51100000000E-03 0.  1.
         11   -1    0    0    0    0 -0.00000000000E+00 -0.00000000000E+00 -0.45593999997E+02  0.45594000000E+02  0.51100000000E-03 0. -1.
         23    2    1    2    0    0  0.17763568394E-14  0.00000000000E+00  0.00000000000E+00  0.91188000000E+02  0.91188000000E+02 0.  0.
    9900012    2    3    3    0    0 -0.13119660123E+02 -0.17941690305E+02 -0.29355565680E+02  0.54367096030E+02  0.40000027020E+02 0.  0.
        -12    1    3    3    0    0  0.13119660123E+02  0.17941690305E+02  0.29355565680E+02  0.36820903970E+02  0.00000000000E+00 0.  1.
         11    1    4    4    0    0 -0.17349441827E+02 -0.10605333123E+02 -0.55088066712E+01  0.21067111182E+02  0.51100000000E-03 0. -1.
        -11    1    4    4    0    0 -0.38880673870E+01 -0.81698639994E+01 -0.10766132064E+01  0.91116871123E+01  0.51100000000E-03 0.  1.
        -12    1    4    4    0    0  0.81178490910E+01  0.83350681730E+00 -0.22770145803E+02  0.24188297736E+02  0.00000000000E+00 0.  1.
</event>
<event>
 8    1  0.2502431E-006  0.9118800E+02  0.7816164E-02  0.1184000E+00
        -11   -1    0    0    0    0  0.00000000000E+00  0.00000000000E+00  0.45593999997E+02  0.45594000000E+02  0.51100000000E-03 0.  1.
         11   -1    0    0    0    0 -0.00000000000E+00 -0.00000000000E+00 -0.45593999997E+02  0.45594000000E+02  0.51100000000E-03 0. -1.
         23    2    1    2    0    0  0.00000000000E+00 -0.17763568394E-14  0.00000000000E+00  0.91188000000E+02  0.91188000000E+02 0.  0.
    9900012    2    3    3    0    0  0.11864790497E+02 -0.99837835848E+01 -0.33396523147E+02  0.54367123496E+02  0.40000089633E+02 0.  0.
        -12    1    3    3    0    0 -0.11864790497E+02  0.99837835848E+01  0.33396523147E+02  0.36820876504E+02  0.00000000000E+00 0.  1.
         11    1    4    4    0    0 -0.65149426149E+01 -0.10412033081E+02 -0.97430183527E+01  0.15677414233E+02  0.51100000000E-03 0. -1.
        -11    1    4    4    0    0  0.34452102931E+01 -0.35063215258E+01  0.44444756585E+01  0.66269999808E+01  0.51100000000E-03 0.  1.
         12    1    4    4    0    0  0.14934522819E+02  0.39345710219E+01 -0.28097980453E+02  0.32062709282E+02  0.00000000000E+00 0. -1.
</event>
<event>
 8    1  0.2502431E-006  0.9118800E+02  0.7816164E-02  0.1184000E+00
        -11   -1    0    0    0    0  0.00000000000E+00  0.00000000000E+00  0.45593999997E+02  0.45594000000E+02  0.51100000000E-03 0.  1.
         11   -1    0    0    0    0 -0.00000000000E+00 -0.00000000000E+00 -0.45593999997E+02  0.45594000000E+02  0.51100000000E-03 0. -1.
         23    2    1    2    0    0 -0.17763568394E-14 -0.71054273576E-14  0.17763568394E-14  0.91188000000E+02  0.91188000000E+02 0.  0.
    9900012    2    3    3    0    0  0.14894731716E+02  0.32786914856E+02 -0.76775542535E+01  0.54367086677E+02  0.40000005696E+02 0.  0.
         12    1    3    3    0    0 -0.14894731716E+02 -0.32786914856E+02  0.76775542535E+01  0.36820913323E+02  0.00000000000E+00 0. -1.
         11    1    4    4    0    0 -0.57639967408E+01  0.21620246984E+02 -0.13213874526E+02  0.25985865742E+02  0.51100000000E-03 0. -1.
        -11    1    4    4    0    0  0.53959665890E+01  0.77002776868E+01 -0.38170311021E+01  0.10147928783E+02  0.51100000000E-03 0.  1.
        -12    1    4    4    0    0  0.15262761868E+02  0.34663901845E+01  0.93533513749E+01  0.18233292152E+02  0.00000000000E+00 0.  1.
</event>
<event>
 8    1  0.2502431E-006  0.9118800E+02  0.7816164E-02  0.1184000E+00
        -11   -1    0    0    0    0  0.00000000000E+00  0.00000000000E+00  0.45593999997E+02  0.45594000000E+02  0.51100000000E-03 0.  1.
         11   -1    0    0    0    0 -0.00000000000E+00 -0.00000000000E+00 -0.45593999997E+02  0.45594000000E+02  0.51100000000E-03 0. -1.
         23    2    1    2    0    0  0.00000000000E+00  0.14432899320E-14  0.00000000000E+00  0.91188000000E+02  0.91188000000E+02 0.  0.
    9900012    2    3    3    0    0  0.33510031891E+02  0.88654329490E+00 -0.15233911660E+02  0.54367078490E+02  0.39999987034E+02 0.  0.
        -12    1    3    3    0    0 -0.33510031891E+02 -0.88654329490E+00  0.15233911660E+02  0.36820921510E+02  0.00000000000E+00 0.  1.
         11    1    4    4    0    0  0.18989912848E+02 -0.28802740908E+01 -0.12487002871E+02  0.22909343285E+02  0.51100000000E-03 0.  1.
        -11    1    4    4    0    0 -0.14621406295E+01 -0.91376296982E+01 -0.54493050042E+01  0.10739136698E+02  0.51100000000E-03 0. -1.
        -12    1    4    4    0    0  0.15982259673E+02  0.12904447084E+02  0.27023962145E+01  0.20718598507E+02  0.00000000000E+00 0.  1.
</event>
<event>
 8    1  0.2502431E-006  0.9118800E+02  0.7816164E-02  0.1184000E+00
        -11   -1    0    0    0    0  0.00000000000E+00  0.00000000000E+00  0.45593999997E+02  0.45594000000E+02  0.51100000000E-03 0.  1.
         11   -1    0    0    0    0 -0.00000000000E+00 -0.00000000000E+00 -0.45593999997E+02  0.45594000000E+02  0.51100000000E-03 0. -1.
         23    2    1    2    0    0 -0.17763568394E-14 -0.88817841970E-15  0.00000000000E+00  0.91188000000E+02  0.91188000000E+02 0.  0.
    9900012    2    3    3    0    0  0.30410909355E+01 -0.45558071956E+01  0.36411220375E+02  0.54367074123E+02  0.39999977078E+02 0.  0.
         12    1    3    3    0    0 -0.30410909355E+01  0.45558071956E+01 -0.36411220375E+02  0.36820925877E+02  0.00000000000E+00 0. -1.
         11    1    4    4    0    0  0.17524305697E+02 -0.68833872865E+01  0.15600317701E+02  0.24451016816E+02  0.51100000000E-03 0. -1.
        -11    1    4    4    0    0 -0.10527763897E+02  0.26938979758E+01  0.24623719450E+01  0.11142449230E+02  0.51100000000E-03 0.  1.
        -12    1    4    4    0    0 -0.39554508646E+01 -0.36631788494E+00  0.18348530728E+02  0.18773608077E+02  0.00000000000E+00 0.  1.
</event>
<event>
 8    1  0.2502431E-006  0.9118800E+02  0.7816164E-02  0.1184000E+00
        -11   -1    0    0    0    0  0.00000000000E+00  0.00000000000E+00  0.45593999997E+02  0.45594000000E+02  0.51100000000E-03 0.  1.
         11   -1    0    0    0    0 -0.00000000000E+00 -0.00000000000E+00 -0.45593999997E+02  0.45594000000E+02  0.51100000000E-03 0. -1.
         23    2    1    2    0    0  0.17763568394E-14 -0.35527136788E-14  0.35527136788E-14  0.91188000000E+02  0.91188000000E+02 0.  0.
    9900012    2    3    3    0    0  0.13030506706E+02  0.26306695171E+02  0.22224834417E+02  0.54367087725E+02  0.40000008088E+02 0.  0.
         12    1    3    3    0    0 -0.13030506706E+02 -0.26306695171E+02 -0.22224834417E+02  0.36820912275E+02  0.00000000000E+00 0. -1.
         11    1    4    4    0    0  0.11724472957E+02 -0.56008020173E+01  0.13392257281E+02  0.18659710734E+02  0.51100000000E-03 0. -1.
        -11    1    4    4    0    0 -0.55199515882E+01  0.79226788882E+01  0.27234083180E+01  0.10032729411E+02  0.51100000000E-03 0.  1.
         12    1    4    4    0    0  0.68259853378E+01  0.23984818300E+02  0.61091688188E+01  0.25674647580E+02  0.00000000000E+00 0. -1.
</event>
<event>
 8    1  0.2502431E-006  0.9118800E+02  0.7816164E-02  0.1184000E+00
        -11   -1    0    0    0    0  0.00000000000E+00  0.00000000000E+00  0.45593999997E+02  0.45594000000E+02  0.51100000000E-03 0. -1.
         11   -1    0    0    0    0 -0.00000000000E+00 -0.00000000000E+00 -0.45593999997E+02  0.45594000000E+02  0.51100000000E-03 0.  1.
         23    2    1    2    0    0 -0.35527136788E-14 -0.17763568394E-14  0.00000000000E+00  0.91188000000E+02  0.91188000000E+02 0.  0.
    9900012    2    3    3    0    0 -0.29828817588E+02  0.13565967301E+02  0.16792451877E+02  0.54367078399E+02  0.39999986826E+02 0.  0.
         12    1    3    3    0    0  0.29828817588E+02 -0.13565967301E+02 -0.16792451877E+02  0.36820921601E+02  0.00000000000E+00 0. -1.
         11    1    4    4    0    0 -0.44371399919E+01 -0.52762750972E+00  0.15028536502E+02  0.15678759892E+02  0.51100000000E-03 0. -1.
        -11    1    4    4    0    0 -0.38303696512E+01 -0.58006557991E+01 -0.50232241722E+01  0.85762533026E+01  0.51100000000E-03 0.  1.
         12    1    4    4    0    0 -0.21561307945E+02  0.19894250610E+02  0.67871395473E+01  0.30112065204E+02  0.00000000000E+00 0. -1.
</event>
<event>
 8    1  0.2502431E-006  0.9118800E+02  0.7816164E-02  0.1184000E+00
        -11   -1    0    0    0    0  0.00000000000E+00  0.00000000000E+00  0.45593999997E+02  0.45594000000E+02  0.51100000000E-03 0.  1.
         11   -1    0    0    0    0 -0.00000000000E+00 -0.00000000000E+00 -0.45593999997E+02  0.45594000000E+02  0.51100000000E-03 0. -1.
         23    2    1    2    0    0  0.00000000000E+00  0.00000000000E+00  0.00000000000E+00  0.91188000000E+02  0.91188000000E+02 0.  0.
    9900012    2    3    3    0    0  0.20938069102E+02 -0.23659913865E+02 -0.18909971966E+02  0.54367064357E+02  0.39999954815E+02 0.  0.
        -12    1    3    3    0    0 -0.20938069102E+02  0.23659913865E+02  0.18909971966E+02  0.36820935643E+02  0.00000000000E+00 0.  1.
         11    1    4    4    0    0  0.33614185194E+00 -0.25094402592E+01  0.17111363592E+01  0.30558582526E+01  0.51100000000E-03 0. -1.
        -11    1    4    4    0    0  0.29436298122E+01  0.10409639200E+02 -0.49961300753E+01  0.11915823963E+02  0.51100000000E-03 0.  1.
         12    1    4    4    0    0  0.17658297438E+02 -0.31560112806E+02 -0.15624978250E+02  0.39395382141E+02  0.00000000000E+00 0. -1.
</event>
<event>
 8    1  0.2502431E-006  0.9118800E+02  0.7816164E-02  0.1184000E+00
        -11   -1    0    0    0    0  0.00000000000E+00  0.00000000000E+00  0.45593999997E+02  0.45594000000E+02  0.51100000000E-03 0. -1.
         11   -1    0    0    0    0 -0.00000000000E+00 -0.00000000000E+00 -0.45593999997E+02  0.45594000000E+02  0.51100000000E-03 0.  1.
         23    2    1    2    0    0  0.00000000000E+00  0.88817841970E-15  0.00000000000E+00  0.91188000000E+02  0.91188000000E+02 0.  0.
    9900012    2    3    3    0    0  0.16592927886E+02 -0.44549303134E+01  0.32567003513E+02  0.54367063324E+02  0.39999952459E+02 0.  0.
        -12    1    3    3    0    0 -0.16592927886E+02  0.44549303134E+01 -0.32567003513E+02  0.36820936676E+02  0.00000000000E+00 0.  1.
         11    1    4    4    0    0 -0.44404315571E+01 -0.68060844794E+01  0.94015071883E+01  0.12426928664E+02  0.51100000000E-03 0. -1.
        -11    1    4    4    0    0 -0.35822279802E+01 -0.15848382956E+01 -0.36311151352E+01  0.53412608167E+01  0.51100000000E-03 0.  1.
         12    1    4    4    0    0  0.24615587423E+02  0.39359924616E+01  0.26796611460E+02  0.36598873843E+02  0.00000000000E+00 0. -1.
</event>
<event>
 8    1  0.2502431E-006  0.9118800E+02  0.7816164E-02  0.1184000E+00
        -11   -1    0    0    0    0  0.00000000000E+00  0.00000000000E+00  0.45593999997E+02  0.45594000000E+02  0.51100000000E-03 0.  1.
         11   -1    0    0    0    0 -0.00000000000E+00 -0.00000000000E+00 -0.45593999997E+02  0.45594000000E+02  0.51100000000E-03 0. -1.
         23    2    1    2    0    0 -0.44408920985E-15  0.00000000000E+00  0.17763568394E-14  0.91188000000E+02  0.91188000000E+02 0.  0.
    9900012    2    3    3    0    0 -0.17233315894E+01  0.34769486479E+02  0.11995550367E+02  0.54367078089E+02  0.39999986120E+02 0.  0.
         12    1    3    3    0    0  0.17233315894E+01 -0.34769486479E+02 -0.11995550367E+02  0.36820921911E+02  0.00000000000E+00 0. -1.
         11    1    4    4    0    0 -0.79484271605E+01  0.74530866107E+01 -0.91294600685E+01  0.14215239560E+02  0.51100000000E-03 0. -1.
        -11    1    4    4    0    0 -0.44100705423E+01  0.21597896567E+02  0.14402820769E+02  0.26331712908E+02  0.51100000000E-03 0.  1.
        -12    1    4    4    0    0  0.10635166113E+02  0.57185033010E+01  0.67221896664E+01  0.13820125621E+02  0.00000000000E+00 0.  1.
</event>
<event>
 8    1  0.2502431E-006  0.9118800E+02  0.7816164E-02  0.1184000E+00
        -11   -1    0    0    0    0  0.00000000000E+00  0.00000000000E+00  0.45593999997E+02  0.45594000000E+02  0.51100000000E-03 0. -1.
         11   -1    0    0    0    0 -0.00000000000E+00 -0.00000000000E+00 -0.45593999997E+02  0.45594000000E+02  0.51100000000E-03 0.  1.
         23    2    1    2    0    0 -0.17763568394E-14  0.17763568394E-14  0.71054273576E-14  0.91188000000E+02  0.91188000000E+02 0.  0.
    9900012    2    3    3    0    0  0.52986719408E+00  0.78476376578E+01  0.35971015030E+02  0.54367080697E+02  0.39999992064E+02 0.  0.
        -12    1    3    3    0    0 -0.52986719408E+00 -0.78476376578E+01 -0.35971015030E+02  0.36820919303E+02  0.00000000000E+00 0.  1.
         11    1    4    4    0    0 -0.14935521095E+02  0.39012054005E+01  0.23300204132E+02  0.27949753251E+02  0.51100000000E-03 0. -1.
        -11    1    4    4    0    0 -0.12451488578E+01 -0.95488495109E-02 -0.29506556381E+01  0.32026326381E+01  0.51100000000E-03 0.  1.
         12    1    4    4    0    0  0.16710537147E+02  0.39559811069E+01  0.15621466536E+02  0.23214694807E+02  0.00000000000E+00 0. -1.
</event>
<event>
 8    1  0.2502431E-006  0.9118800E+02  0.7816164E-02  0.1184000E+00
        -11   -1    0    0    0    0  0.00000000000E+00  0.00000000000E+00  0.45593999997E+02  0.45594000000E+02  0.51100000000E-03 0.  1.
         11   -1    0    0    0    0 -0.00000000000E+00 -0.00000000000E+00 -0.45593999997E+02  0.45594000000E+02  0.51100000000E-03 0. -1.
         23    2    1    2    0    0 -0.71054273576E-14  0.00000000000E+00 -0.66613381478E-15  0.91188000000E+02  0.91188000000E+02 0.  0.
    9900012    2    3    3    0    0  0.26083766715E+02 -0.25986174385E+02  0.35746018977E+00  0.54367191712E+02  0.40000245145E+02 0.  0.
        -12    1    3    3    0    0 -0.26083766715E+02  0.25986174385E+02 -0.35746018977E+00  0.36820808288E+02  0.00000000000E+00 0.  1.
         11    1    4    4    0    0  0.34434600408E+01 -0.84835532409E+00  0.10581029624E+01  0.37009060983E+01  0.51100000000E-03 0. -1.
        -11    1    4    4    0    0  0.26865381919E+02 -0.29371316963E+02  0.75110473224E+01  0.40507268952E+02  0.51100000000E-03 0.  1.
         12    1    4    4    0    0 -0.42250752453E+01  0.42334979021E+01 -0.82116900951E+01  0.10159016662E+02  0.00000000000E+00 0. -1.
</event>
<event>
 8    1  0.2502431E-006  0.9118800E+02  0.7816164E-02  0.1184000E+00
        -11   -1    0    0    0    0  0.00000000000E+00  0.00000000000E+00  0.45593999997E+02  0.45594000000E+02  0.51100000000E-03 0.  1.
         11   -1    0    0    0    0 -0.00000000000E+00 -0.00000000000E+00 -0.45593999997E+02  0.45594000000E+02  0.51100000000E-03 0. -1.
         23    2    1    2    0    0  0.00000000000E+00  0.00000000000E+00  0.00000000000E+00  0.91188000000E+02  0.91188000000E+02 0.  0.
    9900012    2    3    3    0    0 -0.23506127500E+02  0.22887456653E+02 -0.16715470781E+02  0.54367072995E+02  0.39999974506E+02 0.  0.
        -12    1    3    3    0    0  0.23506127500E+02 -0.22887456653E+02  0.16715470781E+02  0.36820927005E+02  0.00000000000E+00 0.  1.
         11    1    4    4    0    0 -0.10005810486E+02  0.24939056443E+01 -0.23359806001E+02  0.25534610738E+02  0.51100000000E-03 0. -1.
        -11    1    4    4    0    0  0.16403655251E+01  0.21151808289E+00  0.28828011518E+01  0.33235646071E+01  0.51100000000E-03 0.  1.
         12    1    4    4    0    0 -0.15140682539E+02  0.20182032925E+02  0.37615340682E+01  0.25508897650E+02  0.00000000000E+00 0. -1.
</event>
<event>
 8    1  0.2502431E-006  0.9118800E+02  0.7816164E-02  0.1184000E+00
        -11   -1    0    0    0    0  0.00000000000E+00  0.00000000000E+00  0.45593999997E+02  0.45594000000E+02  0.51100000000E-03 0.  1.
         11   -1    0    0    0    0 -0.00000000000E+00 -0.00000000000E+00 -0.45593999997E+02  0.45594000000E+02  0.51100000000E-03 0. -1.
         23    2    1    2    0    0  0.00000000000E+00  0.35527136788E-14  0.00000000000E+00  0.91188000000E+02  0.91188000000E+02 0.  0.
    9900012    2    3    3    0    0 -0.29226580772E+02 -0.21671953360E+02 -0.56491348393E+01  0.54367091396E+02  0.40000016454E+02 0.  0.
         12    1    3    3    0    0  0.29226580772E+02  0.21671953360E+02  0.56491348393E+01  0.36820908604E+02  0.00000000000E+00 0. -1.
         11    1    4    4    0    0  0.46154684345E+01  0.45047064337E+00  0.25195089072E+01  0.52776318615E+01  0.51100000000E-03 0. -1.
        -11    1    4    4    0    0 -0.56471507001E+01 -0.18513510097E+02  0.53138442604E+00  0.19362921701E+02  0.51100000000E-03 0.  1.
         12    1    4    4    0    0 -0.28194898506E+02 -0.36089139066E+01 -0.87000281726E+01  0.29726537833E+02  0.00000000000E+00 0. -1.
</event>
<event>
 8    1  0.2502431E-006  0.9118800E+02  0.7816164E-02  0.1184000E+00
        -11   -1    0    0    0    0  0.00000000000E+00  0.00000000000E+00  0.45593999997E+02  0.45594000000E+02  0.51100000000E-03 0. -1.
         11   -1    0    0    0    0 -0.00000000000E+00 -0.00000000000E+00 -0.45593999997E+02  0.45594000000E+02  0.51100000000E-03 0.  1.
         23    2    1    2    0    0  0.35527136788E-14  0.00000000000E+00  0.00000000000E+00  0.91188000000E+02  0.91188000000E+02 0.  0.
    9900012    2    3    3    0    0 -0.19035711037E+02  0.24089734689E+01  0.31426399093E+02  0.54367081926E+02  0.39999994866E+02 0.  0.
        -12    1    3    3    0    0  0.19035711037E+02 -0.24089734689E+01 -0.31426399093E+02  0.36820918074E+02  0.00000000000E+00 0.  1.
         11    1    4    4    0    0  0.16676966310E+01  0.12113406160E+02  0.19289713279E+02  0.22838757836E+02  0.51100000000E-03 0. -1.
        -11    1    4    4    0    0  0.13546637676E+01  0.31851093551E+01  0.22810057368E+01  0.41452410014E+01  0.51100000000E-03 0.  1.
        -12    1    4    4    0    0 -0.22058071435E+02 -0.12889542046E+02  0.98556800775E+01  0.27383083088E+02  0.00000000000E+00 0.  1.
</event>
<event>
 8    1  0.2502431E-006  0.9118800E+02  0.7816164E-02  0.1184000E+00
        -11   -1    0    0    0    0  0.00000000000E+00  0.00000000000E+00  0.45593999997E+02  0.45594000000E+02  0.51100000000E-03 0. -1.
         11   -1    0    0    0    0 -0.00000000000E+00 -0.00000000000E+00 -0.45593999997E+02  0.45594000000E+02  0.51100000000E-03 0.  1.
         23    2    1    2    0    0  0.35527136788E-14 -0.35527136788E-14  0.17763568394E-14  0.91188000000E+02  0.91188000000E+02 0.  0.
    9900012    2    3    3    0    0 -0.18171147077E+02  0.30960737001E+02 -0.81867152472E+01  0.54367080290E+02  0.39999991137E+02 0.  0.
         12    1    3    3    0    0  0.18171147077E+02 -0.30960737001E+02  0.81867152472E+01  0.36820919710E+02  0.00000000000E+00 0. -1.
         11    1    4    4    0    0  0.61175876268E+01  0.78635814615E-04 -0.53512238256E+01  0.81277595358E+01  0.51100000000E-03 0. -1.
        -11    1    4    4    0    0 -0.73193362082E+01  0.12380463220E+02 -0.12724090375E+02  0.19202891142E+02  0.51100000000E-03 0.  1.
        -12    1    4    4    0    0 -0.16969398495E+02  0.18580195145E+02  0.98885989529E+01  0.27036429612E+02  0.00000000000E+00 0.  1.
</event>
<event>
 8    1  0.2502431E-006  0.9118800E+02  0.7816164E-02  0.1184000E+00
        -11   -1    0    0    0    0  0.00000000000E+00  0.00000000000E+00  0.45593999997E+02  0.45594000000E+02  0.51100000000E-03 0.  1.
         11   -1    0    0    0    0 -0.00000000000E+00 -0.00000000000E+00 -0.45593999997E+02  0.45594000000E+02  0.51100000000E-03 0. -1.
         23    2    1    2    0    0  0.00000000000E+00 -0.13322676296E-14 -0.35527136788E-14  0.91188000000E+02  0.91188000000E+02 0.  0.
    9900012    2    3    3    0    0 -0.27817148041E+02  0.20219988979E+01  0.24039603954E+02  0.54367017355E+02  0.39999847664E+02 0.  0.
         12    1    3    3    0    0  0.27817148041E+02 -0.20219988979E+01 -0.24039603954E+02  0.36820982645E+02  0.00000000000E+00 0. -1.
         11    1    4    4    0    0  0.25861568641E+01 -0.48199816316E+01 -0.63917189031E+01  0.84127582309E+01  0.51100000000E-03 0. -1.
        -11    1    4    4    0    0 -0.21940161956E+02 -0.21275531499E+01  0.20793286974E+02  0.30302771697E+02  0.51100000000E-03 0.  1.
         12    1    4    4    0    0 -0.84631429488E+01  0.89695336793E+01  0.96380358835E+01  0.15651487427E+02  0.00000000000E+00 0. -1.
</event>
<event>
 8    1  0.2502431E-006  0.9118800E+02  0.7816164E-02  0.1184000E+00
        -11   -1    0    0    0    0  0.00000000000E+00  0.00000000000E+00  0.45593999997E+02  0.45594000000E+02  0.51100000000E-03 0.  1.
         11   -1    0    0    0    0 -0.00000000000E+00 -0.00000000000E+00 -0.45593999997E+02  0.45594000000E+02  0.51100000000E-03 0. -1.
         23    2    1    2    0    0  0.00000000000E+00 -0.71054273576E-14 -0.17763568394E-14  0.91188000000E+02  0.91188000000E+02 0.  0.
    9900012    2    3    3    0    0  0.16157967882E+02 -0.32624262261E+02 -0.55097860566E+01  0.54367079907E+02  0.39999990263E+02 0.  0.
         12    1    3    3    0    0 -0.16157967882E+02  0.32624262261E+02  0.55097860566E+01  0.36820920093E+02  0.00000000000E+00 0. -1.
         11    1    4    4    0    0  0.44479623989E+01  0.25815792331E+01 -0.92169533939E+01  0.10554674366E+02  0.51100000000E-03 0. -1.
        -11    1    4    4    0    0 -0.27101553039E+01 -0.10255113731E+02  0.97047448864E+01  0.14376869374E+02  0.51100000000E-03 0.  1.
        -12    1    4    4    0    0  0.14420160787E+02 -0.24950727762E+02 -0.59975775490E+01  0.29435536167E+02  0.00000000000E+00 0.  1.
</event>
<event>
 8    1  0.2502431E-006  0.9118800E+02  0.7816164E-02  0.1184000E+00
        -11   -1    0    0    0    0  0.00000000000E+00  0.00000000000E+00  0.45593999997E+02  0.45594000000E+02  0.51100000000E-03 0. -1.
         11   -1    0    0    0    0 -0.00000000000E+00 -0.00000000000E+00 -0.45593999997E+02  0.45594000000E+02  0.51100000000E-03 0.  1.
         23    2    1    2    0    0  0.17763568394E-14  0.00000000000E+00  0.35527136788E-14  0.91188000000E+02  0.91188000000E+02 0.  0.
    9900012    2    3    3    0    0  0.11746556235E+02  0.15466423590E+02 -0.31282371401E+02  0.54367101009E+02  0.40000038370E+02 0.  0.
         12    1    3    3    0    0 -0.11746556235E+02 -0.15466423590E+02  0.31282371401E+02  0.36820898991E+02  0.00000000000E+00 0. -1.
         11    1    4    4    0    0 -0.31018987673E+01  0.12596479250E+02 -0.27477395543E+02  0.30385857427E+02  0.51100000000E-03 0. -1.
        -11    1    4    4    0    0  0.11592158378E+02  0.25790916546E+01 -0.10931343912E+02  0.16140759883E+02  0.51100000000E-03 0.  1.
         12    1    4    4    0    0  0.32562966245E+01  0.29085268522E+00  0.71263680542E+01  0.78404836990E+01  0.00000000000E+00 0. -1.
</event>
<event>
 8    1  0.2502431E-006  0.9118800E+02  0.7816164E-02  0.1184000E+00
        -11   -1    0    0    0    0  0.00000000000E+00  0.00000000000E+00  0.45593999997E+02  0.45594000000E+02  0.51100000000E-03 0. -1.
         11   -1    0    0    0    0 -0.00000000000E+00 -0.00000000000E+00 -0.45593999997E+02  0.45594000000E+02  0.51100000000E-03 0.  1.
         23    2    1    2    0    0  0.00000000000E+00 -0.35527136788E-14 -0.35527136788E-14  0.91188000000E+02  0.91188000000E+02 0.  0.
    9900012    2    3    3    0    0 -0.18190615289E+02  0.20933383681E+02  0.24221412901E+02  0.54367056505E+02  0.39999936915E+02 0.  0.
        -12    1    3    3    0    0  0.18190615289E+02 -0.20933383681E+02 -0.24221412901E+02  0.36820943495E+02  0.00000000000E+00 0.  1.
         11    1    4    4    0    0 -0.14439976998E+02 -0.43868548487E+01  0.84653173262E+01  0.17303728756E+02  0.51100000000E-03 0. -1.
        -11    1    4    4    0    0  0.55600210112E+01  0.88441834978E+01 -0.25285732703E+01  0.10748353289E+02  0.51100000000E-03 0.  1.
        -12    1    4    4    0    0 -0.93106593023E+01  0.16476055032E+02  0.18284668846E+02  0.26314974460E+02  0.00000000000E+00 0.  1.
</event>
<event>
 8    1  0.2502431E-006  0.9118800E+02  0.7816164E-02  0.1184000E+00
        -11   -1    0    0    0    0  0.00000000000E+00  0.00000000000E+00  0.45593999997E+02  0.45594000000E+02  0.51100000000E-03 0. -1.
         11   -1    0    0    0    0 -0.00000000000E+00 -0.00000000000E+00 -0.45593999997E+02  0.45594000000E+02  0.51100000000E-03 0.  1.
         23    2    1    2    0    0 -0.35527136788E-14 -0.88817841970E-15  0.35527136788E-14  0.91188000000E+02  0.91188000000E+02 0.  0.
    9900012    2    3    3    0    0 -0.23591714371E+02  0.40794355996E+01  0.27974427906E+02  0.54367090201E+02  0.40000013731E+02 0.  0.
        -12    1    3    3    0    0  0.23591714371E+02 -0.40794355996E+01 -0.27974427906E+02  0.36820909799E+02  0.00000000000E+00 0.  1.
         11    1    4    4    0    0 -0.59943029581E+01 -0.79422158006E+01  0.87280908226E+01  0.13235937045E+02  0.51100000000E-03 0. -1.
        -11    1    4    4    0    0 -0.16527588525E+01 -0.92878427130E+01  0.74448905595E+01  0.12017571709E+02  0.51100000000E-03 0.  1.
         12    1    4    4    0    0 -0.15944652560E+02  0.21309494113E+02  0.11801446524E+02  0.29113581447E+02  0.00000000000E+00 0. -1.
</event>
<event>
 8    1  0.2502431E-006  0.9118800E+02  0.7816164E-02  0.1184000E+00
        -11   -1    0    0    0    0  0.00000000000E+00  0.00000000000E+00  0.45593999997E+02  0.45594000000E+02  0.51100000000E-03 0.  1.
         11   -1    0    0    0    0 -0.00000000000E+00 -0.00000000000E+00 -0.45593999997E+02  0.45594000000E+02  0.51100000000E-03 0. -1.
         23    2    1    2    0    0  0.17763568394E-14 -0.35527136788E-14  0.00000000000E+00  0.91188000000E+02  0.91188000000E+02 0.  0.
    9900012    2    3    3    0    0  0.84689350402E+01 -0.54811827873E+01  0.35412061373E+02  0.54367077739E+02  0.39999985321E+02 0.  0.
         12    1    3    3    0    0 -0.84689350402E+01  0.54811827873E+01 -0.35412061373E+02  0.36820922261E+02  0.00000000000E+00 0. -1.
         11    1    4    4    0    0  0.18886857498E+01  0.90497823274E+01  0.10075531477E+02  0.13674137225E+02  0.51100000000E-03 0. -1.
        -11    1    4    4    0    0  0.65502382425E+01 -0.98420786425E+01  0.31095118023E+02  0.33266777694E+02  0.51100000000E-03 0.  1.
         12    1    4    4    0    0  0.30011047864E-01 -0.46888864722E+01 -0.57585881265E+01  0.74261628196E+01  0.00000000000E+00 0. -1.
</event>
<event>
 8    1  0.2502431E-006  0.9118800E+02  0.7816164E-02  0.1184000E+00
        -11   -1    0    0    0    0  0.00000000000E+00  0.00000000000E+00  0.45593999997E+02  0.45594000000E+02  0.51100000000E-03 0. -1.
         11   -1    0    0    0    0 -0.00000000000E+00 -0.00000000000E+00 -0.45593999997E+02  0.45594000000E+02  0.51100000000E-03 0.  1.
         23    2    1    2    0    0  0.71054273576E-14 -0.22204460493E-15  0.00000000000E+00  0.91188000000E+02  0.91188000000E+02 0.  0.
    9900012    2    3    3    0    0 -0.32705736134E+02 -0.18488690415E+01  0.16813581731E+02  0.54367081714E+02  0.39999994382E+02 0.  0.
        -12    1    3    3    0    0  0.32705736134E+02  0.18488690415E+01 -0.16813581731E+02  0.36820918286E+02  0.00000000000E+00 0.  1.
         11    1    4    4    0    0 -0.11346239402E+02  0.25636176195E+01  0.64977702889E+01  0.13324049792E+02  0.51100000000E-03 0. -1.
        -11    1    4    4    0    0 -0.29552069287E+02 -0.77649544283E+01  0.57816189509E+01  0.31097370216E+02  0.51100000000E-03 0.  1.
        -12    1    4    4    0    0  0.81925725551E+01  0.33524677673E+01  0.45341924914E+01  0.99456617050E+01  0.00000000000E+00 0.  1.
</event>
<event>
 8    1  0.2502431E-006  0.9118800E+02  0.7816164E-02  0.1184000E+00
        -11   -1    0    0    0    0  0.00000000000E+00  0.00000000000E+00  0.45593999997E+02  0.45594000000E+02  0.51100000000E-03 0.  1.
         11   -1    0    0    0    0 -0.00000000000E+00 -0.00000000000E+00 -0.45593999997E+02  0.45594000000E+02  0.51100000000E-03 0. -1.
         23    2    1    2    0    0 -0.71054273576E-14  0.00000000000E+00  0.00000000000E+00  0.91188000000E+02  0.91188000000E+02 0.  0.
    9900012    2    3    3    0    0 -0.32695073784E+02  0.49163500345E+01 -0.16206223114E+02  0.54367081828E+02  0.39999994644E+02 0.  0.
        -12    1    3    3    0    0  0.32695073784E+02 -0.49163500345E+01  0.16206223114E+02  0.36820918172E+02  0.00000000000E+00 0.  1.
         11    1    4    4    0    0 -0.20076468905E+02 -0.11882900172E+02 -0.10101317792E+02  0.25422520362E+02  0.51100000000E-03 0. -1.
        -11    1    4    4    0    0 -0.15451641440E+02  0.13055863850E+02  0.11963718812E+01  0.20264256956E+02  0.51100000000E-03 0.  1.
         12    1    4    4    0    0  0.28330365612E+01  0.37433863564E+01 -0.73012772037E+01  0.86803045094E+01  0.00000000000E+00 0. -1.
</event>
<event>
 8    1  0.2502431E-006  0.9118800E+02  0.7816164E-02  0.1184000E+00
        -11   -1    0    0    0    0  0.00000000000E+00  0.00000000000E+00  0.45593999997E+02  0.45594000000E+02  0.51100000000E-03 0.  1.
         11   -1    0    0    0    0 -0.00000000000E+00 -0.00000000000E+00 -0.45593999997E+02  0.45594000000E+02  0.51100000000E-03 0. -1.
         23    2    1    2    0    0  0.00000000000E+00  0.00000000000E+00  0.17763568394E-14  0.91188000000E+02  0.91188000000E+02 0.  0.
    9900012    2    3    3    0    0  0.30245847593E+02  0.15488320625E+02  0.14180284795E+02  0.54367084079E+02  0.39999999774E+02 0.  0.
        -12    1    3    3    0    0 -0.30245847593E+02 -0.15488320625E+02 -0.14180284795E+02  0.36820915921E+02  0.00000000000E+00 0.  1.
         11    1    4    4    0    0  0.13860684157E+02  0.11749055086E+02 -0.22834839916E+01  0.18313196338E+02  0.51100000000E-03 0. -1.
        -11    1    4    4    0    0 -0.53652986233E+01 -0.79417556609E+00 -0.32737056735E+01  0.63351632374E+01  0.51100000000E-03 0.  1.
         12    1    4    4    0    0  0.21750462060E+02  0.45334411055E+01  0.19737474460E+02  0.29718724503E+02  0.00000000000E+00 0. -1.
</event>
<event>
 8    1  0.2502431E-006  0.9118800E+02  0.7816164E-02  0.1184000E+00
        -11   -1    0    0    0    0  0.00000000000E+00  0.00000000000E+00  0.45593999997E+02  0.45594000000E+02  0.51100000000E-03 0. -1.
         11   -1    0    0    0    0 -0.00000000000E+00 -0.00000000000E+00 -0.45593999997E+02  0.45594000000E+02  0.51100000000E-03 0.  1.
         23    2    1    2    0    0  0.00000000000E+00  0.35527136788E-14  0.00000000000E+00  0.91188000000E+02  0.91188000000E+02 0.  0.
    9900012    2    3    3    0    0  0.11693425123E+02  0.10127412885E+02  0.33413755701E+02  0.54367085388E+02  0.40000002758E+02 0.  0.
        -12    1    3    3    0    0 -0.11693425123E+02 -0.10127412885E+02 -0.33413755701E+02  0.36820914612E+02  0.00000000000E+00 0.  1.
         11    1    4    4    0    0  0.56160096391E+01  0.13210635147E+02  0.37000514558E+02  0.39687510920E+02  0.51100000000E-03 0. -1.
        -11    1    4    4    0    0 -0.13791831372E+01 -0.22347106202E+01  0.34878740442E+01  0.43659298312E+01  0.51100000000E-03 0.  1.
        -12    1    4    4    0    0  0.74565986207E+01 -0.84851164213E+00 -0.70746329008E+01  0.10313644636E+02  0.00000000000E+00 0.  1.
</event>
<event>
 8    1  0.2502431E-006  0.9118800E+02  0.7816164E-02  0.1184000E+00
        -11   -1    0    0    0    0  0.00000000000E+00  0.00000000000E+00  0.45593999997E+02  0.45594000000E+02  0.51100000000E-03 0. -1.
         11   -1    0    0    0    0 -0.00000000000E+00 -0.00000000000E+00 -0.45593999997E+02  0.45594000000E+02  0.51100000000E-03 0.  1.
         23    2    1    2    0    0  0.44408920985E-15  0.00000000000E+00  0.00000000000E+00  0.91188000000E+02  0.91188000000E+02 0.  0.
    9900012    2    3    3    0    0  0.32008098043E+01 -0.36618827955E+02 -0.21440230120E+01  0.54367074171E+02  0.39999977187E+02 0.  0.
         12    1    3    3    0    0 -0.32008098043E+01  0.36618827955E+02  0.21440230120E+01  0.36820925829E+02  0.00000000000E+00 0. -1.
         11    1    4    4    0    0  0.10207513879E+02 -0.24260334223E+02 -0.26313885013E+01  0.26451490731E+02  0.51100000000E-03 0. -1.
        -11    1    4    4    0    0  0.29287173309E+01 -0.15368728123E+02  0.52379591194E+01  0.16498830423E+02  0.51100000000E-03 0.  1.
         12    1    4    4    0    0 -0.99354214059E+01  0.30102343908E+01 -0.47505936301E+01  0.11416753016E+02  0.00000000000E+00 0. -1.
</event>
<event>
 8    1  0.2502431E-006  0.9118800E+02  0.7816164E-02  0.1184000E+00
        -11   -1    0    0    0    0  0.00000000000E+00  0.00000000000E+00  0.45593999997E+02  0.45594000000E+02  0.51100000000E-03 0. -1.
         11   -1    0    0    0    0 -0.00000000000E+00 -0.00000000000E+00 -0.45593999997E+02  0.45594000000E+02  0.51100000000E-03 0.  1.
         23    2    1    2    0    0  0.00000000000E+00 -0.17763568394E-14  0.00000000000E+00  0.91188000000E+02  0.91188000000E+02 0.  0.
    9900012    2    3    3    0    0 -0.11354592033E+02 -0.10977384352E+02 -0.33261835364E+02  0.54367089918E+02  0.40000013086E+02 0.  0.
         12    1    3    3    0    0  0.11354592033E+02  0.10977384352E+02  0.33261835364E+02  0.36820910082E+02  0.00000000000E+00 0. -1.
         11    1    4    4    0    0  0.36147326309E+01  0.52292337812E+01 -0.32528789223E+01  0.71408962656E+01  0.51100000000E-03 0. -1.
        -11    1    4    4    0    0  0.65849934116E+01 -0.12422840084E+02 -0.79430812579E+01  0.16148734753E+02  0.51100000000E-03 0.  1.
        -12    1    4    4    0    0 -0.21554318075E+02 -0.37837780496E+01 -0.22065875184E+02  0.31077458900E+02  0.00000000000E+00 0.  1.
</event>
<event>
 8    1  0.2502431E-006  0.9118800E+02  0.7816164E-02  0.1184000E+00
        -11   -1    0    0    0    0  0.00000000000E+00  0.00000000000E+00  0.45593999997E+02  0.45594000000E+02  0.51100000000E-03 0.  1.
         11   -1    0    0    0    0 -0.00000000000E+00 -0.00000000000E+00 -0.45593999997E+02  0.45594000000E+02  0.51100000000E-03 0. -1.
         23    2    1    2    0    0 -0.17763568394E-14  0.35527136788E-14  0.00000000000E+00  0.91188000000E+02  0.91188000000E+02 0.  0.
    9900012    2    3    3    0    0  0.10031066959E+02 -0.28712439248E+02 -0.20754584359E+02  0.54367092301E+02  0.40000018518E+02 0.  0.
        -12    1    3    3    0    0 -0.10031066959E+02  0.28712439248E+02  0.20754584359E+02  0.36820907699E+02  0.00000000000E+00 0.  1.
         11    1    4    4    0    0 -0.89733058846E+01 -0.18243061142E+02 -0.14284345342E+02  0.24846972058E+02  0.51100000000E-03 0.  1.
        -11    1    4    4    0    0  0.16685400998E+02  0.10543240618E+01 -0.15952946538E+01  0.16794617322E+02  0.51100000000E-03 0. -1.
        -12    1    4    4    0    0  0.23189718460E+01 -0.11523702168E+02 -0.48749443624E+01  0.12725502922E+02  0.00000000000E+00 0.  1.
</event>
<event>
 8    1  0.2502431E-006  0.9118800E+02  0.7816164E-02  0.1184000E+00
        -11   -1    0    0    0    0  0.00000000000E+00  0.00000000000E+00  0.45593999997E+02  0.45594000000E+02  0.51100000000E-03 0.  1.
         11   -1    0    0    0    0 -0.00000000000E+00 -0.00000000000E+00 -0.45593999997E+02  0.45594000000E+02  0.51100000000E-03 0. -1.
         23    2    1    2    0    0  0.17763568394E-14  0.00000000000E+00 -0.35527136788E-14  0.91188000000E+02  0.91188000000E+02 0.  0.
    9900012    2    3    3    0    0 -0.10842981006E+02  0.26268055648E+02  0.23413658502E+02  0.54367076749E+02  0.39999983064E+02 0.  0.
         12    1    3    3    0    0  0.10842981006E+02 -0.26268055648E+02 -0.23413658502E+02  0.36820923251E+02  0.00000000000E+00 0. -1.
         11    1    4    4    0    0  0.69496368583E+01  0.33980005389E+01  0.64066916301E+01  0.10044379425E+02  0.51100000000E-03 0. -1.
        -11    1    4    4    0    0 -0.19217461332E+02  0.12928065413E+01  0.90485450151E+01  0.21280468415E+02  0.51100000000E-03 0.  1.
        -12    1    4    4    0    0  0.14248434676E+01  0.21577248568E+02  0.79584218570E+01  0.23042228909E+02  0.00000000000E+00 0.  1.
</event>
<event>
 8    1  0.2502431E-006  0.9118800E+02  0.7816164E-02  0.1184000E+00
        -11   -1    0    0    0    0  0.00000000000E+00  0.00000000000E+00  0.45593999997E+02  0.45594000000E+02  0.51100000000E-03 0. -1.
         11   -1    0    0    0    0 -0.00000000000E+00 -0.00000000000E+00 -0.45593999997E+02  0.45594000000E+02  0.51100000000E-03 0.  1.
         23    2    1    2    0    0  0.00000000000E+00 -0.17763568394E-14  0.35527136788E-14  0.91188000000E+02  0.91188000000E+02 0.  0.
    9900012    2    3    3    0    0 -0.10523557296E+02  0.15409013605E+02  0.31742681566E+02  0.54367071285E+02  0.39999970609E+02 0.  0.
        -12    1    3    3    0    0  0.10523557296E+02 -0.15409013605E+02 -0.31742681566E+02  0.36820928715E+02  0.00000000000E+00 0.  1.
         11    1    4    4    0    0 -0.35244284291E+01 -0.48488889630E+01  0.29230774129E+01  0.66691604982E+01  0.51100000000E-03 0. -1.
        -11    1    4    4    0    0 -0.15493344429E+02  0.81059404507E+01  0.27408877349E+01  0.17699221961E+02  0.51100000000E-03 0.  1.
         12    1    4    4    0    0  0.84942155613E+01  0.12151962117E+02  0.26078716418E+02  0.29998688826E+02  0.00000000000E+00 0. -1.
</event>
<event>
 8    1  0.2502431E-006  0.9118800E+02  0.7816164E-02  0.1184000E+00
        -11   -1    0    0    0    0  0.00000000000E+00  0.00000000000E+00  0.45593999997E+02  0.45594000000E+02  0.51100000000E-03 0. -1.
         11   -1    0    0    0    0 -0.00000000000E+00 -0.00000000000E+00 -0.45593999997E+02  0.45594000000E+02  0.51100000000E-03 0.  1.
         23    2    1    2    0    0  0.00000000000E+00  0.35527136788E-14 -0.35527136788E-14  0.91188000000E+02  0.91188000000E+02 0.  0.
    9900012    2    3    3    0    0 -0.92695969496E+01 -0.17532178305E+02 -0.31023811724E+02  0.54367087497E+02  0.40000007566E+02 0.  0.
         12    1    3    3    0    0  0.92695969496E+01  0.17532178305E+02  0.31023811724E+02  0.36820912503E+02  0.00000000000E+00 0. -1.
         11    1    4    4    0    0  0.67337022888E+01 -0.29093258026E+01 -0.62512462592E+01  0.96376866100E+01  0.51100000000E-03 0. -1.
        -11    1    4    4    0    0 -0.59636676330E+01 -0.12739077096E+02  0.36460105796E+01  0.14530753948E+02  0.51100000000E-03 0.  1.
        -12    1    4    4    0    0 -0.10039631605E+02 -0.18837754067E+01 -0.28418576044E+02  0.30198646939E+02  0.00000000000E+00 0.  1.
</event>
<event>
 8    1  0.2502431E-006  0.9118800E+02  0.7816164E-02  0.1184000E+00
        -11   -1    0    0    0    0  0.00000000000E+00  0.00000000000E+00  0.45593999997E+02  0.45594000000E+02  0.51100000000E-03 0.  1.
         11   -1    0    0    0    0 -0.00000000000E+00 -0.00000000000E+00 -0.45593999997E+02  0.45594000000E+02  0.51100000000E-03 0. -1.
         23    2    1    2    0    0  0.00000000000E+00  0.35527136788E-14  0.00000000000E+00  0.91188000000E+02  0.91188000000E+02 0.  0.
    9900012    2    3    3    0    0 -0.21872820157E+02 -0.29133425113E+02  0.53480884344E+01  0.54367098730E+02  0.40000033175E+02 0.  0.
        -12    1    3    3    0    0  0.21872820157E+02  0.29133425113E+02 -0.53480884344E+01  0.36820901270E+02  0.00000000000E+00 0.  1.
         11    1    4    4    0    0  0.62275916004E+01 -0.72983770461E+01  0.40642022383E+00  0.96028319941E+01  0.51100000000E-03 0.  1.
        -11    1    4    4    0    0 -0.22261026381E+02 -0.45663651604E+00  0.12822040052E+01  0.22302597602E+02  0.51100000000E-03 0. -1.
         12    1    4    4    0    0 -0.58393853772E+01 -0.21378411551E+02  0.36594642054E+01  0.22461669134E+02  0.00000000000E+00 0. -1.
</event>
<event>
 8    1  0.2502431E-006  0.9118800E+02  0.7816164E-02  0.1184000E+00
        -11   -1    0    0    0    0  0.00000000000E+00  0.00000000000E+00  0.45593999997E+02  0.45594000000E+02  0.51100000000E-03 0. -1.
         11   -1    0    0    0    0 -0.00000000000E+00 -0.00000000000E+00 -0.45593999997E+02  0.45594000000E+02  0.51100000000E-03 0.  1.
         23    2    1    2    0    0  0.00000000000E+00 -0.35527136788E-14  0.17763568394E-14  0.91188000000E+02  0.91188000000E+02 0.  0.
    9900012    2    3    3    0    0 -0.22599465496E+02  0.25703938857E+02 -0.13577682894E+02  0.54367057776E+02  0.39999939813E+02 0.  0.
         12    1    3    3    0    0  0.22599465496E+02 -0.25703938857E+02  0.13577682894E+02  0.36820942224E+02  0.00000000000E+00 0. -1.
         11    1    4    4    0    0 -0.15961659113E+02  0.13233491428E+01  0.44898280158E+01  0.16633832104E+02  0.51100000000E-03 0. -1.
        -11    1    4    4    0    0  0.76542000816E+01  0.10101279951E+02 -0.47440277355E+01  0.13532495519E+02  0.51100000000E-03 0.  1.
        -12    1    4    4    0    0 -0.14292006464E+02  0.14279309763E+02 -0.13323483174E+02  0.24200730154E+02  0.00000000000E+00 0.  1.
</event>
<event>
 8    1  0.2502431E-006  0.9118800E+02  0.7816164E-02  0.1184000E+00
        -11   -1    0    0    0    0  0.00000000000E+00  0.00000000000E+00  0.45593999997E+02  0.45594000000E+02  0.51100000000E-03 0.  1.
         11   -1    0    0    0    0 -0.00000000000E+00 -0.00000000000E+00 -0.45593999997E+02  0.45594000000E+02  0.51100000000E-03 0. -1.
         23    2    1    2    0    0 -0.17763568394E-14  0.00000000000E+00 -0.71054273576E-14  0.91188000000E+02  0.91188000000E+02 0.  0.
    9900012    2    3    3    0    0 -0.13762547714E+02  0.10525609590E+02 -0.32489766621E+02  0.54367066933E+02  0.39999960687E+02 0.  0.
        -12    1    3    3    0    0  0.13762547714E+02 -0.10525609590E+02  0.32489766621E+02  0.36820933067E+02  0.00000000000E+00 0.  1.
         11    1    4    4    0    0 -0.64740268525E+01  0.77335040710E+01 -0.14404679626E+02  0.17584507508E+02  0.51100000000E-03 0. -1.
        -11    1    4    4    0    0 -0.10849778594E+02  0.14957121663E+02 -0.14836949901E+02  0.23697431646E+02  0.51100000000E-03 0.  1.
        -12    1    4    4    0    0  0.35612577319E+01 -0.12165016144E+02 -0.32481370940E+01  0.13085127779E+02  0.00000000000E+00 0.  1.
</event>
<event>
 8    1  0.2502431E-006  0.9118800E+02  0.7816164E-02  0.1184000E+00
        -11   -1    0    0    0    0  0.00000000000E+00  0.00000000000E+00  0.45593999997E+02  0.45594000000E+02  0.51100000000E-03 0.  1.
         11   -1    0    0    0    0 -0.00000000000E+00 -0.00000000000E+00 -0.45593999997E+02  0.45594000000E+02  0.51100000000E-03 0. -1.
         23    2    1    2    0    0  0.00000000000E+00  0.17763568394E-14  0.00000000000E+00  0.91188000000E+02  0.91188000000E+02 0.  0.
    9900012    2    3    3    0    0  0.35063931243E+02  0.10196250803E+02 -0.47261450965E+01  0.54367092187E+02  0.40000018259E+02 0.  0.
        -12    1    3    3    0    0 -0.35063931243E+02 -0.10196250803E+02  0.47261450965E+01  0.36820907813E+02  0.00000000000E+00 0.  1.
         11    1    4    4    0    0  0.25115391229E+01  0.18587445912E+02  0.44300813435E+01  0.19272430964E+02  0.51100000000E-03 0. -1.
        -11    1    4    4    0    0  0.27714184516E+02 -0.82329028040E+01 -0.67495216852E+01  0.29688596383E+02  0.51100000000E-03 0.  1.
         12    1    4    4    0    0  0.48382076048E+01 -0.15829230458E+00 -0.24067047548E+01  0.54060648403E+01  0.00000000000E+00 0. -1.
</event>
<event>
 8    1  0.2502431E-006  0.9118800E+02  0.7816164E-02  0.1184000E+00
        -11   -1    0    0    0    0  0.00000000000E+00  0.00000000000E+00  0.45593999997E+02  0.45594000000E+02  0.51100000000E-03 0.  1.
         11   -1    0    0    0    0 -0.00000000000E+00 -0.00000000000E+00 -0.45593999997E+02  0.45594000000E+02  0.51100000000E-03 0. -1.
         23    2    1    2    0    0  0.33306690739E-15 -0.71054273576E-14 -0.35527136788E-14  0.91188000000E+02  0.91188000000E+02 0.  0.
    9900012    2    3    3    0    0 -0.59933110327E+00  0.23325366896E+02  0.28484180045E+02  0.54367075902E+02  0.39999981133E+02 0.  0.
         12    1    3    3    0    0  0.59933110327E+00 -0.23325366896E+02 -0.28484180045E+02  0.36820924098E+02  0.00000000000E+00 0. -1.
         11    1    4    4    0    0  0.52579550718E+01 -0.24383455122E+01  0.13939469623E+02  0.15096371551E+02  0.51100000000E-03 0. -1.
        -11    1    4    4    0    0  0.31035906828E+01  0.24258711455E+02  0.17088317992E+02  0.29835012462E+02  0.51100000000E-03 0.  1.
         12    1    4    4    0    0 -0.89608768579E+01  0.15050009535E+01 -0.25436075704E+01  0.94356918879E+01  0.00000000000E+00 0. -1.
</event>
<event>
 8    1  0.2502431E-006  0.9118800E+02  0.7816164E-02  0.1184000E+00
        -11   -1    0    0    0    0  0.00000000000E+00  0.00000000000E+00  0.45593999997E+02  0.45594000000E+02  0.51100000000E-03 0. -1.
         11   -1    0    0    0    0 -0.00000000000E+00 -0.00000000000E+00 -0.45593999997E+02  0.45594000000E+02  0.51100000000E-03 0.  1.
         23    2    1    2    0    0  0.00000000000E+00  0.00000000000E+00  0.00000000000E+00  0.91188000000E+02  0.91188000000E+02 0.  0.
    9900012    2    3    3    0    0 -0.27293938967E+02  0.64912350148E+01  0.23847140095E+02  0.54367064011E+02  0.39999954026E+02 0.  0.
        -12    1    3    3    0    0  0.27293938967E+02 -0.64912350148E+01 -0.23847140095E+02  0.36820935989E+02  0.00000000000E+00 0.  1.
         11    1    4    4    0    0  0.18896453035E+01 -0.47720392998E+01  0.13920380672E+02  0.14836445557E+02  0.51100000000E-03 0.  1.
        -11    1    4    4    0    0 -0.17842072682E+02 -0.47199677632E+01  0.27499752310E+01  0.18659582452E+02  0.51100000000E-03 0. -1.
        -12    1    4    4    0    0 -0.11341511589E+02  0.15983242078E+02  0.71767841922E+01  0.20871036002E+02  0.00000000000E+00 0.  1.
</event>
<event>
 8    1  0.2502431E-006  0.9118800E+02  0.7816164E-02  0.1184000E+00
        -11   -1    0    0    0    0  0.00000000000E+00  0.00000000000E+00  0.45593999997E+02  0.45594000000E+02  0.51100000000E-03 0.  1.
         11   -1    0    0    0    0 -0.00000000000E+00 -0.00000000000E+00 -0.45593999997E+02  0.45594000000E+02  0.51100000000E-03 0. -1.
         23    2    1    2    0    0 -0.17763568394E-14  0.17763568394E-14 -0.35527136788E-14  0.91188000000E+02  0.91188000000E+02 0.  0.
    9900012    2    3    3    0    0 -0.14387529273E+02 -0.14167772088E+02  0.30790434588E+02  0.54367114260E+02  0.40000068580E+02 0.  0.
         12    1    3    3    0    0  0.14387529273E+02  0.14167772088E+02 -0.30790434588E+02  0.36820885740E+02  0.00000000000E+00 0. -1.
         11    1    4    4    0    0 -0.33822928271E+01 -0.17849743475E+02  0.25588691254E+02  0.31382070793E+02  0.51100000000E-03 0.  1.
        -11    1    4    4    0    0 -0.57011529578E+00 -0.65197298557E+01 -0.18161342652E+01  0.67919255570E+01  0.51100000000E-03 0. -1.
         12    1    4    4    0    0 -0.10435121150E+02  0.10201701243E+02  0.70178775989E+01  0.16193117910E+02  0.00000000000E+00 0. -1.
</event>
<event>
 8    1  0.2502431E-006  0.9118800E+02  0.7816164E-02  0.1184000E+00
        -11   -1    0    0    0    0  0.00000000000E+00  0.00000000000E+00  0.45593999997E+02  0.45594000000E+02  0.51100000000E-03 0.  1.
         11   -1    0    0    0    0 -0.00000000000E+00 -0.00000000000E+00 -0.45593999997E+02  0.45594000000E+02  0.51100000000E-03 0. -1.
         23    2    1    2    0    0  0.00000000000E+00  0.55511151231E-15  0.00000000000E+00  0.91188000000E+02  0.91188000000E+02 0.  0.
    9900012    2    3    3    0    0 -0.32998754078E+02 -0.88531161406E+00  0.16311908938E+02  0.54367083111E+02  0.39999997568E+02 0.  0.
         12    1    3    3    0    0  0.32998754078E+02  0.88531161406E+00 -0.16311908938E+02  0.36820916889E+02  0.00000000000E+00 0. -1.
         11    1    4    4    0    0 -0.87565165677E+01  0.17115558867E+01 -0.64330808944E+01  0.10999569810E+02  0.51100000000E-03 0. -1.
        -11    1    4    4    0    0 -0.88864131303E+01  0.31352895629E+01  0.25097935412E+02  0.26808669142E+02  0.51100000000E-03 0.  1.
        -12    1    4    4    0    0 -0.15355824380E+02 -0.57321570636E+01 -0.23529455795E+01  0.16558844159E+02  0.00000000000E+00 0.  1.
</event>
<event>
 8    1  0.2502431E-006  0.9118800E+02  0.7816164E-02  0.1184000E+00
        -11   -1    0    0    0    0  0.00000000000E+00  0.00000000000E+00  0.45593999997E+02  0.45594000000E+02  0.51100000000E-03 0.  1.
         11   -1    0    0    0    0 -0.00000000000E+00 -0.00000000000E+00 -0.45593999997E+02  0.45594000000E+02  0.51100000000E-03 0. -1.
         23    2    1    2    0    0 -0.35527136788E-14  0.00000000000E+00  0.00000000000E+00  0.91188000000E+02  0.91188000000E+02 0.  0.
    9900012    2    3    3    0    0  0.21698745660E+02  0.11022075663E+02  0.27630757562E+02  0.54367075534E+02  0.39999980294E+02 0.  0.
         12    1    3    3    0    0 -0.21698745660E+02 -0.11022075663E+02 -0.27630757562E+02  0.36820924466E+02  0.00000000000E+00 0. -1.
         11    1    4    4    0    0 -0.96581405579E+00  0.14146408642E+02  0.14911820284E+01  0.14257534793E+02  0.51100000000E-03 0. -1.
        -11    1    4    4    0    0  0.56156090946E+00  0.30803230068E+01  0.13589883016E+02  0.13945919157E+02  0.51100000000E-03 0.  1.
         12    1    4    4    0    0  0.22102998806E+02 -0.62046559856E+01  0.12549692517E+02  0.26163621584E+02  0.00000000000E+00 0. -1.
</event>
<event>
 8    1  0.2502431E-006  0.9118800E+02  0.7816164E-02  0.1184000E+00
        -11   -1    0    0    0    0  0.00000000000E+00  0.00000000000E+00  0.45593999997E+02  0.45594000000E+02  0.51100000000E-03 0. -1.
         11   -1    0    0    0    0 -0.00000000000E+00 -0.00000000000E+00 -0.45593999997E+02  0.45594000000E+02  0.51100000000E-03 0.  1.
         23    2    1    2    0    0  0.00000000000E+00  0.00000000000E+00  0.17763568394E-14  0.91188000000E+02  0.91188000000E+02 0.  0.
    9900012    2    3    3    0    0  0.33652612011E+02  0.91243270025E+01 -0.11833339057E+02  0.54367088120E+02  0.40000008987E+02 0.  0.
         12    1    3    3    0    0 -0.33652612011E+02 -0.91243270025E+01  0.11833339057E+02  0.36820911880E+02  0.00000000000E+00 0. -1.
         11    1    4    4    0    0  0.61638057011E+01  0.18974977556E+02 -0.14629647446E+02  0.24740025437E+02  0.51100000000E-03 0. -1.
        -11    1    4    4    0    0  0.13382158931E+02 -0.45680920257E+01 -0.72043062573E+00  0.14158695666E+02  0.51100000000E-03 0.  1.
        -12    1    4    4    0    0  0.14106647379E+02 -0.52825585276E+01  0.35167390151E+01  0.15468367017E+02  0.00000000000E+00 0.  1.
</event>
<event>
 8    1  0.2502431E-006  0.9118800E+02  0.7816164E-02  0.1184000E+00
        -11   -1    0    0    0    0  0.00000000000E+00  0.00000000000E+00  0.45593999997E+02  0.45594000000E+02  0.51100000000E-03 0. -1.
         11   -1    0    0    0    0 -0.00000000000E+00 -0.00000000000E+00 -0.45593999997E+02  0.45594000000E+02  0.51100000000E-03 0.  1.
         23    2    1    2    0    0 -0.88817841970E-15  0.00000000000E+00  0.00000000000E+00  0.91188000000E+02  0.91188000000E+02 0.  0.
    9900012    2    3    3    0    0  0.61416390424E+01  0.35733738682E+02 -0.64156795340E+01  0.54367071790E+02  0.39999971761E+02 0.  0.
        -12    1    3    3    0    0 -0.61416390424E+01 -0.35733738682E+02  0.64156795340E+01  0.36820928210E+02  0.00000000000E+00 0.  1.
         11    1    4    4    0    0  0.13414134048E+02  0.33926141078E+02 -0.75417061946E+01  0.37253179371E+02  0.51100000000E-03 0. -1.
        -11    1    4    4    0    0  0.14100861583E+01 -0.54921174799E+01 -0.31677797251E+00  0.56790884772E+01  0.51100000000E-03 0.  1.
         12    1    4    4    0    0 -0.86825811639E+01  0.72997150841E+01  0.14428046331E+01  0.11434803942E+02  0.00000000000E+00 0. -1.
</event>
<event>
 8    1  0.2502431E-006  0.9118800E+02  0.7816164E-02  0.1184000E+00
        -11   -1    0    0    0    0  0.00000000000E+00  0.00000000000E+00  0.45593999997E+02  0.45594000000E+02  0.51100000000E-03 0.  1.
         11   -1    0    0    0    0 -0.00000000000E+00 -0.00000000000E+00 -0.45593999997E+02  0.45594000000E+02  0.51100000000E-03 0. -1.
         23    2    1    2    0    0 -0.17763568394E-14  0.71054273576E-14 -0.26645352591E-14  0.91188000000E+02  0.91188000000E+02 0.  0.
    9900012    2    3    3    0    0 -0.11930621939E+02  0.34658759662E+02 -0.34940908774E+01  0.54367108753E+02  0.40000056024E+02 0.  0.
        -12    1    3    3    0    0  0.11930621939E+02 -0.34658759662E+02  0.34940908774E+01  0.36820891247E+02  0.00000000000E+00 0.  1.
         11    1    4    4    0    0 -0.13385127923E+02  0.39924511358E+02 -0.84665426373E+01  0.42951258435E+02  0.51100000000E-03 0. -1.
        -11    1    4    4    0    0 -0.46953837590E+00 -0.63401330466E+01  0.62110713713E+01  0.88879222080E+01  0.51100000000E-03 0.  1.
        -12    1    4    4    0    0  0.19240443601E+01  0.10743813513E+01 -0.12386196113E+01  0.25279281100E+01  0.00000000000E+00 0.  1.
</event>
<event>
 8    1  0.2502431E-006  0.9118800E+02  0.7816164E-02  0.1184000E+00
        -11   -1    0    0    0    0  0.00000000000E+00  0.00000000000E+00  0.45593999997E+02  0.45594000000E+02  0.51100000000E-03 0. -1.
         11   -1    0    0    0    0 -0.00000000000E+00 -0.00000000000E+00 -0.45593999997E+02  0.45594000000E+02  0.51100000000E-03 0.  1.
         23    2    1    2    0    0  0.17763568394E-14  0.00000000000E+00  0.00000000000E+00  0.91188000000E+02  0.91188000000E+02 0.  0.
    9900012    2    3    3    0    0  0.85555737495E+01 -0.32816050871E+02  0.14341784977E+02  0.54367111455E+02  0.40000062183E+02 0.  0.
        -12    1    3    3    0    0 -0.85555737495E+01  0.32816050871E+02 -0.14341784977E+02  0.36820888545E+02  0.00000000000E+00 0.  1.
         11    1    4    4    0    0  0.18164508174E+02 -0.12700977725E+02  0.14236745818E+02  0.26342914116E+02  0.51100000000E-03 0. -1.
        -11    1    4    4    0    0  0.42325856801E+01 -0.71724640023E+01 -0.29385605563E+01  0.88314302244E+01  0.51100000000E-03 0.  1.
         12    1    4    4    0    0 -0.13841520105E+02 -0.12942609144E+02  0.30435997153E+01  0.19192767114E+02  0.00000000000E+00 0. -1.
</event>
<event>
 8    1  0.2502431E-006  0.9118800E+02  0.7816164E-02  0.1184000E+00
        -11   -1    0    0    0    0  0.00000000000E+00  0.00000000000E+00  0.45593999997E+02  0.45594000000E+02  0.51100000000E-03 0. -1.
         11   -1    0    0    0    0 -0.00000000000E+00 -0.00000000000E+00 -0.45593999997E+02  0.45594000000E+02  0.51100000000E-03 0.  1.
         23    2    1    2    0    0  0.44408920985E-15 -0.44408920985E-15  0.00000000000E+00  0.91188000000E+02  0.91188000000E+02 0.  0.
    9900012    2    3    3    0    0  0.20438478022E+01  0.18907927603E+01 -0.36715500435E+02  0.54367076827E+02  0.39999983244E+02 0.  0.
         12    1    3    3    0    0 -0.20438478022E+01 -0.18907927603E+01  0.36715500435E+02  0.36820923173E+02  0.00000000000E+00 0. -1.
         11    1    4    4    0    0 -0.12622651338E+02  0.51706001944E+01 -0.94683874314E+01  0.16604722039E+02  0.51100000000E-03 0. -1.
        -11    1    4    4    0    0  0.38852603087E+01  0.71936232115E+01 -0.20602384125E+01  0.84313726731E+01  0.51100000000E-03 0.  1.
        -12    1    4    4    0    0  0.10781238831E+02 -0.10473430646E+02 -0.25186874591E+02  0.29330982116E+02  0.00000000000E+00 0.  1.
</event>
<event>
 8    1  0.2502431E-006  0.9118800E+02  0.7816164E-02  0.1184000E+00
        -11   -1    0    0    0    0  0.00000000000E+00  0.00000000000E+00  0.45593999997E+02  0.45594000000E+02  0.51100000000E-03 0.  1.
         11   -1    0    0    0    0 -0.00000000000E+00 -0.00000000000E+00 -0.45593999997E+02  0.45594000000E+02  0.51100000000E-03 0. -1.
         23    2    1    2    0    0  0.00000000000E+00  0.00000000000E+00  0.00000000000E+00  0.91188000000E+02  0.91188000000E+02 0.  0.
    9900012    2    3    3    0    0  0.10841531316E+02 -0.30694205719E+02 -0.17207718965E+02  0.54367100255E+02  0.40000036652E+02 0.  0.
         12    1    3    3    0    0 -0.10841531316E+02  0.30694205719E+02  0.17207718965E+02  0.36820899745E+02  0.00000000000E+00 0. -1.
         11    1    4    4    0    0  0.62081811759E+01 -0.23199801690E+02  0.10794936286E+01  0.24040333166E+02  0.51100000000E-03 0. -1.
        -11    1    4    4    0    0 -0.80376639557E+01  0.19219662068E+01 -0.47594236034E+01  0.95367766705E+01  0.51100000000E-03 0.  1.
         12    1    4    4    0    0  0.12671014096E+02 -0.94163702364E+01 -0.13527788990E+02  0.20789990419E+02  0.00000000000E+00 0. -1.
</event>
<event>
 8    1  0.2502431E-006  0.9118800E+02  0.7816164E-02  0.1184000E+00
        -11   -1    0    0    0    0  0.00000000000E+00  0.00000000000E+00  0.45593999997E+02  0.45594000000E+02  0.51100000000E-03 0. -1.
         11   -1    0    0    0    0 -0.00000000000E+00 -0.00000000000E+00 -0.45593999997E+02  0.45594000000E+02  0.51100000000E-03 0.  1.
         23    2    1    2    0    0 -0.17763568394E-14  0.00000000000E+00  0.71054273576E-14  0.91188000000E+02  0.91188000000E+02 0.  0.
    9900012    2    3    3    0    0  0.10831471972E+02 -0.21576259863E+02  0.27801523186E+02  0.54367075701E+02  0.39999980676E+02 0.  0.
        -12    1    3    3    0    0 -0.10831471972E+02  0.21576259863E+02 -0.27801523186E+02  0.36820924299E+02  0.00000000000E+00 0.  1.
         11    1    4    4    0    0  0.60984996712E+01 -0.19163013937E+02 -0.28054073792E+01  0.20304755902E+02  0.51100000000E-03 0. -1.
        -11    1    4    4    0    0 -0.45169436114E+01  0.76467076106E+00  0.57599813301E+01  0.73596797584E+01  0.51100000000E-03 0.  1.
         12    1    4    4    0    0  0.92499159127E+01 -0.31779166864E+01  0.24846949235E+02  0.26702640041E+02  0.00000000000E+00 0. -1.
</event>
<event>
 8    1  0.2502431E-006  0.9118800E+02  0.7816164E-02  0.1184000E+00
        -11   -1    0    0    0    0  0.00000000000E+00  0.00000000000E+00  0.45593999997E+02  0.45594000000E+02  0.51100000000E-03 0. -1.
         11   -1    0    0    0    0 -0.00000000000E+00 -0.00000000000E+00 -0.45593999997E+02  0.45594000000E+02  0.51100000000E-03 0.  1.
         23    2    1    2    0    0 -0.17763568394E-14  0.00000000000E+00  0.00000000000E+00  0.91188000000E+02  0.91188000000E+02 0.  0.
    9900012    2    3    3    0    0  0.15052164767E+02 -0.32928963736E+02  0.67003708446E+01  0.54367091723E+02  0.40000017201E+02 0.  0.
        -12    1    3    3    0    0 -0.15052164767E+02  0.32928963736E+02 -0.67003708446E+01  0.36820908277E+02  0.00000000000E+00 0.  1.
         11    1    4    4    0    0  0.28043489376E+01  0.45473359899E+01  0.52359151707E+01  0.74804709414E+01  0.51100000000E-03 0. -1.
        -11    1    4    4    0    0  0.13558071933E+02 -0.40782836830E+02 -0.15709396628E+00  0.42977735785E+02  0.51100000000E-03 0.  1.
        -12    1    4    4    0    0 -0.13102561040E+01  0.33065371040E+01  0.16215496402E+01  0.39088849962E+01  0.00000000000E+00 0.  1.
</event>
<event>
 8    1  0.2502431E-006  0.9118800E+02  0.7816164E-02  0.1184000E+00
        -11   -1    0    0    0    0  0.00000000000E+00  0.00000000000E+00  0.45593999997E+02  0.45594000000E+02  0.51100000000E-03 0.  1.
         11   -1    0    0    0    0 -0.00000000000E+00 -0.00000000000E+00 -0.45593999997E+02  0.45594000000E+02  0.51100000000E-03 0. -1.
         23    2    1    2    0    0  0.17763568394E-14  0.00000000000E+00  0.00000000000E+00  0.91188000000E+02  0.91188000000E+02 0.  0.
    9900012    2    3    3    0    0  0.15708307695E+02 -0.33104476719E+02 -0.36225113988E+01  0.54367083413E+02  0.39999998257E+02 0.  0.
         12    1    3    3    0    0 -0.15708307695E+02  0.33104476719E+02  0.36225113988E+01  0.36820916587E+02  0.00000000000E+00 0. -1.
         11    1    4    4    0    0 -0.72380723567E+01 -0.53686720856E+01  0.93072784027E+01  0.12955221454E+02  0.51100000000E-03 0. -1.
        -11    1    4    4    0    0  0.22224014388E+01 -0.36658175963E-01 -0.56347854026E+01  0.60573276923E+01  0.51100000000E-03 0.  1.
        -12    1    4    4    0    0  0.20723978613E+02 -0.27699146457E+02 -0.72950043990E+01  0.35354534266E+02  0.00000000000E+00 0.  1.
</event>
<event>
 8    1  0.2502431E-006  0.9118800E+02  0.7816164E-02  0.1184000E+00
        -11   -1    0    0    0    0  0.00000000000E+00  0.00000000000E+00  0.45593999997E+02  0.45594000000E+02  0.51100000000E-03 0. -1.
         11   -1    0    0    0    0 -0.00000000000E+00 -0.00000000000E+00 -0.45593999997E+02  0.45594000000E+02  0.51100000000E-03 0.  1.
         23    2    1    2    0    0  0.00000000000E+00 -0.35527136788E-14  0.00000000000E+00  0.91188000000E+02  0.91188000000E+02 0.  0.
    9900012    2    3    3    0    0  0.33946688769E+02 -0.13627668275E+02 -0.42057994411E+01  0.54367085156E+02  0.40000002231E+02 0.  0.
        -12    1    3    3    0    0 -0.33946688769E+02  0.13627668275E+02  0.42057994411E+01  0.36820914844E+02  0.00000000000E+00 0.  1.
         11    1    4    4    0    0  0.29240497759E+02 -0.22541035140E+02 -0.41077365265E+01  0.37148061511E+02  0.51100000000E-03 0. -1.
        -11    1    4    4    0    0 -0.32582169027E+00 -0.28913307182E+01  0.28276311231E+01  0.40572713892E+01  0.51100000000E-03 0.  1.
        -12    1    4    4    0    0  0.50320127000E+01  0.11804697583E+02 -0.29256940377E+01  0.13161752256E+02  0.00000000000E+00 0.  1.
</event>
<event>
 8    1  0.2502431E-006  0.9118800E+02  0.7816164E-02  0.1184000E+00
        -11   -1    0    0    0    0  0.00000000000E+00  0.00000000000E+00  0.45593999997E+02  0.45594000000E+02  0.51100000000E-03 0.  1.
         11   -1    0    0    0    0 -0.00000000000E+00 -0.00000000000E+00 -0.45593999997E+02  0.45594000000E+02  0.51100000000E-03 0. -1.
         23    2    1    2    0    0  0.00000000000E+00  0.00000000000E+00  0.00000000000E+00  0.91188000000E+02  0.91188000000E+02 0.  0.
    9900012    2    3    3    0    0  0.16244712105E+02 -0.29893436446E+02 -0.14080840976E+02  0.54367105164E+02  0.40000047842E+02 0.  0.
         12    1    3    3    0    0 -0.16244712105E+02  0.29893436446E+02  0.14080840976E+02  0.36820894836E+02  0.00000000000E+00 0. -1.
         11    1    4    4    0    0 -0.49627245536E+01 -0.21034233925E+02 -0.87199954191E+01  0.23304633706E+02  0.51100000000E-03 0. -1.
        -11    1    4    4    0    0  0.79490839744E+01 -0.14208332281E+02 -0.23105769704E+01  0.16443947471E+02  0.51100000000E-03 0.  1.
         12    1    4    4    0    0  0.13258352684E+02  0.53491297602E+01 -0.30502685866E+01  0.14618523986E+02  0.00000000000E+00 0. -1.
</event>
<event>
 8    1  0.2502431E-006  0.9118800E+02  0.7816164E-02  0.1184000E+00
        -11   -1    0    0    0    0  0.00000000000E+00  0.00000000000E+00  0.45593999997E+02  0.45594000000E+02  0.51100000000E-03 0. -1.
         11   -1    0    0    0    0 -0.00000000000E+00 -0.00000000000E+00 -0.45593999997E+02  0.45594000000E+02  0.51100000000E-03 0.  1.
         23    2    1    2    0    0  0.00000000000E+00  0.00000000000E+00 -0.17763568394E-14  0.91188000000E+02  0.91188000000E+02 0.  0.
    9900012    2    3    3    0    0 -0.26484311824E+02 -0.20204988425E+02  0.15688196827E+02  0.54367084073E+02  0.39999999761E+02 0.  0.
        -12    1    3    3    0    0  0.26484311824E+02  0.20204988425E+02 -0.15688196827E+02  0.36820915927E+02  0.00000000000E+00 0.  1.
         11    1    4    4    0    0 -0.89394984891E+01 -0.58604049018E+01 -0.32751842912E+01  0.11179705329E+02  0.51100000000E-03 0. -1.
        -11    1    4    4    0    0 -0.18442410088E+02 -0.53896683168E+01 -0.30046301093E+01  0.19447334439E+02  0.51100000000E-03 0.  1.
        -12    1    4    4    0    0  0.89759675341E+00 -0.89549152063E+01  0.21968011227E+02  0.23740044304E+02  0.00000000000E+00 0.  1.
</event>
<event>
 8    1  0.2502431E-006  0.9118800E+02  0.7816164E-02  0.1184000E+00
        -11   -1    0    0    0    0  0.00000000000E+00  0.00000000000E+00  0.45593999997E+02  0.45594000000E+02  0.51100000000E-03 0. -1.
         11   -1    0    0    0    0 -0.00000000000E+00 -0.00000000000E+00 -0.45593999997E+02  0.45594000000E+02  0.51100000000E-03 0.  1.
         23    2    1    2    0    0  0.00000000000E+00  0.00000000000E+00  0.00000000000E+00  0.91188000000E+02  0.91188000000E+02 0.  0.
    9900012    2    3    3    0    0  0.24112674022E+02  0.99992848030E+01 -0.25968708475E+02  0.54367074361E+02  0.39999977620E+02 0.  0.
         12    1    3    3    0    0 -0.24112674022E+02 -0.99992848030E+01  0.25968708475E+02  0.36820925639E+02  0.00000000000E+00 0. -1.
         11    1    4    4    0    0  0.80285027524E+01  0.86564261336E+00 -0.66346337267E+00  0.81022452127E+01  0.51100000000E-03 0. -1.
        -11    1    4    4    0    0  0.18276573224E+02  0.19715722337E+02 -0.12919027301E+02  0.29826902332E+02  0.51100000000E-03 0.  1.
        -12    1    4    4    0    0 -0.21924019540E+01 -0.10582080147E+02 -0.12386217801E+02  0.16437926816E+02  0.00000000000E+00 0.  1.
</event>
<event>
 8    1  0.2502431E-006  0.9118800E+02  0.7816164E-02  0.1184000E+00
        -11   -1    0    0    0    0  0.00000000000E+00  0.00000000000E+00  0.45593999997E+02  0.45594000000E+02  0.51100000000E-03 0. -1.
         11   -1    0    0    0    0 -0.00000000000E+00 -0.00000000000E+00 -0.45593999997E+02  0.45594000000E+02  0.51100000000E-03 0.  1.
         23    2    1    2    0    0  0.00000000000E+00 -0.17763568394E-14  0.00000000000E+00  0.91188000000E+02  0.91188000000E+02 0.  0.
    9900012    2    3    3    0    0 -0.32739975321E+02  0.56142306730E+01  0.15885640759E+02  0.54367093542E+02  0.40000021347E+02 0.  0.
        -12    1    3    3    0    0  0.32739975321E+02 -0.56142306730E+01 -0.15885640759E+02  0.36820906458E+02  0.00000000000E+00 0.  1.
         11    1    4    4    0    0 -0.13019636883E+02 -0.35269033007E+01 -0.39585407256E+01  0.14057739377E+02  0.51100000000E-03 0. -1.
        -11    1    4    4    0    0 -0.11237787857E+02 -0.68509008328E+00 -0.49684673148E+01  0.12306213555E+02  0.51100000000E-03 0.  1.
        -12    1    4    4    0    0 -0.84825505818E+01  0.98262240569E+01  0.24812648800E+02  0.28003140610E+02  0.00000000000E+00 0.  1.
</event>
<event>
 8    1  0.2502431E-006  0.9118800E+02  0.7816164E-02  0.1184000E+00
        -11   -1    0    0    0    0  0.00000000000E+00  0.00000000000E+00  0.45593999997E+02  0.45594000000E+02  0.51100000000E-03 0. -1.
         11   -1    0    0    0    0 -0.00000000000E+00 -0.00000000000E+00 -0.45593999997E+02  0.45594000000E+02  0.51100000000E-03 0.  1.
         23    2    1    2    0    0 -0.35527136788E-14  0.00000000000E+00 -0.35527136788E-14  0.91188000000E+02  0.91188000000E+02 0.  0.
    9900012    2    3    3    0    0 -0.86144201823E+01 -0.16455421145E+02  0.31792930175E+02  0.54367088424E+02  0.40000009681E+02 0.  0.
         12    1    3    3    0    0  0.86144201823E+01  0.16455421145E+02 -0.31792930175E+02  0.36820911576E+02  0.00000000000E+00 0. -1.
         11    1    4    4    0    0  0.93766790850E+01 -0.11429463439E+02  0.10055699485E+02  0.17879369048E+02  0.51100000000E-03 0.  1.
        -11    1    4    4    0    0 -0.85994660053E+01 -0.10452214658E+02  0.16186687952E+01  0.13631569820E+02  0.51100000000E-03 0. -1.
         12    1    4    4    0    0 -0.93916332620E+01  0.54262569516E+01  0.20118561894E+02  0.22856149556E+02  0.00000000000E+00 0. -1.
</event>
<event>
 8    1  0.2502431E-006  0.9118800E+02  0.7816164E-02  0.1184000E+00
        -11   -1    0    0    0    0  0.00000000000E+00  0.00000000000E+00  0.45593999997E+02  0.45594000000E+02  0.51100000000E-03 0.  1.
         11   -1    0    0    0    0 -0.00000000000E+00 -0.00000000000E+00 -0.45593999997E+02  0.45594000000E+02  0.51100000000E-03 0. -1.
         23    2    1    2    0    0 -0.55511151231E-15  0.00000000000E+00 -0.26645352591E-14  0.91188000000E+02  0.91188000000E+02 0.  0.
    9900012    2    3    3    0    0  0.80153803328E+00  0.36382804408E+02  0.56061238644E+01  0.54367088216E+02  0.40000009206E+02 0.  0.
         12    1    3    3    0    0 -0.80153803328E+00 -0.36382804408E+02 -0.56061238644E+01  0.36820911784E+02  0.00000000000E+00 0. -1.
         11    1    4    4    0    0  0.49614083964E+01  0.84747257821E+01 -0.94233664177E+01  0.13610157430E+02  0.51100000000E-03 0. -1.
        -11    1    4    4    0    0  0.15935027767E+01  0.20503387815E+02 -0.26591990090E+01  0.20736429361E+02  0.51100000000E-03 0.  1.
        -12    1    4    4    0    0 -0.57533731397E+01  0.74046908112E+01  0.17688689291E+02  0.20020501426E+02  0.00000000000E+00 0.  1.
</event>
<event>
 8    1  0.2502431E-006  0.9118800E+02  0.7816164E-02  0.1184000E+00
        -11   -1    0    0    0    0  0.00000000000E+00  0.00000000000E+00  0.45593999997E+02  0.45594000000E+02  0.51100000000E-03 0.  1.
         11   -1    0    0    0    0 -0.00000000000E+00 -0.00000000000E+00 -0.45593999997E+02  0.45594000000E+02  0.51100000000E-03 0. -1.
         23    2    1    2    0    0  0.00000000000E+00  0.71054273576E-14  0.35527136788E-14  0.91188000000E+02  0.91188000000E+02 0.  0.
    9900012    2    3    3    0    0  0.18326377378E+02  0.27536489787E+02 -0.16176464135E+02  0.54366914064E+02  0.39999612190E+02 0.  0.
        -12    1    3    3    0    0 -0.18326377378E+02 -0.27536489787E+02  0.16176464135E+02  0.36821085936E+02  0.00000000000E+00 0.  1.
         11    1    4    4    0    0  0.53046644876E+01  0.14180223326E+02 -0.24426616151E+02  0.28738089285E+02  0.51100000000E-03 0. -1.
        -11    1    4    4    0    0  0.13875377102E+02  0.57202386788E+01  0.96163102574E+01  0.17824720012E+02  0.51100000000E-03 0.  1.
        -12    1    4    4    0    0 -0.85366421213E+00  0.76360277822E+01 -0.13661582413E+01  0.78041047673E+01  0.00000000000E+00 0.  1.
</event>
<event>
 8    1  0.2502431E-006  0.9118800E+02  0.7816164E-02  0.1184000E+00
        -11   -1    0    0    0    0  0.00000000000E+00  0.00000000000E+00  0.45593999997E+02  0.45594000000E+02  0.51100000000E-03 0.  1.
         11   -1    0    0    0    0 -0.00000000000E+00 -0.00000000000E+00 -0.45593999997E+02  0.45594000000E+02  0.51100000000E-03 0. -1.
         23    2    1    2    0    0  0.00000000000E+00  0.00000000000E+00  0.00000000000E+00  0.91188000000E+02  0.91188000000E+02 0.  0.
    9900012    2    3    3    0    0 -0.28558827242E+02 -0.13979626594E+02 -0.18567259064E+02  0.54367086346E+02  0.40000004943E+02 0.  0.
        -12    1    3    3    0    0  0.28558827242E+02  0.13979626594E+02  0.18567259064E+02  0.36820913654E+02  0.00000000000E+00 0.  1.
         11    1    4    4    0    0 -0.20383310710E+02 -0.70220549926E+01 -0.12102574363E+02  0.24723691437E+02  0.51100000000E-03 0. -1.
        -11    1    4    4    0    0  0.23862504661E+01  0.48996559958E+01 -0.11713557443E+02  0.12919297520E+02  0.51100000000E-03 0.  1.
         12    1    4    4    0    0 -0.10561766999E+02 -0.11857227597E+02  0.52488727426E+01  0.16724097389E+02  0.00000000000E+00 0. -1.
</event>
<event>
 8    1  0.2502431E-006  0.9118800E+02  0.7816164E-02  0.1184000E+00
        -11   -1    0    0    0    0  0.00000000000E+00  0.00000000000E+00  0.45593999997E+02  0.45594000000E+02  0.51100000000E-03 0.  1.
         11   -1    0    0    0    0 -0.00000000000E+00 -0.00000000000E+00 -0.45593999997E+02  0.45594000000E+02  0.51100000000E-03 0. -1.
         23    2    1    2    0    0 -0.35527136788E-14  0.35527136788E-14  0.00000000000E+00  0.91188000000E+02  0.91188000000E+02 0.  0.
    9900012    2    3    3    0    0  0.13076653045E+02 -0.20357467662E+02 -0.27755115137E+02  0.54367193915E+02  0.40000250168E+02 0.  0.
        -12    1    3    3    0    0 -0.13076653045E+02  0.20357467662E+02  0.27755115137E+02  0.36820806085E+02  0.00000000000E+00 0.  1.
         11    1    4    4    0    0 -0.18885119823E+01 -0.61968032633E+01 -0.92625819082E+01  0.11303197426E+02  0.51100000000E-03 0. -1.
        -11    1    4    4    0    0 -0.79899099750E+01 -0.46362950534E+01 -0.15483744799E+02  0.18029981877E+02  0.51100000000E-03 0.  1.
         12    1    4    4    0    0  0.22955075002E+02 -0.95243693452E+01 -0.30087884302E+01  0.25034014612E+02  0.00000000000E+00 0. -1.
</event>
<event>
 8    1  0.2502431E-006  0.9118800E+02  0.7816164E-02  0.1184000E+00
        -11   -1    0    0    0    0  0.00000000000E+00  0.00000000000E+00  0.45593999997E+02  0.45594000000E+02  0.51100000000E-03 0.  1.
         11   -1    0    0    0    0 -0.00000000000E+00 -0.00000000000E+00 -0.45593999997E+02  0.45594000000E+02  0.51100000000E-03 0. -1.
         23    2    1    2    0    0 -0.35527136788E-14  0.00000000000E+00  0.71054273576E-14  0.91188000000E+02  0.91188000000E+02 0.  0.
    9900012    2    3    3    0    0  0.17028703032E+02  0.22896010782E+02 -0.23271798504E+02  0.54367073310E+02  0.39999975225E+02 0.  0.
        -12    1    3    3    0    0 -0.17028703032E+02 -0.22896010782E+02  0.23271798504E+02  0.36820926690E+02  0.00000000000E+00 0.  1.
         11    1    4    4    0    0 -0.33736131218E+01  0.11517473176E+01 -0.13836214128E+02  0.14288058267E+02  0.51100000000E-03 0. -1.
        -11    1    4    4    0    0  0.30243496049E+01  0.18969384611E+02  0.16510782462E+01  0.19279790007E+02  0.51100000000E-03 0.  1.
        -12    1    4    4    0    0  0.17377966549E+02  0.27748788533E+01 -0.11086662623E+02  0.20799225037E+02  0.00000000000E+00 0.  1.
</event>
<event>
 8    1  0.2502431E-006  0.9118800E+02  0.7816164E-02  0.1184000E+00
        -11   -1    0    0    0    0  0.00000000000E+00  0.00000000000E+00  0.45593999997E+02  0.45594000000E+02  0.51100000000E-03 0.  1.
         11   -1    0    0    0    0 -0.00000000000E+00 -0.00000000000E+00 -0.45593999997E+02  0.45594000000E+02  0.51100000000E-03 0. -1.
         23    2    1    2    0    0  0.00000000000E+00 -0.35527136788E-14  0.00000000000E+00  0.91188000000E+02  0.91188000000E+02 0.  0.
    9900012    2    3    3    0    0  0.46215389833E+01  0.24285112158E+02 -0.27288360676E+02  0.54367083071E+02  0.39999997477E+02 0.  0.
        -12    1    3    3    0    0 -0.46215389833E+01 -0.24285112158E+02  0.27288360676E+02  0.36820916929E+02  0.00000000000E+00 0.  1.
         11    1    4    4    0    0  0.97340893073E+01  0.76166381170E+01 -0.93783975365E+01  0.15515154252E+02  0.51100000000E-03 0. -1.
        -11    1    4    4    0    0 -0.11877463509E+02  0.89066699878E+01 -0.22993096788E+02  0.27369424726E+02  0.51100000000E-03 0.  1.
        -12    1    4    4    0    0  0.67649131854E+01  0.77618040529E+01  0.50831336480E+01  0.11482504093E+02  0.00000000000E+00 0.  1.
</event>
<event>
 8    1  0.2502431E-006  0.9118800E+02  0.7816164E-02  0.1184000E+00
        -11   -1    0    0    0    0  0.00000000000E+00  0.00000000000E+00  0.45593999997E+02  0.45594000000E+02  0.51100000000E-03 0.  1.
         11   -1    0    0    0    0 -0.00000000000E+00 -0.00000000000E+00 -0.45593999997E+02  0.45594000000E+02  0.51100000000E-03 0. -1.
         23    2    1    2    0    0  0.00000000000E+00  0.00000000000E+00 -0.17763568394E-14  0.91188000000E+02  0.91188000000E+02 0.  0.
    9900012    2    3    3    0    0 -0.16822242576E+02  0.30399635649E+02  0.12192361455E+02  0.54367090577E+02  0.40000014588E+02 0.  0.
        -12    1    3    3    0    0  0.16822242576E+02 -0.30399635649E+02 -0.12192361455E+02  0.36820909423E+02  0.00000000000E+00 0.  1.
         11    1    4    4    0    0 -0.21672844002E+02  0.11682060041E+02  0.11658256931E+02  0.27241469287E+02  0.51100000000E-03 0. -1.
        -11    1    4    4    0    0  0.15581827212E+00  0.19235080910E+02 -0.49753141322E+01  0.19868728392E+02  0.51100000000E-03 0.  1.
        -12    1    4    4    0    0  0.46947831541E+01 -0.51750530171E+00  0.55094186566E+01  0.72568928981E+01  0.00000000000E+00 0.  1.
</event>
<event>
 8    1  0.2502431E-006  0.9118800E+02  0.7816164E-02  0.1184000E+00
        -11   -1    0    0    0    0  0.00000000000E+00  0.00000000000E+00  0.45593999997E+02  0.45594000000E+02  0.51100000000E-03 0.  1.
         11   -1    0    0    0    0 -0.00000000000E+00 -0.00000000000E+00 -0.45593999997E+02  0.45594000000E+02  0.51100000000E-03 0. -1.
         23    2    1    2    0    0  0.00000000000E+00 -0.53290705182E-14  0.00000000000E+00  0.91188000000E+02  0.91188000000E+02 0.  0.
    9900012    2    3    3    0    0  0.25843836145E+02  0.10874135958E+02 -0.23866902966E+02  0.54367085336E+02  0.40000002639E+02 0.  0.
        -12    1    3    3    0    0 -0.25843836145E+02 -0.10874135958E+02  0.23866902966E+02  0.36820914664E+02  0.00000000000E+00 0.  1.
         11    1    4    4    0    0  0.37452825803E+01 -0.42097752502E+01 -0.10021754230E+02  0.11497169537E+02  0.51100000000E-03 0. -1.
        -11    1    4    4    0    0  0.77684221011E+01 -0.42000316586E+01  0.68371439420E+01  0.11168490740E+02  0.51100000000E-03 0.  1.
         12    1    4    4    0    0  0.14330131464E+02  0.19283942867E+02 -0.20682292679E+02  0.31701425058E+02  0.00000000000E+00 0. -1.
</event>
<event>
 8    1  0.2502431E-006  0.9118800E+02  0.7816164E-02  0.1184000E+00
        -11   -1    0    0    0    0  0.00000000000E+00  0.00000000000E+00  0.45593999997E+02  0.45594000000E+02  0.51100000000E-03 0. -1.
         11   -1    0    0    0    0 -0.00000000000E+00 -0.00000000000E+00 -0.45593999997E+02  0.45594000000E+02  0.51100000000E-03 0.  1.
         23    2    1    2    0    0  0.00000000000E+00  0.00000000000E+00  0.00000000000E+00  0.91188000000E+02  0.91188000000E+02 0.  0.
    9900012    2    3    3    0    0 -0.21193863909E+02  0.26960963371E+02 -0.13405489858E+02  0.54367074270E+02  0.39999977414E+02 0.  0.
         12    1    3    3    0    0  0.21193863909E+02 -0.26960963371E+02  0.13405489858E+02  0.36820925730E+02  0.00000000000E+00 0. -1.
         11    1    4    4    0    0  0.35733381167E+01  0.11982025441E+02  0.28599023481E+01  0.12826407161E+02  0.51100000000E-03 0. -1.
        -11    1    4    4    0    0 -0.24346117979E+01  0.15576264835E+02 -0.83438746757E+01  0.17837253311E+02  0.51100000000E-03 0.  1.
         12    1    4    4    0    0 -0.22332590227E+02 -0.59732690517E+00 -0.79215175306E+01  0.23703413798E+02  0.00000000000E+00 0. -1.
</event>
<event>
 8    1  0.2502431E-006  0.9118800E+02  0.7816164E-02  0.1184000E+00
        -11   -1    0    0    0    0  0.00000000000E+00  0.00000000000E+00  0.45593999997E+02  0.45594000000E+02  0.51100000000E-03 0.  1.
         11   -1    0    0    0    0 -0.00000000000E+00 -0.00000000000E+00 -0.45593999997E+02  0.45594000000E+02  0.51100000000E-03 0. -1.
         23    2    1    2    0    0  0.35527136788E-14  0.17763568394E-14 -0.35527136788E-14  0.91188000000E+02  0.91188000000E+02 0.  0.
    9900012    2    3    3    0    0 -0.30065979174E+02  0.11749560732E+02 -0.17713400197E+02  0.54367084373E+02  0.40000000446E+02 0.  0.
         12    1    3    3    0    0  0.30065979174E+02 -0.11749560732E+02  0.17713400197E+02  0.36820915627E+02  0.00000000000E+00 0. -1.
         11    1    4    4    0    0 -0.57198137805E+01 -0.39038298325E+01 -0.17899664808E+02  0.19192554743E+02  0.51100000000E-03 0. -1.
        -11    1    4    4    0    0 -0.26693806825E+02  0.10104336619E+02  0.26501950719E+01  0.28664969484E+02  0.51100000000E-03 0.  1.
         12    1    4    4    0    0  0.23476414325E+01  0.55490539456E+01 -0.24639304605E+01  0.65095601465E+01  0.00000000000E+00 0. -1.
</event>
<event>
 8    1  0.2502431E-006  0.9118800E+02  0.7816164E-02  0.1184000E+00
        -11   -1    0    0    0    0  0.00000000000E+00  0.00000000000E+00  0.45593999997E+02  0.45594000000E+02  0.51100000000E-03 0. -1.
         11   -1    0    0    0    0 -0.00000000000E+00 -0.00000000000E+00 -0.45593999997E+02  0.45594000000E+02  0.51100000000E-03 0.  1.
         23    2    1    2    0    0  0.17763568394E-14  0.00000000000E+00  0.00000000000E+00  0.91188000000E+02  0.91188000000E+02 0.  0.
    9900012    2    3    3    0    0 -0.10148925743E+02  0.34056250444E+02  0.96412682166E+01  0.54367042097E+02  0.39999904069E+02 0.  0.
         12    1    3    3    0    0  0.10148925743E+02 -0.34056250444E+02 -0.96412682166E+01  0.36820957903E+02  0.00000000000E+00 0. -1.
         11    1    4    4    0    0  0.33143787351E+01 -0.19784007010E+01  0.98676080170E+01  0.10595700259E+02  0.51100000000E-03 0. -1.
        -11    1    4    4    0    0 -0.32796783440E-01  0.27409249252E+02  0.27059909678E+01  0.27542519993E+02  0.51100000000E-03 0.  1.
         12    1    4    4    0    0 -0.13430507695E+02  0.86254018931E+01 -0.29323307681E+01  0.16228821846E+02  0.00000000000E+00 0. -1.
</event>
<event>
 8    1  0.2502431E-006  0.9118800E+02  0.7816164E-02  0.1184000E+00
        -11   -1    0    0    0    0  0.00000000000E+00  0.00000000000E+00  0.45593999997E+02  0.45594000000E+02  0.51100000000E-03 0. -1.
         11   -1    0    0    0    0 -0.00000000000E+00 -0.00000000000E+00 -0.45593999997E+02  0.45594000000E+02  0.51100000000E-03 0.  1.
         23    2    1    2    0    0 -0.71054273576E-14 -0.35527136788E-14  0.88817841970E-15  0.91188000000E+02  0.91188000000E+02 0.  0.
    9900012    2    3    3    0    0 -0.35772526902E+02 -0.72690110508E+01 -0.48238309793E+01  0.54367061013E+02  0.39999947190E+02 0.  0.
        -12    1    3    3    0    0  0.35772526902E+02  0.72690110508E+01  0.48238309793E+01  0.36820938987E+02  0.00000000000E+00 0.  1.
         11    1    4    4    0    0 -0.14134881670E+02 -0.84571411108E+01 -0.10345742299E+01  0.16504195215E+02  0.51100000000E-03 0. -1.
        -11    1    4    4    0    0 -0.74178024779E+01  0.10849120552E+02 -0.12892274060E+02  0.18410267273E+02  0.51100000000E-03 0.  1.
        -12    1    4    4    0    0 -0.14219842754E+02 -0.96609904917E+01  0.91030173107E+01  0.19452598526E+02  0.00000000000E+00 0.  1.
</event>
<event>
 8    1  0.2502431E-006  0.9118800E+02  0.7816164E-02  0.1184000E+00
        -11   -1    0    0    0    0  0.00000000000E+00  0.00000000000E+00  0.45593999997E+02  0.45594000000E+02  0.51100000000E-03 0.  1.
         11   -1    0    0    0    0 -0.00000000000E+00 -0.00000000000E+00 -0.45593999997E+02  0.45594000000E+02  0.51100000000E-03 0. -1.
         23    2    1    2    0    0  0.00000000000E+00  0.71054273576E-14  0.00000000000E+00  0.91188000000E+02  0.91188000000E+02 0.  0.
    9900012    2    3    3    0    0  0.19909408162E+02  0.30441445108E+02  0.57193244745E+01  0.54367125675E+02  0.40000094601E+02 0.  0.
         12    1    3    3    0    0 -0.19909408162E+02 -0.30441445108E+02 -0.57193244745E+01  0.36820874325E+02  0.00000000000E+00 0. -1.
         11    1    4    4    0    0  0.11631405839E+02 -0.61595584508E+01 -0.49489127543E+01  0.14061347724E+02  0.51100000000E-03 0. -1.
        -11    1    4    4    0    0  0.42206712988E+01  0.13643672270E+02  0.91118629697E+01  0.16940776436E+02  0.51100000000E-03 0.  1.
         12    1    4    4    0    0  0.40573310244E+01  0.22957331289E+02  0.15563742591E+01  0.23365001515E+02  0.00000000000E+00 0. -1.
</event>
<event>
 8    1  0.2502431E-006  0.9118800E+02  0.7816164E-02  0.1184000E+00
        -11   -1    0    0    0    0  0.00000000000E+00  0.00000000000E+00  0.45593999997E+02  0.45594000000E+02  0.51100000000E-03 0. -1.
         11   -1    0    0    0    0 -0.00000000000E+00 -0.00000000000E+00 -0.45593999997E+02  0.45594000000E+02  0.51100000000E-03 0.  1.
         23    2    1    2    0    0  0.00000000000E+00  0.00000000000E+00  0.00000000000E+00  0.91188000000E+02  0.91188000000E+02 0.  0.
    9900012    2    3    3    0    0  0.34950819489E+01  0.45684431780E+01  0.36368849853E+02  0.54367088678E+02  0.40000010260E+02 0.  0.
        -12    1    3    3    0    0 -0.34950819489E+01 -0.45684431780E+01 -0.36368849853E+02  0.36820911322E+02  0.00000000000E+00 0.  1.
         11    1    4    4    0    0  0.90584885980E+01  0.38148155852E+01  0.31478444871E+02  0.32977288024E+02  0.51100000000E-03 0. -1.
        -11    1    4    4    0    0  0.51152459148E+01  0.66948966223E+01  0.63258288081E+00  0.84491149190E+01  0.51100000000E-03 0.  1.
         12    1    4    4    0    0 -0.10678652564E+02 -0.59412690295E+01  0.42578221012E+01  0.12940685736E+02  0.00000000000E+00 0. -1.
</event>
<event>
 8    1  0.2502431E-006  0.9118800E+02  0.7816164E-02  0.1184000E+00
        -11   -1    0    0    0    0  0.00000000000E+00  0.00000000000E+00  0.45593999997E+02  0.45594000000E+02  0.51100000000E-03 0.  1.
         11   -1    0    0    0    0 -0.00000000000E+00 -0.00000000000E+00 -0.45593999997E+02  0.45594000000E+02  0.51100000000E-03 0. -1.
         23    2    1    2    0    0  0.00000000000E+00  0.00000000000E+00  0.00000000000E+00  0.91188000000E+02  0.91188000000E+02 0.  0.
    9900012    2    3    3    0    0  0.30004290935E+02  0.20507831796E+02 -0.59119035440E+01  0.54367092312E+02  0.40000018543E+02 0.  0.
        -12    1    3    3    0    0 -0.30004290935E+02 -0.20507831796E+02  0.59119035440E+01  0.36820907688E+02  0.00000000000E+00 0.  1.
         11    1    4    4    0    0  0.14824379192E+02 -0.10393591695E+01  0.22171633905E+00  0.14862423904E+02  0.51100000000E-03 0. -1.
        -11    1    4    4    0    0  0.42758577309E+01  0.34441624484E+01  0.11002836969E+02  0.12296651412E+02  0.51100000000E-03 0.  1.
         12    1    4    4    0    0  0.10904054012E+02  0.18103028517E+02 -0.17136456853E+02  0.27208016996E+02  0.00000000000E+00 0. -1.
</event>
<event>
 8    1  0.2502431E-006  0.9118800E+02  0.7816164E-02  0.1184000E+00
        -11   -1    0    0    0    0  0.00000000000E+00  0.00000000000E+00  0.45593999997E+02  0.45594000000E+02  0.51100000000E-03 0. -1.
         11   -1    0    0    0    0 -0.00000000000E+00 -0.00000000000E+00 -0.45593999997E+02  0.45594000000E+02  0.51100000000E-03 0.  1.
         23    2    1    2    0    0 -0.17763568394E-14  0.00000000000E+00  0.00000000000E+00  0.91188000000E+02  0.91188000000E+02 0.  0.
    9900012    2    3    3    0    0  0.12957220118E+02  0.25270496792E+02  0.23436971735E+02  0.54367092822E+02  0.40000019706E+02 0.  0.
        -12    1    3    3    0    0 -0.12957220118E+02 -0.25270496792E+02 -0.23436971735E+02  0.36820907178E+02  0.00000000000E+00 0.  1.
         11    1    4    4    0    0 -0.73327880711E+01  0.20689026553E+02  0.16438399553E+02  0.27423103047E+02  0.51100000000E-03 0. -1.
        -11    1    4    4    0    0  0.99369248493E+01 -0.47648008754E+01  0.68880795353E+01  0.12995824052E+02  0.51100000000E-03 0.  1.
         12    1    4    4    0    0  0.10353083340E+02  0.93462711145E+01  0.11049264644E+00  0.13948165723E+02  0.00000000000E+00 0. -1.
</event>
<event>
 8    1  0.2502431E-006  0.9118800E+02  0.7816164E-02  0.1184000E+00
        -11   -1    0    0    0    0  0.00000000000E+00  0.00000000000E+00  0.45593999997E+02  0.45594000000E+02  0.51100000000E-03 0.  1.
         11   -1    0    0    0    0 -0.00000000000E+00 -0.00000000000E+00 -0.45593999997E+02  0.45594000000E+02  0.51100000000E-03 0. -1.
         23    2    1    2    0    0  0.00000000000E+00  0.00000000000E+00  0.00000000000E+00  0.91188000000E+02  0.91188000000E+02 0.  0.
    9900012    2    3    3    0    0 -0.26805689730E+02 -0.22204193292E+02  0.12008708761E+02  0.54367078124E+02  0.39999986200E+02 0.  0.
         12    1    3    3    0    0  0.26805689730E+02  0.22204193292E+02 -0.12008708761E+02  0.36820921876E+02  0.00000000000E+00 0. -1.
         11    1    4    4    0    0  0.22546584798E+01 -0.21467146442E+01  0.10561243097E+01  0.32874408653E+01  0.51100000000E-03 0. -1.
        -11    1    4    4    0    0 -0.30930014910E+02 -0.81822239134E+01 -0.36090363017E+01  0.32196890437E+02  0.51100000000E-03 0.  1.
        -12    1    4    4    0    0  0.18696667000E+01 -0.11875254735E+02  0.14561620753E+02  0.18882746822E+02  0.00000000000E+00 0.  1.
</event>
<event>
 8    1  0.2502431E-006  0.9118800E+02  0.7816164E-02  0.1184000E+00
        -11   -1    0    0    0    0  0.00000000000E+00  0.00000000000E+00  0.45593999997E+02  0.45594000000E+02  0.51100000000E-03 0.  1.
         11   -1    0    0    0    0 -0.00000000000E+00 -0.00000000000E+00 -0.45593999997E+02  0.45594000000E+02  0.51100000000E-03 0. -1.
         23    2    1    2    0    0  0.00000000000E+00  0.00000000000E+00  0.21094237468E-14  0.91188000000E+02  0.91188000000E+02 0.  0.
    9900012    2    3    3    0    0  0.34189501007E+02 -0.13637434187E+02 -0.93822255191E+00  0.54367056885E+02  0.39999937781E+02 0.  0.
         12    1    3    3    0    0 -0.34189501007E+02  0.13637434187E+02  0.93822255191E+00  0.36820943115E+02  0.00000000000E+00 0. -1.
         11    1    4    4    0    0  0.17647430247E+02  0.73758352647E+00 -0.51823093461E+01  0.18407394009E+02  0.51100000000E-03 0. -1.
        -11    1    4    4    0    0  0.89529358266E+01 -0.99312152872E+01  0.16271143645E+02  0.21060251964E+02  0.51100000000E-03 0.  1.
        -12    1    4    4    0    0  0.75891349332E+01 -0.44438024263E+01 -0.12027056851E+02  0.14899410912E+02  0.00000000000E+00 0.  1.
</event>
<event>
 8    1  0.2502431E-006  0.9118800E+02  0.7816164E-02  0.1184000E+00
        -11   -1    0    0    0    0  0.00000000000E+00  0.00000000000E+00  0.45593999997E+02  0.45594000000E+02  0.51100000000E-03 0. -1.
         11   -1    0    0    0    0 -0.00000000000E+00 -0.00000000000E+00 -0.45593999997E+02  0.45594000000E+02  0.51100000000E-03 0.  1.
         23    2    1    2    0    0  0.00000000000E+00  0.00000000000E+00  0.17763568394E-14  0.91188000000E+02  0.91188000000E+02 0.  0.
    9900012    2    3    3    0    0  0.12358266438E+02 -0.34439338664E+02  0.41212583941E+01  0.54367087902E+02  0.40000008490E+02 0.  0.
         12    1    3    3    0    0 -0.12358266438E+02  0.34439338664E+02 -0.41212583941E+01  0.36820912098E+02  0.00000000000E+00 0. -1.
         11    1    4    4    0    0  0.14040269059E+01  0.27214044588E+01 -0.40675982105E+01  0.50914329264E+01  0.51100000000E-03 0. -1.
        -11    1    4    4    0    0  0.12825099154E+01 -0.13149403236E+02 -0.10887519730E+02  0.17119863413E+02  0.51100000000E-03 0.  1.
         12    1    4    4    0    0  0.96717296165E+01 -0.24011339887E+02  0.19076376335E+02  0.32155791563E+02  0.00000000000E+00 0. -1.
</event>
<event>
 8    1  0.2502431E-006  0.9118800E+02  0.7816164E-02  0.1184000E+00
        -11   -1    0    0    0    0  0.00000000000E+00  0.00000000000E+00  0.45593999997E+02  0.45594000000E+02  0.51100000000E-03 0.  1.
         11   -1    0    0    0    0 -0.00000000000E+00 -0.00000000000E+00 -0.45593999997E+02  0.45594000000E+02  0.51100000000E-03 0. -1.
         23    2    1    2    0    0  0.00000000000E+00  0.00000000000E+00  0.00000000000E+00  0.91188000000E+02  0.91188000000E+02 0.  0.
    9900012    2    3    3    0    0  0.13535003705E+02  0.33031014253E+02 -0.90296688819E+01  0.54367093601E+02  0.40000021483E+02 0.  0.
         12    1    3    3    0    0 -0.13535003705E+02 -0.33031014253E+02  0.90296688819E+01  0.36820906399E+02  0.00000000000E+00 0. -1.
         11    1    4    4    0    0  0.84062408607E+01  0.45190527736E+01 -0.47788038441E+01  0.10673504102E+02  0.51100000000E-03 0. -1.
        -11    1    4    4    0    0  0.13607184449E+02  0.23077586688E+02 -0.13518180025E+02  0.30007860094E+02  0.51100000000E-03 0.  1.
         12    1    4    4    0    0 -0.84784216041E+01  0.54343747919E+01  0.92673149876E+01  0.13685729405E+02  0.00000000000E+00 0. -1.
</event>
<event>
 8    1  0.2502431E-006  0.9118800E+02  0.7816164E-02  0.1184000E+00
        -11   -1    0    0    0    0  0.00000000000E+00  0.00000000000E+00  0.45593999997E+02  0.45594000000E+02  0.51100000000E-03 0.  1.
         11   -1    0    0    0    0 -0.00000000000E+00 -0.00000000000E+00 -0.45593999997E+02  0.45594000000E+02  0.51100000000E-03 0. -1.
         23    2    1    2    0    0 -0.35527136788E-14  0.00000000000E+00  0.35527136788E-14  0.91188000000E+02  0.91188000000E+02 0.  0.
    9900012    2    3    3    0    0  0.23230725005E+02  0.10782493364E+02 -0.26454736207E+02  0.54367057383E+02  0.39999938916E+02 0.  0.
        -12    1    3    3    0    0 -0.23230725005E+02 -0.10782493364E+02  0.26454736207E+02  0.36820942617E+02  0.00000000000E+00 0.  1.
         11    1    4    4    0    0  0.20585028134E+02  0.85243424609E+01  0.54525815842E+00  0.22286881890E+02  0.51100000000E-03 0. -1.
        -11    1    4    4    0    0 -0.54509175667E+00  0.37410767834E+01  0.95927138156E+00  0.39003823360E+01  0.51100000000E-03 0.  1.
         12    1    4    4    0    0  0.31907886281E+01 -0.14829258803E+01 -0.27959265747E+02  0.28179793157E+02  0.00000000000E+00 0. -1.
</event>
<event>
 8    1  0.2502431E-006  0.9118800E+02  0.7816164E-02  0.1184000E+00
        -11   -1    0    0    0    0  0.00000000000E+00  0.00000000000E+00  0.45593999997E+02  0.45594000000E+02  0.51100000000E-03 0. -1.
         11   -1    0    0    0    0 -0.00000000000E+00 -0.00000000000E+00 -0.45593999997E+02  0.45594000000E+02  0.51100000000E-03 0.  1.
         23    2    1    2    0    0  0.22204460493E-15  0.35527136788E-14  0.71054273576E-14  0.91188000000E+02  0.91188000000E+02 0.  0.
    9900012    2    3    3    0    0 -0.46870119613E+00  0.20863333062E+02  0.30336148111E+02  0.54367078916E+02  0.39999988004E+02 0.  0.
        -12    1    3    3    0    0  0.46870119613E+00 -0.20863333062E+02 -0.30336148111E+02  0.36820921084E+02  0.00000000000E+00 0.  1.
         11    1    4    4    0    0  0.71897002694E+01 -0.18887783759E+01  0.12188292087E+02  0.14276334893E+02  0.51100000000E-03 0. -1.
        -11    1    4    4    0    0  0.80948139896E+00 -0.20092212278E+01 -0.48120692047E+01  0.52771432016E+01  0.51100000000E-03 0.  1.
        -12    1    4    4    0    0 -0.84678828645E+01  0.24761332666E+02  0.22959925229E+02  0.34813600821E+02  0.00000000000E+00 0.  1.
</event>
<event>
 8    1  0.2502431E-006  0.9118800E+02  0.7816164E-02  0.1184000E+00
        -11   -1    0    0    0    0  0.00000000000E+00  0.00000000000E+00  0.45593999997E+02  0.45594000000E+02  0.51100000000E-03 0. -1.
         11   -1    0    0    0    0 -0.00000000000E+00 -0.00000000000E+00 -0.45593999997E+02  0.45594000000E+02  0.51100000000E-03 0.  1.
         23    2    1    2    0    0  0.00000000000E+00 -0.88817841970E-15  0.00000000000E+00  0.91188000000E+02  0.91188000000E+02 0.  0.
    9900012    2    3    3    0    0 -0.32897209317E+02  0.49507950113E+01 -0.15781561918E+02  0.54366885831E+02  0.39999547827E+02 0.  0.
         12    1    3    3    0    0  0.32897209317E+02 -0.49507950113E+01  0.15781561918E+02  0.36821114169E+02  0.00000000000E+00 0. -1.
         11    1    4    4    0    0  0.39836041699E+01  0.20415532643E+01 -0.13617348411E+02  0.14334197568E+02  0.51100000000E-03 0.  1.
        -11    1    4    4    0    0 -0.24157479157E+02  0.55413318767E+01 -0.76363705680E+01  0.25934616131E+02  0.51100000000E-03 0. -1.
        -12    1    4    4    0    0 -0.12723334330E+02 -0.26320901296E+01  0.54721570612E+01  0.14098072132E+02  0.00000000000E+00 0.  1.
</event>
<event>
 8    1  0.2502431E-006  0.9118800E+02  0.7816164E-02  0.1184000E+00
        -11   -1    0    0    0    0  0.00000000000E+00  0.00000000000E+00  0.45593999997E+02  0.45594000000E+02  0.51100000000E-03 0.  1.
         11   -1    0    0    0    0 -0.00000000000E+00 -0.00000000000E+00 -0.45593999997E+02  0.45594000000E+02  0.51100000000E-03 0. -1.
         23    2    1    2    0    0 -0.35527136788E-14  0.00000000000E+00  0.35527136788E-14  0.91188000000E+02  0.91188000000E+02 0.  0.
    9900012    2    3    3    0    0  0.25474695797E+02 -0.16300228312E+02 -0.21002871737E+02  0.54367106608E+02  0.40000051135E+02 0.  0.
        -12    1    3    3    0    0 -0.25474695797E+02  0.16300228312E+02  0.21002871737E+02  0.36820893392E+02  0.00000000000E+00 0.  1.
         11    1    4    4    0    0  0.15314603275E+02  0.44096934090E+00 -0.39518109301E+01  0.15822399860E+02  0.51100000000E-03 0. -1.
        -11    1    4    4    0    0  0.18597529995E+01  0.31695683104E+01  0.59610651224E+01  0.70027953096E+01  0.51100000000E-03 0.  1.
         12    1    4    4    0    0  0.83003395221E+01 -0.19910765963E+02 -0.23012125930E+02  0.31541911439E+02  0.00000000000E+00 0. -1.
</event>
<event>
 8    1  0.2502431E-006  0.9118800E+02  0.7816164E-02  0.1184000E+00
        -11   -1    0    0    0    0  0.00000000000E+00  0.00000000000E+00  0.45593999997E+02  0.45594000000E+02  0.51100000000E-03 0.  1.
         11   -1    0    0    0    0 -0.00000000000E+00 -0.00000000000E+00 -0.45593999997E+02  0.45594000000E+02  0.51100000000E-03 0. -1.
         23    2    1    2    0    0  0.88817841970E-15  0.00000000000E+00  0.00000000000E+00  0.91188000000E+02  0.91188000000E+02 0.  0.
    9900012    2    3    3    0    0 -0.46331663598E+01 -0.10941132370E+02 -0.34851200336E+02  0.54367071536E+02  0.39999971181E+02 0.  0.
        -12    1    3    3    0    0  0.46331663598E+01  0.10941132370E+02  0.34851200336E+02  0.36820928464E+02  0.00000000000E+00 0.  1.
         11    1    4    4    0    0  0.10653727299E+02 -0.31911484696E+01 -0.66323355993E+01  0.12948869050E+02  0.51100000000E-03 0. -1.
        -11    1    4    4    0    0 -0.50058964043E+01 -0.13769186306E+02 -0.52857374295E+01  0.15575253153E+02  0.51100000000E-03 0.  1.
        -12    1    4    4    0    0 -0.10280997254E+02  0.60192024057E+01 -0.22933127307E+02  0.25842949333E+02  0.00000000000E+00 0.  1.
</event>
<event>
 8    1  0.2502431E-006  0.9118800E+02  0.7816164E-02  0.1184000E+00
        -11   -1    0    0    0    0  0.00000000000E+00  0.00000000000E+00  0.45593999997E+02  0.45594000000E+02  0.51100000000E-03 0. -1.
         11   -1    0    0    0    0 -0.00000000000E+00 -0.00000000000E+00 -0.45593999997E+02  0.45594000000E+02  0.51100000000E-03 0.  1.
         23    2    1    2    0    0  0.00000000000E+00  0.00000000000E+00  0.88817841970E-15  0.91188000000E+02  0.91188000000E+02 0.  0.
    9900012    2    3    3    0    0 -0.33540493274E+02 -0.14846996266E+02 -0.32221987440E+01  0.54367074537E+02  0.39999978023E+02 0.  0.
         12    1    3    3    0    0  0.33540493274E+02  0.14846996266E+02  0.32221987440E+01  0.36820925463E+02  0.00000000000E+00 0. -1.
         11    1    4    4    0    0  0.77711383786E+00 -0.40665620375E+01  0.96693529244E+01  0.10518422836E+02  0.51100000000E-03 0. -1.
        -11    1    4    4    0    0 -0.88682658683E+01  0.66222454151E+01 -0.29400109447E+01  0.11451809397E+02  0.51100000000E-03 0.  1.
        -12    1    4    4    0    0 -0.25449341243E+02 -0.17402679644E+02 -0.99515407237E+01  0.32396842304E+02  0.00000000000E+00 0.  1.
</event>
<event>
 8    1  0.2502431E-006  0.9118800E+02  0.7816164E-02  0.1184000E+00
        -11   -1    0    0    0    0  0.00000000000E+00  0.00000000000E+00  0.45593999997E+02  0.45594000000E+02  0.51100000000E-03 0. -1.
         11   -1    0    0    0    0 -0.00000000000E+00 -0.00000000000E+00 -0.45593999997E+02  0.45594000000E+02  0.51100000000E-03 0.  1.
         23    2    1    2    0    0 -0.35527136788E-14  0.35527136788E-14  0.17763568394E-14  0.91188000000E+02  0.91188000000E+02 0.  0.
    9900012    2    3    3    0    0 -0.19120054171E+02  0.30281273093E+02  0.85584401188E+01  0.54367097391E+02  0.40000030123E+02 0.  0.
        -12    1    3    3    0    0  0.19120054171E+02 -0.30281273093E+02 -0.85584401188E+01  0.36820902609E+02  0.00000000000E+00 0.  1.
         11    1    4    4    0    0 -0.46804332787E+00  0.14059933160E+02  0.15025894436E+02  0.20583446963E+02  0.51100000000E-03 0. -1.
        -11    1    4    4    0    0 -0.95049430226E+01  0.17048579063E+02 -0.12142120961E+02  0.22987585598E+02  0.51100000000E-03 0.  1.
        -12    1    4    4    0    0 -0.91470678202E+01 -0.82723912980E+00  0.56746666440E+01  0.10796064830E+02  0.00000000000E+00 0.  1.
</event>
<event>
 8    1  0.2502431E-006  0.9118800E+02  0.7816164E-02  0.1184000E+00
        -11   -1    0    0    0    0  0.00000000000E+00  0.00000000000E+00  0.45593999997E+02  0.45594000000E+02  0.51100000000E-03 0. -1.
         11   -1    0    0    0    0 -0.00000000000E+00 -0.00000000000E+00 -0.45593999997E+02  0.45594000000E+02  0.51100000000E-03 0.  1.
         23    2    1    2    0    0  0.00000000000E+00  0.00000000000E+00  0.17763568394E-14  0.91188000000E+02  0.91188000000E+02 0.  0.
    9900012    2    3    3    0    0  0.27332430781E+02 -0.19862141465E+02  0.14636063889E+02  0.54367071140E+02  0.39999970277E+02 0.  0.
        -12    1    3    3    0    0 -0.27332430781E+02  0.19862141465E+02 -0.14636063889E+02  0.36820928860E+02  0.00000000000E+00 0.  1.
         11    1    4    4    0    0  0.90119911336E+01 -0.31061011788E+01  0.21750474153E+01  0.97772532055E+01  0.51100000000E-03 0. -1.
        -11    1    4    4    0    0  0.13663551070E+02 -0.18769071959E+02  0.23132835881E+02  0.32773446359E+02  0.51100000000E-03 0.  1.
        -12    1    4    4    0    0  0.46568885771E+01  0.20130316729E+01 -0.10671819408E+02  0.11816371576E+02  0.00000000000E+00 0.  1.
</event>
<event>
 8    1  0.2502431E-006  0.9118800E+02  0.7816164E-02  0.1184000E+00
        -11   -1    0    0    0    0  0.00000000000E+00  0.00000000000E+00  0.45593999997E+02  0.45594000000E+02  0.51100000000E-03 0. -1.
         11   -1    0    0    0    0 -0.00000000000E+00 -0.00000000000E+00 -0.45593999997E+02  0.45594000000E+02  0.51100000000E-03 0.  1.
         23    2    1    2    0    0  0.17763568394E-14  0.00000000000E+00 -0.35527136788E-14  0.91188000000E+02  0.91188000000E+02 0.  0.
    9900012    2    3    3    0    0 -0.13367902511E+02 -0.15311639782E+02  0.30702321175E+02  0.54367086705E+02  0.40000005761E+02 0.  0.
        -12    1    3    3    0    0  0.13367902511E+02  0.15311639782E+02 -0.30702321175E+02  0.36820913295E+02  0.00000000000E+00 0.  1.
         11    1    4    4    0    0 -0.17276075975E+02 -0.15373451933E+02  0.28223691418E+02  0.36488115640E+02  0.51100000000E-03 0. -1.
        -11    1    4    4    0    0 -0.57371350832E+01  0.13648438104E+01 -0.30981743827E+01  0.66615465439E+01  0.51100000000E-03 0.  1.
         12    1    4    4    0    0  0.96453085473E+01 -0.13030316593E+01  0.55768041396E+01  0.11217424521E+02  0.00000000000E+00 0. -1.
</event>
<event>
 8    1  0.2502431E-006  0.9118800E+02  0.7816164E-02  0.1184000E+00
        -11   -1    0    0    0    0  0.00000000000E+00  0.00000000000E+00  0.45593999997E+02  0.45594000000E+02  0.51100000000E-03 0. -1.
         11   -1    0    0    0    0 -0.00000000000E+00 -0.00000000000E+00 -0.45593999997E+02  0.45594000000E+02  0.51100000000E-03 0.  1.
         23    2    1    2    0    0 -0.35527136788E-14  0.35527136788E-14  0.00000000000E+00  0.91188000000E+02  0.91188000000E+02 0.  0.
    9900012    2    3    3    0    0 -0.22238722584E+02 -0.28790435024E+02  0.56859542143E+01  0.54367081945E+02  0.39999994911E+02 0.  0.
         12    1    3    3    0    0  0.22238722584E+02  0.28790435024E+02 -0.56859542143E+01  0.36820918055E+02  0.00000000000E+00 0. -1.
         11    1    4    4    0    0 -0.64243539730E+01 -0.21553987821E+01  0.22761210750E+00  0.67801088054E+01  0.51100000000E-03 0. -1.
        -11    1    4    4    0    0 -0.11957230415E+02  0.66107198053E+01 -0.79171175173E-01  0.13663207672E+02  0.51100000000E-03 0.  1.
         12    1    4    4    0    0 -0.38571381964E+01 -0.33245756047E+02  0.55375132820E+01  0.33923765468E+02  0.00000000000E+00 0. -1.
</event>
<event>
 8    1  0.2502431E-006  0.9118800E+02  0.7816164E-02  0.1184000E+00
        -11   -1    0    0    0    0  0.00000000000E+00  0.00000000000E+00  0.45593999997E+02  0.45594000000E+02  0.51100000000E-03 0.  1.
         11   -1    0    0    0    0 -0.00000000000E+00 -0.00000000000E+00 -0.45593999997E+02  0.45594000000E+02  0.51100000000E-03 0. -1.
         23    2    1    2    0    0  0.00000000000E+00  0.88817841970E-15 -0.71054273576E-14  0.91188000000E+02  0.91188000000E+02 0.  0.
    9900012    2    3    3    0    0  0.13872405666E+02  0.22884011860E+01 -0.34030944209E+02  0.54367006223E+02  0.39999822287E+02 0.  0.
        -12    1    3    3    0    0 -0.13872405666E+02 -0.22884011860E+01  0.34030944209E+02  0.36820993777E+02  0.00000000000E+00 0.  1.
         11    1    4    4    0    0  0.33128147429E+01 -0.10032483371E+02 -0.20688421337E+02  0.23230071928E+02  0.51100000000E-03 0. -1.
        -11    1    4    4    0    0 -0.46063651439E+01 -0.26679412375E+01  0.10305323213E+01  0.54220390456E+01  0.51100000000E-03 0.  1.
        -12    1    4    4    0    0  0.15165956066E+02  0.14988825794E+02 -0.14373055194E+02  0.25714895250E+02  0.00000000000E+00 0.  1.
</event>
<event>
 8    1  0.2502431E-006  0.9118800E+02  0.7816164E-02  0.1184000E+00
        -11   -1    0    0    0    0  0.00000000000E+00  0.00000000000E+00  0.45593999997E+02  0.45594000000E+02  0.51100000000E-03 0. -1.
         11   -1    0    0    0    0 -0.00000000000E+00 -0.00000000000E+00 -0.45593999997E+02  0.45594000000E+02  0.51100000000E-03 0.  1.
         23    2    1    2    0    0  0.00000000000E+00  0.00000000000E+00  0.00000000000E+00  0.91188000000E+02  0.91188000000E+02 0.  0.
    9900012    2    3    3    0    0  0.14774636644E+02  0.43934012883E+01  0.33439317623E+02  0.54367084396E+02  0.40000000497E+02 0.  0.
        -12    1    3    3    0    0 -0.14774636644E+02 -0.43934012883E+01 -0.33439317623E+02  0.36820915604E+02  0.00000000000E+00 0.  1.
         11    1    4    4    0    0 -0.42985845849E+01  0.55486907248E+01  0.21829875279E+02  0.22930531026E+02  0.51100000000E-03 0. -1.
        -11    1    4    4    0    0  0.21695169790E+02  0.12031427885E+01  0.15111371761E+02  0.26466611070E+02  0.51100000000E-03 0.  1.
         12    1    4    4    0    0 -0.26219485609E+01 -0.23584322250E+01 -0.35019294171E+01  0.49699422992E+01  0.00000000000E+00 0. -1.
</event>
<event>
 8    1  0.2502431E-006  0.9118800E+02  0.7816164E-02  0.1184000E+00
        -11   -1    0    0    0    0  0.00000000000E+00  0.00000000000E+00  0.45593999997E+02  0.45594000000E+02  0.51100000000E-03 0.  1.
         11   -1    0    0    0    0 -0.00000000000E+00 -0.00000000000E+00 -0.45593999997E+02  0.45594000000E+02  0.51100000000E-03 0. -1.
         23    2    1    2    0    0  0.00000000000E+00  0.00000000000E+00  0.00000000000E+00  0.91188000000E+02  0.91188000000E+02 0.  0.
    9900012    2    3    3    0    0  0.27536279805E+02 -0.19240294384E+02 -0.15077972863E+02  0.54367069823E+02  0.39999967274E+02 0.  0.
        -12    1    3    3    0    0 -0.27536279805E+02  0.19240294384E+02  0.15077972863E+02  0.36820930177E+02  0.00000000000E+00 0.  1.
         11    1    4    4    0    0  0.16545843371E+02 -0.21330781928E+02 -0.15354241912E+02  0.31056721261E+02  0.51100000000E-03 0. -1.
        -11    1    4    4    0    0  0.11242329857E+02 -0.75144957517E+01 -0.12558430940E+01  0.13580676315E+02  0.51100000000E-03 0.  1.
        -12    1    4    4    0    0 -0.25189342340E+00  0.96049832960E+01  0.15321121430E+01  0.97296722469E+01  0.00000000000E+00 0.  1.
</event>
<event>
 8    1  0.2502431E-006  0.9118800E+02  0.7816164E-02  0.1184000E+00
        -11   -1    0    0    0    0  0.00000000000E+00  0.00000000000E+00  0.45593999997E+02  0.45594000000E+02  0.51100000000E-03 0. -1.
         11   -1    0    0    0    0 -0.00000000000E+00 -0.00000000000E+00 -0.45593999997E+02  0.45594000000E+02  0.51100000000E-03 0.  1.
         23    2    1    2    0    0  0.00000000000E+00  0.88817841970E-15  0.71054273576E-14  0.91188000000E+02  0.91188000000E+02 0.  0.
    9900012    2    3    3    0    0  0.58168124400E+01  0.47460444020E+01 -0.36047467041E+02  0.54367080342E+02  0.39999991255E+02 0.  0.
         12    1    3    3    0    0 -0.58168124400E+01 -0.47460444020E+01  0.36047467041E+02  0.36820919658E+02  0.00000000000E+00 0. -1.
         11    1    4    4    0    0 -0.52053895153E+01  0.35933238721E+01  0.53910448867E+00  0.63481249489E+01  0.51100000000E-03 0. -1.
        -11    1    4    4    0    0  0.72136611614E+01  0.90885411365E+01 -0.13290629934E+01  0.11679250663E+02  0.51100000000E-03 0.  1.
        -12    1    4    4    0    0  0.38085407939E+01 -0.79358206066E+01 -0.35257508536E+02  0.36339704730E+02  0.00000000000E+00 0.  1.
</event>
<event>
 8    1  0.2502431E-006  0.9118800E+02  0.7816164E-02  0.1184000E+00
        -11   -1    0    0    0    0  0.00000000000E+00  0.00000000000E+00  0.45593999997E+02  0.45594000000E+02  0.51100000000E-03 0. -1.
         11   -1    0    0    0    0 -0.00000000000E+00 -0.00000000000E+00 -0.45593999997E+02  0.45594000000E+02  0.51100000000E-03 0.  1.
         23    2    1    2    0    0  0.00000000000E+00  0.00000000000E+00 -0.88817841970E-15  0.91188000000E+02  0.91188000000E+02 0.  0.
    9900012    2    3    3    0    0  0.12077817114E+02 -0.33878817448E+02  0.78821338220E+01  0.54367136736E+02  0.40000119817E+02 0.  0.
        -12    1    3    3    0    0 -0.12077817114E+02  0.33878817448E+02 -0.78821338220E+01  0.36820863264E+02  0.00000000000E+00 0.  1.
         11    1    4    4    0    0 -0.58013236037E+01 -0.11542237393E+02  0.10922881289E+02  0.16917090043E+02  0.51100000000E-03 0. -1.
        -11    1    4    4    0    0 -0.37948186911E+01  0.18158435460E+01  0.19151335284E+01  0.46223017399E+01  0.51100000000E-03 0.  1.
        -12    1    4    4    0    0  0.21673959409E+02 -0.24152423601E+02 -0.49558809958E+01  0.32827744953E+02  0.00000000000E+00 0.  1.
</event>
<event>
 8    1  0.2502431E-006  0.9118800E+02  0.7816164E-02  0.1184000E+00
        -11   -1    0    0    0    0  0.00000000000E+00  0.00000000000E+00  0.45593999997E+02  0.45594000000E+02  0.51100000000E-03 0. -1.
         11   -1    0    0    0    0 -0.00000000000E+00 -0.00000000000E+00 -0.45593999997E+02  0.45594000000E+02  0.51100000000E-03 0.  1.
         23    2    1    2    0    0  0.00000000000E+00  0.00000000000E+00 -0.17763568394E-14  0.91188000000E+02  0.91188000000E+02 0.  0.
    9900012    2    3    3    0    0  0.28309200227E+02  0.21539606625E+02 -0.95087097685E+01  0.54367068012E+02  0.39999963147E+02 0.  0.
        -12    1    3    3    0    0 -0.28309200227E+02 -0.21539606625E+02  0.95087097685E+01  0.36820931988E+02  0.00000000000E+00 0.  1.
         11    1    4    4    0    0  0.95824832529E+01 -0.71681111788E+01  0.13851910011E+01  0.12046765439E+02  0.51100000000E-03 0. -1.
        -11    1    4    4    0    0  0.17336262665E+01  0.12735251100E+02 -0.13753606927E+02  0.18824287088E+02  0.51100000000E-03 0.  1.
         12    1    4    4    0    0  0.16993090707E+02  0.15972466703E+02  0.28597061572E+01  0.23496015485E+02  0.00000000000E+00 0. -1.
</event>
<event>
 8    1  0.2502431E-006  0.9118800E+02  0.7816164E-02  0.1184000E+00
        -11   -1    0    0    0    0  0.00000000000E+00  0.00000000000E+00  0.45593999997E+02  0.45594000000E+02  0.51100000000E-03 0.  1.
         11   -1    0    0    0    0 -0.00000000000E+00 -0.00000000000E+00 -0.45593999997E+02  0.45594000000E+02  0.51100000000E-03 0. -1.
         23    2    1    2    0    0  0.00000000000E+00  0.88817841970E-15  0.00000000000E+00  0.91188000000E+02  0.91188000000E+02 0.  0.
    9900012    2    3    3    0    0  0.95754088921E+01 -0.44756674351E+01 -0.35271234284E+02  0.54367081729E+02  0.39999994417E+02 0.  0.
        -12    1    3    3    0    0 -0.95754088921E+01  0.44756674351E+01  0.35271234284E+02  0.36820918271E+02  0.00000000000E+00 0.  1.
         11    1    4    4    0    0  0.12832352760E+02  0.92637850704E+01 -0.37347226758E+01  0.16261461955E+02  0.51100000000E-03 0.  1.
        -11    1    4    4    0    0  0.58831581634E+01 -0.82684982146E+01 -0.19844642339E+02  0.22288773913E+02  0.51100000000E-03 0. -1.
        -12    1    4    4    0    0 -0.91401020310E+01 -0.54709542910E+01 -0.11691869269E+02  0.15816845861E+02  0.00000000000E+00 0.  1.
</event>
<event>
 8    1  0.2502431E-006  0.9118800E+02  0.7816164E-02  0.1184000E+00
        -11   -1    0    0    0    0  0.00000000000E+00  0.00000000000E+00  0.45593999997E+02  0.45594000000E+02  0.51100000000E-03 0.  1.
         11   -1    0    0    0    0 -0.00000000000E+00 -0.00000000000E+00 -0.45593999997E+02  0.45594000000E+02  0.51100000000E-03 0. -1.
         23    2    1    2    0    0 -0.17763568394E-14 -0.99920072216E-15  0.00000000000E+00  0.91188000000E+02  0.91188000000E+02 0.  0.
    9900012    2    3    3    0    0  0.11329524077E+02 -0.83421058327E+00  0.35024637158E+02  0.54367092472E+02  0.40000018908E+02 0.  0.
         12    1    3    3    0    0 -0.11329524077E+02  0.83421058327E+00 -0.35024637158E+02  0.36820907528E+02  0.00000000000E+00 0. -1.
         11    1    4    4    0    0 -0.99346041483E-01  0.44837638688E+01  0.10983681826E+02  0.11864032821E+02  0.51100000000E-03 0. -1.
        -11    1    4    4    0    0  0.84238434542E+01  0.60800280492E+01  0.28161103366E+02  0.30016255973E+02  0.51100000000E-03 0.  1.
         12    1    4    4    0    0  0.30050266645E+01 -0.11398002501E+02 -0.41201480330E+01  0.12486803678E+02  0.00000000000E+00 0. -1.
</event>
<event>
 8    1  0.2502431E-006  0.9118800E+02  0.7816164E-02  0.1184000E+00
        -11   -1    0    0    0    0  0.00000000000E+00  0.00000000000E+00  0.45593999997E+02  0.45594000000E+02  0.51100000000E-03 0.  1.
         11   -1    0    0    0    0 -0.00000000000E+00 -0.00000000000E+00 -0.45593999997E+02  0.45594000000E+02  0.51100000000E-03 0. -1.
         23    2    1    2    0    0  0.35527136788E-14  0.71054273576E-14 -0.22204460493E-15  0.91188000000E+02  0.91188000000E+02 0.  0.
    9900012    2    3    3    0    0  0.17217077510E+02  0.32546610831E+02  0.27285948441E+00  0.54367026535E+02  0.39999868592E+02 0.  0.
         12    1    3    3    0    0 -0.17217077510E+02 -0.32546610831E+02 -0.27285948441E+00  0.36820973465E+02  0.00000000000E+00 0. -1.
         11    1    4    4    0    0 -0.66587607836E+01  0.29111256751E+01  0.69002458748E+01  0.10021334306E+02  0.51100000000E-03 0. -1.
        -11    1    4    4    0    0 -0.27355808172E+01  0.84966018944E+01  0.22790004475E+01  0.92124638105E+01  0.51100000000E-03 0.  1.
         12    1    4    4    0    0  0.26611419111E+02  0.21138883262E+02 -0.89063868378E+01  0.35133228419E+02  0.00000000000E+00 0. -1.
</event>
<event>
 8    1  0.2502431E-006  0.9118800E+02  0.7816164E-02  0.1184000E+00
        -11   -1    0    0    0    0  0.00000000000E+00  0.00000000000E+00  0.45593999997E+02  0.45594000000E+02  0.51100000000E-03 0. -1.
         11   -1    0    0    0    0 -0.00000000000E+00 -0.00000000000E+00 -0.45593999997E+02  0.45594000000E+02  0.51100000000E-03 0.  1.
         23    2    1    2    0    0  0.00000000000E+00  0.00000000000E+00 -0.88817841970E-15  0.91188000000E+02  0.91188000000E+02 0.  0.
    9900012    2    3    3    0    0 -0.19926403048E+02  0.30335340896E+02 -0.62033349376E+01  0.54367138928E+02  0.40000124814E+02 0.  0.
         12    1    3    3    0    0  0.19926403048E+02 -0.30335340896E+02  0.62033349376E+01  0.36820861072E+02  0.00000000000E+00 0. -1.
         11    1    4    4    0    0  0.28342547708E+00  0.15371990390E+00 -0.93300646382E+01  0.93356342165E+01  0.51100000000E-03 0. -1.
        -11    1    4    4    0    0 -0.15025723772E+02  0.12731945520E+02 -0.10475654904E+02  0.22307266922E+02  0.51100000000E-03 0.  1.
         12    1    4    4    0    0 -0.51841047533E+01  0.17449675472E+02  0.13602384605E+02  0.22724237790E+02  0.00000000000E+00 0. -1.
</event>
<event>
 8    1  0.2502431E-006  0.9118800E+02  0.7816164E-02  0.1184000E+00
        -11   -1    0    0    0    0  0.00000000000E+00  0.00000000000E+00  0.45593999997E+02  0.45594000000E+02  0.51100000000E-03 0.  1.
         11   -1    0    0    0    0 -0.00000000000E+00 -0.00000000000E+00 -0.45593999997E+02  0.45594000000E+02  0.51100000000E-03 0. -1.
         23    2    1    2    0    0 -0.17763568394E-14 -0.11102230246E-15  0.71054273576E-14  0.91188000000E+02  0.91188000000E+02 0.  0.
    9900012    2    3    3    0    0 -0.10696781721E+02  0.51148995243E+00  0.35229183658E+02  0.54367107258E+02  0.40000052615E+02 0.  0.
         12    1    3    3    0    0  0.10696781721E+02 -0.51148995243E+00 -0.35229183658E+02  0.36820892742E+02  0.00000000000E+00 0. -1.
         11    1    4    4    0    0  0.90332167730E+00  0.57533696287E+01 -0.49815683432E+01  0.76637637983E+01  0.51100000000E-03 0. -1.
        -11    1    4    4    0    0  0.18289663361E+00  0.15575725432E+01 -0.18918959678E+01  0.24573876414E+01  0.51100000000E-03 0.  1.
        -12    1    4    4    0    0 -0.11783000032E+02 -0.67994522195E+01  0.42102647969E+02  0.44245955818E+02  0.00000000000E+00 0.  1.
</event>
<event>
 8    1  0.2502431E-006  0.9118800E+02  0.7816164E-02  0.1184000E+00
        -11   -1    0    0    0    0  0.00000000000E+00  0.00000000000E+00  0.45593999997E+02  0.45594000000E+02  0.51100000000E-03 0.  1.
         11   -1    0    0    0    0 -0.00000000000E+00 -0.00000000000E+00 -0.45593999997E+02  0.45594000000E+02  0.51100000000E-03 0. -1.
         23    2    1    2    0    0  0.00000000000E+00 -0.35527136788E-14  0.00000000000E+00  0.91188000000E+02  0.91188000000E+02 0.  0.
    9900012    2    3    3    0    0  0.16089189624E+02  0.28912234277E+02  0.16155476292E+02  0.54367099306E+02  0.40000034488E+02 0.  0.
         12    1    3    3    0    0 -0.16089189624E+02 -0.28912234277E+02 -0.16155476292E+02  0.36820900694E+02  0.00000000000E+00 0. -1.
         11    1    4    4    0    0  0.21139603322E+01  0.69141004924E+00 -0.27091697416E+01  0.35052071397E+01  0.51100000000E-03 0. -1.
        -11    1    4    4    0    0  0.19031862584E+02  0.24409756170E+02 -0.11158497019E-01  0.30952352325E+02  0.51100000000E-03 0.  1.
        -12    1    4    4    0    0 -0.50566332922E+01  0.38110680580E+01  0.18875804531E+02  0.19909539841E+02  0.00000000000E+00 0.  1.
</event>
<event>
 8    1  0.2502431E-006  0.9118800E+02  0.7816164E-02  0.1184000E+00
        -11   -1    0    0    0    0  0.00000000000E+00  0.00000000000E+00  0.45593999997E+02  0.45594000000E+02  0.51100000000E-03 0.  1.
         11   -1    0    0    0    0 -0.00000000000E+00 -0.00000000000E+00 -0.45593999997E+02  0.45594000000E+02  0.51100000000E-03 0. -1.
         23    2    1    2    0    0  0.17763568394E-14 -0.35527136788E-14  0.00000000000E+00  0.91188000000E+02  0.91188000000E+02 0.  0.
    9900012    2    3    3    0    0  0.37648831511E+01  0.25793751395E+02  0.26005562132E+02  0.54367065493E+02  0.39999957404E+02 0.  0.
         12    1    3    3    0    0 -0.37648831511E+01 -0.25793751395E+02 -0.26005562132E+02  0.36820934507E+02  0.00000000000E+00 0. -1.
         11    1    4    4    0    0  0.13558894299E+02  0.31316232878E+01  0.14482115807E+02  0.20084380935E+02  0.51100000000E-03 0. -1.
        -11    1    4    4    0    0 -0.13466416648E+02  0.21793456946E+02  0.14535103797E+02  0.29454513842E+02  0.51100000000E-03 0.  1.
        -12    1    4    4    0    0  0.36724055000E+01  0.86867116103E+00 -0.30116574715E+01  0.48281707165E+01  0.00000000000E+00 0.  1.
</event>
<event>
 8    1  0.2502431E-006  0.9118800E+02  0.7816164E-02  0.1184000E+00
        -11   -1    0    0    0    0  0.00000000000E+00  0.00000000000E+00  0.45593999997E+02  0.45594000000E+02  0.51100000000E-03 0. -1.
         11   -1    0    0    0    0 -0.00000000000E+00 -0.00000000000E+00 -0.45593999997E+02  0.45594000000E+02  0.51100000000E-03 0.  1.
         23    2    1    2    0    0  0.00000000000E+00  0.00000000000E+00  0.35527136788E-14  0.91188000000E+02  0.91188000000E+02 0.  0.
    9900012    2    3    3    0    0  0.22690601634E+02 -0.20157466215E+02 -0.20846910625E+02  0.54367074844E+02  0.39999978721E+02 0.  0.
        -12    1    3    3    0    0 -0.22690601634E+02  0.20157466215E+02  0.20846910625E+02  0.36820925156E+02  0.00000000000E+00 0.  1.
         11    1    4    4    0    0  0.16601592659E+02 -0.11350438027E+02 -0.29855732941E+01  0.20331231403E+02  0.51100000000E-03 0. -1.
        -11    1    4    4    0    0  0.13449498837E+02  0.39337069245E+01 -0.65059353962E+01  0.15449604033E+02  0.51100000000E-03 0.  1.
        -12    1    4    4    0    0 -0.73604898613E+01 -0.12740735113E+02 -0.11355401935E+02  0.18586239408E+02  0.00000000000E+00 0.  1.
</event>
<event>
 8    1  0.2502431E-006  0.9118800E+02  0.7816164E-02  0.1184000E+00
        -11   -1    0    0    0    0  0.00000000000E+00  0.00000000000E+00  0.45593999997E+02  0.45594000000E+02  0.51100000000E-03 0. -1.
         11   -1    0    0    0    0 -0.00000000000E+00 -0.00000000000E+00 -0.45593999997E+02  0.45594000000E+02  0.51100000000E-03 0.  1.
         23    2    1    2    0    0 -0.35527136788E-14  0.00000000000E+00  0.17763568394E-14  0.91188000000E+02  0.91188000000E+02 0.  0.
    9900012    2    3    3    0    0 -0.20928911281E+02  0.27555246605E+02  0.12588429390E+02  0.54367088857E+02  0.40000010668E+02 0.  0.
        -12    1    3    3    0    0  0.20928911281E+02 -0.27555246605E+02 -0.12588429390E+02  0.36820911143E+02  0.00000000000E+00 0.  1.
         11    1    4    4    0    0 -0.16716170990E+02  0.32681790380E+02  0.15478509735E+02  0.39838600112E+02  0.51100000000E-03 0. -1.
        -11    1    4    4    0    0 -0.77150753524E+01  0.22071482206E+00 -0.25451365117E+01  0.81270426879E+01  0.51100000000E-03 0.  1.
         12    1    4    4    0    0  0.35023350609E+01 -0.53472585970E+01 -0.34494383368E+00  0.64014460577E+01  0.00000000000E+00 0. -1.
</event>
<event>
 8    1  0.2502431E-006  0.9118800E+02  0.7816164E-02  0.1184000E+00
        -11   -1    0    0    0    0  0.00000000000E+00  0.00000000000E+00  0.45593999997E+02  0.45594000000E+02  0.51100000000E-03 0. -1.
         11   -1    0    0    0    0 -0.00000000000E+00 -0.00000000000E+00 -0.45593999997E+02  0.45594000000E+02  0.51100000000E-03 0.  1.
         23    2    1    2    0    0  0.00000000000E+00  0.00000000000E+00 -0.17763568394E-14  0.91188000000E+02  0.91188000000E+02 0.  0.
    9900012    2    3    3    0    0 -0.19601219514E+02 -0.28621900803E+02 -0.12342951833E+02  0.54367224995E+02  0.40000321021E+02 0.  0.
        -12    1    3    3    0    0  0.19601219514E+02  0.28621900803E+02  0.12342951833E+02  0.36820775005E+02  0.00000000000E+00 0.  1.
         11    1    4    4    0    0  0.41152418264E+01 -0.93472937333E+01  0.64789173411E+01  0.12094771002E+02  0.51100000000E-03 0. -1.
        -11    1    4    4    0    0 -0.15134738278E+02 -0.58377458590E+01  0.16716541880E+01  0.16307483173E+02  0.51100000000E-03 0.  1.
        -12    1    4    4    0    0 -0.85817230621E+01 -0.13436861211E+02 -0.20493523362E+02  0.25964970820E+02  0.00000000000E+00 0.  1.
</event>
<event>
 8    1  0.2502431E-006  0.9118800E+02  0.7816164E-02  0.1184000E+00
        -11   -1    0    0    0    0  0.00000000000E+00  0.00000000000E+00  0.45593999997E+02  0.45594000000E+02  0.51100000000E-03 0. -1.
         11   -1    0    0    0    0 -0.00000000000E+00 -0.00000000000E+00 -0.45593999997E+02  0.45594000000E+02  0.51100000000E-03 0.  1.
         23    2    1    2    0    0  0.35527136788E-14  0.00000000000E+00  0.35527136788E-14  0.91188000000E+02  0.91188000000E+02 0.  0.
    9900012    2    3    3    0    0 -0.22497119797E+02 -0.12278636331E+02 -0.26436617795E+02  0.54367081085E+02  0.39999992950E+02 0.  0.
         12    1    3    3    0    0  0.22497119797E+02  0.12278636331E+02  0.26436617795E+02  0.36820918915E+02  0.00000000000E+00 0. -1.
         11    1    4    4    0    0 -0.90242074266E+00  0.99954565545E+01  0.10097434855E+01  0.10086778331E+02  0.51100000000E-03 0. -1.
        -11    1    4    4    0    0 -0.73928616529E+01 -0.71290730799E+01 -0.19519444452E+02  0.22056445733E+02  0.51100000000E-03 0.  1.
        -12    1    4    4    0    0 -0.14201837402E+02 -0.15145019805E+02 -0.79269168282E+01  0.22223857021E+02  0.00000000000E+00 0.  1.
</event>
<event>
 8    1  0.2502431E-006  0.9118800E+02  0.7816164E-02  0.1184000E+00
        -11   -1    0    0    0    0  0.00000000000E+00  0.00000000000E+00  0.45593999997E+02  0.45594000000E+02  0.51100000000E-03 0. -1.
         11   -1    0    0    0    0 -0.00000000000E+00 -0.00000000000E+00 -0.45593999997E+02  0.45594000000E+02  0.51100000000E-03 0.  1.
         23    2    1    2    0    0  0.00000000000E+00  0.35527136788E-14  0.00000000000E+00  0.91188000000E+02  0.91188000000E+02 0.  0.
    9900012    2    3    3    0    0 -0.24793407862E+02  0.25684819541E+02 -0.90197570446E+01  0.54367094994E+02  0.40000024659E+02 0.  0.
        -12    1    3    3    0    0  0.24793407862E+02 -0.25684819541E+02  0.90197570446E+01  0.36820905006E+02  0.00000000000E+00 0.  1.
         11    1    4    4    0    0  0.55350854024E+01 -0.39600618861E+01 -0.19318454616E+01  0.70746934705E+01  0.51100000000E-03 0. -1.
        -11    1    4    4    0    0 -0.43727194573E+01 -0.25074947056E+01 -0.27544903235E+01  0.57441641998E+01  0.51100000000E-03 0.  1.
         12    1    4    4    0    0 -0.25955773807E+02  0.32152376133E+02 -0.43334212595E+01  0.41548237324E+02  0.00000000000E+00 0. -1.
</event>
<event>
 8    1  0.2502431E-006  0.9118800E+02  0.7816164E-02  0.1184000E+00
        -11   -1    0    0    0    0  0.00000000000E+00  0.00000000000E+00  0.45593999997E+02  0.45594000000E+02  0.51100000000E-03 0.  1.
         11   -1    0    0    0    0 -0.00000000000E+00 -0.00000000000E+00 -0.45593999997E+02  0.45594000000E+02  0.51100000000E-03 0. -1.
         23    2    1    2    0    0 -0.17763568394E-14  0.35527136788E-14 -0.35527136788E-14  0.91188000000E+02  0.91188000000E+02 0.  0.
    9900012    2    3    3    0    0  0.12976113036E+02  0.26024550688E+02  0.22585896642E+02  0.54367089160E+02  0.40000011357E+02 0.  0.
         12    1    3    3    0    0 -0.12976113036E+02 -0.26024550688E+02 -0.22585896642E+02  0.36820910840E+02  0.00000000000E+00 0. -1.
         11    1    4    4    0    0  0.40251201517E+01  0.73712631178E+01 -0.27569291747E+01  0.88395571678E+01  0.51100000000E-03 0. -1.
        -11    1    4    4    0    0  0.51147912399E+01  0.27595666209E+02  0.19544570117E+02  0.34200469357E+02  0.51100000000E-03 0.  1.
         12    1    4    4    0    0  0.38362016442E+01 -0.89423786387E+01  0.57982556989E+01  0.11327062634E+02  0.00000000000E+00 0. -1.
</event>
<event>
 8    1  0.2502431E-006  0.9118800E+02  0.7816164E-02  0.1184000E+00
        -11   -1    0    0    0    0  0.00000000000E+00  0.00000000000E+00  0.45593999997E+02  0.45594000000E+02  0.51100000000E-03 0. -1.
         11   -1    0    0    0    0 -0.00000000000E+00 -0.00000000000E+00 -0.45593999997E+02  0.45594000000E+02  0.51100000000E-03 0.  1.
         23    2    1    2    0    0  0.00000000000E+00  0.00000000000E+00 -0.35527136788E-14  0.91188000000E+02  0.91188000000E+02 0.  0.
    9900012    2    3    3    0    0 -0.23287651991E+02 -0.25787252122E+02 -0.12185299144E+02  0.54367100737E+02  0.40000037750E+02 0.  0.
        -12    1    3    3    0    0  0.23287651991E+02  0.25787252122E+02  0.12185299144E+02  0.36820899263E+02  0.00000000000E+00 0.  1.
         11    1    4    4    0    0 -0.56779364788E+01 -0.12240136894E+02 -0.20437945311E+02  0.24490192377E+02  0.51100000000E-03 0.  1.
        -11    1    4    4    0    0 -0.21070917639E+02 -0.11373387051E+02  0.45727089867E+01  0.24377185459E+02  0.51100000000E-03 0. -1.
        -12    1    4    4    0    0  0.34612021261E+01 -0.21737281775E+01  0.36799371802E+01  0.54997229019E+01  0.00000000000E+00 0.  1.
</event>
<event>
 8    1  0.2502431E-006  0.9118800E+02  0.7816164E-02  0.1184000E+00
        -11   -1    0    0    0    0  0.00000000000E+00  0.00000000000E+00  0.45593999997E+02  0.45594000000E+02  0.51100000000E-03 0. -1.
         11   -1    0    0    0    0 -0.00000000000E+00 -0.00000000000E+00 -0.45593999997E+02  0.45594000000E+02  0.51100000000E-03 0.  1.
         23    2    1    2    0    0 -0.35527136788E-14  0.00000000000E+00  0.88817841970E-15  0.91188000000E+02  0.91188000000E+02 0.  0.
    9900012    2    3    3    0    0  0.25673244097E+02 -0.25219602965E+02 -0.77868400167E+01  0.54367099500E+02  0.40000034930E+02 0.  0.
         12    1    3    3    0    0 -0.25673244097E+02  0.25219602965E+02  0.77868400167E+01  0.36820900500E+02  0.00000000000E+00 0. -1.
         11    1    4    4    0    0  0.23474374506E+02 -0.93215081858E+00 -0.74652860511E+01  0.24650469766E+02  0.51100000000E-03 0. -1.
        -11    1    4    4    0    0  0.92856465142E+01 -0.99216905239E+01  0.11087455093E+01  0.13634239653E+02  0.51100000000E-03 0.  1.
         12    1    4    4    0    0 -0.70867769229E+01 -0.14365761623E+02 -0.14302994749E+01  0.16082390082E+02  0.00000000000E+00 0. -1.
</event>
<event>
 8    1  0.2502431E-006  0.9118800E+02  0.7816164E-02  0.1184000E+00
        -11   -1    0    0    0    0  0.00000000000E+00  0.00000000000E+00  0.45593999997E+02  0.45594000000E+02  0.51100000000E-03 0.  1.
         11   -1    0    0    0    0 -0.00000000000E+00 -0.00000000000E+00 -0.45593999997E+02  0.45594000000E+02  0.51100000000E-03 0. -1.
         23    2    1    2    0    0  0.00000000000E+00 -0.88817841970E-15  0.00000000000E+00  0.91188000000E+02  0.91188000000E+02 0.  0.
    9900012    2    3    3    0    0  0.30132076465E+02 -0.64935543301E+01 -0.20141239946E+02  0.54367111546E+02  0.40000062391E+02 0.  0.
        -12    1    3    3    0    0 -0.30132076465E+02  0.64935543301E+01  0.20141239946E+02  0.36820888454E+02  0.00000000000E+00 0.  1.
         11    1    4    4    0    0  0.63178075885E+01  0.16035311121E+01 -0.46886516735E+01  0.80292876103E+01  0.51100000000E-03 0. -1.
        -11    1    4    4    0    0  0.64257863537E+00 -0.29892040080E+01  0.10639477487E+02  0.11070082627E+02  0.51100000000E-03 0.  1.
        -12    1    4    4    0    0  0.23171690242E+02 -0.51078814342E+01 -0.26092065760E+02  0.35267741309E+02  0.00000000000E+00 0.  1.
</event>
<event>
 8    1  0.2502431E-006  0.9118800E+02  0.7816164E-02  0.1184000E+00
        -11   -1    0    0    0    0  0.00000000000E+00  0.00000000000E+00  0.45593999997E+02  0.45594000000E+02  0.51100000000E-03 0. -1.
         11   -1    0    0    0    0 -0.00000000000E+00 -0.00000000000E+00 -0.45593999997E+02  0.45594000000E+02  0.51100000000E-03 0.  1.
         23    2    1    2    0    0  0.00000000000E+00  0.00000000000E+00 -0.35527136788E-14  0.91188000000E+02  0.91188000000E+02 0.  0.
    9900012    2    3    3    0    0 -0.25556709213E+02 -0.42535367062E+01  0.26163741260E+02  0.54367091306E+02  0.40000016250E+02 0.  0.
        -12    1    3    3    0    0  0.25556709213E+02  0.42535367062E+01 -0.26163741260E+02  0.36820908694E+02  0.00000000000E+00 0.  1.
         11    1    4    4    0    0 -0.86237724706E+01 -0.11643396234E+02  0.20631864265E+01  0.14635397705E+02  0.51100000000E-03 0. -1.
        -11    1    4    4    0    0 -0.10208873095E+02 -0.65795101175E+01  0.13770074323E+01  0.12223223510E+02  0.51100000000E-03 0.  1.
         12    1    4    4    0    0 -0.67240636479E+01  0.13969369645E+02  0.22723547401E+02  0.27508470091E+02  0.00000000000E+00 0. -1.
</event>
<event>
 8    1  0.2502431E-006  0.9118800E+02  0.7816164E-02  0.1184000E+00
        -11   -1    0    0    0    0  0.00000000000E+00  0.00000000000E+00  0.45593999997E+02  0.45594000000E+02  0.51100000000E-03 0. -1.
         11   -1    0    0    0    0 -0.00000000000E+00 -0.00000000000E+00 -0.45593999997E+02  0.45594000000E+02  0.51100000000E-03 0.  1.
         23    2    1    2    0    0 -0.35527136788E-14  0.71054273576E-14  0.71054273576E-14  0.91188000000E+02  0.91188000000E+02 0.  0.
    9900012    2    3    3    0    0  0.23621554979E+02 -0.21348091113E+02 -0.18494748724E+02  0.54367155575E+02  0.40000162764E+02 0.  0.
         12    1    3    3    0    0 -0.23621554979E+02  0.21348091113E+02  0.18494748724E+02  0.36820844425E+02  0.00000000000E+00 0. -1.
         11    1    4    4    0    0  0.44421151189E+01 -0.13143241208E+01  0.27604014991E+01  0.53925551755E+01  0.51100000000E-03 0. -1.
        -11    1    4    4    0    0  0.26601914084E+02 -0.21556211888E+02 -0.22938388097E+02  0.41212883334E+02  0.51100000000E-03 0.  1.
         12    1    4    4    0    0 -0.74224742241E+01  0.15224448954E+01  0.16832378743E+01  0.77617170657E+01  0.00000000000E+00 0. -1.
</event>
<event>
 8    1  0.2502431E-006  0.9118800E+02  0.7816164E-02  0.1184000E+00
        -11   -1    0    0    0    0  0.00000000000E+00  0.00000000000E+00  0.45593999997E+02  0.45594000000E+02  0.51100000000E-03 0. -1.
         11   -1    0    0    0    0 -0.00000000000E+00 -0.00000000000E+00 -0.45593999997E+02  0.45594000000E+02  0.51100000000E-03 0.  1.
         23    2    1    2    0    0  0.00000000000E+00 -0.88817841970E-15  0.00000000000E+00  0.91188000000E+02  0.91188000000E+02 0.  0.
    9900012    2    3    3    0    0 -0.33908415229E+02  0.14817745371E+01 -0.14276002392E+02  0.54367074925E+02  0.39999978906E+02 0.  0.
         12    1    3    3    0    0  0.33908415229E+02 -0.14817745371E+01  0.14276002392E+02  0.36820925075E+02  0.00000000000E+00 0. -1.
         11    1    4    4    0    0 -0.77295955570E+01 -0.10644038699E+02 -0.87990916623E+01  0.15826124656E+02  0.51100000000E-03 0. -1.
        -11    1    4    4    0    0 -0.11556631319E+02 -0.68607158581E+01 -0.56419447051E+01  0.14575894135E+02  0.51100000000E-03 0.  1.
         12    1    4    4    0    0 -0.14622188353E+02  0.18986529094E+02  0.16503397557E+00  0.23965056133E+02  0.00000000000E+00 0. -1.
</event>
<event>
 8    1  0.2502431E-006  0.9118800E+02  0.7816164E-02  0.1184000E+00
        -11   -1    0    0    0    0  0.00000000000E+00  0.00000000000E+00  0.45593999997E+02  0.45594000000E+02  0.51100000000E-03 0. -1.
         11   -1    0    0    0    0 -0.00000000000E+00 -0.00000000000E+00 -0.45593999997E+02  0.45594000000E+02  0.51100000000E-03 0.  1.
         23    2    1    2    0    0 -0.71054273576E-14  0.17763568394E-14  0.00000000000E+00  0.91188000000E+02  0.91188000000E+02 0.  0.
    9900012    2    3    3    0    0 -0.29654616514E+02  0.64167740571E+01  0.20861686499E+02  0.54367065283E+02  0.39999956925E+02 0.  0.
        -12    1    3    3    0    0  0.29654616514E+02 -0.64167740571E+01 -0.20861686499E+02  0.36820934717E+02  0.00000000000E+00 0.  1.
         11    1    4    4    0    0 -0.42984796341E+01 -0.10832237504E+01  0.13600294123E+02  0.14304485358E+02  0.51100000000E-03 0. -1.
        -11    1    4    4    0    0 -0.72059869298E+01 -0.10622839639E+02 -0.15787028189E+01  0.12933030290E+02  0.51100000000E-03 0.  1.
         12    1    4    4    0    0 -0.18150149950E+02  0.18122837447E+02  0.88400951951E+01  0.27129549635E+02  0.00000000000E+00 0. -1.
</event>
<event>
 8    1  0.2502431E-006  0.9118800E+02  0.7816164E-02  0.1184000E+00
        -11   -1    0    0    0    0  0.00000000000E+00  0.00000000000E+00  0.45593999997E+02  0.45594000000E+02  0.51100000000E-03 0. -1.
         11   -1    0    0    0    0 -0.00000000000E+00 -0.00000000000E+00 -0.45593999997E+02  0.45594000000E+02  0.51100000000E-03 0.  1.
         23    2    1    2    0    0  0.00000000000E+00  0.00000000000E+00  0.00000000000E+00  0.91188000000E+02  0.91188000000E+02 0.  0.
    9900012    2    3    3    0    0 -0.33816480167E+02 -0.11475345130E+02  0.89745459688E+01  0.54367077251E+02  0.39999984209E+02 0.  0.
        -12    1    3    3    0    0  0.33816480167E+02  0.11475345130E+02 -0.89745459688E+01  0.36820922749E+02  0.00000000000E+00 0.  1.
         11    1    4    4    0    0 -0.22176211851E+02 -0.95063046842E+01  0.10066125293E+02  0.26143471068E+02  0.51100000000E-03 0. -1.
        -11    1    4    4    0    0 -0.82535162256E+01 -0.60596270951E+01 -0.12190220662E+02  0.15919833249E+02  0.51100000000E-03 0.  1.
         12    1    4    4    0    0 -0.33867520909E+01  0.40905866496E+01  0.11098641338E+02  0.12303772934E+02  0.00000000000E+00 0. -1.
</event>
<event>
 8    1  0.2502431E-006  0.9118800E+02  0.7816164E-02  0.1184000E+00
        -11   -1    0    0    0    0  0.00000000000E+00  0.00000000000E+00  0.45593999997E+02  0.45594000000E+02  0.51100000000E-03 0.  1.
         11   -1    0    0    0    0 -0.00000000000E+00 -0.00000000000E+00 -0.45593999997E+02  0.45594000000E+02  0.51100000000E-03 0. -1.
         23    2    1    2    0    0  0.35527136788E-14 -0.44408920985E-15  0.00000000000E+00  0.91188000000E+02  0.91188000000E+02 0.  0.
    9900012    2    3    3    0    0  0.31798235373E+02  0.33201251786E+01  0.18265514742E+02  0.54367081587E+02  0.39999994093E+02 0.  0.
         12    1    3    3    0    0 -0.31798235373E+02 -0.33201251786E+01 -0.18265514742E+02  0.36820918413E+02  0.00000000000E+00 0. -1.
         11    1    4    4    0    0  0.30612056804E+01  0.61814575020E+01  0.66316287222E+00  0.69297317642E+01  0.51100000000E-03 0. -1.
        -11    1    4    4    0    0  0.25075227552E+02 -0.16438134758E+02  0.12337947658E+02  0.32422280360E+02  0.51100000000E-03 0.  1.
        -12    1    4    4    0    0  0.36618021406E+01  0.13576802434E+02  0.52644042118E+01  0.15015069462E+02  0.00000000000E+00 0.  1.
</event>
<event>
 8    1  0.2502431E-006  0.9118800E+02  0.7816164E-02  0.1184000E+00
        -11   -1    0    0    0    0  0.00000000000E+00  0.00000000000E+00  0.45593999997E+02  0.45594000000E+02  0.51100000000E-03 0. -1.
         11   -1    0    0    0    0 -0.00000000000E+00 -0.00000000000E+00 -0.45593999997E+02  0.45594000000E+02  0.51100000000E-03 0.  1.
         23    2    1    2    0    0  0.00000000000E+00  0.53290705182E-14 -0.17763568394E-14  0.91188000000E+02  0.91188000000E+02 0.  0.
    9900012    2    3    3    0    0  0.30237266806E+02 -0.14650279704E+02 -0.15061790242E+02  0.54367074909E+02  0.39999978870E+02 0.  0.
         12    1    3    3    0    0 -0.30237266806E+02  0.14650279704E+02  0.15061790242E+02  0.36820925091E+02  0.00000000000E+00 0. -1.
         11    1    4    4    0    0 -0.14441321769E+01 -0.11905867218E+00  0.16796143272E+01  0.22182870105E+01  0.51100000000E-03 0. -1.
        -11    1    4    4    0    0  0.31433932971E+01  0.69523648756E+01 -0.14467115466E+02  0.16355846935E+02  0.51100000000E-03 0.  1.
        -12    1    4    4    0    0  0.28538005685E+02 -0.21483585907E+02 -0.22742891031E+01  0.35792940964E+02  0.00000000000E+00 0.  1.
</event>
<event>
 8    1  0.2502431E-006  0.9118800E+02  0.7816164E-02  0.1184000E+00
        -11   -1    0    0    0    0  0.00000000000E+00  0.00000000000E+00  0.45593999997E+02  0.45594000000E+02  0.51100000000E-03 0. -1.
         11   -1    0    0    0    0 -0.00000000000E+00 -0.00000000000E+00 -0.45593999997E+02  0.45594000000E+02  0.51100000000E-03 0.  1.
         23    2    1    2    0    0  0.00000000000E+00  0.00000000000E+00 -0.17763568394E-14  0.91188000000E+02  0.91188000000E+02 0.  0.
    9900012    2    3    3    0    0 -0.13481921971E+02 -0.33241430521E+02 -0.83081571802E+01  0.54367076616E+02  0.39999982762E+02 0.  0.
         12    1    3    3    0    0  0.13481921971E+02  0.33241430521E+02  0.83081571802E+01  0.36820923384E+02  0.00000000000E+00 0. -1.
         11    1    4    4    0    0 -0.18386154751E+02 -0.13015402920E+02  0.11522465530E+02  0.25302541609E+02  0.51100000000E-03 0. -1.
        -11    1    4    4    0    0  0.19615053319E+01 -0.13847537194E+02 -0.15176656457E+02  0.20638136810E+02  0.51100000000E-03 0.  1.
         12    1    4    4    0    0  0.29427274481E+01 -0.63784904061E+01 -0.46539662536E+01  0.84263981976E+01  0.00000000000E+00 0. -1.
</event>
<event>
 8    1  0.2502431E-006  0.9118800E+02  0.7816164E-02  0.1184000E+00
        -11   -1    0    0    0    0  0.00000000000E+00  0.00000000000E+00  0.45593999997E+02  0.45594000000E+02  0.51100000000E-03 0.  1.
         11   -1    0    0    0    0 -0.00000000000E+00 -0.00000000000E+00 -0.45593999997E+02  0.45594000000E+02  0.51100000000E-03 0. -1.
         23    2    1    2    0    0  0.00000000000E+00  0.88817841970E-15  0.35527136788E-14  0.91188000000E+02  0.91188000000E+02 0.  0.
    9900012    2    3    3    0    0 -0.23476056422E+02 -0.68545011976E+01  0.27525812225E+02  0.54367085420E+02  0.40000002833E+02 0.  0.
         12    1    3    3    0    0  0.23476056422E+02  0.68545011976E+01 -0.27525812225E+02  0.36820914580E+02  0.00000000000E+00 0. -1.
         11    1    4    4    0    0  0.66375236062E+01  0.92934136122E+01  0.10856334826E+02  0.15757038500E+02  0.51100000000E-03 0. -1.
        -11    1    4    4    0    0 -0.68979605533E+01 -0.59838176260E+01  0.20731320518E+01  0.93640701589E+01  0.51100000000E-03 0.  1.
         12    1    4    4    0    0 -0.23215619475E+02 -0.10164097184E+02  0.14596345348E+02  0.29245976761E+02  0.00000000000E+00 0. -1.
</event>
<event>
 8    1  0.2502431E-006  0.9118800E+02  0.7816164E-02  0.1184000E+00
        -11   -1    0    0    0    0  0.00000000000E+00  0.00000000000E+00  0.45593999997E+02  0.45594000000E+02  0.51100000000E-03 0.  1.
         11   -1    0    0    0    0 -0.00000000000E+00 -0.00000000000E+00 -0.45593999997E+02  0.45594000000E+02  0.51100000000E-03 0. -1.
         23    2    1    2    0    0  0.00000000000E+00  0.00000000000E+00  0.00000000000E+00  0.91188000000E+02  0.91188000000E+02 0.  0.
    9900012    2    3    3    0    0 -0.89288510926E+01  0.25712790747E+02 -0.24797291398E+02  0.54367113936E+02  0.40000067840E+02 0.  0.
        -12    1    3    3    0    0  0.89288510926E+01 -0.25712790747E+02  0.24797291398E+02  0.36820886064E+02  0.00000000000E+00 0.  1.
         11    1    4    4    0    0  0.11503395623E+02  0.11537622319E+02  0.80728133319E+00  0.16312465879E+02  0.51100000000E-03 0. -1.
        -11    1    4    4    0    0 -0.86758851441E+01 -0.12256341665E+01 -0.73978247348E+01  0.11467387375E+02  0.51100000000E-03 0.  1.
         12    1    4    4    0    0 -0.11756361572E+02  0.15400802595E+02 -0.18206747997E+02  0.26587260682E+02  0.00000000000E+00 0. -1.
</event>
<event>
 8    1  0.2502431E-006  0.9118800E+02  0.7816164E-02  0.1184000E+00
        -11   -1    0    0    0    0  0.00000000000E+00  0.00000000000E+00  0.45593999997E+02  0.45594000000E+02  0.51100000000E-03 0.  1.
         11   -1    0    0    0    0 -0.00000000000E+00 -0.00000000000E+00 -0.45593999997E+02  0.45594000000E+02  0.51100000000E-03 0. -1.
         23    2    1    2    0    0  0.88817841970E-15  0.00000000000E+00  0.00000000000E+00  0.91188000000E+02  0.91188000000E+02 0.  0.
    9900012    2    3    3    0    0  0.61503076053E+01  0.16686670129E+02 -0.32241402865E+02  0.54367091506E+02  0.40000016707E+02 0.  0.
        -12    1    3    3    0    0 -0.61503076053E+01 -0.16686670129E+02  0.32241402865E+02  0.36820908494E+02  0.00000000000E+00 0.  1.
         11    1    4    4    0    0  0.16033537065E+02  0.94118460997E+01 -0.29903363688E+02  0.35211763914E+02  0.51100000000E-03 0. -1.
        -11    1    4    4    0    0 -0.16154528190E+00  0.88247266546E+01  0.69687940789E+00  0.88536737334E+01  0.51100000000E-03 0.  1.
        -12    1    4    4    0    0 -0.97216841783E+01 -0.15499026256E+01 -0.30349185844E+01  0.10301653859E+02  0.00000000000E+00 0.  1.
</event>
<event>
 8    1  0.2502431E-006  0.9118800E+02  0.7816164E-02  0.1184000E+00
        -11   -1    0    0    0    0  0.00000000000E+00  0.00000000000E+00  0.45593999997E+02  0.45594000000E+02  0.51100000000E-03 0.  1.
         11   -1    0    0    0    0 -0.00000000000E+00 -0.00000000000E+00 -0.45593999997E+02  0.45594000000E+02  0.51100000000E-03 0. -1.
         23    2    1    2    0    0  0.00000000000E+00  0.35527136788E-14  0.35527136788E-14  0.91188000000E+02  0.91188000000E+02 0.  0.
    9900012    2    3    3    0    0 -0.11409529653E+02 -0.16691575136E+02  0.30773254042E+02  0.54367092736E+02  0.40000019510E+02 0.  0.
        -12    1    3    3    0    0  0.11409529653E+02  0.16691575136E+02 -0.30773254042E+02  0.36820907264E+02  0.00000000000E+00 0.  1.
         11    1    4    4    0    0  0.29944750223E+01 -0.21718682419E+01  0.18316860556E+02  0.18686660301E+02  0.51100000000E-03 0. -1.
        -11    1    4    4    0    0 -0.21613460327E+02 -0.79397834390E+01  0.11862274271E+02  0.25901648201E+02  0.51100000000E-03 0.  1.
        -12    1    4    4    0    0  0.72094556513E+01 -0.65799234548E+01  0.59411921498E+00  0.97787842342E+01  0.00000000000E+00 0.  1.
</event>
<event>
 8    1  0.2502431E-006  0.9118800E+02  0.7816164E-02  0.1184000E+00
        -11   -1    0    0    0    0  0.00000000000E+00  0.00000000000E+00  0.45593999997E+02  0.45594000000E+02  0.51100000000E-03 0. -1.
         11   -1    0    0    0    0 -0.00000000000E+00 -0.00000000000E+00 -0.45593999997E+02  0.45594000000E+02  0.51100000000E-03 0.  1.
         23    2    1    2    0    0  0.44408920985E-15  0.44408920985E-15  0.00000000000E+00  0.91188000000E+02  0.91188000000E+02 0.  0.
    9900012    2    3    3    0    0 -0.39493532528E+01 -0.33550137551E+01 -0.36454443090E+02  0.54367082991E+02  0.39999997294E+02 0.  0.
         12    1    3    3    0    0  0.39493532528E+01  0.33550137551E+01  0.36454443090E+02  0.36820917009E+02  0.00000000000E+00 0. -1.
         11    1    4    4    0    0  0.12905712783E+02 -0.30867229929E+01 -0.25982063241E+02  0.29174524706E+02  0.51100000000E-03 0. -1.
        -11    1    4    4    0    0 -0.29268524153E+01  0.18350778347E+01  0.38028001646E+01  0.51376322438E+01  0.51100000000E-03 0.  1.
        -12    1    4    4    0    0 -0.13928213621E+02 -0.21033685969E+01 -0.14275180013E+02  0.20054926041E+02  0.00000000000E+00 0.  1.
</event>
<event>
 8    1  0.2502431E-006  0.9118800E+02  0.7816164E-02  0.1184000E+00
        -11   -1    0    0    0    0  0.00000000000E+00  0.00000000000E+00  0.45593999997E+02  0.45594000000E+02  0.51100000000E-03 0.  1.
         11   -1    0    0    0    0 -0.00000000000E+00 -0.00000000000E+00 -0.45593999997E+02  0.45594000000E+02  0.51100000000E-03 0. -1.
         23    2    1    2    0    0  0.00000000000E+00  0.00000000000E+00  0.00000000000E+00  0.91188000000E+02  0.91188000000E+02 0.  0.
    9900012    2    3    3    0    0 -0.19948638618E+02 -0.91358711943E+01  0.29569715881E+02  0.54367076296E+02  0.39999982031E+02 0.  0.
         12    1    3    3    0    0  0.19948638618E+02  0.91358711943E+01 -0.29569715881E+02  0.36820923704E+02  0.00000000000E+00 0. -1.
         11    1    4    4    0    0 -0.86320795009E+00  0.29843000502E+01  0.78335901147E+01  0.84271174847E+01  0.51100000000E-03 0. -1.
        -11    1    4    4    0    0 -0.20325715552E+02 -0.21088653843E+02  0.22383381531E+02  0.36863014020E+02  0.51100000000E-03 0.  1.
        -12    1    4    4    0    0  0.12402848843E+01  0.89684825985E+01 -0.64725576486E+00  0.90769447910E+01  0.00000000000E+00 0.  1.
</event>
<event>
 8    1  0.2502431E-006  0.9118800E+02  0.7816164E-02  0.1184000E+00
        -11   -1    0    0    0    0  0.00000000000E+00  0.00000000000E+00  0.45593999997E+02  0.45594000000E+02  0.51100000000E-03 0.  1.
         11   -1    0    0    0    0 -0.00000000000E+00 -0.00000000000E+00 -0.45593999997E+02  0.45594000000E+02  0.51100000000E-03 0. -1.
         23    2    1    2    0    0  0.00000000000E+00  0.00000000000E+00  0.00000000000E+00  0.91188000000E+02  0.91188000000E+02 0.  0.
    9900012    2    3    3    0    0 -0.29670993584E+01 -0.27954834834E+02 -0.23780315584E+02  0.54367083682E+02  0.39999998870E+02 0.  0.
        -12    1    3    3    0    0  0.29670993584E+01  0.27954834834E+02  0.23780315584E+02  0.36820916318E+02  0.00000000000E+00 0.  1.
         11    1    4    4    0    0  0.84985046603E+01 -0.81998697713E+01 -0.15763718748E+02  0.19696631051E+02  0.51100000000E-03 0. -1.
        -11    1    4    4    0    0 -0.11245916722E+02  0.17486169184E+01  0.84301159878E+00  0.11412229093E+02  0.51100000000E-03 0.  1.
         12    1    4    4    0    0 -0.21968729671E+00 -0.21503581981E+02 -0.88596084348E+01  0.23258223538E+02  0.00000000000E+00 0. -1.
</event>
<event>
 8    1  0.2502431E-006  0.9118800E+02  0.7816164E-02  0.1184000E+00
        -11   -1    0    0    0    0  0.00000000000E+00  0.00000000000E+00  0.45593999997E+02  0.45594000000E+02  0.51100000000E-03 0.  1.
         11   -1    0    0    0    0 -0.00000000000E+00 -0.00000000000E+00 -0.45593999997E+02  0.45594000000E+02  0.51100000000E-03 0. -1.
         23    2    1    2    0    0  0.35527136788E-14  0.00000000000E+00  0.00000000000E+00  0.91188000000E+02  0.91188000000E+02 0.  0.
    9900012    2    3    3    0    0 -0.30396690521E+02  0.15307792382E+02 -0.14053025488E+02  0.54367152269E+02  0.40000155228E+02 0.  0.
        -12    1    3    3    0    0  0.30396690521E+02 -0.15307792382E+02  0.14053025488E+02  0.36820847731E+02  0.00000000000E+00 0.  1.
         11    1    4    4    0    0 -0.12265928236E+02 -0.12588593583E+02 -0.14748873967E+01  0.17638054796E+02  0.51100000000E-03 0. -1.
        -11    1    4    4    0    0 -0.15971222494E+02  0.27658941280E+02 -0.10246877875E+02  0.33542443070E+02  0.51100000000E-03 0.  1.
        -12    1    4    4    0    0 -0.21595397909E+01  0.23744468455E+00 -0.23312602163E+01  0.31866544028E+01  0.00000000000E+00 0.  1.
</event>
<event>
 8    1  0.2502431E-006  0.9118800E+02  0.7816164E-02  0.1184000E+00
        -11   -1    0    0    0    0  0.00000000000E+00  0.00000000000E+00  0.45593999997E+02  0.45594000000E+02  0.51100000000E-03 0.  1.
         11   -1    0    0    0    0 -0.00000000000E+00 -0.00000000000E+00 -0.45593999997E+02  0.45594000000E+02  0.51100000000E-03 0. -1.
         23    2    1    2    0    0  0.00000000000E+00  0.35527136788E-14  0.00000000000E+00  0.91188000000E+02  0.91188000000E+02 0.  0.
    9900012    2    3    3    0    0 -0.20059435846E+02  0.16905506297E+02  0.25838029661E+02  0.54367069996E+02  0.39999967670E+02 0.  0.
         12    1    3    3    0    0  0.20059435846E+02 -0.16905506297E+02 -0.25838029661E+02  0.36820930004E+02  0.00000000000E+00 0. -1.
         11    1    4    4    0    0 -0.12673869373E+02 -0.36845496483E+01 -0.13699153115E+01  0.13269496570E+02  0.51100000000E-03 0. -1.
        -11    1    4    4    0    0 -0.54590111588E+01 -0.15759688928E+01 -0.33348019468E+00  0.56917211882E+01  0.51100000000E-03 0.  1.
        -12    1    4    4    0    0 -0.19265553145E+01  0.22166024838E+02  0.27541425167E+02  0.35405852238E+02  0.00000000000E+00 0.  1.
</event>
<event>
 8    1  0.2502431E-006  0.9118800E+02  0.7816164E-02  0.1184000E+00
        -11   -1    0    0    0    0  0.00000000000E+00  0.00000000000E+00  0.45593999997E+02  0.45594000000E+02  0.51100000000E-03 0.  1.
         11   -1    0    0    0    0 -0.00000000000E+00 -0.00000000000E+00 -0.45593999997E+02  0.45594000000E+02  0.51100000000E-03 0. -1.
         23    2    1    2    0    0  0.00000000000E+00 -0.17763568394E-14  0.00000000000E+00  0.91188000000E+02  0.91188000000E+02 0.  0.
    9900012    2    3    3    0    0  0.28676206231E+02 -0.13381736595E+02 -0.18825113636E+02  0.54367074136E+02  0.39999977107E+02 0.  0.
        -12    1    3    3    0    0 -0.28676206231E+02  0.13381736595E+02  0.18825113636E+02  0.36820925864E+02  0.00000000000E+00 0.  1.
         11    1    4    4    0    0  0.15096790123E+02 -0.18051270489E+02 -0.69103672668E+01  0.24525794876E+02  0.51100000000E-03 0. -1.
        -11    1    4    4    0    0  0.91619911939E+00  0.12355255662E+02 -0.70235624495E+01  0.14241565681E+02  0.51100000000E-03 0.  1.
        -12    1    4    4    0    0  0.12663216989E+02 -0.76857217677E+01 -0.48911839194E+01  0.15599713578E+02  0.00000000000E+00 0.  1.
</event>
<event>
 8    1  0.2502431E-006  0.9118800E+02  0.7816164E-02  0.1184000E+00
        -11   -1    0    0    0    0  0.00000000000E+00  0.00000000000E+00  0.45593999997E+02  0.45594000000E+02  0.51100000000E-03 0. -1.
         11   -1    0    0    0    0 -0.00000000000E+00 -0.00000000000E+00 -0.45593999997E+02  0.45594000000E+02  0.51100000000E-03 0.  1.
         23    2    1    2    0    0  0.35527136788E-14  0.00000000000E+00  0.00000000000E+00  0.91188000000E+02  0.91188000000E+02 0.  0.
    9900012    2    3    3    0    0  0.22589247670E+02  0.28910120024E+02 -0.31161680448E+01  0.54367086738E+02  0.40000005837E+02 0.  0.
         12    1    3    3    0    0 -0.22589247670E+02 -0.28910120024E+02  0.31161680448E+01  0.36820913262E+02  0.00000000000E+00 0. -1.
         11    1    4    4    0    0  0.73737886102E+01  0.48300264972E+01  0.13553414361E+02  0.16167775219E+02  0.51100000000E-03 0. -1.
        -11    1    4    4    0    0  0.60624324248E+00  0.21647644312E-01 -0.90080942946E+01  0.90284972488E+01  0.51100000000E-03 0.  1.
        -12    1    4    4    0    0  0.14609215818E+02  0.24058445883E+02 -0.76614881115E+01  0.29170814270E+02  0.00000000000E+00 0.  1.
</event>
<event>
 8    1  0.2502431E-006  0.9118800E+02  0.7816164E-02  0.1184000E+00
        -11   -1    0    0    0    0  0.00000000000E+00  0.00000000000E+00  0.45593999997E+02  0.45594000000E+02  0.51100000000E-03 0.  1.
         11   -1    0    0    0    0 -0.00000000000E+00 -0.00000000000E+00 -0.45593999997E+02  0.45594000000E+02  0.51100000000E-03 0. -1.
         23    2    1    2    0    0 -0.35527136788E-14 -0.17763568394E-14  0.00000000000E+00  0.91188000000E+02  0.91188000000E+02 0.  0.
    9900012    2    3    3    0    0  0.20122152879E+02  0.14393752803E+02 -0.27270731624E+02  0.54367164057E+02  0.40000182099E+02 0.  0.
        -12    1    3    3    0    0 -0.20122152879E+02 -0.14393752803E+02  0.27270731624E+02  0.36820835943E+02  0.00000000000E+00 0.  1.
         11    1    4    4    0    0 -0.21034521170E+01 -0.56926399174E+01 -0.15152326298E+02  0.16322489165E+02  0.51100000000E-03 0. -1.
        -11    1    4    4    0    0  0.75312322112E+01  0.52598137224E+01 -0.14363320330E+02  0.17049635485E+02  0.51100000000E-03 0.  1.
        -12    1    4    4    0    0  0.14694372785E+02  0.14826578998E+02  0.22449150030E+01  0.20995039407E+02  0.00000000000E+00 0.  1.
</event>
<event>
 8    1  0.2502431E-006  0.9118800E+02  0.7816164E-02  0.1184000E+00
        -11   -1    0    0    0    0  0.00000000000E+00  0.00000000000E+00  0.45593999997E+02  0.45594000000E+02  0.51100000000E-03 0. -1.
         11   -1    0    0    0    0 -0.00000000000E+00 -0.00000000000E+00 -0.45593999997E+02  0.45594000000E+02  0.51100000000E-03 0.  1.
         23    2    1    2    0    0  0.00000000000E+00  0.00000000000E+00  0.00000000000E+00  0.91188000000E+02  0.91188000000E+02 0.  0.
    9900012    2    3    3    0    0  0.53661105129E+01  0.31741602589E+02  0.17873220935E+02  0.54367129511E+02  0.40000103346E+02 0.  0.
         12    1    3    3    0    0 -0.53661105129E+01 -0.31741602589E+02 -0.17873220935E+02  0.36820870489E+02  0.00000000000E+00 0. -1.
         11    1    4    4    0    0  0.72490328570E+01 -0.50835713051E+01  0.89708474000E+00  0.88992098452E+01  0.51100000000E-03 0. -1.
        -11    1    4    4    0    0  0.93186827436E+01  0.17873112844E+02  0.76601690233E+01  0.21563028557E+02  0.51100000000E-03 0.  1.
        -12    1    4    4    0    0 -0.11201605088E+02  0.18952061050E+02  0.93159671719E+01  0.23904891109E+02  0.00000000000E+00 0.  1.
</event>
<event>
 8    1  0.2502431E-006  0.9118800E+02  0.7816164E-02  0.1184000E+00
        -11   -1    0    0    0    0  0.00000000000E+00  0.00000000000E+00  0.45593999997E+02  0.45594000000E+02  0.51100000000E-03 0.  1.
         11   -1    0    0    0    0 -0.00000000000E+00 -0.00000000000E+00 -0.45593999997E+02  0.45594000000E+02  0.51100000000E-03 0. -1.
         23    2    1    2    0    0  0.35527136788E-14 -0.28865798640E-14 -0.35527136788E-14  0.91188000000E+02  0.91188000000E+02 0.  0.
    9900012    2    3    3    0    0  0.29338209075E+02 -0.12655030215E+01 -0.22213669372E+02  0.54367094028E+02  0.40000022455E+02 0.  0.
        -12    1    3    3    0    0 -0.29338209075E+02  0.12655030215E+01  0.22213669372E+02  0.36820905972E+02  0.00000000000E+00 0.  1.
         11    1    4    4    0    0  0.18665729751E+02  0.14328516598E+02 -0.29108216222E+01  0.23710519560E+02  0.51100000000E-03 0. -1.
        -11    1    4    4    0    0  0.11649242174E+02 -0.83913137755E+01 -0.61286568815E+01  0.15610234641E+02  0.51100000000E-03 0.  1.
        -12    1    4    4    0    0 -0.97676284963E+00 -0.72027058441E+01 -0.13174190868E+02  0.15046339827E+02  0.00000000000E+00 0.  1.
</event>
<event>
 8    1  0.2502431E-006  0.9118800E+02  0.7816164E-02  0.1184000E+00
        -11   -1    0    0    0    0  0.00000000000E+00  0.00000000000E+00  0.45593999997E+02  0.45594000000E+02  0.51100000000E-03 0. -1.
         11   -1    0    0    0    0 -0.00000000000E+00 -0.00000000000E+00 -0.45593999997E+02  0.45594000000E+02  0.51100000000E-03 0.  1.
         23    2    1    2    0    0  0.00000000000E+00 -0.17763568394E-14  0.00000000000E+00  0.91188000000E+02  0.91188000000E+02 0.  0.
    9900012    2    3    3    0    0 -0.14746119455E+02  0.45802130159E+01 -0.33426856491E+02  0.54367066754E+02  0.39999960279E+02 0.  0.
         12    1    3    3    0    0  0.14746119455E+02 -0.45802130159E+01  0.33426856491E+02  0.36820933246E+02  0.00000000000E+00 0. -1.
         11    1    4    4    0    0 -0.86522320809E+00 -0.64535668370E+01 -0.26902654718E+02  0.27679414142E+02  0.51100000000E-03 0. -1.
        -11    1    4    4    0    0 -0.16706764799E+02  0.25057783924E+01 -0.43158513790E+01  0.17436211997E+02  0.51100000000E-03 0.  1.
         12    1    4    4    0    0  0.28258685527E+01  0.85280014606E+01 -0.22083503942E+01  0.92514406149E+01  0.00000000000E+00 0. -1.
</event>
<event>
 8    1  0.2502431E-006  0.9118800E+02  0.7816164E-02  0.1184000E+00
        -11   -1    0    0    0    0  0.00000000000E+00  0.00000000000E+00  0.45593999997E+02  0.45594000000E+02  0.51100000000E-03 0.  1.
         11   -1    0    0    0    0 -0.00000000000E+00 -0.00000000000E+00 -0.45593999997E+02  0.45594000000E+02  0.51100000000E-03 0. -1.
         23    2    1    2    0    0  0.35527136788E-14  0.00000000000E+00  0.00000000000E+00  0.91188000000E+02  0.91188000000E+02 0.  0.
    9900012    2    3    3    0    0  0.27816096672E+02  0.16349364296E+02 -0.17740997308E+02  0.54367082950E+02  0.39999997201E+02 0.  0.
        -12    1    3    3    0    0 -0.27816096672E+02 -0.16349364296E+02  0.17740997308E+02  0.36820917050E+02  0.00000000000E+00 0.  1.
         11    1    4    4    0    0  0.73712083275E+01  0.16422410052E+02 -0.34574954487E+01  0.18329881046E+02  0.51100000000E-03 0. -1.
        -11    1    4    4    0    0  0.23254138314E+02 -0.77267318766E+01 -0.81127576986E+01  0.25812287229E+02  0.51100000000E-03 0.  1.
        -12    1    4    4    0    0 -0.28092499699E+01  0.76536861200E+01 -0.61707441607E+01  0.10224914675E+02  0.00000000000E+00 0.  1.
</event>
<event>
 8    1  0.2502431E-006  0.9118800E+02  0.7816164E-02  0.1184000E+00
        -11   -1    0    0    0    0  0.00000000000E+00  0.00000000000E+00  0.45593999997E+02  0.45594000000E+02  0.51100000000E-03 0. -1.
         11   -1    0    0    0    0 -0.00000000000E+00 -0.00000000000E+00 -0.45593999997E+02  0.45594000000E+02  0.51100000000E-03 0.  1.
         23    2    1    2    0    0  0.00000000000E+00 -0.35527136788E-14  0.35527136788E-14  0.91188000000E+02  0.91188000000E+02 0.  0.
    9900012    2    3    3    0    0 -0.73546986324E+01 -0.21656462828E+02  0.28856291351E+02  0.54367088486E+02  0.40000009822E+02 0.  0.
        -12    1    3    3    0    0  0.73546986324E+01  0.21656462828E+02 -0.28856291351E+02  0.36820911514E+02  0.00000000000E+00 0.  1.
         11    1    4    4    0    0  0.10737056254E+02 -0.18342841482E+01  0.50727832031E+01  0.12015910495E+02  0.51100000000E-03 0. -1.
        -11    1    4    4    0    0 -0.14471503631E+02 -0.19761550695E+01  0.33573666561E+01  0.14986711358E+02  0.51100000000E-03 0.  1.
        -12    1    4    4    0    0 -0.36202512556E+01 -0.17846023610E+02  0.20426141492E+02  0.27364466633E+02  0.00000000000E+00 0.  1.
</event>
<event>
 8    1  0.2502431E-006  0.9118800E+02  0.7816164E-02  0.1184000E+00
        -11   -1    0    0    0    0  0.00000000000E+00  0.00000000000E+00  0.45593999997E+02  0.45594000000E+02  0.51100000000E-03 0. -1.
         11   -1    0    0    0    0 -0.00000000000E+00 -0.00000000000E+00 -0.45593999997E+02  0.45594000000E+02  0.51100000000E-03 0.  1.
         23    2    1    2    0    0 -0.35527136788E-14  0.00000000000E+00  0.17763568394E-14  0.91188000000E+02  0.91188000000E+02 0.  0.
    9900012    2    3    3    0    0 -0.30164704062E+02 -0.15369336826E+02  0.14479388692E+02  0.54367101281E+02  0.40000038989E+02 0.  0.
        -12    1    3    3    0    0  0.30164704062E+02  0.15369336826E+02 -0.14479388692E+02  0.36820898719E+02  0.00000000000E+00 0.  1.
         11    1    4    4    0    0 -0.56239540839E+01  0.29326836468E+01 -0.11233423397E+02  0.12900360243E+02  0.51100000000E-03 0. -1.
        -11    1    4    4    0    0 -0.26423502554E+01  0.15627469627E+00 -0.43904697615E+00  0.26831323414E+01  0.51100000000E-03 0.  1.
         12    1    4    4    0    0 -0.21898399722E+02 -0.18458295169E+02  0.26151859066E+02  0.38783608697E+02  0.00000000000E+00 0. -1.
</event>
<event>
 8    1  0.2502431E-006  0.9118800E+02  0.7816164E-02  0.1184000E+00
        -11   -1    0    0    0    0  0.00000000000E+00  0.00000000000E+00  0.45593999997E+02  0.45594000000E+02  0.51100000000E-03 0. -1.
         11   -1    0    0    0    0 -0.00000000000E+00 -0.00000000000E+00 -0.45593999997E+02  0.45594000000E+02  0.51100000000E-03 0.  1.
         23    2    1    2    0    0  0.71054273576E-14 -0.88817841970E-15  0.00000000000E+00  0.91188000000E+02  0.91188000000E+02 0.  0.
    9900012    2    3    3    0    0  0.36247775639E+02 -0.57128444986E+01 -0.30400374059E+01  0.54367086670E+02  0.40000005682E+02 0.  0.
         12    1    3    3    0    0 -0.36247775639E+02  0.57128444986E+01  0.30400374059E+01  0.36820913330E+02  0.00000000000E+00 0. -1.
         11    1    4    4    0    0 -0.48061460341E+00  0.78389116078E+01  0.65504194254E+01  0.10226804022E+02  0.51100000000E-03 0. -1.
        -11    1    4    4    0    0 -0.11257121386E+01  0.75098814229E+00  0.16578071446E+01  0.21399849996E+01  0.51100000000E-03 0.  1.
        -12    1    4    4    0    0  0.37854102381E+02 -0.14302744249E+02 -0.11248263976E+02  0.42000297649E+02  0.00000000000E+00 0.  1.
</event>
<event>
 8    1  0.2502431E-006  0.9118800E+02  0.7816164E-02  0.1184000E+00
        -11   -1    0    0    0    0  0.00000000000E+00  0.00000000000E+00  0.45593999997E+02  0.45594000000E+02  0.51100000000E-03 0.  1.
         11   -1    0    0    0    0 -0.00000000000E+00 -0.00000000000E+00 -0.45593999997E+02  0.45594000000E+02  0.51100000000E-03 0. -1.
         23    2    1    2    0    0  0.00000000000E+00  0.00000000000E+00  0.00000000000E+00  0.91188000000E+02  0.91188000000E+02 0.  0.
    9900012    2    3    3    0    0 -0.10106578131E+02 -0.23843253958E+02  0.26175084756E+02  0.54367099103E+02  0.40000034026E+02 0.  0.
         12    1    3    3    0    0  0.10106578131E+02  0.23843253958E+02 -0.26175084756E+02  0.36820900897E+02  0.00000000000E+00 0. -1.
         11    1    4    4    0    0  0.15230307024E+01 -0.10269855094E+01  0.82658326655E+00  0.20143390764E+01  0.51100000000E-03 0. -1.
        -11    1    4    4    0    0 -0.58997307089E+01 -0.30093433167E+02  0.29178664202E+02  0.42329847473E+02  0.51100000000E-03 0.  1.
         12    1    4    4    0    0 -0.57298781247E+01  0.72771647185E+01 -0.38301627121E+01  0.10022912554E+02  0.00000000000E+00 0. -1.
</event>
<event>
 8    1  0.2502431E-006  0.9118800E+02  0.7816164E-02  0.1184000E+00
        -11   -1    0    0    0    0  0.00000000000E+00  0.00000000000E+00  0.45593999997E+02  0.45594000000E+02  0.51100000000E-03 0.  1.
         11   -1    0    0    0    0 -0.00000000000E+00 -0.00000000000E+00 -0.45593999997E+02  0.45594000000E+02  0.51100000000E-03 0. -1.
         23    2    1    2    0    0 -0.88817841970E-15  0.00000000000E+00  0.00000000000E+00  0.91188000000E+02  0.91188000000E+02 0.  0.
    9900012    2    3    3    0    0 -0.66686555599E+01  0.13653494025E+02  0.33539387877E+02  0.54367090108E+02  0.40000013520E+02 0.  0.
         12    1    3    3    0    0  0.66686555599E+01 -0.13653494025E+02 -0.33539387877E+02  0.36820909892E+02  0.00000000000E+00 0. -1.
         11    1    4    4    0    0  0.25043594847E+00 -0.77410809508E+01 -0.37574647784E+01  0.86084606216E+01  0.51100000000E-03 0. -1.
        -11    1    4    4    0    0  0.42903322821E+01  0.72766622446E+01  0.10804613978E+02  0.13714825846E+02  0.51100000000E-03 0.  1.
         12    1    4    4    0    0 -0.11209423791E+02  0.14117912731E+02  0.26492238678E+02  0.32043803640E+02  0.00000000000E+00 0. -1.
</event>
<event>
 8    1  0.2502431E-006  0.9118800E+02  0.7816164E-02  0.1184000E+00
        -11   -1    0    0    0    0  0.00000000000E+00  0.00000000000E+00  0.45593999997E+02  0.45594000000E+02  0.51100000000E-03 0. -1.
         11   -1    0    0    0    0 -0.00000000000E+00 -0.00000000000E+00 -0.45593999997E+02  0.45594000000E+02  0.51100000000E-03 0.  1.
         23    2    1    2    0    0  0.00000000000E+00  0.00000000000E+00  0.00000000000E+00  0.91188000000E+02  0.91188000000E+02 0.  0.
    9900012    2    3    3    0    0  0.33601275420E+02 -0.89612198927E+01  0.12100867740E+02  0.54367079698E+02  0.39999989788E+02 0.  0.
        -12    1    3    3    0    0 -0.33601275420E+02  0.89612198927E+01 -0.12100867740E+02  0.36820920302E+02  0.00000000000E+00 0.  1.
         11    1    4    4    0    0  0.25364644985E+02 -0.13767709300E+02 -0.59204948386E-01  0.28860328136E+02  0.51100000000E-03 0. -1.
        -11    1    4    4    0    0 -0.61712139527E+01  0.50024227009E+01  0.33795474683E+01  0.86330444156E+01  0.51100000000E-03 0.  1.
         12    1    4    4    0    0  0.14407844387E+02 -0.19593329351E+00  0.87805252201E+01  0.16873707147E+02  0.00000000000E+00 0. -1.
</event>
<event>
 8    1  0.2502431E-006  0.9118800E+02  0.7816164E-02  0.1184000E+00
        -11   -1    0    0    0    0  0.00000000000E+00  0.00000000000E+00  0.45593999997E+02  0.45594000000E+02  0.51100000000E-03 0.  1.
         11   -1    0    0    0    0 -0.00000000000E+00 -0.00000000000E+00 -0.45593999997E+02  0.45594000000E+02  0.51100000000E-03 0. -1.
         23    2    1    2    0    0 -0.88817841970E-15 -0.88817841970E-15  0.00000000000E+00  0.91188000000E+02  0.91188000000E+02 0.  0.
    9900012    2    3    3    0    0  0.44888800614E+01  0.71321055704E+01  0.35843593993E+02  0.54367079256E+02  0.39999988780E+02 0.  0.
         12    1    3    3    0    0 -0.44888800614E+01 -0.71321055704E+01 -0.35843593993E+02  0.36820920744E+02  0.00000000000E+00 0. -1.
         11    1    4    4    0    0 -0.76046918854E+01  0.12442081252E+02  0.73828924989E+01  0.16344535064E+02  0.51100000000E-03 0. -1.
        -11    1    4    4    0    0  0.33638364359E+00  0.75199731136E+01  0.11334873726E+02  0.13606708354E+02  0.51100000000E-03 0.  1.
        -12    1    4    4    0    0  0.11757188303E+02 -0.12829948796E+02  0.17125827769E+02  0.24415835838E+02  0.00000000000E+00 0.  1.
</event>
<event>
 8    1  0.2502431E-006  0.9118800E+02  0.7816164E-02  0.1184000E+00
        -11   -1    0    0    0    0  0.00000000000E+00  0.00000000000E+00  0.45593999997E+02  0.45594000000E+02  0.51100000000E-03 0. -1.
         11   -1    0    0    0    0 -0.00000000000E+00 -0.00000000000E+00 -0.45593999997E+02  0.45594000000E+02  0.51100000000E-03 0.  1.
         23    2    1    2    0    0  0.35527136788E-14  0.00000000000E+00  0.00000000000E+00  0.91188000000E+02  0.91188000000E+02 0.  0.
    9900012    2    3    3    0    0  0.30904935549E+02  0.13945525922E+02  0.14359113820E+02  0.54367124342E+02  0.40000091562E+02 0.  0.
        -12    1    3    3    0    0 -0.30904935549E+02 -0.13945525922E+02 -0.14359113820E+02  0.36820875658E+02  0.00000000000E+00 0.  1.
         11    1    4    4    0    0  0.21607060039E+02  0.12574246407E+02  0.19935071665E+00  0.25000329142E+02  0.51100000000E-03 0. -1.
        -11    1    4    4    0    0  0.15967203539E+02 -0.32614993085E+01  0.13601543622E+02  0.21227127826E+02  0.51100000000E-03 0.  1.
        -12    1    4    4    0    0 -0.66693280284E+01  0.46327788235E+01  0.55821948181E+00  0.81396673745E+01  0.00000000000E+00 0.  1.
</event>
<event>
 8    1  0.2502431E-006  0.9118800E+02  0.7816164E-02  0.1184000E+00
        -11   -1    0    0    0    0  0.00000000000E+00  0.00000000000E+00  0.45593999997E+02  0.45594000000E+02  0.51100000000E-03 0. -1.
         11   -1    0    0    0    0 -0.00000000000E+00 -0.00000000000E+00 -0.45593999997E+02  0.45594000000E+02  0.51100000000E-03 0.  1.
         23    2    1    2    0    0  0.00000000000E+00  0.00000000000E+00  0.71054273576E-14  0.91188000000E+02  0.91188000000E+02 0.  0.
    9900012    2    3    3    0    0  0.10020786854E+02  0.85054543344E+01 -0.34395066482E+02  0.54367088538E+02  0.40000009940E+02 0.  0.
         12    1    3    3    0    0 -0.10020786854E+02 -0.85054543344E+01  0.34395066482E+02  0.36820911462E+02  0.00000000000E+00 0. -1.
         11    1    4    4    0    0  0.97452796276E+01  0.78808150104E+00 -0.15126435158E+02  0.18011124016E+02  0.51100000000E-03 0.  1.
        -11    1    4    4    0    0 -0.43075692968E+01  0.17159301895E+02 -0.45303516866E+01  0.18262554078E+02  0.51100000000E-03 0. -1.
        -12    1    4    4    0    0  0.45830765226E+01 -0.94419290619E+01 -0.14738279637E+02  0.18093410444E+02  0.00000000000E+00 0.  1.
</event>
<event>
 8    1  0.2502431E-006  0.9118800E+02  0.7816164E-02  0.1184000E+00
        -11   -1    0    0    0    0  0.00000000000E+00  0.00000000000E+00  0.45593999997E+02  0.45594000000E+02  0.51100000000E-03 0. -1.
         11   -1    0    0    0    0 -0.00000000000E+00 -0.00000000000E+00 -0.45593999997E+02  0.45594000000E+02  0.51100000000E-03 0.  1.
         23    2    1    2    0    0  0.00000000000E+00  0.00000000000E+00 -0.35527136788E-14  0.91188000000E+02  0.91188000000E+02 0.  0.
    9900012    2    3    3    0    0  0.31678522621E+02 -0.56898921551E+01 -0.17885070201E+02  0.54367090122E+02  0.40000013551E+02 0.  0.
        -12    1    3    3    0    0 -0.31678522621E+02  0.56898921551E+01  0.17885070201E+02  0.36820909878E+02  0.00000000000E+00 0.  1.
         11    1    4    4    0    0 -0.52699361637E+01 -0.62119669058E-01 -0.26309990307E+01  0.58905213847E+01  0.51100000000E-03 0.  1.
        -11    1    4    4    0    0  0.21104414787E+02  0.86392014737E+01 -0.99291049540E+00  0.22825818651E+02  0.51100000000E-03 0. -1.
        -12    1    4    4    0    0  0.15844043998E+02 -0.14266973960E+02 -0.14261160675E+02  0.25650750086E+02  0.00000000000E+00 0.  1.
</event>
<event>
 8    1  0.2502431E-006  0.9118800E+02  0.7816164E-02  0.1184000E+00
        -11   -1    0    0    0    0  0.00000000000E+00  0.00000000000E+00  0.45593999997E+02  0.45594000000E+02  0.51100000000E-03 0.  1.
         11   -1    0    0    0    0 -0.00000000000E+00 -0.00000000000E+00 -0.45593999997E+02  0.45594000000E+02  0.51100000000E-03 0. -1.
         23    2    1    2    0    0  0.35527136788E-14 -0.35527136788E-14 -0.17763568394E-14  0.91188000000E+02  0.91188000000E+02 0.  0.
    9900012    2    3    3    0    0 -0.29321014710E+02  0.17828442069E+02  0.13349343921E+02  0.54367078863E+02  0.39999987885E+02 0.  0.
        -12    1    3    3    0    0  0.29321014710E+02 -0.17828442069E+02 -0.13349343921E+02  0.36820921137E+02  0.00000000000E+00 0.  1.
         11    1    4    4    0    0 -0.10360867617E+02  0.12091408108E+02  0.11643711145E+02  0.19726270233E+02  0.51100000000E-03 0. -1.
        -11    1    4    4    0    0 -0.82689209760E+01 -0.21233685923E+01  0.14099866052E+02  0.16483020695E+02  0.51100000000E-03 0.  1.
         12    1    4    4    0    0 -0.10691226116E+02  0.78604025534E+01 -0.12394233277E+02  0.18157787935E+02  0.00000000000E+00 0. -1.
</event>
<event>
 8    1  0.2502431E-006  0.9118800E+02  0.7816164E-02  0.1184000E+00
        -11   -1    0    0    0    0  0.00000000000E+00  0.00000000000E+00  0.45593999997E+02  0.45594000000E+02  0.51100000000E-03 0.  1.
         11   -1    0    0    0    0 -0.00000000000E+00 -0.00000000000E+00 -0.45593999997E+02  0.45594000000E+02  0.51100000000E-03 0. -1.
         23    2    1    2    0    0  0.00000000000E+00  0.00000000000E+00  0.00000000000E+00  0.91188000000E+02  0.91188000000E+02 0.  0.
    9900012    2    3    3    0    0 -0.23809890903E+02 -0.93902090089E+01 -0.26470595913E+02  0.54367090478E+02  0.40000014363E+02 0.  0.
        -12    1    3    3    0    0  0.23809890903E+02  0.93902090089E+01  0.26470595913E+02  0.36820909522E+02  0.00000000000E+00 0.  1.
         11    1    4    4    0    0  0.36616075835E+01 -0.57903979812E+01 -0.56730683970E+01  0.88949302512E+01  0.51100000000E-03 0. -1.
        -11    1    4    4    0    0 -0.15699018577E+02 -0.52710831571E+01 -0.27292252831E+02  0.31923511192E+02  0.51100000000E-03 0.  1.
        -12    1    4    4    0    0 -0.11772479910E+02  0.16712721293E+01  0.64947253156E+01  0.13548649035E+02  0.00000000000E+00 0.  1.
</event>
<event>
 8    1  0.2502431E-006  0.9118800E+02  0.7816164E-02  0.1184000E+00
        -11   -1    0    0    0    0  0.00000000000E+00  0.00000000000E+00  0.45593999997E+02  0.45594000000E+02  0.51100000000E-03 0.  1.
         11   -1    0    0    0    0 -0.00000000000E+00 -0.00000000000E+00 -0.45593999997E+02  0.45594000000E+02  0.51100000000E-03 0. -1.
         23    2    1    2    0    0  0.00000000000E+00  0.00000000000E+00  0.35527136788E-14  0.91188000000E+02  0.91188000000E+02 0.  0.
    9900012    2    3    3    0    0  0.33941761268E+02  0.13482194380E+02  0.46866186492E+01  0.54367121172E+02  0.40000084336E+02 0.  0.
        -12    1    3    3    0    0 -0.33941761268E+02 -0.13482194380E+02 -0.46866186492E+01  0.36820878828E+02  0.00000000000E+00 0.  1.
         11    1    4    4    0    0  0.18351440369E+02  0.94834138712E+01 -0.16796560955E+02  0.26623954673E+02  0.51100000000E-03 0. -1.
        -11    1    4    4    0    0  0.12757775484E+01  0.19914919127E+01  0.65328493346E+01  0.69477887908E+01  0.51100000000E-03 0.  1.
         12    1    4    4    0    0  0.14314543351E+02  0.20072885963E+01  0.14950330269E+02  0.20795377708E+02  0.00000000000E+00 0. -1.
</event>
<event>
 8    1  0.2502431E-006  0.9118800E+02  0.7816164E-02  0.1184000E+00
        -11   -1    0    0    0    0  0.00000000000E+00  0.00000000000E+00  0.45593999997E+02  0.45594000000E+02  0.51100000000E-03 0.  1.
         11   -1    0    0    0    0 -0.00000000000E+00 -0.00000000000E+00 -0.45593999997E+02  0.45594000000E+02  0.51100000000E-03 0. -1.
         23    2    1    2    0    0 -0.71054273576E-14  0.00000000000E+00  0.22204460493E-15  0.91188000000E+02  0.91188000000E+02 0.  0.
    9900012    2    3    3    0    0 -0.34604406108E+02 -0.12551216225E+02 -0.88468337058E+00  0.54367073674E+02  0.39999976055E+02 0.  0.
         12    1    3    3    0    0  0.34604406108E+02  0.12551216225E+02  0.88468337058E+00  0.36820926326E+02  0.00000000000E+00 0. -1.
         11    1    4    4    0    0 -0.29491420959E+02 -0.40861864694E+01 -0.29081882529E+01  0.29914852318E+02  0.51100000000E-03 0. -1.
        -11    1    4    4    0    0  0.65090700486E+01  0.13933546523E+01 -0.43298661397E+01  0.79408545594E+01  0.51100000000E-03 0.  1.
        -12    1    4    4    0    0 -0.11622055198E+02 -0.98583844079E+01  0.63533710220E+01  0.16511366797E+02  0.00000000000E+00 0.  1.
</event>
<event>
 8    1  0.2502431E-006  0.9118800E+02  0.7816164E-02  0.1184000E+00
        -11   -1    0    0    0    0  0.00000000000E+00  0.00000000000E+00  0.45593999997E+02  0.45594000000E+02  0.51100000000E-03 0.  1.
         11   -1    0    0    0    0 -0.00000000000E+00 -0.00000000000E+00 -0.45593999997E+02  0.45594000000E+02  0.51100000000E-03 0. -1.
         23    2    1    2    0    0  0.71054273576E-14  0.00000000000E+00  0.00000000000E+00  0.91188000000E+02  0.91188000000E+02 0.  0.
    9900012    2    3    3    0    0 -0.32348577432E+02  0.40374488746E+01 -0.17118641364E+02  0.54367091029E+02  0.40000015620E+02 0.  0.
        -12    1    3    3    0    0  0.32348577432E+02 -0.40374488746E+01  0.17118641364E+02  0.36820908971E+02  0.00000000000E+00 0.  1.
         11    1    4    4    0    0 -0.14947376553E+02  0.33026701918E+00 -0.18303148718E+02  0.23633416922E+02  0.51100000000E-03 0. -1.
        -11    1    4    4    0    0 -0.17369353510E+02 -0.25527393897E+01 -0.82606992581E+01  0.19402321311E+02  0.51100000000E-03 0.  1.
        -12    1    4    4    0    0 -0.31847368232E-01  0.62599212451E+01  0.94452066126E+01  0.11331352797E+02  0.00000000000E+00 0.  1.
</event>
<event>
 8    1  0.2502431E-006  0.9118800E+02  0.7816164E-02  0.1184000E+00
        -11   -1    0    0    0    0  0.00000000000E+00  0.00000000000E+00  0.45593999997E+02  0.45594000000E+02  0.51100000000E-03 0.  1.
         11   -1    0    0    0    0 -0.00000000000E+00 -0.00000000000E+00 -0.45593999997E+02  0.45594000000E+02  0.51100000000E-03 0. -1.
         23    2    1    2    0    0  0.00000000000E+00 -0.35527136788E-14 -0.44408920985E-15  0.91188000000E+02  0.91188000000E+02 0.  0.
    9900012    2    3    3    0    0  0.18453628093E+02  0.31783569286E+02  0.22458454485E+01  0.54367143300E+02  0.40000134780E+02 0.  0.
        -12    1    3    3    0    0 -0.18453628093E+02 -0.31783569286E+02 -0.22458454485E+01  0.36820856700E+02  0.00000000000E+00 0.  1.
         11    1    4    4    0    0 -0.38204525350E+01  0.15371731092E+02  0.59806292964E+00  0.15850667301E+02  0.51100000000E-03 0. -1.
        -11    1    4    4    0    0  0.98102778079E+00  0.30468824808E+01 -0.10224753713E+02  0.10714079387E+02  0.51100000000E-03 0.  1.
         12    1    4    4    0    0  0.21293052848E+02  0.13364955713E+02  0.11872536232E+02  0.27802396612E+02  0.00000000000E+00 0. -1.
</event>
<event>
 8    1  0.2502431E-006  0.9118800E+02  0.7816164E-02  0.1184000E+00
        -11   -1    0    0    0    0  0.00000000000E+00  0.00000000000E+00  0.45593999997E+02  0.45594000000E+02  0.51100000000E-03 0.  1.
         11   -1    0    0    0    0 -0.00000000000E+00 -0.00000000000E+00 -0.45593999997E+02  0.45594000000E+02  0.51100000000E-03 0. -1.
         23    2    1    2    0    0  0.00000000000E+00  0.88817841970E-15  0.35527136788E-14  0.91188000000E+02  0.91188000000E+02 0.  0.
    9900012    2    3    3    0    0  0.33172847136E+02 -0.64867453502E+01 -0.14603534954E+02  0.54367097166E+02  0.40000029609E+02 0.  0.
        -12    1    3    3    0    0 -0.33172847136E+02  0.64867453502E+01  0.14603534954E+02  0.36820902834E+02  0.00000000000E+00 0.  1.
         11    1    4    4    0    0  0.72320451985E+00  0.24295036473E+01  0.13807187179E+01  0.28865025877E+01  0.51100000000E-03 0. -1.
        -11    1    4    4    0    0  0.37840183766E+00  0.96188288057E+01  0.26934930549E+01  0.99959972309E+01  0.51100000000E-03 0.  1.
         12    1    4    4    0    0  0.32071240779E+02 -0.18535077803E+02 -0.18677746727E+02  0.41484597347E+02  0.00000000000E+00 0. -1.
</event>
<event>
 8    1  0.2502431E-006  0.9118800E+02  0.7816164E-02  0.1184000E+00
        -11   -1    0    0    0    0  0.00000000000E+00  0.00000000000E+00  0.45593999997E+02  0.45594000000E+02  0.51100000000E-03 0. -1.
         11   -1    0    0    0    0 -0.00000000000E+00 -0.00000000000E+00 -0.45593999997E+02  0.45594000000E+02  0.51100000000E-03 0.  1.
         23    2    1    2    0    0  0.71054273576E-14  0.00000000000E+00  0.00000000000E+00  0.91188000000E+02  0.91188000000E+02 0.  0.
    9900012    2    3    3    0    0 -0.35631803912E+02 -0.77472045946E+01 -0.51116749661E+01  0.54367165544E+02  0.40000185490E+02 0.  0.
         12    1    3    3    0    0  0.35631803912E+02  0.77472045946E+01  0.51116749661E+01  0.36820834456E+02  0.00000000000E+00 0. -1.
         11    1    4    4    0    0 -0.40935686040E+01 -0.87347602784E+01  0.50309912916E+01  0.10879531914E+02  0.51100000000E-03 0. -1.
        -11    1    4    4    0    0 -0.13620774602E+01 -0.96046108649E+01 -0.55563235665E+01  0.11179290528E+02  0.51100000000E-03 0.  1.
         12    1    4    4    0    0 -0.30176157848E+02  0.10592166549E+02 -0.45863426912E+01  0.32308343102E+02  0.00000000000E+00 0. -1.
</event>
<event>
 8    1  0.2502431E-006  0.9118800E+02  0.7816164E-02  0.1184000E+00
        -11   -1    0    0    0    0  0.00000000000E+00  0.00000000000E+00  0.45593999997E+02  0.45594000000E+02  0.51100000000E-03 0.  1.
         11   -1    0    0    0    0 -0.00000000000E+00 -0.00000000000E+00 -0.45593999997E+02  0.45594000000E+02  0.51100000000E-03 0. -1.
         23    2    1    2    0    0 -0.17763568394E-14  0.17763568394E-14  0.00000000000E+00  0.91188000000E+02  0.91188000000E+02 0.  0.
    9900012    2    3    3    0    0 -0.14109426661E+02 -0.50097358630E+01 -0.33639350080E+02  0.54367092245E+02  0.40000018391E+02 0.  0.
        -12    1    3    3    0    0  0.14109426661E+02  0.50097358630E+01  0.33639350080E+02  0.36820907755E+02  0.00000000000E+00 0.  1.
         11    1    4    4    0    0  0.35524759166E+01 -0.15593306975E+02 -0.11695611779E+02  0.19813092709E+02  0.51100000000E-03 0. -1.
        -11    1    4    4    0    0 -0.14530635638E+02 -0.87488674266E+00 -0.96861259477E+01  0.17485017444E+02  0.51100000000E-03 0.  1.
         12    1    4    4    0    0 -0.31312669395E+01  0.11458457855E+02 -0.12257612353E+02  0.17068982092E+02  0.00000000000E+00 0. -1.
</event>
<event>
 8    1  0.2502431E-006  0.9118800E+02  0.7816164E-02  0.1184000E+00
        -11   -1    0    0    0    0  0.00000000000E+00  0.00000000000E+00  0.45593999997E+02  0.45594000000E+02  0.51100000000E-03 0.  1.
         11   -1    0    0    0    0 -0.00000000000E+00 -0.00000000000E+00 -0.45593999997E+02  0.45594000000E+02  0.51100000000E-03 0. -1.
         23    2    1    2    0    0  0.00000000000E+00  0.11102230246E-14  0.71054273576E-14  0.91188000000E+02  0.91188000000E+02 0.  0.
    9900012    2    3    3    0    0  0.20780918354E+02  0.10568243361E+01  0.30377812458E+02  0.54367150810E+02  0.40000151901E+02 0.  0.
         12    1    3    3    0    0 -0.20780918354E+02 -0.10568243361E+01 -0.30377812458E+02  0.36820849190E+02  0.00000000000E+00 0. -1.
         11    1    4    4    0    0  0.12110086844E+02 -0.30074221176E+01  0.24872981465E+01  0.12723421061E+02  0.51100000000E-03 0. -1.
        -11    1    4    4    0    0  0.16675069381E+02  0.98071674265E+01  0.24518379497E+02  0.31231224844E+02  0.51100000000E-03 0.  1.
         12    1    4    4    0    0 -0.80042378712E+01 -0.57429209728E+01  0.33721348146E+01  0.10412504905E+02  0.00000000000E+00 0. -1.
</event>
<event>
 8    1  0.2502431E-006  0.9118800E+02  0.7816164E-02  0.1184000E+00
        -11   -1    0    0    0    0  0.00000000000E+00  0.00000000000E+00  0.45593999997E+02  0.45594000000E+02  0.51100000000E-03 0. -1.
         11   -1    0    0    0    0 -0.00000000000E+00 -0.00000000000E+00 -0.45593999997E+02  0.45594000000E+02  0.51100000000E-03 0.  1.
         23    2    1    2    0    0  0.00000000000E+00 -0.88817841970E-15  0.00000000000E+00  0.91188000000E+02  0.91188000000E+02 0.  0.
    9900012    2    3    3    0    0  0.10391954022E+02 -0.74829128021E+01  0.34522400797E+02  0.54367043343E+02  0.39999906908E+02 0.  0.
        -12    1    3    3    0    0 -0.10391954022E+02  0.74829128021E+01 -0.34522400797E+02  0.36820956657E+02  0.00000000000E+00 0.  1.
         11    1    4    4    0    0  0.17032080650E+02  0.26719848310E+00  0.27890132193E+02  0.32680615666E+02  0.51100000000E-03 0. -1.
        -11    1    4    4    0    0 -0.54739925734E+01  0.34910480671E+01  0.79994111764E+01  0.10302552632E+02  0.51100000000E-03 0.  1.
        -12    1    4    4    0    0 -0.11661340546E+01 -0.11241159352E+02 -0.13671425729E+01  0.11383875045E+02  0.00000000000E+00 0.  1.
</event>
<event>
 8    1  0.2502431E-006  0.9118800E+02  0.7816164E-02  0.1184000E+00
        -11   -1    0    0    0    0  0.00000000000E+00  0.00000000000E+00  0.45593999997E+02  0.45594000000E+02  0.51100000000E-03 0.  1.
         11   -1    0    0    0    0 -0.00000000000E+00 -0.00000000000E+00 -0.45593999997E+02  0.45594000000E+02  0.51100000000E-03 0. -1.
         23    2    1    2    0    0  0.00000000000E+00 -0.35527136788E-14  0.00000000000E+00  0.91188000000E+02  0.91188000000E+02 0.  0.
    9900012    2    3    3    0    0  0.19801727723E+01  0.15844391073E+02 -0.33178481957E+02  0.54367116283E+02  0.40000073191E+02 0.  0.
        -12    1    3    3    0    0 -0.19801727723E+01 -0.15844391073E+02  0.33178481957E+02  0.36820883717E+02  0.00000000000E+00 0.  1.
         11    1    4    4    0    0  0.13775149952E+02  0.45271123198E+01 -0.10372827948E+02  0.17828209726E+02  0.51100000000E-03 0. -1.
        -11    1    4    4    0    0  0.61332878624E+01 -0.12014528834E+01 -0.26096226206E+01  0.67728014526E+01  0.51100000000E-03 0.  1.
         12    1    4    4    0    0 -0.17928265042E+02  0.12518731637E+02 -0.20196031389E+02  0.29766105104E+02  0.00000000000E+00 0. -1.
</event>
<event>
 8    1  0.2502431E-006  0.9118800E+02  0.7816164E-02  0.1184000E+00
        -11   -1    0    0    0    0  0.00000000000E+00  0.00000000000E+00  0.45593999997E+02  0.45594000000E+02  0.51100000000E-03 0.  1.
         11   -1    0    0    0    0 -0.00000000000E+00 -0.00000000000E+00 -0.45593999997E+02  0.45594000000E+02  0.51100000000E-03 0. -1.
         23    2    1    2    0    0  0.12212453271E-14  0.00000000000E+00 -0.17763568394E-14  0.91188000000E+02  0.91188000000E+02 0.  0.
    9900012    2    3    3    0    0  0.63617151143E+00 -0.35082106484E+02  0.11163378605E+02  0.54367082964E+02  0.39999997232E+02 0.  0.
        -12    1    3    3    0    0 -0.63617151143E+00  0.35082106484E+02 -0.11163378605E+02  0.36820917036E+02  0.00000000000E+00 0.  1.
         11    1    4    4    0    0 -0.12645020243E+02 -0.12676880902E+02  0.46124123216E+01  0.18489840292E+02  0.51100000000E-03 0. -1.
        -11    1    4    4    0    0  0.50201029987E+01 -0.23820154335E+02 -0.13203600202E+01  0.24379182461E+02  0.51100000000E-03 0.  1.
        -12    1    4    4    0    0  0.82610887560E+01  0.14149287527E+01  0.78713263034E+01  0.11498060210E+02  0.00000000000E+00 0.  1.
</event>
<event>
 8    1  0.2502431E-006  0.9118800E+02  0.7816164E-02  0.1184000E+00
        -11   -1    0    0    0    0  0.00000000000E+00  0.00000000000E+00  0.45593999997E+02  0.45594000000E+02  0.51100000000E-03 0. -1.
         11   -1    0    0    0    0 -0.00000000000E+00 -0.00000000000E+00 -0.45593999997E+02  0.45594000000E+02  0.51100000000E-03 0.  1.
         23    2    1    2    0    0  0.00000000000E+00  0.00000000000E+00  0.00000000000E+00  0.91188000000E+02  0.91188000000E+02 0.  0.
    9900012    2    3    3    0    0  0.90503123463E+01  0.81828994421E+01  0.34740641367E+02  0.54367079867E+02  0.39999990172E+02 0.  0.
        -12    1    3    3    0    0 -0.90503123463E+01 -0.81828994421E+01 -0.34740641367E+02  0.36820920133E+02  0.00000000000E+00 0.  1.
         11    1    4    4    0    0  0.56212621999E+01 -0.61345717665E+01  0.26638584808E+02  0.27907808232E+02  0.51100000000E-03 0. -1.
        -11    1    4    4    0    0 -0.18340621505E+00 -0.51755707784E+01  0.41233188697E+00  0.51952082315E+01  0.51100000000E-03 0.  1.
         12    1    4    4    0    0  0.36124563615E+01  0.19493041987E+02  0.76897246723E+01  0.21264063403E+02  0.00000000000E+00 0. -1.
</event>
<event>
 8    1  0.2502431E-006  0.9118800E+02  0.7816164E-02  0.1184000E+00
        -11   -1    0    0    0    0  0.00000000000E+00  0.00000000000E+00  0.45593999997E+02  0.45594000000E+02  0.51100000000E-03 0.  1.
         11   -1    0    0    0    0 -0.00000000000E+00 -0.00000000000E+00 -0.45593999997E+02  0.45594000000E+02  0.51100000000E-03 0. -1.
         23    2    1    2    0    0  0.00000000000E+00  0.00000000000E+00  0.00000000000E+00  0.91188000000E+02  0.91188000000E+02 0.  0.
    9900012    2    3    3    0    0 -0.20116731814E+02 -0.18770670545E+02  0.24469548041E+02  0.54367085388E+02  0.40000002758E+02 0.  0.
         12    1    3    3    0    0  0.20116731814E+02  0.18770670545E+02 -0.24469548041E+02  0.36820914612E+02  0.00000000000E+00 0. -1.
         11    1    4    4    0    0 -0.12047673301E+02 -0.98696007070E+01 -0.21491833265E+01  0.15721782320E+02  0.51100000000E-03 0. -1.
        -11    1    4    4    0    0 -0.10455652063E+02  0.62043225545E+01  0.15688467005E+02  0.19847979132E+02  0.51100000000E-03 0.  1.
         12    1    4    4    0    0  0.23865935499E+01 -0.15105392392E+02  0.10930264363E+02  0.18797323935E+02  0.00000000000E+00 0. -1.
</event>
<event>
 8    1  0.2502431E-006  0.9118800E+02  0.7816164E-02  0.1184000E+00
        -11   -1    0    0    0    0  0.00000000000E+00  0.00000000000E+00  0.45593999997E+02  0.45594000000E+02  0.51100000000E-03 0.  1.
         11   -1    0    0    0    0 -0.00000000000E+00 -0.00000000000E+00 -0.45593999997E+02  0.45594000000E+02  0.51100000000E-03 0. -1.
         23    2    1    2    0    0  0.00000000000E+00  0.35527136788E-14  0.35527136788E-14  0.91188000000E+02  0.91188000000E+02 0.  0.
    9900012    2    3    3    0    0 -0.80780412247E+01  0.22648299614E+02 -0.27885113256E+02  0.54367085200E+02  0.40000002330E+02 0.  0.
        -12    1    3    3    0    0  0.80780412247E+01 -0.22648299614E+02  0.27885113256E+02  0.36820914800E+02  0.00000000000E+00 0.  1.
         11    1    4    4    0    0 -0.71029869274E+01  0.17715611383E+01 -0.11455964834E+02  0.13595219111E+02  0.51100000000E-03 0. -1.
        -11    1    4    4    0    0  0.21043930490E+01 -0.51775388008E+01 -0.13204811228E+02  0.14338842979E+02  0.51100000000E-03 0.  1.
        -12    1    4    4    0    0 -0.30794473464E+01  0.26054277277E+02 -0.32243371942E+01  0.26433023109E+02  0.00000000000E+00 0.  1.
</event>
<event>
 8    1  0.2502431E-006  0.9118800E+02  0.7816164E-02  0.1184000E+00
        -11   -1    0    0    0    0  0.00000000000E+00  0.00000000000E+00  0.45593999997E+02  0.45594000000E+02  0.51100000000E-03 0. -1.
         11   -1    0    0    0    0 -0.00000000000E+00 -0.00000000000E+00 -0.45593999997E+02  0.45594000000E+02  0.51100000000E-03 0.  1.
         23    2    1    2    0    0  0.00000000000E+00  0.17763568394E-14  0.00000000000E+00  0.91188000000E+02  0.91188000000E+02 0.  0.
    9900012    2    3    3    0    0 -0.21729374171E+01  0.66828818168E+01 -0.36144105646E+02  0.54367096435E+02  0.40000027944E+02 0.  0.
         12    1    3    3    0    0  0.21729374171E+01 -0.66828818168E+01  0.36144105646E+02  0.36820903565E+02  0.00000000000E+00 0. -1.
         11    1    4    4    0    0 -0.13927037828E+02  0.26741350517E+01 -0.29373881385E+01  0.14482459400E+02  0.51100000000E-03 0. -1.
        -11    1    4    4    0    0  0.64321939099E+01  0.10928887766E+02 -0.24318073293E+02  0.27425943835E+02  0.51100000000E-03 0.  1.
        -12    1    4    4    0    0  0.53219065014E+01 -0.69201410008E+01 -0.88886442137E+01  0.12458693199E+02  0.00000000000E+00 0.  1.
</event>
<event>
 8    1  0.2502431E-006  0.9118800E+02  0.7816164E-02  0.1184000E+00
        -11   -1    0    0    0    0  0.00000000000E+00  0.00000000000E+00  0.45593999997E+02  0.45594000000E+02  0.51100000000E-03 0.  1.
         11   -1    0    0    0    0 -0.00000000000E+00 -0.00000000000E+00 -0.45593999997E+02  0.45594000000E+02  0.51100000000E-03 0. -1.
         23    2    1    2    0    0  0.00000000000E+00  0.00000000000E+00  0.35527136788E-14  0.91188000000E+02  0.91188000000E+02 0.  0.
    9900012    2    3    3    0    0 -0.14188211667E+02  0.16079700684E+02  0.29932055536E+02  0.54366945249E+02  0.39999683283E+02 0.  0.
         12    1    3    3    0    0  0.14188211667E+02 -0.16079700684E+02 -0.29932055536E+02  0.36821054751E+02  0.00000000000E+00 0. -1.
         11    1    4    4    0    0 -0.39001601047E+01 -0.15725784698E+01  0.19800612481E+02  0.20242245596E+02  0.51100000000E-03 0. -1.
        -11    1    4    4    0    0 -0.15544218853E+02  0.18670218162E+02  0.19830377596E+01  0.24374827691E+02  0.51100000000E-03 0.  1.
        -12    1    4    4    0    0  0.52561672908E+01 -0.10179390082E+01  0.81484052945E+01  0.97498719611E+01  0.00000000000E+00 0.  1.
</event>
<event>
 8    1  0.2502431E-006  0.9118800E+02  0.7816164E-02  0.1184000E+00
        -11   -1    0    0    0    0  0.00000000000E+00  0.00000000000E+00  0.45593999997E+02  0.45594000000E+02  0.51100000000E-03 0.  1.
         11   -1    0    0    0    0 -0.00000000000E+00 -0.00000000000E+00 -0.45593999997E+02  0.45594000000E+02  0.51100000000E-03 0. -1.
         23    2    1    2    0    0 -0.88817841970E-15  0.00000000000E+00  0.00000000000E+00  0.91188000000E+02  0.91188000000E+02 0.  0.
    9900012    2    3    3    0    0 -0.36005493418E+01 -0.11956384043E+02 -0.34639005124E+02  0.54367085414E+02  0.40000002819E+02 0.  0.
        -12    1    3    3    0    0  0.36005493418E+01  0.11956384043E+02  0.34639005124E+02  0.36820914586E+02  0.00000000000E+00 0.  1.
         11    1    4    4    0    0 -0.45959425201E+01 -0.20088558660E+01 -0.78357749918E+01  0.93036315233E+01  0.51100000000E-03 0. -1.
        -11    1    4    4    0    0 -0.15560564821E+02 -0.11744194125E+02 -0.15919115714E+02  0.25168939560E+02  0.51100000000E-03 0.  1.
         12    1    4    4    0    0  0.16555957999E+02  0.17966659477E+01 -0.10884114419E+02  0.19894514331E+02  0.00000000000E+00 0. -1.
</event>
<event>
 8    1  0.2502431E-006  0.9118800E+02  0.7816164E-02  0.1184000E+00
        -11   -1    0    0    0    0  0.00000000000E+00  0.00000000000E+00  0.45593999997E+02  0.45594000000E+02  0.51100000000E-03 0.  1.
         11   -1    0    0    0    0 -0.00000000000E+00 -0.00000000000E+00 -0.45593999997E+02  0.45594000000E+02  0.51100000000E-03 0. -1.
         23    2    1    2    0    0 -0.17763568394E-14  0.00000000000E+00  0.00000000000E+00  0.91188000000E+02  0.91188000000E+02 0.  0.
    9900012    2    3    3    0    0  0.10904293885E+02  0.10703391180E+02 -0.33500953571E+02  0.54367080700E+02  0.39999992073E+02 0.  0.
        -12    1    3    3    0    0 -0.10904293885E+02 -0.10703391180E+02  0.33500953571E+02  0.36820919300E+02  0.00000000000E+00 0.  1.
         11    1    4    4    0    0  0.10200172378E+02  0.17952351319E+02 -0.62217805225E+01  0.21564809008E+02  0.51100000000E-03 0. -1.
        -11    1    4    4    0    0 -0.95975369494E+00 -0.26374401172E+01 -0.27736811253E+02  0.27878448958E+02  0.51100000000E-03 0.  1.
        -12    1    4    4    0    0  0.16638752021E+01 -0.46115200215E+01  0.45763820475E+00  0.49238227348E+01  0.00000000000E+00 0.  1.
</event>
<event>
 8    1  0.2502431E-006  0.9118800E+02  0.7816164E-02  0.1184000E+00
        -11   -1    0    0    0    0  0.00000000000E+00  0.00000000000E+00  0.45593999997E+02  0.45594000000E+02  0.51100000000E-03 0.  1.
         11   -1    0    0    0    0 -0.00000000000E+00 -0.00000000000E+00 -0.45593999997E+02  0.45594000000E+02  0.51100000000E-03 0. -1.
         23    2    1    2    0    0 -0.17763568394E-14 -0.35527136788E-14  0.00000000000E+00  0.91188000000E+02  0.91188000000E+02 0.  0.
    9900012    2    3    3    0    0 -0.11112482887E+02 -0.17917558006E+02 -0.30186982983E+02  0.54367080641E+02  0.39999991937E+02 0.  0.
        -12    1    3    3    0    0  0.11112482887E+02  0.17917558006E+02  0.30186982983E+02  0.36820919359E+02  0.00000000000E+00 0.  1.
         11    1    4    4    0    0 -0.56196543590E+01 -0.87488401667E+01 -0.16493594811E+02  0.19497727801E+02  0.51100000000E-03 0. -1.
        -11    1    4    4    0    0  0.11158520455E+01 -0.19360032508E+02 -0.11441531776E+02  0.22515875158E+02  0.51100000000E-03 0.  1.
        -12    1    4    4    0    0 -0.66086805738E+01  0.10191314668E+02 -0.22518563962E+01  0.12353477681E+02  0.00000000000E+00 0.  1.
</event>
<event>
 8    1  0.2502431E-006  0.9118800E+02  0.7816164E-02  0.1184000E+00
        -11   -1    0    0    0    0  0.00000000000E+00  0.00000000000E+00  0.45593999997E+02  0.45594000000E+02  0.51100000000E-03 0.  1.
         11   -1    0    0    0    0 -0.00000000000E+00 -0.00000000000E+00 -0.45593999997E+02  0.45594000000E+02  0.51100000000E-03 0. -1.
         23    2    1    2    0    0 -0.44408920985E-15  0.00000000000E+00  0.00000000000E+00  0.91188000000E+02  0.91188000000E+02 0.  0.
    9900012    2    3    3    0    0  0.23821284020E+01  0.61620754195E+01 -0.36223384824E+02  0.54367091303E+02  0.40000016242E+02 0.  0.
        -12    1    3    3    0    0 -0.23821284020E+01 -0.61620754195E+01  0.36223384824E+02  0.36820908697E+02  0.00000000000E+00 0.  1.
         11    1    4    4    0    0  0.12983228131E+02 -0.36067075890E+01 -0.25965496167E+02  0.29253709915E+02  0.51100000000E-03 0. -1.
        -11    1    4    4    0    0 -0.61314903850E+00  0.85180207483E+01  0.24663082983E+01  0.88890554107E+01  0.51100000000E-03 0.  1.
        -12    1    4    4    0    0 -0.99879506909E+01  0.12507622603E+01 -0.12724196955E+02  0.16224325976E+02  0.00000000000E+00 0.  1.
</event>
<event>
 8    1  0.2502431E-006  0.9118800E+02  0.7816164E-02  0.1184000E+00
        -11   -1    0    0    0    0  0.00000000000E+00  0.00000000000E+00  0.45593999997E+02  0.45594000000E+02  0.51100000000E-03 0. -1.
         11   -1    0    0    0    0 -0.00000000000E+00 -0.00000000000E+00 -0.45593999997E+02  0.45594000000E+02  0.51100000000E-03 0.  1.
         23    2    1    2    0    0  0.00000000000E+00  0.00000000000E+00  0.00000000000E+00  0.91188000000E+02  0.91188000000E+02 0.  0.
    9900012    2    3    3    0    0 -0.19469477109E+02  0.28007534594E+02 -0.13867175323E+02  0.54367067307E+02  0.39999961539E+02 0.  0.
         12    1    3    3    0    0  0.19469477109E+02 -0.28007534594E+02  0.13867175323E+02  0.36820932693E+02  0.00000000000E+00 0. -1.
         11    1    4    4    0    0  0.27245036146E+01  0.79161117703E+00  0.32047581528E+01  0.42801919677E+01  0.51100000000E-03 0. -1.
        -11    1    4    4    0    0  0.75356572291E+00  0.23834021042E+02 -0.97637159603E+01  0.25767393542E+02  0.51100000000E-03 0.  1.
        -12    1    4    4    0    0 -0.22947546447E+02  0.33819023752E+01 -0.73082175157E+01  0.24319481797E+02  0.00000000000E+00 0.  1.
</event>
<event>
 8    1  0.2502431E-006  0.9118800E+02  0.7816164E-02  0.1184000E+00
        -11   -1    0    0    0    0  0.00000000000E+00  0.00000000000E+00  0.45593999997E+02  0.45594000000E+02  0.51100000000E-03 0. -1.
         11   -1    0    0    0    0 -0.00000000000E+00 -0.00000000000E+00 -0.45593999997E+02  0.45594000000E+02  0.51100000000E-03 0.  1.
         23    2    1    2    0    0  0.00000000000E+00  0.00000000000E+00  0.17763568394E-14  0.91188000000E+02  0.91188000000E+02 0.  0.
    9900012    2    3    3    0    0 -0.13341807496E+02  0.32972455630E+02  0.95179165593E+01  0.54367117431E+02  0.40000075806E+02 0.  0.
        -12    1    3    3    0    0  0.13341807496E+02 -0.32972455630E+02 -0.95179165593E+01  0.36820882569E+02  0.00000000000E+00 0.  1.
         11    1    4    4    0    0 -0.93022942657E+01  0.13094369215E+02  0.13156912379E+02  0.20762936386E+02  0.51100000000E-03 0. -1.
        -11    1    4    4    0    0 -0.38379370605E+01  0.17160348543E+02 -0.14259655160E+02  0.22639458663E+02  0.51100000000E-03 0.  1.
        -12    1    4    4    0    0 -0.20157617006E+00  0.27177378728E+01  0.10620659340E+02  0.10964722382E+02  0.00000000000E+00 0.  1.
</event>
<event>
 8    1  0.2502431E-006  0.9118800E+02  0.7816164E-02  0.1184000E+00
        -11   -1    0    0    0    0  0.00000000000E+00  0.00000000000E+00  0.45593999997E+02  0.45594000000E+02  0.51100000000E-03 0. -1.
         11   -1    0    0    0    0 -0.00000000000E+00 -0.00000000000E+00 -0.45593999997E+02  0.45594000000E+02  0.51100000000E-03 0.  1.
         23    2    1    2    0    0  0.35527136788E-14  0.00000000000E+00  0.00000000000E+00  0.91188000000E+02  0.91188000000E+02 0.  0.
    9900012    2    3    3    0    0  0.28672645230E+02 -0.20142539904E+02 -0.11310951321E+02  0.54367080429E+02  0.39999991455E+02 0.  0.
         12    1    3    3    0    0 -0.28672645230E+02  0.20142539904E+02  0.11310951321E+02  0.36820919571E+02  0.00000000000E+00 0. -1.
         11    1    4    4    0    0 -0.12798083357E+01  0.69751785112E+01 -0.90962479743E+01  0.11533982491E+02  0.51100000000E-03 0. -1.
        -11    1    4    4    0    0  0.26033282056E+00  0.11424546328E+01 -0.14112123422E+01  0.18342563347E+01  0.51100000000E-03 0.  1.
        -12    1    4    4    0    0  0.29692120745E+02 -0.28260173048E+02 -0.80349100428E+00  0.40998841603E+02  0.00000000000E+00 0.  1.
</event>
<event>
 8    1  0.2502431E-006  0.9118800E+02  0.7816164E-02  0.1184000E+00
        -11   -1    0    0    0    0  0.00000000000E+00  0.00000000000E+00  0.45593999997E+02  0.45594000000E+02  0.51100000000E-03 0. -1.
         11   -1    0    0    0    0 -0.00000000000E+00 -0.00000000000E+00 -0.45593999997E+02  0.45594000000E+02  0.51100000000E-03 0.  1.
         23    2    1    2    0    0  0.17763568394E-14  0.35527136788E-14 -0.35527136788E-14  0.91188000000E+02  0.91188000000E+02 0.  0.
    9900012    2    3    3    0    0 -0.48334730121E+01 -0.18687999926E+02  0.31355653110E+02  0.54367071378E+02  0.39999970822E+02 0.  0.
         12    1    3    3    0    0  0.48334730121E+01  0.18687999926E+02 -0.31355653110E+02  0.36820928622E+02  0.00000000000E+00 0. -1.
         11    1    4    4    0    0 -0.59705872763E+01 -0.11773809997E+01 -0.43287657161E+01  0.74680888672E+01  0.51100000000E-03 0. -1.
        -11    1    4    4    0    0  0.40801670626E+01 -0.17888770287E+02  0.38600066804E+02  0.42738987156E+02  0.51100000000E-03 0.  1.
        -12    1    4    4    0    0 -0.29430527984E+01  0.37815136139E+00 -0.29156479772E+01  0.41599953550E+01  0.00000000000E+00 0.  1.
</event>
<event>
 8    1  0.2502431E-006  0.9118800E+02  0.7816164E-02  0.1184000E+00
        -11   -1    0    0    0    0  0.00000000000E+00  0.00000000000E+00  0.45593999997E+02  0.45594000000E+02  0.51100000000E-03 0.  1.
         11   -1    0    0    0    0 -0.00000000000E+00 -0.00000000000E+00 -0.45593999997E+02  0.45594000000E+02  0.51100000000E-03 0. -1.
         23    2    1    2    0    0  0.00000000000E+00  0.00000000000E+00  0.35527136788E-14  0.91188000000E+02  0.91188000000E+02 0.  0.
    9900012    2    3    3    0    0  0.21274616884E+02 -0.29677195724E+02 -0.47365220930E+01  0.54367083239E+02  0.39999997860E+02 0.  0.
        -12    1    3    3    0    0 -0.21274616884E+02  0.29677195724E+02  0.47365220930E+01  0.36820916761E+02  0.00000000000E+00 0.  1.
         11    1    4    4    0    0  0.36348133314E+01 -0.39853765074E+01 -0.12962655109E+02  0.14040139657E+02  0.51100000000E-03 0. -1.
        -11    1    4    4    0    0  0.13077358502E+02 -0.13433494479E+02  0.16395421009E+02  0.24905539738E+02  0.51100000000E-03 0.  1.
        -12    1    4    4    0    0  0.45624450502E+01 -0.12258324738E+02 -0.81692879927E+01  0.15421403844E+02  0.00000000000E+00 0.  1.
</event>
<event>
 8    1  0.2502431E-006  0.9118800E+02  0.7816164E-02  0.1184000E+00
        -11   -1    0    0    0    0  0.00000000000E+00  0.00000000000E+00  0.45593999997E+02  0.45594000000E+02  0.51100000000E-03 0.  1.
         11   -1    0    0    0    0 -0.00000000000E+00 -0.00000000000E+00 -0.45593999997E+02  0.45594000000E+02  0.51100000000E-03 0. -1.
         23    2    1    2    0    0  0.17763568394E-14  0.00000000000E+00  0.00000000000E+00  0.91188000000E+02  0.91188000000E+02 0.  0.
    9900012    2    3    3    0    0  0.70254856730E+01 -0.24671576175E+02 -0.26414672972E+02  0.54367094687E+02  0.40000023958E+02 0.  0.
        -12    1    3    3    0    0 -0.70254856730E+01  0.24671576175E+02  0.26414672972E+02  0.36820905313E+02  0.00000000000E+00 0.  1.
         11    1    4    4    0    0  0.20240288737E+02 -0.61646054836E+01 -0.74907469918E+01  0.22445109483E+02  0.51100000000E-03 0. -1.
        -11    1    4    4    0    0 -0.81982673524E+01 -0.18909824417E+02 -0.16081599791E+02  0.26142128819E+02  0.51100000000E-03 0.  1.
        -12    1    4    4    0    0 -0.50165357119E+01  0.40285372609E+00 -0.28423261884E+01  0.57798563853E+01  0.00000000000E+00 0.  1.
</event>
<event>
 8    1  0.2502431E-006  0.9118800E+02  0.7816164E-02  0.1184000E+00
        -11   -1    0    0    0    0  0.00000000000E+00  0.00000000000E+00  0.45593999997E+02  0.45594000000E+02  0.51100000000E-03 0.  1.
         11   -1    0    0    0    0 -0.00000000000E+00 -0.00000000000E+00 -0.45593999997E+02  0.45594000000E+02  0.51100000000E-03 0. -1.
         23    2    1    2    0    0  0.00000000000E+00  0.35527136788E-14 -0.17763568394E-14  0.91188000000E+02  0.91188000000E+02 0.  0.
    9900012    2    3    3    0    0  0.18411117048E+02 -0.31544601954E+02  0.46636069417E+01  0.54367076966E+02  0.39999983559E+02 0.  0.
         12    1    3    3    0    0 -0.18411117048E+02  0.31544601954E+02 -0.46636069417E+01  0.36820923034E+02  0.00000000000E+00 0. -1.
         11    1    4    4    0    0 -0.54675649599E+01 -0.23599486264E+02 -0.11391038002E+01  0.24251341741E+02  0.51100000000E-03 0. -1.
        -11    1    4    4    0    0  0.60847955844E+01 -0.95278134623E+01 -0.88124886735E-01  0.11305385130E+02  0.51100000000E-03 0.  1.
         12    1    4    4    0    0  0.17793886423E+02  0.15826977726E+01  0.58908356286E+01  0.18810350095E+02  0.00000000000E+00 0. -1.
</event>
<event>
 8    1  0.2502431E-006  0.9118800E+02  0.7816164E-02  0.1184000E+00
        -11   -1    0    0    0    0  0.00000000000E+00  0.00000000000E+00  0.45593999997E+02  0.45594000000E+02  0.51100000000E-03 0. -1.
         11   -1    0    0    0    0 -0.00000000000E+00 -0.00000000000E+00 -0.45593999997E+02  0.45594000000E+02  0.51100000000E-03 0.  1.
         23    2    1    2    0    0 -0.22204460493E-15 -0.71054273576E-14  0.00000000000E+00  0.91188000000E+02  0.91188000000E+02 0.  0.
    9900012    2    3    3    0    0  0.12395855579E+01 -0.36461999627E+02 -0.49765337649E+01  0.54367083695E+02  0.39999998901E+02 0.  0.
        -12    1    3    3    0    0 -0.12395855579E+01  0.36461999627E+02  0.49765337649E+01  0.36820916305E+02  0.00000000000E+00 0.  1.
         11    1    4    4    0    0 -0.10793020681E+02 -0.27594630013E+02 -0.31608673572E+01  0.29798388944E+02  0.51100000000E-03 0. -1.
        -11    1    4    4    0    0  0.64455313918E+00  0.37108687954E+01 -0.60078647976E+01  0.70908698798E+01  0.51100000000E-03 0.  1.
        -12    1    4    4    0    0  0.11388053100E+02 -0.12578238410E+02  0.41921983899E+01  0.17477824872E+02  0.00000000000E+00 0.  1.
</event>
<event>
 8    1  0.2502431E-006  0.9118800E+02  0.7816164E-02  0.1184000E+00
        -11   -1    0    0    0    0  0.00000000000E+00  0.00000000000E+00  0.45593999997E+02  0.45594000000E+02  0.51100000000E-03 0.  1.
         11   -1    0    0    0    0 -0.00000000000E+00 -0.00000000000E+00 -0.45593999997E+02  0.45594000000E+02  0.51100000000E-03 0. -1.
         23    2    1    2    0    0  0.00000000000E+00  0.00000000000E+00 -0.35527136788E-14  0.91188000000E+02  0.91188000000E+02 0.  0.
    9900012    2    3    3    0    0 -0.17730209418E+02  0.18119207416E+02 -0.26704136602E+02  0.54367123924E+02  0.40000090609E+02 0.  0.
        -12    1    3    3    0    0  0.17730209418E+02 -0.18119207416E+02  0.26704136602E+02  0.36820876076E+02  0.00000000000E+00 0.  1.
         11    1    4    4    0    0 -0.18511749422E+02  0.12699172791E+02 -0.31108944087E+02  0.38363006382E+02  0.51100000000E-03 0. -1.
        -11    1    4    4    0    0  0.24106005557E+01 -0.19665281500E+01  0.72762128710E+01  0.79133748811E+01  0.51100000000E-03 0.  1.
        -12    1    4    4    0    0 -0.16290605516E+01  0.73865627746E+01 -0.28714053864E+01  0.80907426604E+01  0.00000000000E+00 0.  1.
</event>
<event>
 8    1  0.2502431E-006  0.9118800E+02  0.7816164E-02  0.1184000E+00
        -11   -1    0    0    0    0  0.00000000000E+00  0.00000000000E+00  0.45593999997E+02  0.45594000000E+02  0.51100000000E-03 0. -1.
         11   -1    0    0    0    0 -0.00000000000E+00 -0.00000000000E+00 -0.45593999997E+02  0.45594000000E+02  0.51100000000E-03 0.  1.
         23    2    1    2    0    0  0.44408920985E-14  0.00000000000E+00  0.71054273576E-14  0.91188000000E+02  0.91188000000E+02 0.  0.
    9900012    2    3    3    0    0 -0.44664998830E+01 -0.14748092982E+02 -0.33441307717E+02  0.54367123726E+02  0.40000090157E+02 0.  0.
         12    1    3    3    0    0  0.44664998830E+01  0.14748092982E+02  0.33441307717E+02  0.36820876274E+02  0.00000000000E+00 0. -1.
         11    1    4    4    0    0 -0.34118902065E+01 -0.77279495361E+01  0.39491199611E+01  0.93251138085E+01  0.51100000000E-03 0. -1.
        -11    1    4    4    0    0  0.10029132074E+02 -0.93753015101E+01 -0.21952412042E+02  0.25891855153E+02  0.51100000000E-03 0.  1.
        -12    1    4    4    0    0 -0.11083741751E+02  0.23551580641E+01 -0.15438015636E+02  0.19150154764E+02  0.00000000000E+00 0.  1.
</event>
<event>
 8    1  0.2502431E-006  0.9118800E+02  0.7816164E-02  0.1184000E+00
        -11   -1    0    0    0    0  0.00000000000E+00  0.00000000000E+00  0.45593999997E+02  0.45594000000E+02  0.51100000000E-03 0. -1.
         11   -1    0    0    0    0 -0.00000000000E+00 -0.00000000000E+00 -0.45593999997E+02  0.45594000000E+02  0.51100000000E-03 0.  1.
         23    2    1    2    0    0 -0.35527136788E-14 -0.71054273576E-14  0.35527136788E-14  0.91188000000E+02  0.91188000000E+02 0.  0.
    9900012    2    3    3    0    0 -0.16234052754E+02 -0.27051487755E+02  0.18985597018E+02  0.54367077242E+02  0.39999984189E+02 0.  0.
        -12    1    3    3    0    0  0.16234052754E+02  0.27051487755E+02 -0.18985597018E+02  0.36820922758E+02  0.00000000000E+00 0.  1.
         11    1    4    4    0    0 -0.86736522229E+01 -0.25011086704E+02  0.11947595530E+02  0.29043617891E+02  0.51100000000E-03 0. -1.
        -11    1    4    4    0    0 -0.77453801272E+01 -0.10359198639E+02  0.10148031933E+02  0.16440391180E+02  0.51100000000E-03 0.  1.
        -12    1    4    4    0    0  0.18497959564E+00  0.83187975882E+01 -0.31100304452E+01  0.88830681712E+01  0.00000000000E+00 0.  1.
</event>
<event>
 8    1  0.2502431E-006  0.9118800E+02  0.7816164E-02  0.1184000E+00
        -11   -1    0    0    0    0  0.00000000000E+00  0.00000000000E+00  0.45593999997E+02  0.45594000000E+02  0.51100000000E-03 0.  1.
         11   -1    0    0    0    0 -0.00000000000E+00 -0.00000000000E+00 -0.45593999997E+02  0.45594000000E+02  0.51100000000E-03 0. -1.
         23    2    1    2    0    0  0.00000000000E+00 -0.44408920985E-15  0.00000000000E+00  0.91188000000E+02  0.91188000000E+02 0.  0.
    9900012    2    3    3    0    0  0.13828278711E+02  0.37835170277E+01  0.33915252195E+02  0.54367073549E+02  0.39999975770E+02 0.  0.
         12    1    3    3    0    0 -0.13828278711E+02 -0.37835170277E+01 -0.33915252195E+02  0.36820926451E+02  0.00000000000E+00 0. -1.
         11    1    4    4    0    0 -0.52225898005E+01  0.13284670036E+02  0.80040381245E+01  0.16365284255E+02  0.51100000000E-03 0. -1.
        -11    1    4    4    0    0  0.15504552278E+02 -0.13876369414E+01  0.24512149497E+02  0.29037254534E+02  0.51100000000E-03 0.  1.
        -12    1    4    4    0    0  0.35463162342E+01 -0.81135160667E+01  0.13990645736E+01  0.89645347608E+01  0.00000000000E+00 0.  1.
</event>
<event>
 8    1  0.2502431E-006  0.9118800E+02  0.7816164E-02  0.1184000E+00
        -11   -1    0    0    0    0  0.00000000000E+00  0.00000000000E+00  0.45593999997E+02  0.45594000000E+02  0.51100000000E-03 0. -1.
         11   -1    0    0    0    0 -0.00000000000E+00 -0.00000000000E+00 -0.45593999997E+02  0.45594000000E+02  0.51100000000E-03 0.  1.
         23    2    1    2    0    0  0.00000000000E+00  0.00000000000E+00  0.88817841970E-15  0.91188000000E+02  0.91188000000E+02 0.  0.
    9900012    2    3    3    0    0 -0.24597482748E+02  0.26733720368E+02  0.60042908324E+01  0.54367089220E+02  0.40000011494E+02 0.  0.
         12    1    3    3    0    0  0.24597482748E+02 -0.26733720368E+02 -0.60042908324E+01  0.36820910780E+02  0.00000000000E+00 0. -1.
         11    1    4    4    0    0 -0.82226839064E+00  0.80929039329E+01  0.13498420776E+02  0.15760031189E+02  0.51100000000E-03 0. -1.
        -11    1    4    4    0    0 -0.21061282936E+02  0.23146064031E+02 -0.25653327192E+01  0.31399026279E+02  0.51100000000E-03 0.  1.
        -12    1    4    4    0    0 -0.27139314216E+01 -0.45052475957E+01 -0.49287972242E+01  0.72080317519E+01  0.00000000000E+00 0.  1.
</event>
<event>
 8    1  0.2502431E-006  0.9118800E+02  0.7816164E-02  0.1184000E+00
        -11   -1    0    0    0    0  0.00000000000E+00  0.00000000000E+00  0.45593999997E+02  0.45594000000E+02  0.51100000000E-03 0.  1.
         11   -1    0    0    0    0 -0.00000000000E+00 -0.00000000000E+00 -0.45593999997E+02  0.45594000000E+02  0.51100000000E-03 0. -1.
         23    2    1    2    0    0  0.17763568394E-14  0.00000000000E+00  0.17763568394E-14  0.91188000000E+02  0.91188000000E+02 0.  0.
    9900012    2    3    3    0    0 -0.11604419934E+02  0.31225854001E+02 -0.15686394422E+02  0.54367088957E+02  0.40000010895E+02 0.  0.
        -12    1    3    3    0    0  0.11604419934E+02 -0.31225854001E+02  0.15686394422E+02  0.36820911043E+02  0.00000000000E+00 0.  1.
         11    1    4    4    0    0  0.51428012363E+01  0.82534356972E+01 -0.15544064544E+01  0.98480345781E+01  0.51100000000E-03 0. -1.
        -11    1    4    4    0    0 -0.21222066006E+02  0.46483718960E+01 -0.14173301288E+01  0.21771363573E+02  0.51100000000E-03 0.  1.
        -12    1    4    4    0    0  0.44748448355E+01  0.18324046407E+02 -0.12714657839E+02  0.22747690806E+02  0.00000000000E+00 0.  1.
</event>
<event>
 8    1  0.2502431E-006  0.9118800E+02  0.7816164E-02  0.1184000E+00
        -11   -1    0    0    0    0  0.00000000000E+00  0.00000000000E+00  0.45593999997E+02  0.45594000000E+02  0.51100000000E-03 0. -1.
         11   -1    0    0    0    0 -0.00000000000E+00 -0.00000000000E+00 -0.45593999997E+02  0.45594000000E+02  0.51100000000E-03 0.  1.
         23    2    1    2    0    0  0.35527136788E-14  0.17763568394E-14  0.35527136788E-14  0.91188000000E+02  0.91188000000E+02 0.  0.
    9900012    2    3    3    0    0  0.30517099847E+02  0.15580886384E+02  0.13480356932E+02  0.54367116977E+02  0.40000074772E+02 0.  0.
        -12    1    3    3    0    0 -0.30517099847E+02 -0.15580886384E+02 -0.13480356932E+02  0.36820883023E+02  0.00000000000E+00 0.  1.
         11    1    4    4    0    0  0.14730049678E+02  0.46383604492E+01  0.15065254832E+01  0.15516390381E+02  0.51100000000E-03 0. -1.
        -11    1    4    4    0    0  0.38128115549E+01  0.18989656991E+02 -0.10742915770E+01  0.19398420225E+02  0.51100000000E-03 0.  1.
        -12    1    4    4    0    0  0.11974238615E+02 -0.80471310562E+01  0.13048123026E+02  0.19452306371E+02  0.00000000000E+00 0.  1.
</event>
<event>
 8    1  0.2502431E-006  0.9118800E+02  0.7816164E-02  0.1184000E+00
        -11   -1    0    0    0    0  0.00000000000E+00  0.00000000000E+00  0.45593999997E+02  0.45594000000E+02  0.51100000000E-03 0.  1.
         11   -1    0    0    0    0 -0.00000000000E+00 -0.00000000000E+00 -0.45593999997E+02  0.45594000000E+02  0.51100000000E-03 0. -1.
         23    2    1    2    0    0  0.00000000000E+00  0.00000000000E+00  0.10859368960E-14  0.91188000000E+02  0.91188000000E+02 0.  0.
    9900012    2    3    3    0    0  0.26832488175E+02  0.25214983180E+02 -0.13296017375E-01  0.54367109527E+02  0.40000057789E+02 0.  0.
        -12    1    3    3    0    0 -0.26832488175E+02 -0.25214983180E+02  0.13296017375E-01  0.36820890473E+02  0.00000000000E+00 0.  1.
         11    1    4    4    0    0  0.10547444071E+02  0.25966832793E+02  0.91412804750E+01  0.29480298349E+02  0.51100000000E-03 0. -1.
        -11    1    4    4    0    0  0.14973339451E+02 -0.71078618574E+01 -0.74792746850E+01  0.18184117922E+02  0.51100000000E-03 0.  1.
        -12    1    4    4    0    0  0.13117046528E+01  0.63560122445E+01 -0.16753018074E+01  0.67026932568E+01  0.00000000000E+00 0.  1.
</event>
<event>
 8    1  0.2502431E-006  0.9118800E+02  0.7816164E-02  0.1184000E+00
        -11   -1    0    0    0    0  0.00000000000E+00  0.00000000000E+00  0.45593999997E+02  0.45594000000E+02  0.51100000000E-03 0.  1.
         11   -1    0    0    0    0 -0.00000000000E+00 -0.00000000000E+00 -0.45593999997E+02  0.45594000000E+02  0.51100000000E-03 0. -1.
         23    2    1    2    0    0  0.71054273576E-14  0.22204460493E-15  0.00000000000E+00  0.91188000000E+02  0.91188000000E+02 0.  0.
    9900012    2    3    3    0    0 -0.36684877487E+02 -0.16393455687E+01  0.27039059142E+01  0.54367098364E+02  0.40000032340E+02 0.  0.
         12    1    3    3    0    0  0.36684877487E+02  0.16393455687E+01 -0.27039059142E+01  0.36820901636E+02  0.00000000000E+00 0. -1.
         11    1    4    4    0    0 -0.67384112715E+01  0.76818168179E+01  0.86555076398E-01  0.10218805612E+02  0.51100000000E-03 0. -1.
        -11    1    4    4    0    0 -0.36093516489E+02 -0.94631118283E+01  0.48060401261E+01  0.37621675135E+02  0.51100000000E-03 0.  1.
        -12    1    4    4    0    0  0.61470502740E+01  0.14194944171E+00 -0.21886892883E+01  0.65266176168E+01  0.00000000000E+00 0.  1.
</event>
<event>
 8    1  0.2502431E-006  0.9118800E+02  0.7816164E-02  0.1184000E+00
        -11   -1    0    0    0    0  0.00000000000E+00  0.00000000000E+00  0.45593999997E+02  0.45594000000E+02  0.51100000000E-03 0.  1.
         11   -1    0    0    0    0 -0.00000000000E+00 -0.00000000000E+00 -0.45593999997E+02  0.45594000000E+02  0.51100000000E-03 0. -1.
         23    2    1    2    0    0  0.26645352591E-14 -0.17763568394E-14 -0.71054273576E-14  0.91188000000E+02  0.91188000000E+02 0.  0.
    9900012    2    3    3    0    0  0.74431201733E+01 -0.13723855105E+02 -0.33347210797E+02  0.54367072461E+02  0.39999973290E+02 0.  0.
        -12    1    3    3    0    0 -0.74431201733E+01  0.13723855105E+02  0.33347210797E+02  0.36820927539E+02  0.00000000000E+00 0.  1.
         11    1    4    4    0    0  0.34156914497E+01 -0.10215704543E+02 -0.27506925566E+02  0.29540794196E+02  0.51100000000E-03 0. -1.
        -11    1    4    4    0    0 -0.83834689062E+01  0.37273155822E+00  0.32084701727E+01  0.89841950572E+01  0.51100000000E-03 0.  1.
        -12    1    4    4    0    0  0.12410897630E+02 -0.38808821194E+01 -0.90487554041E+01  0.15842083208E+02  0.00000000000E+00 0.  1.
</event>
<event>
 8    1  0.2502431E-006  0.9118800E+02  0.7816164E-02  0.1184000E+00
        -11   -1    0    0    0    0  0.00000000000E+00  0.00000000000E+00  0.45593999997E+02  0.45594000000E+02  0.51100000000E-03 0. -1.
         11   -1    0    0    0    0 -0.00000000000E+00 -0.00000000000E+00 -0.45593999997E+02  0.45594000000E+02  0.51100000000E-03 0.  1.
         23    2    1    2    0    0 -0.35527136788E-14 -0.88817841970E-15  0.35527136788E-14  0.91188000000E+02  0.91188000000E+02 0.  0.
    9900012    2    3    3    0    0 -0.17688622684E+02 -0.50367412566E+01 -0.31898637721E+02  0.54367092577E+02  0.40000019149E+02 0.  0.
         12    1    3    3    0    0  0.17688622684E+02  0.50367412566E+01  0.31898637721E+02  0.36820907423E+02  0.00000000000E+00 0. -1.
         11    1    4    4    0    0  0.49331002929E+00 -0.98212957698E+00 -0.95446315582E+01  0.96077013450E+01  0.51100000000E-03 0. -1.
        -11    1    4    4    0    0 -0.72408742676E+01 -0.21388148489E+01 -0.30219879376E+02  0.31148770423E+02  0.51100000000E-03 0.  1.
         12    1    4    4    0    0 -0.10941058445E+02 -0.19157968307E+01  0.78658732130E+01  0.13610620809E+02  0.00000000000E+00 0. -1.
</event>
<event>
 8    1  0.2502431E-006  0.9118800E+02  0.7816164E-02  0.1184000E+00
        -11   -1    0    0    0    0  0.00000000000E+00  0.00000000000E+00  0.45593999997E+02  0.45594000000E+02  0.51100000000E-03 0.  1.
         11   -1    0    0    0    0 -0.00000000000E+00 -0.00000000000E+00 -0.45593999997E+02  0.45594000000E+02  0.51100000000E-03 0. -1.
         23    2    1    2    0    0  0.00000000000E+00  0.88817841970E-15 -0.35527136788E-14  0.91188000000E+02  0.91188000000E+02 0.  0.
    9900012    2    3    3    0    0  0.30322007597E+02 -0.47116535260E+01  0.20350841669E+02  0.54367074152E+02  0.39999977145E+02 0.  0.
        -12    1    3    3    0    0 -0.30322007597E+02  0.47116535260E+01 -0.20350841669E+02  0.36820925848E+02  0.00000000000E+00 0.  1.
         11    1    4    4    0    0  0.10098093033E+02 -0.29522399641E+01  0.72577214055E+00  0.10545802444E+02  0.51100000000E-03 0. -1.
        -11    1    4    4    0    0  0.25818145475E+02  0.68347718577E+01  0.71024998192E+01  0.27635778369E+02  0.51100000000E-03 0.  1.
        -12    1    4    4    0    0 -0.55942309121E+01 -0.85941854197E+01  0.12522569709E+02  0.16185493340E+02  0.00000000000E+00 0.  1.
</event>
<event>
 8    1  0.2502431E-006  0.9118800E+02  0.7816164E-02  0.1184000E+00
        -11   -1    0    0    0    0  0.00000000000E+00  0.00000000000E+00  0.45593999997E+02  0.45594000000E+02  0.51100000000E-03 0.  1.
         11   -1    0    0    0    0 -0.00000000000E+00 -0.00000000000E+00 -0.45593999997E+02  0.45594000000E+02  0.51100000000E-03 0. -1.
         23    2    1    2    0    0  0.71054273576E-14  0.00000000000E+00  0.00000000000E+00  0.91188000000E+02  0.91188000000E+02 0.  0.
    9900012    2    3    3    0    0 -0.24688321181E+02 -0.27161231447E+02  0.29213819791E+01  0.54367079735E+02  0.39999989872E+02 0.  0.
         12    1    3    3    0    0  0.24688321181E+02  0.27161231447E+02 -0.29213819791E+01  0.36820920265E+02  0.00000000000E+00 0. -1.
         11    1    4    4    0    0 -0.49334564372E+01 -0.15605716360E+00  0.86266810843E+01  0.99389623728E+01  0.51100000000E-03 0. -1.
        -11    1    4    4    0    0 -0.18708328564E+02 -0.53561445104E+01  0.52313371650E+01  0.20150849373E+02  0.51100000000E-03 0.  1.
         12    1    4    4    0    0 -0.10465361805E+01 -0.21649029773E+02 -0.10936636270E+02  0.24277267989E+02  0.00000000000E+00 0. -1.
</event>
<event>
 8    1  0.2502431E-006  0.9118800E+02  0.7816164E-02  0.1184000E+00
        -11   -1    0    0    0    0  0.00000000000E+00  0.00000000000E+00  0.45593999997E+02  0.45594000000E+02  0.51100000000E-03 0.  1.
         11   -1    0    0    0    0 -0.00000000000E+00 -0.00000000000E+00 -0.45593999997E+02  0.45594000000E+02  0.51100000000E-03 0. -1.
         23    2    1    2    0    0  0.00000000000E+00  0.00000000000E+00  0.00000000000E+00  0.91188000000E+02  0.91188000000E+02 0.  0.
    9900012    2    3    3    0    0 -0.33875667370E+02  0.53618682498E+01  0.13396512267E+02  0.54367122609E+02  0.40000087613E+02 0.  0.
        -12    1    3    3    0    0  0.33875667370E+02 -0.53618682498E+01 -0.13396512267E+02  0.36820877391E+02  0.00000000000E+00 0.  1.
         11    1    4    4    0    0 -0.18548020510E+02 -0.28294752422E+01 -0.71752149851E+01  0.20087775022E+02  0.51100000000E-03 0. -1.
        -11    1    4    4    0    0 -0.14691984699E+02  0.62423234567E+01  0.24849884340E+02  0.29535364709E+02  0.51100000000E-03 0.  1.
        -12    1    4    4    0    0 -0.63566216085E+00  0.19490200353E+01 -0.42781570878E+01  0.47439828782E+01  0.00000000000E+00 0.  1.
</event>
<event>
 8    1  0.2502431E-006  0.9118800E+02  0.7816164E-02  0.1184000E+00
        -11   -1    0    0    0    0  0.00000000000E+00  0.00000000000E+00  0.45593999997E+02  0.45594000000E+02  0.51100000000E-03 0. -1.
         11   -1    0    0    0    0 -0.00000000000E+00 -0.00000000000E+00 -0.45593999997E+02  0.45594000000E+02  0.51100000000E-03 0.  1.
         23    2    1    2    0    0 -0.12212453271E-14  0.00000000000E+00  0.71054273576E-14  0.91188000000E+02  0.91188000000E+02 0.  0.
    9900012    2    3    3    0    0 -0.97228868789E-01  0.87995514469E+01  0.35753862058E+02  0.54367079164E+02  0.39999988571E+02 0.  0.
        -12    1    3    3    0    0  0.97228868789E-01 -0.87995514469E+01 -0.35753862058E+02  0.36820920836E+02  0.00000000000E+00 0.  1.
         11    1    4    4    0    0  0.11638836951E+02  0.82766511806E+01  0.27903117258E+02  0.31345644567E+02  0.51100000000E-03 0. -1.
        -11    1    4    4    0    0 -0.16187851114E+02 -0.92370477111E+00  0.84809809628E+01  0.18298272939E+02  0.51100000000E-03 0.  1.
        -12    1    4    4    0    0  0.44517852938E+01  0.14466050374E+01 -0.63023616293E+00  0.47231616590E+01  0.00000000000E+00 0.  1.
</event>
<event>
 8    1  0.2502431E-006  0.9118800E+02  0.7816164E-02  0.1184000E+00
        -11   -1    0    0    0    0  0.00000000000E+00  0.00000000000E+00  0.45593999997E+02  0.45594000000E+02  0.51100000000E-03 0. -1.
         11   -1    0    0    0    0 -0.00000000000E+00 -0.00000000000E+00 -0.45593999997E+02  0.45594000000E+02  0.51100000000E-03 0.  1.
         23    2    1    2    0    0  0.00000000000E+00  0.17763568394E-14 -0.71054273576E-14  0.91188000000E+02  0.91188000000E+02 0.  0.
    9900012    2    3    3    0    0 -0.29325453099E+02  0.93048687298E+01 -0.20229081612E+02  0.54367102070E+02  0.40000040788E+02 0.  0.
         12    1    3    3    0    0  0.29325453099E+02 -0.93048687298E+01  0.20229081612E+02  0.36820897930E+02  0.00000000000E+00 0. -1.
         11    1    4    4    0    0 -0.68117921262E+01  0.53915739095E+01  0.43476383798E+01  0.97145015794E+01  0.51100000000E-03 0. -1.
        -11    1    4    4    0    0 -0.15183542272E+02 -0.71123994480E+01 -0.34545837308E-01  0.16766853477E+02  0.51100000000E-03 0.  1.
         12    1    4    4    0    0 -0.73301187005E+01  0.11025694268E+02 -0.24542174155E+02  0.27885747013E+02  0.00000000000E+00 0. -1.
</event>
<event>
 8    1  0.2502431E-006  0.9118800E+02  0.7816164E-02  0.1184000E+00
        -11   -1    0    0    0    0  0.00000000000E+00  0.00000000000E+00  0.45593999997E+02  0.45594000000E+02  0.51100000000E-03 0. -1.
         11   -1    0    0    0    0 -0.00000000000E+00 -0.00000000000E+00 -0.45593999997E+02  0.45594000000E+02  0.51100000000E-03 0.  1.
         23    2    1    2    0    0 -0.88817841970E-15 -0.97144514655E-15  0.00000000000E+00  0.91188000000E+02  0.91188000000E+02 0.  0.
    9900012    2    3    3    0    0 -0.39808192284E+01  0.19208436346E+00  0.36604564319E+02  0.54367109909E+02  0.40000058659E+02 0.  0.
        -12    1    3    3    0    0  0.39808192284E+01 -0.19208436346E+00 -0.36604564319E+02  0.36820890091E+02  0.00000000000E+00 0.  1.
         11    1    4    4    0    0  0.65102328284E+00 -0.11899900566E+02  0.30223815545E+02  0.32488620949E+02  0.51100000000E-03 0. -1.
        -11    1    4    4    0    0  0.82583953042E+00  0.60510961330E+01 -0.49949791236E+01  0.78897143198E+01  0.51100000000E-03 0.  1.
        -12    1    4    4    0    0 -0.54576820417E+01  0.60408887967E+01  0.11375727897E+02  0.13988774640E+02  0.00000000000E+00 0.  1.
</event>
<event>
 8    1  0.2502431E-006  0.9118800E+02  0.7816164E-02  0.1184000E+00
        -11   -1    0    0    0    0  0.00000000000E+00  0.00000000000E+00  0.45593999997E+02  0.45594000000E+02  0.51100000000E-03 0. -1.
         11   -1    0    0    0    0 -0.00000000000E+00 -0.00000000000E+00 -0.45593999997E+02  0.45594000000E+02  0.51100000000E-03 0.  1.
         23    2    1    2    0    0  0.00000000000E+00  0.00000000000E+00  0.17763568394E-14  0.91188000000E+02  0.91188000000E+02 0.  0.
    9900012    2    3    3    0    0 -0.18130838794E+02 -0.31275749688E+02 -0.69914134466E+01  0.54367086161E+02  0.40000004522E+02 0.  0.
         12    1    3    3    0    0  0.18130838794E+02  0.31275749688E+02  0.69914134466E+01  0.36820913839E+02  0.00000000000E+00 0. -1.
         11    1    4    4    0    0  0.48379917699E+01 -0.47783756080E+01  0.84242376939E+01  0.10826209808E+02  0.51100000000E-03 0. -1.
        -11    1    4    4    0    0 -0.13656935809E+02 -0.23347377217E+02 -0.19024882348E+02  0.33068989510E+02  0.51100000000E-03 0.  1.
        -12    1    4    4    0    0 -0.93118947543E+01 -0.31499968630E+01  0.36092312070E+01  0.10471886843E+02  0.00000000000E+00 0.  1.
</event>
<event>
 8    1  0.2502431E-006  0.9118800E+02  0.7816164E-02  0.1184000E+00
        -11   -1    0    0    0    0  0.00000000000E+00  0.00000000000E+00  0.45593999997E+02  0.45594000000E+02  0.51100000000E-03 0. -1.
         11   -1    0    0    0    0 -0.00000000000E+00 -0.00000000000E+00 -0.45593999997E+02  0.45594000000E+02  0.51100000000E-03 0.  1.
         23    2    1    2    0    0  0.11102230246E-15  0.00000000000E+00  0.00000000000E+00  0.91188000000E+02  0.91188000000E+02 0.  0.
    9900012    2    3    3    0    0 -0.22168689067E+00 -0.22571727315E+02 -0.29090353835E+02  0.54367072454E+02  0.39999973274E+02 0.  0.
         12    1    3    3    0    0  0.22168689067E+00  0.22571727315E+02  0.29090353835E+02  0.36820927546E+02  0.00000000000E+00 0. -1.
         11    1    4    4    0    0 -0.17214941515E+01 -0.20972680646E+02 -0.20864936819E+02  0.29633806106E+02  0.51100000000E-03 0.  1.
        -11    1    4    4    0    0  0.30224463067E+01 -0.91622953886E+01 -0.12595934024E+02  0.15866328897E+02  0.51100000000E-03 0. -1.
         12    1    4    4    0    0 -0.15226390459E+01  0.75632487200E+01  0.43705170072E+01  0.88669374518E+01  0.00000000000E+00 0. -1.
</event>
<event>
 8    1  0.2502431E-006  0.9118800E+02  0.7816164E-02  0.1184000E+00
        -11   -1    0    0    0    0  0.00000000000E+00  0.00000000000E+00  0.45593999997E+02  0.45594000000E+02  0.51100000000E-03 0.  1.
         11   -1    0    0    0    0 -0.00000000000E+00 -0.00000000000E+00 -0.45593999997E+02  0.45594000000E+02  0.51100000000E-03 0. -1.
         23    2    1    2    0    0 -0.44408920985E-15  0.00000000000E+00  0.00000000000E+00  0.91188000000E+02  0.91188000000E+02 0.  0.
    9900012    2    3    3    0    0  0.19655311505E+01 -0.59564943786E+01 -0.36282741236E+02  0.54367075927E+02  0.39999981190E+02 0.  0.
        -12    1    3    3    0    0 -0.19655311505E+01  0.59564943786E+01  0.36282741236E+02  0.36820924073E+02  0.00000000000E+00 0.  1.
         11    1    4    4    0    0 -0.78545010897E+00  0.67452895185E+01 -0.12027251780E+02  0.13811974811E+02  0.51100000000E-03 0. -1.
        -11    1    4    4    0    0  0.35043311442E+00 -0.21457822476E+01  0.70779130464E+01  0.74043256395E+01  0.51100000000E-03 0.  1.
        -12    1    4    4    0    0  0.24005481450E+01 -0.10556001649E+02 -0.31333402503E+02  0.33150775476E+02  0.00000000000E+00 0.  1.
</event>
<event>
 8    1  0.2502431E-006  0.9118800E+02  0.7816164E-02  0.1184000E+00
        -11   -1    0    0    0    0  0.00000000000E+00  0.00000000000E+00  0.45593999997E+02  0.45594000000E+02  0.51100000000E-03 0.  1.
         11   -1    0    0    0    0 -0.00000000000E+00 -0.00000000000E+00 -0.45593999997E+02  0.45594000000E+02  0.51100000000E-03 0. -1.
         23    2    1    2    0    0 -0.71054273576E-14  0.17763568394E-14  0.00000000000E+00  0.91188000000E+02  0.91188000000E+02 0.  0.
    9900012    2    3    3    0    0  0.33151459701E+02 -0.11007023084E+02  0.11644933899E+02  0.54367104805E+02  0.40000047024E+02 0.  0.
        -12    1    3    3    0    0 -0.33151459701E+02  0.11007023084E+02 -0.11644933899E+02  0.36820895195E+02  0.00000000000E+00 0.  1.
         11    1    4    4    0    0  0.22369332326E+02 -0.20781849722E+02  0.11690319606E+02  0.32694584862E+02  0.51100000000E-03 0. -1.
        -11    1    4    4    0    0  0.71739739874E+00 -0.29839863654E+01 -0.39080164112E+01  0.49690468088E+01  0.51100000000E-03 0.  1.
        -12    1    4    4    0    0  0.10064729976E+02  0.12758813004E+02  0.38626307045E+01  0.16703473134E+02  0.00000000000E+00 0.  1.
</event>
<event>
 8    1  0.2502431E-006  0.9118800E+02  0.7816164E-02  0.1184000E+00
        -11   -1    0    0    0    0  0.00000000000E+00  0.00000000000E+00  0.45593999997E+02  0.45594000000E+02  0.51100000000E-03 0. -1.
         11   -1    0    0    0    0 -0.00000000000E+00 -0.00000000000E+00 -0.45593999997E+02  0.45594000000E+02  0.51100000000E-03 0.  1.
         23    2    1    2    0    0  0.00000000000E+00 -0.14988010832E-14  0.00000000000E+00  0.91188000000E+02  0.91188000000E+02 0.  0.
    9900012    2    3    3    0    0 -0.34546221735E+02 -0.35804745978E+00  0.12736223040E+02  0.54367068297E+02  0.39999963796E+02 0.  0.
         12    1    3    3    0    0  0.34546221735E+02  0.35804745978E+00 -0.12736223040E+02  0.36820931703E+02  0.00000000000E+00 0. -1.
         11    1    4    4    0    0 -0.22926155599E+02  0.79527109145E+01  0.26430081454E+01  0.24409828221E+02  0.51100000000E-03 0. -1.
        -11    1    4    4    0    0 -0.92936711482E+01 -0.27912436282E+01 -0.69212884626E+01  0.11919211327E+02  0.51100000000E-03 0.  1.
         12    1    4    4    0    0 -0.23263949877E+01 -0.55195147461E+01  0.17014503357E+02  0.18038028749E+02  0.00000000000E+00 0. -1.
</event>
<event>
 8    1  0.2502431E-006  0.9118800E+02  0.7816164E-02  0.1184000E+00
        -11   -1    0    0    0    0  0.00000000000E+00  0.00000000000E+00  0.45593999997E+02  0.45594000000E+02  0.51100000000E-03 0. -1.
         11   -1    0    0    0    0 -0.00000000000E+00 -0.00000000000E+00 -0.45593999997E+02  0.45594000000E+02  0.51100000000E-03 0.  1.
         23    2    1    2    0    0  0.44408920985E-15  0.17763568394E-14  0.00000000000E+00  0.91188000000E+02  0.91188000000E+02 0.  0.
    9900012    2    3    3    0    0 -0.11377741390E+01  0.16422207123E+01 -0.36766635295E+02  0.54367124266E+02  0.40000091390E+02 0.  0.
         12    1    3    3    0    0  0.11377741390E+01 -0.16422207123E+01  0.36766635295E+02  0.36820875734E+02  0.00000000000E+00 0. -1.
         11    1    4    4    0    0  0.29164167622E+01 -0.80368329261E+01 -0.88700565705E+01  0.12319662091E+02  0.51100000000E-03 0. -1.
        -11    1    4    4    0    0 -0.13730710359E+01 -0.41858709180E+01 -0.27572253904E+02  0.27921963130E+02  0.51100000000E-03 0.  1.
         12    1    4    4    0    0 -0.26811198652E+01  0.13864924556E+02 -0.32432482029E+00  0.14125499045E+02  0.00000000000E+00 0. -1.
</event>
<event>
 8    1  0.2502431E-006  0.9118800E+02  0.7816164E-02  0.1184000E+00
        -11   -1    0    0    0    0  0.00000000000E+00  0.00000000000E+00  0.45593999997E+02  0.45594000000E+02  0.51100000000E-03 0. -1.
         11   -1    0    0    0    0 -0.00000000000E+00 -0.00000000000E+00 -0.45593999997E+02  0.45594000000E+02  0.51100000000E-03 0.  1.
         23    2    1    2    0    0  0.17763568394E-14  0.00000000000E+00  0.35527136788E-14  0.91188000000E+02  0.91188000000E+02 0.  0.
    9900012    2    3    3    0    0 -0.11117759026E+02  0.18521981107E+02 -0.29817955224E+02  0.54367098277E+02  0.40000032143E+02 0.  0.
        -12    1    3    3    0    0  0.11117759026E+02 -0.18521981107E+02  0.29817955224E+02  0.36820901723E+02  0.00000000000E+00 0.  1.
         11    1    4    4    0    0 -0.67038669442E+01  0.36875206324E+01  0.14041171991E+01  0.77788936096E+01  0.51100000000E-03 0. -1.
        -11    1    4    4    0    0  0.10520908194E+02 -0.15961972308E+01 -0.17514885506E+02  0.20494110602E+02  0.51100000000E-03 0.  1.
         12    1    4    4    0    0 -0.14934800276E+02  0.16430657705E+02 -0.13707186918E+02  0.26094094066E+02  0.00000000000E+00 0. -1.
</event>
<event>
 8    1  0.2502431E-006  0.9118800E+02  0.7816164E-02  0.1184000E+00
        -11   -1    0    0    0    0  0.00000000000E+00  0.00000000000E+00  0.45593999997E+02  0.45594000000E+02  0.51100000000E-03 0.  1.
         11   -1    0    0    0    0 -0.00000000000E+00 -0.00000000000E+00 -0.45593999997E+02  0.45594000000E+02  0.51100000000E-03 0. -1.
         23    2    1    2    0    0  0.00000000000E+00  0.00000000000E+00  0.00000000000E+00  0.91188000000E+02  0.91188000000E+02 0.  0.
    9900012    2    3    3    0    0  0.22135024540E+02  0.25458391431E+02 -0.14754302952E+02  0.54367102927E+02  0.40000042742E+02 0.  0.
        -12    1    3    3    0    0 -0.22135024540E+02 -0.25458391431E+02  0.14754302952E+02  0.36820897073E+02  0.00000000000E+00 0.  1.
         11    1    4    4    0    0 -0.80110653762E+01  0.80940349239E+01 -0.84593837453E+01  0.14186322407E+02  0.51100000000E-03 0. -1.
        -11    1    4    4    0    0  0.57097463951E+01  0.43053070643E+01  0.64986389210E+01  0.96627729405E+01  0.51100000000E-03 0.  1.
        -12    1    4    4    0    0  0.24436343521E+02  0.13059049443E+02 -0.12793558128E+02  0.30518007580E+02  0.00000000000E+00 0.  1.
</event>
<event>
 8    1  0.2502431E-006  0.9118800E+02  0.7816164E-02  0.1184000E+00
        -11   -1    0    0    0    0  0.00000000000E+00  0.00000000000E+00  0.45593999997E+02  0.45594000000E+02  0.51100000000E-03 0.  1.
         11   -1    0    0    0    0 -0.00000000000E+00 -0.00000000000E+00 -0.45593999997E+02  0.45594000000E+02  0.51100000000E-03 0. -1.
         23    2    1    2    0    0  0.00000000000E+00 -0.35527136788E-14 -0.17763568394E-14  0.91188000000E+02  0.91188000000E+02 0.  0.
    9900012    2    3    3    0    0  0.12833727453E+02 -0.31189471061E+02 -0.14774707998E+02  0.54367086625E+02  0.40000005578E+02 0.  0.
         12    1    3    3    0    0 -0.12833727453E+02  0.31189471061E+02  0.14774707998E+02  0.36820913375E+02  0.00000000000E+00 0. -1.
         11    1    4    4    0    0 -0.83681736913E+01  0.29386825712E+01 -0.41014290830E+01  0.97715867169E+01  0.51100000000E-03 0. -1.
        -11    1    4    4    0    0  0.23671687330E+01 -0.18580782933E+02 -0.28252812906E+01  0.18942840253E+02  0.51100000000E-03 0.  1.
        -12    1    4    4    0    0  0.18834732411E+02 -0.15547370698E+02 -0.78479976240E+01  0.25652659654E+02  0.00000000000E+00 0.  1.
</event>
<event>
 8    1  0.2502431E-006  0.9118800E+02  0.7816164E-02  0.1184000E+00
        -11   -1    0    0    0    0  0.00000000000E+00  0.00000000000E+00  0.45593999997E+02  0.45594000000E+02  0.51100000000E-03 0.  1.
         11   -1    0    0    0    0 -0.00000000000E+00 -0.00000000000E+00 -0.45593999997E+02  0.45594000000E+02  0.51100000000E-03 0. -1.
         23    2    1    2    0    0  0.88817841970E-15  0.00000000000E+00  0.00000000000E+00  0.91188000000E+02  0.91188000000E+02 0.  0.
    9900012    2    3    3    0    0 -0.45126963058E+01  0.32423976551E+02  0.16855295659E+02  0.54367086444E+02  0.40000005167E+02 0.  0.
         12    1    3    3    0    0  0.45126963058E+01 -0.32423976551E+02 -0.16855295659E+02  0.36820913556E+02  0.00000000000E+00 0. -1.
         11    1    4    4    0    0  0.44443924021E+01  0.14878238797E+02  0.25839639830E+01  0.15741393955E+02  0.51100000000E-03 0. -1.
        -11    1    4    4    0    0  0.10405616182E+02  0.10731242604E+02  0.31366948197E+01  0.15273351649E+02  0.51100000000E-03 0.  1.
         12    1    4    4    0    0 -0.19362704890E+02  0.68144951501E+01  0.11134636856E+02  0.23352340840E+02  0.00000000000E+00 0. -1.
</event>
<event>
 8    1  0.2502431E-006  0.9118800E+02  0.7816164E-02  0.1184000E+00
        -11   -1    0    0    0    0  0.00000000000E+00  0.00000000000E+00  0.45593999997E+02  0.45594000000E+02  0.51100000000E-03 0.  1.
         11   -1    0    0    0    0 -0.00000000000E+00 -0.00000000000E+00 -0.45593999997E+02  0.45594000000E+02  0.51100000000E-03 0. -1.
         23    2    1    2    0    0  0.00000000000E+00  0.00000000000E+00  0.00000000000E+00  0.91188000000E+02  0.91188000000E+02 0.  0.
    9900012    2    3    3    0    0 -0.12830169276E+02 -0.19350387983E+02  0.28578482735E+02  0.54367076136E+02  0.39999981668E+02 0.  0.
        -12    1    3    3    0    0  0.12830169276E+02  0.19350387983E+02 -0.28578482735E+02  0.36820923864E+02  0.00000000000E+00 0.  1.
         11    1    4    4    0    0 -0.91429926504E+01  0.15112722096E+01  0.17375152083E+02  0.19691982340E+02  0.51100000000E-03 0.  1.
        -11    1    4    4    0    0 -0.11774462066E+02 -0.45383119897E+01  0.10547471646E+02  0.16446379268E+02  0.51100000000E-03 0. -1.
         12    1    4    4    0    0  0.80872854404E+01 -0.16323348202E+02  0.65585900656E+00  0.18228714529E+02  0.00000000000E+00 0. -1.
</event>
<event>
 8    1  0.2502431E-006  0.9118800E+02  0.7816164E-02  0.1184000E+00
        -11   -1    0    0    0    0  0.00000000000E+00  0.00000000000E+00  0.45593999997E+02  0.45594000000E+02  0.51100000000E-03 0. -1.
         11   -1    0    0    0    0 -0.00000000000E+00 -0.00000000000E+00 -0.45593999997E+02  0.45594000000E+02  0.51100000000E-03 0.  1.
         23    2    1    2    0    0  0.00000000000E+00  0.88817841970E-15  0.00000000000E+00  0.91188000000E+02  0.91188000000E+02 0.  0.
    9900012    2    3    3    0    0 -0.35744952212E+02  0.15303079562E+01  0.87025920161E+01  0.54367101602E+02  0.40000039721E+02 0.  0.
         12    1    3    3    0    0  0.35744952212E+02 -0.15303079562E+01 -0.87025920161E+01  0.36820898398E+02  0.00000000000E+00 0. -1.
         11    1    4    4    0    0 -0.27534654427E+02  0.18052460286E+02 -0.84670373451E+00  0.32935777268E+02  0.51100000000E-03 0. -1.
        -11    1    4    4    0    0 -0.36815211529E+01 -0.12184630971E+02  0.49617511013E+01  0.13661544721E+02  0.51100000000E-03 0.  1.
         12    1    4    4    0    0 -0.45287766322E+01 -0.43375213591E+01  0.45875446493E+01  0.77697796129E+01  0.00000000000E+00 0. -1.
</event>
<event>
 8    1  0.2502431E-006  0.9118800E+02  0.7816164E-02  0.1184000E+00
        -11   -1    0    0    0    0  0.00000000000E+00  0.00000000000E+00  0.45593999997E+02  0.45594000000E+02  0.51100000000E-03 0. -1.
         11   -1    0    0    0    0 -0.00000000000E+00 -0.00000000000E+00 -0.45593999997E+02  0.45594000000E+02  0.51100000000E-03 0.  1.
         23    2    1    2    0    0  0.00000000000E+00  0.44408920985E-14  0.00000000000E+00  0.91188000000E+02  0.91188000000E+02 0.  0.
    9900012    2    3    3    0    0 -0.34129196872E+02  0.46378198765E+01 -0.13018167622E+02  0.54367025806E+02  0.39999866930E+02 0.  0.
         12    1    3    3    0    0  0.34129196872E+02 -0.46378198765E+01  0.13018167622E+02  0.36820974194E+02  0.00000000000E+00 0. -1.
         11    1    4    4    0    0 -0.19801802715E+01 -0.42793453227E+01  0.17555775256E+01  0.50314970941E+01  0.51100000000E-03 0. -1.
        -11    1    4    4    0    0 -0.10432180656E+02  0.17594942542E+02  0.20043267305E+01  0.20553095198E+02  0.51100000000E-03 0.  1.
        -12    1    4    4    0    0 -0.21716835945E+02 -0.86777773431E+01 -0.16778071878E+02  0.28782433514E+02  0.00000000000E+00 0.  1.
</event>
<event>
 8    1  0.2502431E-006  0.9118800E+02  0.7816164E-02  0.1184000E+00
        -11   -1    0    0    0    0  0.00000000000E+00  0.00000000000E+00  0.45593999997E+02  0.45594000000E+02  0.51100000000E-03 0. -1.
         11   -1    0    0    0    0 -0.00000000000E+00 -0.00000000000E+00 -0.45593999997E+02  0.45594000000E+02  0.51100000000E-03 0.  1.
         23    2    1    2    0    0 -0.88817841970E-15  0.00000000000E+00  0.00000000000E+00  0.91188000000E+02  0.91188000000E+02 0.  0.
    9900012    2    3    3    0    0  0.51847895122E+01  0.11551649189E+02  0.34575463059E+02  0.54367010239E+02  0.39999831442E+02 0.  0.
        -12    1    3    3    0    0 -0.51847895122E+01 -0.11551649189E+02 -0.34575463059E+02  0.36820989761E+02  0.00000000000E+00 0.  1.
         11    1    4    4    0    0  0.24892998603E+01  0.11239605354E+01 -0.64586021779E+01  0.70123778729E+01  0.51100000000E-03 0. -1.
        -11    1    4    4    0    0 -0.66349878647E+01  0.11971061099E+02  0.19383574086E+02  0.23728723362E+02  0.51100000000E-03 0.  1.
         12    1    4    4    0    0  0.93304775167E+01 -0.15433724457E+01  0.21650491151E+02  0.23625909004E+02  0.00000000000E+00 0. -1.
</event>
<event>
 8    1  0.2502431E-006  0.9118800E+02  0.7816164E-02  0.1184000E+00
        -11   -1    0    0    0    0  0.00000000000E+00  0.00000000000E+00  0.45593999997E+02  0.45594000000E+02  0.51100000000E-03 0.  1.
         11   -1    0    0    0    0 -0.00000000000E+00 -0.00000000000E+00 -0.45593999997E+02  0.45594000000E+02  0.51100000000E-03 0. -1.
         23    2    1    2    0    0 -0.17763568394E-14  0.00000000000E+00  0.00000000000E+00  0.91188000000E+02  0.91188000000E+02 0.  0.
    9900012    2    3    3    0    0 -0.15831260592E+02  0.81729784475E+01  0.32223526264E+02  0.54367054418E+02  0.39999932157E+02 0.  0.
         12    1    3    3    0    0  0.15831260592E+02 -0.81729784475E+01 -0.32223526264E+02  0.36820945582E+02  0.00000000000E+00 0. -1.
         11    1    4    4    0    0 -0.17894731646E+02 -0.95962280997E+01  0.11886453467E+02  0.23528637672E+02  0.51100000000E-03 0. -1.
        -11    1    4    4    0    0 -0.42949472262E+01  0.73419878789E+01  0.15542955303E+02  0.17718205821E+02  0.51100000000E-03 0.  1.
         12    1    4    4    0    0  0.63584182798E+01  0.10427218668E+02  0.47941174936E+01  0.13120210925E+02  0.00000000000E+00 0. -1.
</event>
<event>
 8    1  0.2502431E-006  0.9118800E+02  0.7816164E-02  0.1184000E+00
        -11   -1    0    0    0    0  0.00000000000E+00  0.00000000000E+00  0.45593999997E+02  0.45594000000E+02  0.51100000000E-03 0. -1.
         11   -1    0    0    0    0 -0.00000000000E+00 -0.00000000000E+00 -0.45593999997E+02  0.45594000000E+02  0.51100000000E-03 0.  1.
         23    2    1    2    0    0 -0.88817841970E-15  0.00000000000E+00  0.00000000000E+00  0.91188000000E+02  0.91188000000E+02 0.  0.
    9900012    2    3    3    0    0 -0.66293558340E+01 -0.23631691680E+02  0.27447657563E+02  0.54367094034E+02  0.40000022470E+02 0.  0.
        -12    1    3    3    0    0  0.66293558340E+01  0.23631691680E+02 -0.27447657563E+02  0.36820905966E+02  0.00000000000E+00 0.  1.
         11    1    4    4    0    0 -0.10343872498E+01  0.42369448764E+01  0.10818686137E+01  0.44935619308E+01  0.51100000000E-03 0. -1.
        -11    1    4    4    0    0  0.84141265337E+00  0.36981504382E+01 -0.40634694865E+01  0.55584239174E+01  0.51100000000E-03 0.  1.
        -12    1    4    4    0    0 -0.64363812376E+01 -0.31566786994E+02  0.30429258436E+02  0.44315108186E+02  0.00000000000E+00 0.  1.
</event>
<event>
 8    1  0.2502431E-006  0.9118800E+02  0.7816164E-02  0.1184000E+00
        -11   -1    0    0    0    0  0.00000000000E+00  0.00000000000E+00  0.45593999997E+02  0.45594000000E+02  0.51100000000E-03 0.  1.
         11   -1    0    0    0    0 -0.00000000000E+00 -0.00000000000E+00 -0.45593999997E+02  0.45594000000E+02  0.51100000000E-03 0. -1.
         23    2    1    2    0    0  0.00000000000E+00 -0.88817841970E-15  0.00000000000E+00  0.91188000000E+02  0.91188000000E+02 0.  0.
    9900012    2    3    3    0    0  0.32632947830E+02 -0.54205492030E+01 -0.16170578201E+02  0.54367092391E+02  0.40000018725E+02 0.  0.
        -12    1    3    3    0    0 -0.32632947830E+02  0.54205492030E+01  0.16170578201E+02  0.36820907609E+02  0.00000000000E+00 0.  1.
         11    1    4    4    0    0  0.88239063022E+01 -0.72019019853E+01 -0.68352299529E+01  0.13283413846E+02  0.51100000000E-03 0. -1.
        -11    1    4    4    0    0  0.98527420763E+01  0.49664516967E+01 -0.20264360793E+02  0.23073501847E+02  0.51100000000E-03 0.  1.
         12    1    4    4    0    0  0.13956299452E+02 -0.31850989145E+01  0.10929012545E+02  0.18010176698E+02  0.00000000000E+00 0. -1.
</event>
<event>
 8    1  0.2502431E-006  0.9118800E+02  0.7816164E-02  0.1184000E+00
        -11   -1    0    0    0    0  0.00000000000E+00  0.00000000000E+00  0.45593999997E+02  0.45594000000E+02  0.51100000000E-03 0.  1.
         11   -1    0    0    0    0 -0.00000000000E+00 -0.00000000000E+00 -0.45593999997E+02  0.45594000000E+02  0.51100000000E-03 0. -1.
         23    2    1    2    0    0 -0.35527136788E-14  0.00000000000E+00  0.00000000000E+00  0.91188000000E+02  0.91188000000E+02 0.  0.
    9900012    2    3    3    0    0 -0.18963199364E+02 -0.21263442726E+02  0.23324722881E+02  0.54367087136E+02  0.40000006744E+02 0.  0.
         12    1    3    3    0    0  0.18963199364E+02  0.21263442726E+02 -0.23324722881E+02  0.36820912864E+02  0.00000000000E+00 0. -1.
         11    1    4    4    0    0 -0.11954056433E+02 -0.18091098825E+02  0.19631969902E+01  0.21772493302E+02  0.51100000000E-03 0. -1.
        -11    1    4    4    0    0  0.77686008601E+01 -0.56657524697E+01  0.89453912534E+01  0.13132857089E+02  0.51100000000E-03 0.  1.
        -12    1    4    4    0    0 -0.14777743791E+02  0.24934085684E+01  0.12416134637E+02  0.19461736746E+02  0.00000000000E+00 0.  1.
</event>
<event>
 8    1  0.2502431E-006  0.9118800E+02  0.7816164E-02  0.1184000E+00
        -11   -1    0    0    0    0  0.00000000000E+00  0.00000000000E+00  0.45593999997E+02  0.45594000000E+02  0.51100000000E-03 0.  1.
         11   -1    0    0    0    0 -0.00000000000E+00 -0.00000000000E+00 -0.45593999997E+02  0.45594000000E+02  0.51100000000E-03 0. -1.
         23    2    1    2    0    0 -0.17763568394E-14  0.00000000000E+00  0.00000000000E+00  0.91188000000E+02  0.91188000000E+02 0.  0.
    9900012    2    3    3    0    0 -0.99909040016E+01  0.35369725616E+02 -0.22228260302E+01  0.54367128086E+02  0.40000100098E+02 0.  0.
        -12    1    3    3    0    0  0.99909040016E+01 -0.35369725616E+02  0.22228260302E+01  0.36820871914E+02  0.00000000000E+00 0.  1.
         11    1    4    4    0    0 -0.14732706675E+02  0.26513779587E+02 -0.31021708615E+01  0.30490270879E+02  0.51100000000E-03 0. -1.
        -11    1    4    4    0    0  0.86817014553E+01  0.14272983761E+02 -0.14889687784E+01  0.16772210167E+02  0.51100000000E-03 0.  1.
        -12    1    4    4    0    0 -0.39398987819E+01 -0.54170377324E+01  0.23683136097E+01  0.71046470398E+01  0.00000000000E+00 0.  1.
</event>
<event>
 8    1  0.2502431E-006  0.9118800E+02  0.7816164E-02  0.1184000E+00
        -11   -1    0    0    0    0  0.00000000000E+00  0.00000000000E+00  0.45593999997E+02  0.45594000000E+02  0.51100000000E-03 0.  1.
         11   -1    0    0    0    0 -0.00000000000E+00 -0.00000000000E+00 -0.45593999997E+02  0.45594000000E+02  0.51100000000E-03 0. -1.
         23    2    1    2    0    0  0.00000000000E+00 -0.35527136788E-14  0.35527136788E-14  0.91188000000E+02  0.91188000000E+02 0.  0.
    9900012    2    3    3    0    0 -0.16044373828E+02  0.27157018591E+02 -0.18996177211E+02  0.54367077430E+02  0.39999984618E+02 0.  0.
        -12    1    3    3    0    0  0.16044373828E+02 -0.27157018591E+02  0.18996177211E+02  0.36820922570E+02  0.00000000000E+00 0.  1.
         11    1    4    4    0    0  0.13539030267E+01  0.19115602494E+01 -0.29517685346E+00  0.23609840382E+01  0.51100000000E-03 0. -1.
        -11    1    4    4    0    0 -0.21636284122E+02  0.12281765920E+02  0.43169086044E+01  0.25250866617E+02  0.51100000000E-03 0.  1.
         12    1    4    4    0    0  0.42380072682E+01  0.12963692421E+02 -0.23017908962E+02  0.26755226775E+02  0.00000000000E+00 0. -1.
</event>
<event>
 8    1  0.2502431E-006  0.9118800E+02  0.7816164E-02  0.1184000E+00
        -11   -1    0    0    0    0  0.00000000000E+00  0.00000000000E+00  0.45593999997E+02  0.45594000000E+02  0.51100000000E-03 0. -1.
         11   -1    0    0    0    0 -0.00000000000E+00 -0.00000000000E+00 -0.45593999997E+02  0.45594000000E+02  0.51100000000E-03 0.  1.
         23    2    1    2    0    0 -0.13322676296E-14  0.00000000000E+00 -0.88817841970E-15  0.91188000000E+02  0.91188000000E+02 0.  0.
    9900012    2    3    3    0    0 -0.21634518181E+01 -0.36673586584E+02 -0.24826015299E+01  0.54366867656E+02  0.39999506393E+02 0.  0.
         12    1    3    3    0    0  0.21634518181E+01  0.36673586584E+02  0.24826015299E+01  0.36821132344E+02  0.00000000000E+00 0. -1.
         11    1    4    4    0    0 -0.44108086290E+01 -0.22526797451E+02  0.71850192092E+01  0.24052782323E+02  0.51100000000E-03 0. -1.
        -11    1    4    4    0    0  0.12088918547E+02 -0.96024809772E+01  0.50715443492E+00  0.15446902552E+02  0.51100000000E-03 0.  1.
         12    1    4    4    0    0 -0.98415617362E+01 -0.45443081558E+01 -0.10174775174E+02  0.14867182782E+02  0.00000000000E+00 0. -1.
</event>
<event>
 8    1  0.2502431E-006  0.9118800E+02  0.7816164E-02  0.1184000E+00
        -11   -1    0    0    0    0  0.00000000000E+00  0.00000000000E+00  0.45593999997E+02  0.45594000000E+02  0.51100000000E-03 0.  1.
         11   -1    0    0    0    0 -0.00000000000E+00 -0.00000000000E+00 -0.45593999997E+02  0.45594000000E+02  0.51100000000E-03 0. -1.
         23    2    1    2    0    0 -0.35527136788E-14 -0.35527136788E-14  0.43715031595E-15  0.91188000000E+02  0.91188000000E+02 0.  0.
    9900012    2    3    3    0    0 -0.31062662530E+02  0.19770931401E+02 -0.44767594350E-01  0.54367072037E+02  0.39999972322E+02 0.  0.
         12    1    3    3    0    0  0.31062662530E+02 -0.19770931401E+02  0.44767594350E-01  0.36820927963E+02  0.00000000000E+00 0. -1.
         11    1    4    4    0    0 -0.91417523756E+00  0.21355273038E+02 -0.20207540446E+01  0.21470138566E+02  0.51100000000E-03 0. -1.
        -11    1    4    4    0    0 -0.23590026972E+01 -0.42336591603E+01 -0.49797579225E+00  0.48720369212E+01  0.51100000000E-03 0.  1.
         12    1    4    4    0    0 -0.27789484596E+02  0.26493175236E+01  0.24739622425E+01  0.28024896550E+02  0.00000000000E+00 0. -1.
</event>
<event>
 8    1  0.2502431E-006  0.9118800E+02  0.7816164E-02  0.1184000E+00
        -11   -1    0    0    0    0  0.00000000000E+00  0.00000000000E+00  0.45593999997E+02  0.45594000000E+02  0.51100000000E-03 0. -1.
         11   -1    0    0    0    0 -0.00000000000E+00 -0.00000000000E+00 -0.45593999997E+02  0.45594000000E+02  0.51100000000E-03 0.  1.
         23    2    1    2    0    0  0.35527136788E-14  0.17763568394E-14  0.00000000000E+00  0.91188000000E+02  0.91188000000E+02 0.  0.
    9900012    2    3    3    0    0  0.31701253398E+02  0.14544017108E+02  0.11801820317E+02  0.54367070307E+02  0.39999968379E+02 0.  0.
        -12    1    3    3    0    0 -0.31701253398E+02 -0.14544017108E+02 -0.11801820317E+02  0.36820929693E+02  0.00000000000E+00 0.  1.
         11    1    4    4    0    0  0.31308759471E+02  0.11592408879E+02  0.82001380244E+01  0.34378258058E+02  0.51100000000E-03 0. -1.
        -11    1    4    4    0    0 -0.19552658096E+01  0.36713684389E+01 -0.75229811138E+01  0.85963513015E+01  0.51100000000E-03 0.  1.
        -12    1    4    4    0    0  0.23477597368E+01 -0.71976020985E+00  0.11124663406E+02  0.11392460948E+02  0.00000000000E+00 0.  1.
</event>
<event>
 8    1  0.2502431E-006  0.9118800E+02  0.7816164E-02  0.1184000E+00
        -11   -1    0    0    0    0  0.00000000000E+00  0.00000000000E+00  0.45593999997E+02  0.45594000000E+02  0.51100000000E-03 0. -1.
         11   -1    0    0    0    0 -0.00000000000E+00 -0.00000000000E+00 -0.45593999997E+02  0.45594000000E+02  0.51100000000E-03 0.  1.
         23    2    1    2    0    0  0.00000000000E+00  0.00000000000E+00  0.00000000000E+00  0.91188000000E+02  0.91188000000E+02 0.  0.
    9900012    2    3    3    0    0  0.78084624959E+01  0.22284273816E+02  0.28252760689E+02  0.54367089737E+02  0.40000012673E+02 0.  0.
        -12    1    3    3    0    0 -0.78084624959E+01 -0.22284273816E+02 -0.28252760689E+02  0.36820910263E+02  0.00000000000E+00 0.  1.
         11    1    4    4    0    0  0.67715674364E+01  0.15577252468E+02  0.18008132004E+01  0.17080627870E+02  0.51100000000E-03 0.  1.
        -11    1    4    4    0    0 -0.66830005484E+01 -0.75395090220E+01  0.10163342714E+02  0.14310843022E+02  0.51100000000E-03 0. -1.
        -12    1    4    4    0    0  0.77198956078E+01  0.14246530371E+02  0.16288604775E+02  0.22975618845E+02  0.00000000000E+00 0.  1.
</event>
<event>
 8    1  0.2502431E-006  0.9118800E+02  0.7816164E-02  0.1184000E+00
        -11   -1    0    0    0    0  0.00000000000E+00  0.00000000000E+00  0.45593999997E+02  0.45594000000E+02  0.51100000000E-03 0.  1.
         11   -1    0    0    0    0 -0.00000000000E+00 -0.00000000000E+00 -0.45593999997E+02  0.45594000000E+02  0.51100000000E-03 0. -1.
         23    2    1    2    0    0  0.00000000000E+00  0.00000000000E+00  0.88817841970E-15  0.91188000000E+02  0.91188000000E+02 0.  0.
    9900012    2    3    3    0    0 -0.28726733677E+02 -0.21750554520E+02  0.75807495201E+01  0.54367087288E+02  0.40000007090E+02 0.  0.
         12    1    3    3    0    0  0.28726733677E+02  0.21750554520E+02 -0.75807495201E+01  0.36820912712E+02  0.00000000000E+00 0. -1.
         11    1    4    4    0    0  0.24516486506E+01 -0.40301269452E+01  0.20016653221E+01  0.51243700709E+01  0.51100000000E-03 0. -1.
        -11    1    4    4    0    0 -0.20062047632E+02 -0.84443332941E+00  0.16753199918E+02  0.26150880111E+02  0.51100000000E-03 0.  1.
        -12    1    4    4    0    0 -0.11116334696E+02 -0.16875994245E+02 -0.11174115720E+02  0.23091837106E+02  0.00000000000E+00 0.  1.
</event>
<event>
 8    1  0.2502431E-006  0.9118800E+02  0.7816164E-02  0.1184000E+00
        -11   -1    0    0    0    0  0.00000000000E+00  0.00000000000E+00  0.45593999997E+02  0.45594000000E+02  0.51100000000E-03 0. -1.
         11   -1    0    0    0    0 -0.00000000000E+00 -0.00000000000E+00 -0.45593999997E+02  0.45594000000E+02  0.51100000000E-03 0.  1.
         23    2    1    2    0    0  0.00000000000E+00 -0.35527136788E-14  0.00000000000E+00  0.91188000000E+02  0.91188000000E+02 0.  0.
    9900012    2    3    3    0    0 -0.89873548423E+01  0.24792664263E+02  0.25696908102E+02  0.54367084282E+02  0.40000000237E+02 0.  0.
        -12    1    3    3    0    0  0.89873548423E+01 -0.24792664263E+02 -0.25696908102E+02  0.36820915718E+02  0.00000000000E+00 0.  1.
         11    1    4    4    0    0  0.16137184109E+01  0.13834674651E+02 -0.25011806136E+01  0.14151261941E+02  0.51100000000E-03 0. -1.
        -11    1    4    4    0    0  0.27824116077E+01 -0.89057015543E+00 -0.30456547236E+01  0.42203012349E+01  0.51100000000E-03 0.  1.
         12    1    4    4    0    0 -0.13383484861E+02  0.11848559767E+02  0.31243743439E+02  0.35995521106E+02  0.00000000000E+00 0. -1.
</event>
<event>
 8    1  0.2502431E-006  0.9118800E+02  0.7816164E-02  0.1184000E+00
        -11   -1    0    0    0    0  0.00000000000E+00  0.00000000000E+00  0.45593999997E+02  0.45594000000E+02  0.51100000000E-03 0. -1.
         11   -1    0    0    0    0 -0.00000000000E+00 -0.00000000000E+00 -0.45593999997E+02  0.45594000000E+02  0.51100000000E-03 0.  1.
         23    2    1    2    0    0  0.00000000000E+00  0.17763568394E-14  0.00000000000E+00  0.91188000000E+02  0.91188000000E+02 0.  0.
    9900012    2    3    3    0    0 -0.19489875560E+02  0.13374468995E+02 -0.28231798698E+02  0.54367270404E+02  0.40000424538E+02 0.  0.
         12    1    3    3    0    0  0.19489875560E+02 -0.13374468995E+02  0.28231798698E+02  0.36820729596E+02  0.00000000000E+00 0. -1.
         11    1    4    4    0    0 -0.87566624303E+01 -0.43420452882E+01  0.49045048136E+01  0.10935568661E+02  0.51100000000E-03 0. -1.
        -11    1    4    4    0    0 -0.32001316865E+01  0.13020775747E+02 -0.56544366315E+01  0.14551773010E+02  0.51100000000E-03 0.  1.
         12    1    4    4    0    0 -0.75330814436E+01  0.46957385367E+01 -0.27481866880E+02  0.28879928733E+02  0.00000000000E+00 0. -1.
</event>
<event>
 8    1  0.2502431E-006  0.9118800E+02  0.7816164E-02  0.1184000E+00
        -11   -1    0    0    0    0  0.00000000000E+00  0.00000000000E+00  0.45593999997E+02  0.45594000000E+02  0.51100000000E-03 0.  1.
         11   -1    0    0    0    0 -0.00000000000E+00 -0.00000000000E+00 -0.45593999997E+02  0.45594000000E+02  0.51100000000E-03 0. -1.
         23    2    1    2    0    0  0.00000000000E+00  0.00000000000E+00  0.44408920985E-15  0.91188000000E+02  0.91188000000E+02 0.  0.
    9900012    2    3    3    0    0 -0.10017176636E+02 -0.35403337063E+02  0.14282530354E+01  0.54367081900E+02  0.39999994808E+02 0.  0.
         12    1    3    3    0    0  0.10017176636E+02  0.35403337063E+02 -0.14282530354E+01  0.36820918100E+02  0.00000000000E+00 0. -1.
         11    1    4    4    0    0 -0.95014778758E+01 -0.89385573635E+01 -0.64882482761E+01  0.14569600390E+02  0.51100000000E-03 0. -1.
        -11    1    4    4    0    0 -0.12648902141E+02 -0.38284864734E+01  0.13232033050E+01  0.13281675395E+02  0.51100000000E-03 0.  1.
         12    1    4    4    0    0  0.12133203382E+02 -0.22636293226E+02  0.65932980065E+01  0.26515806115E+02  0.00000000000E+00 0. -1.
</event>
<event>
 8    1  0.2502431E-006  0.9118800E+02  0.7816164E-02  0.1184000E+00
        -11   -1    0    0    0    0  0.00000000000E+00  0.00000000000E+00  0.45593999997E+02  0.45594000000E+02  0.51100000000E-03 0. -1.
         11   -1    0    0    0    0 -0.00000000000E+00 -0.00000000000E+00 -0.45593999997E+02  0.45594000000E+02  0.51100000000E-03 0.  1.
         23    2    1    2    0    0 -0.35527136788E-14  0.00000000000E+00  0.00000000000E+00  0.91188000000E+02  0.91188000000E+02 0.  0.
    9900012    2    3    3    0    0  0.26861471804E+02 -0.92325414999E+01 -0.23430776484E+02  0.54367085065E+02  0.40000002022E+02 0.  0.
         12    1    3    3    0    0 -0.26861471804E+02  0.92325414999E+01  0.23430776484E+02  0.36820914935E+02  0.00000000000E+00 0. -1.
         11    1    4    4    0    0  0.63369959132E+01 -0.11424525686E+02  0.19578102416E+01  0.13210235636E+02  0.51100000000E-03 0. -1.
        -11    1    4    4    0    0  0.10050750608E+02  0.19469261923E+01  0.31862843965E+01  0.10721964275E+02  0.51100000000E-03 0.  1.
        -12    1    4    4    0    0  0.10473725282E+02  0.24505799381E+00 -0.28574871122E+02  0.30434885154E+02  0.00000000000E+00 0.  1.
</event>
<event>
 8    1  0.2502431E-006  0.9118800E+02  0.7816164E-02  0.1184000E+00
        -11   -1    0    0    0    0  0.00000000000E+00  0.00000000000E+00  0.45593999997E+02  0.45594000000E+02  0.51100000000E-03 0. -1.
         11   -1    0    0    0    0 -0.00000000000E+00 -0.00000000000E+00 -0.45593999997E+02  0.45594000000E+02  0.51100000000E-03 0.  1.
         23    2    1    2    0    0  0.13322676296E-14  0.00000000000E+00 -0.71054273576E-14  0.91188000000E+02  0.91188000000E+02 0.  0.
    9900012    2    3    3    0    0  0.12977362175E+01 -0.19817607651E+01  0.36744675695E+02  0.54367045546E+02  0.39999911930E+02 0.  0.
        -12    1    3    3    0    0 -0.12977362175E+01  0.19817607651E+01 -0.36744675695E+02  0.36820954454E+02  0.00000000000E+00 0.  1.
         11    1    4    4    0    0 -0.38801413426E+01 -0.18956466285E+01  0.16178225886E+02  0.16744669780E+02  0.51100000000E-03 0. -1.
        -11    1    4    4    0    0  0.11221508520E+02 -0.13041108357E+02  0.11515851515E+02  0.20702840313E+02  0.51100000000E-03 0.  1.
        -12    1    4    4    0    0 -0.60436309602E+01  0.12954994220E+02  0.90505982937E+01  0.16919535452E+02  0.00000000000E+00 0.  1.
</event>
<event>
 8    1  0.2502431E-006  0.9118800E+02  0.7816164E-02  0.1184000E+00
        -11   -1    0    0    0    0  0.00000000000E+00  0.00000000000E+00  0.45593999997E+02  0.45594000000E+02  0.51100000000E-03 0.  1.
         11   -1    0    0    0    0 -0.00000000000E+00 -0.00000000000E+00 -0.45593999997E+02  0.45594000000E+02  0.51100000000E-03 0. -1.
         23    2    1    2    0    0 -0.17763568394E-14  0.00000000000E+00  0.35527136788E-14  0.91188000000E+02  0.91188000000E+02 0.  0.
    9900012    2    3    3    0    0  0.11995642412E+02  0.29432534033E+02  0.18590575621E+02  0.54367095633E+02  0.40000026115E+02 0.  0.
         12    1    3    3    0    0 -0.11995642412E+02 -0.29432534033E+02 -0.18590575621E+02  0.36820904367E+02  0.00000000000E+00 0. -1.
         11    1    4    4    0    0 -0.54141510515E+01  0.10185330594E+00  0.50018377424E+01  0.73716881897E+01  0.51100000000E-03 0. -1.
        -11    1    4    4    0    0  0.79949558322E+01 -0.10322374897E+01 -0.56443376782E+01  0.98409034687E+01  0.51100000000E-03 0.  1.
        -12    1    4    4    0    0  0.94148376313E+01  0.30362918217E+02  0.19233075557E+02  0.37154503975E+02  0.00000000000E+00 0.  1.
</event>
<event>
 8    1  0.2502431E-006  0.9118800E+02  0.7816164E-02  0.1184000E+00
        -11   -1    0    0    0    0  0.00000000000E+00  0.00000000000E+00  0.45593999997E+02  0.45594000000E+02  0.51100000000E-03 0.  1.
         11   -1    0    0    0    0 -0.00000000000E+00 -0.00000000000E+00 -0.45593999997E+02  0.45594000000E+02  0.51100000000E-03 0. -1.
         23    2    1    2    0    0  0.00000000000E+00 -0.35527136788E-14  0.35527136788E-14  0.91188000000E+02  0.91188000000E+02 0.  0.
    9900012    2    3    3    0    0 -0.49932513447E+01 -0.22110495510E+02  0.29016944941E+02  0.54366950797E+02  0.39999695930E+02 0.  0.
         12    1    3    3    0    0  0.49932513447E+01  0.22110495510E+02 -0.29016944941E+02  0.36821049203E+02  0.00000000000E+00 0. -1.
         11    1    4    4    0    0  0.47440182750E+01 -0.14036865774E+00 -0.78904005807E+01  0.92078137654E+01  0.51100000000E-03 0. -1.
        -11    1    4    4    0    0 -0.29648062295E+01 -0.17372273759E+02  0.22399588620E+02  0.28501360356E+02  0.51100000000E-03 0.  1.
         12    1    4    4    0    0 -0.67724633902E+01 -0.45978530932E+01  0.14507756902E+02  0.16657776675E+02  0.00000000000E+00 0. -1.
</event>
<event>
 8    1  0.2502431E-006  0.9118800E+02  0.7816164E-02  0.1184000E+00
        -11   -1    0    0    0    0  0.00000000000E+00  0.00000000000E+00  0.45593999997E+02  0.45594000000E+02  0.51100000000E-03 0. -1.
         11   -1    0    0    0    0 -0.00000000000E+00 -0.00000000000E+00 -0.45593999997E+02  0.45594000000E+02  0.51100000000E-03 0.  1.
         23    2    1    2    0    0  0.00000000000E+00 -0.71054273576E-14 -0.88817841970E-15  0.91188000000E+02  0.91188000000E+02 0.  0.
    9900012    2    3    3    0    0  0.47534735345E+01 -0.36204187997E+02 -0.47372450185E+01  0.54367078915E+02  0.39999988002E+02 0.  0.
         12    1    3    3    0    0 -0.47534735345E+01  0.36204187997E+02  0.47372450185E+01  0.36820921085E+02  0.00000000000E+00 0. -1.
         11    1    4    4    0    0  0.16501640876E+01  0.74979264741E+01  0.50121089624E-01  0.76775292453E+01  0.51100000000E-03 0. -1.
        -11    1    4    4    0    0  0.17804236213E+01 -0.38450053431E+01  0.40296834417E+01  0.58474202227E+01  0.51100000000E-03 0.  1.
        -12    1    4    4    0    0  0.13228858255E+01 -0.39857109128E+02 -0.88170495498E+01  0.40842129447E+02  0.00000000000E+00 0.  1.
</event>
<event>
 8    1  0.2502431E-006  0.9118800E+02  0.7816164E-02  0.1184000E+00
        -11   -1    0    0    0    0  0.00000000000E+00  0.00000000000E+00  0.45593999997E+02  0.45594000000E+02  0.51100000000E-03 0. -1.
         11   -1    0    0    0    0 -0.00000000000E+00 -0.00000000000E+00 -0.45593999997E+02  0.45594000000E+02  0.51100000000E-03 0.  1.
         23    2    1    2    0    0  0.35527136788E-14  0.00000000000E+00  0.00000000000E+00  0.91188000000E+02  0.91188000000E+02 0.  0.
    9900012    2    3    3    0    0 -0.26789711403E+02 -0.24169654430E+02 -0.73429797686E+01  0.54367079530E+02  0.39999989405E+02 0.  0.
         12    1    3    3    0    0  0.26789711403E+02  0.24169654430E+02  0.73429797686E+01  0.36820920470E+02  0.00000000000E+00 0. -1.
         11    1    4    4    0    0 -0.18734865355E+02 -0.17024274466E+02 -0.39547412286E+01  0.25621496432E+02  0.51100000000E-03 0.  1.
        -11    1    4    4    0    0 -0.66954695791E+01 -0.11767098016E+02  0.84537409366E+01  0.15961191831E+02  0.51100000000E-03 0. -1.
         12    1    4    4    0    0 -0.13593764696E+01  0.46217180518E+01 -0.11841979477E+02  0.12784391267E+02  0.00000000000E+00 0. -1.
</event>
<event>
 8    1  0.2502431E-006  0.9118800E+02  0.7816164E-02  0.1184000E+00
        -11   -1    0    0    0    0  0.00000000000E+00  0.00000000000E+00  0.45593999997E+02  0.45594000000E+02  0.51100000000E-03 0.  1.
         11   -1    0    0    0    0 -0.00000000000E+00 -0.00000000000E+00 -0.45593999997E+02  0.45594000000E+02  0.51100000000E-03 0. -1.
         23    2    1    2    0    0 -0.17763568394E-14  0.35527136788E-14  0.00000000000E+00  0.91188000000E+02  0.91188000000E+02 0.  0.
    9900012    2    3    3    0    0 -0.12907461143E+02 -0.21411634276E+02 -0.27031802066E+02  0.54367096176E+02  0.40000027352E+02 0.  0.
        -12    1    3    3    0    0  0.12907461143E+02  0.21411634276E+02  0.27031802066E+02  0.36820903824E+02  0.00000000000E+00 0.  1.
         11    1    4    4    0    0 -0.78226213968E+00 -0.11017328525E+02 -0.26263431908E+02  0.28491425337E+02  0.51100000000E-03 0. -1.
        -11    1    4    4    0    0 -0.12177452849E+02 -0.16081209294E+02 -0.37902167398E+00  0.20175215189E+02  0.51100000000E-03 0.  1.
        -12    1    4    4    0    0  0.52253846390E-01  0.56869035425E+01 -0.38934848376E+00  0.57004556492E+01  0.00000000000E+00 0.  1.
</event>
<event>
 8    1  0.2502431E-006  0.9118800E+02  0.7816164E-02  0.1184000E+00
        -11   -1    0    0    0    0  0.00000000000E+00  0.00000000000E+00  0.45593999997E+02  0.45594000000E+02  0.51100000000E-03 0. -1.
         11   -1    0    0    0    0 -0.00000000000E+00 -0.00000000000E+00 -0.45593999997E+02  0.45594000000E+02  0.51100000000E-03 0.  1.
         23    2    1    2    0    0  0.00000000000E+00  0.44408920985E-15  0.00000000000E+00  0.91188000000E+02  0.91188000000E+02 0.  0.
    9900012    2    3    3    0    0  0.27932177490E+02 -0.23061523872E+01 -0.23880010074E+02  0.54367085300E+02  0.40000002558E+02 0.  0.
         12    1    3    3    0    0 -0.27932177490E+02  0.23061523872E+01  0.23880010074E+02  0.36820914700E+02  0.00000000000E+00 0. -1.
         11    1    4    4    0    0  0.19144491705E+02 -0.89753564856E+00 -0.15494627109E+02  0.24645498624E+02  0.51100000000E-03 0. -1.
        -11    1    4    4    0    0  0.14190175691E+02 -0.74785407711E+01 -0.12756725009E+02  0.20494479535E+02  0.51100000000E-03 0.  1.
         12    1    4    4    0    0 -0.54024899059E+01  0.60699240324E+01  0.43713420430E+01  0.92271071415E+01  0.00000000000E+00 0. -1.
</event>
<event>
 8    1  0.2502431E-006  0.9118800E+02  0.7816164E-02  0.1184000E+00
        -11   -1    0    0    0    0  0.00000000000E+00  0.00000000000E+00  0.45593999997E+02  0.45594000000E+02  0.51100000000E-03 0.  1.
         11   -1    0    0    0    0 -0.00000000000E+00 -0.00000000000E+00 -0.45593999997E+02  0.45594000000E+02  0.51100000000E-03 0. -1.
         23    2    1    2    0    0  0.00000000000E+00  0.00000000000E+00  0.83266726847E-15  0.91188000000E+02  0.91188000000E+02 0.  0.
    9900012    2    3    3    0    0 -0.82684745333E+01 -0.35880014061E+02 -0.19198895173E+00  0.54367082848E+02  0.39999996969E+02 0.  0.
        -12    1    3    3    0    0  0.82684745333E+01  0.35880014061E+02  0.19198895173E+00  0.36820917152E+02  0.00000000000E+00 0.  1.
         11    1    4    4    0    0 -0.27011416309E+01 -0.11965903285E+02  0.58451939523E+01  0.13588425227E+02  0.51100000000E-03 0.  1.
        -11    1    4    4    0    0  0.99109885611E+01 -0.15130902883E+02  0.62668394367E+01  0.19142758241E+02  0.51100000000E-03 0. -1.
         12    1    4    4    0    0 -0.15478321463E+02 -0.87832078937E+01 -0.12304022341E+02  0.21635899380E+02  0.00000000000E+00 0. -1.
</event>
<event>
 8    1  0.2502431E-006  0.9118800E+02  0.7816164E-02  0.1184000E+00
        -11   -1    0    0    0    0  0.00000000000E+00  0.00000000000E+00  0.45593999997E+02  0.45594000000E+02  0.51100000000E-03 0. -1.
         11   -1    0    0    0    0 -0.00000000000E+00 -0.00000000000E+00 -0.45593999997E+02  0.45594000000E+02  0.51100000000E-03 0.  1.
         23    2    1    2    0    0 -0.35527136788E-14 -0.17763568394E-14  0.00000000000E+00  0.91188000000E+02  0.91188000000E+02 0.  0.
    9900012    2    3    3    0    0  0.21517638337E+02 -0.13731925459E+02 -0.26536858628E+02  0.54367090149E+02  0.40000013614E+02 0.  0.
         12    1    3    3    0    0 -0.21517638337E+02  0.13731925459E+02  0.26536858628E+02  0.36820909851E+02  0.00000000000E+00 0. -1.
         11    1    4    4    0    0 -0.53884112978E+00  0.65967874956E+01 -0.32581985383E+01  0.73772496908E+01  0.51100000000E-03 0. -1.
        -11    1    4    4    0    0 -0.52867492934E+01 -0.38782878709E+01  0.13330714876E+01  0.66908829577E+01  0.51100000000E-03 0.  1.
        -12    1    4    4    0    0  0.27343228760E+02 -0.16450425084E+02 -0.24611731577E+02  0.40298957501E+02  0.00000000000E+00 0.  1.
</event>
<event>
 8    1  0.2502431E-006  0.9118800E+02  0.7816164E-02  0.1184000E+00
        -11   -1    0    0    0    0  0.00000000000E+00  0.00000000000E+00  0.45593999997E+02  0.45594000000E+02  0.51100000000E-03 0. -1.
         11   -1    0    0    0    0 -0.00000000000E+00 -0.00000000000E+00 -0.45593999997E+02  0.45594000000E+02  0.51100000000E-03 0.  1.
         23    2    1    2    0    0  0.00000000000E+00 -0.17763568394E-14  0.17763568394E-14  0.91188000000E+02  0.91188000000E+02 0.  0.
    9900012    2    3    3    0    0  0.31412262043E+02 -0.14839646935E+02 -0.12199740066E+02  0.54367095808E+02  0.40000026515E+02 0.  0.
         12    1    3    3    0    0 -0.31412262043E+02  0.14839646935E+02  0.12199740066E+02  0.36820904192E+02  0.00000000000E+00 0. -1.
         11    1    4    4    0    0  0.91593134114E+01 -0.62031746880E+01 -0.57204883598E+01  0.12453769940E+02  0.51100000000E-03 0. -1.
        -11    1    4    4    0    0  0.21183569376E+02 -0.17685353344E+02  0.41579366413E+01  0.27907055949E+02  0.51100000000E-03 0.  1.
        -12    1    4    4    0    0  0.10693792557E+01  0.90488810971E+01 -0.10637188348E+02  0.14006269919E+02  0.00000000000E+00 0.  1.
</event>
<event>
 8    1  0.2502431E-006  0.9118800E+02  0.7816164E-02  0.1184000E+00
        -11   -1    0    0    0    0  0.00000000000E+00  0.00000000000E+00  0.45593999997E+02  0.45594000000E+02  0.51100000000E-03 0.  1.
         11   -1    0    0    0    0 -0.00000000000E+00 -0.00000000000E+00 -0.45593999997E+02  0.45594000000E+02  0.51100000000E-03 0. -1.
         23    2    1    2    0    0  0.00000000000E+00  0.00000000000E+00  0.35527136788E-14  0.91188000000E+02  0.91188000000E+02 0.  0.
    9900012    2    3    3    0    0  0.89327335663E+01  0.22221055055E+02 -0.27968049663E+02  0.54367070915E+02  0.39999969766E+02 0.  0.
        -12    1    3    3    0    0 -0.89327335663E+01 -0.22221055055E+02  0.27968049663E+02  0.36820929085E+02  0.00000000000E+00 0.  1.
         11    1    4    4    0    0  0.10416807796E+02  0.35257482769E+01 -0.21071647296E+02  0.23768784268E+02  0.51100000000E-03 0. -1.
        -11    1    4    4    0    0  0.40569651924E+01 -0.10822027071E+01  0.52607604845E+01  0.67309531575E+01  0.51100000000E-03 0.  1.
         12    1    4    4    0    0 -0.55410394222E+01  0.19777509485E+02 -0.12157162852E+02  0.23867333490E+02  0.00000000000E+00 0. -1.
</event>
<event>
 8    1  0.2502431E-006  0.9118800E+02  0.7816164E-02  0.1184000E+00
        -11   -1    0    0    0    0  0.00000000000E+00  0.00000000000E+00  0.45593999997E+02  0.45594000000E+02  0.51100000000E-03 0. -1.
         11   -1    0    0    0    0 -0.00000000000E+00 -0.00000000000E+00 -0.45593999997E+02  0.45594000000E+02  0.51100000000E-03 0.  1.
         23    2    1    2    0    0  0.44408920985E-15 -0.44408920985E-15 -0.71054273576E-14  0.91188000000E+02  0.91188000000E+02 0.  0.
    9900012    2    3    3    0    0 -0.14331578823E+01  0.35429706380E+01  0.36622022902E+02  0.54367093658E+02  0.40000021612E+02 0.  0.
        -12    1    3    3    0    0  0.14331578823E+01 -0.35429706380E+01 -0.36622022902E+02  0.36820906342E+02  0.00000000000E+00 0.  1.
         11    1    4    4    0    0  0.94034652718E+01  0.88751745518E+01  0.87569063904E+01  0.15616571078E+02  0.51100000000E-03 0. -1.
        -11    1    4    4    0    0  0.99254877692E+00 -0.66216882196E+01 -0.16765849810E+01  0.69023796919E+01  0.51100000000E-03 0.  1.
        -12    1    4    4    0    0 -0.11829171931E+02  0.12894843058E+01  0.29541701492E+02  0.31848142888E+02  0.00000000000E+00 0.  1.
</event>
<event>
 8    1  0.2502431E-006  0.9118800E+02  0.7816164E-02  0.1184000E+00
        -11   -1    0    0    0    0  0.00000000000E+00  0.00000000000E+00  0.45593999997E+02  0.45594000000E+02  0.51100000000E-03 0. -1.
         11   -1    0    0    0    0 -0.00000000000E+00 -0.00000000000E+00 -0.45593999997E+02  0.45594000000E+02  0.51100000000E-03 0.  1.
         23    2    1    2    0    0  0.00000000000E+00 -0.35527136788E-14  0.00000000000E+00  0.91188000000E+02  0.91188000000E+02 0.  0.
    9900012    2    3    3    0    0  0.19838428200E+02 -0.11065077858E+02 -0.28978973052E+02  0.54367081210E+02  0.39999993234E+02 0.  0.
         12    1    3    3    0    0 -0.19838428200E+02  0.11065077858E+02  0.28978973052E+02  0.36820918790E+02  0.00000000000E+00 0. -1.
         11    1    4    4    0    0  0.32512163044E+01  0.48792315252E+01 -0.72049343501E+01  0.92891542664E+01  0.51100000000E-03 0. -1.
        -11    1    4    4    0    0  0.10624003845E+02  0.46823454615E+01 -0.20511644712E+02  0.23569501178E+02  0.51100000000E-03 0.  1.
        -12    1    4    4    0    0  0.59632080508E+01 -0.20626654844E+02 -0.12623939897E+01  0.21508425766E+02  0.00000000000E+00 0.  1.
</event>
<event>
 8    1  0.2502431E-006  0.9118800E+02  0.7816164E-02  0.1184000E+00
        -11   -1    0    0    0    0  0.00000000000E+00  0.00000000000E+00  0.45593999997E+02  0.45594000000E+02  0.51100000000E-03 0.  1.
         11   -1    0    0    0    0 -0.00000000000E+00 -0.00000000000E+00 -0.45593999997E+02  0.45594000000E+02  0.51100000000E-03 0. -1.
         23    2    1    2    0    0 -0.35527136788E-14  0.00000000000E+00  0.17763568394E-14  0.91188000000E+02  0.91188000000E+02 0.  0.
    9900012    2    3    3    0    0 -0.20918322686E+02 -0.26560057616E+02  0.14586502166E+02  0.54367096562E+02  0.40000028232E+02 0.  0.
         12    1    3    3    0    0  0.20918322686E+02  0.26560057616E+02 -0.14586502166E+02  0.36820903438E+02  0.00000000000E+00 0. -1.
         11    1    4    4    0    0  0.93966783378E+01 -0.43612652773E+01 -0.35158104865E+01  0.10939795347E+02  0.51100000000E-03 0. -1.
        -11    1    4    4    0    0 -0.12574598916E+02 -0.14078594379E+02  0.38491076241E+01  0.19265071693E+02  0.51100000000E-03 0.  1.
         12    1    4    4    0    0 -0.17740402108E+02 -0.81201979594E+01  0.14253205029E+02  0.24162229521E+02  0.00000000000E+00 0. -1.
</event>
<event>
 8    1  0.2502431E-006  0.9118800E+02  0.7816164E-02  0.1184000E+00
        -11   -1    0    0    0    0  0.00000000000E+00  0.00000000000E+00  0.45593999997E+02  0.45594000000E+02  0.51100000000E-03 0.  1.
         11   -1    0    0    0    0 -0.00000000000E+00 -0.00000000000E+00 -0.45593999997E+02  0.45594000000E+02  0.51100000000E-03 0. -1.
         23    2    1    2    0    0  0.71054273576E-14  0.00000000000E+00  0.17763568394E-14  0.91188000000E+02  0.91188000000E+02 0.  0.
    9900012    2    3    3    0    0 -0.34440929090E+02  0.96512811084E+01 -0.87439647495E+01  0.54367058361E+02  0.39999941146E+02 0.  0.
         12    1    3    3    0    0  0.34440929090E+02 -0.96512811084E+01  0.87439647495E+01  0.36820941639E+02  0.00000000000E+00 0. -1.
         11    1    4    4    0    0  0.55102345717E+01  0.89484028574E+01 -0.95205063129E+01  0.14180149486E+02  0.51100000000E-03 0. -1.
        -11    1    4    4    0    0 -0.12126766274E+02 -0.16779135721E+01  0.67039064607E+00  0.12260639384E+02  0.51100000000E-03 0.  1.
         12    1    4    4    0    0 -0.27824397388E+02  0.23807918231E+01  0.10615091728E+00  0.27926269492E+02  0.00000000000E+00 0. -1.
</event>
<event>
 8    1  0.2502431E-006  0.9118800E+02  0.7816164E-02  0.1184000E+00
        -11   -1    0    0    0    0  0.00000000000E+00  0.00000000000E+00  0.45593999997E+02  0.45594000000E+02  0.51100000000E-03 0. -1.
         11   -1    0    0    0    0 -0.00000000000E+00 -0.00000000000E+00 -0.45593999997E+02  0.45594000000E+02  0.51100000000E-03 0.  1.
         23    2    1    2    0    0  0.00000000000E+00  0.44408920985E-15  0.00000000000E+00  0.91188000000E+02  0.91188000000E+02 0.  0.
    9900012    2    3    3    0    0  0.28127801300E+02  0.28836526106E+01  0.23585710752E+02  0.54367157940E+02  0.40000168155E+02 0.  0.
        -12    1    3    3    0    0 -0.28127801300E+02 -0.28836526106E+01 -0.23585710752E+02  0.36820842060E+02  0.00000000000E+00 0.  1.
         11    1    4    4    0    0  0.26107550840E+02  0.35569179767E+01  0.22173532486E+02  0.34437209811E+02  0.51100000000E-03 0. -1.
        -11    1    4    4    0    0  0.46486674405E+01 -0.92334668462E+01  0.31527269339E+01  0.10807715131E+02  0.51100000000E-03 0.  1.
        -12    1    4    4    0    0 -0.26284169803E+01  0.85602014801E+01 -0.17405486686E+01  0.91222329980E+01  0.00000000000E+00 0.  1.
</event>
<event>
 8    1  0.2502431E-006  0.9118800E+02  0.7816164E-02  0.1184000E+00
        -11   -1    0    0    0    0  0.00000000000E+00  0.00000000000E+00  0.45593999997E+02  0.45594000000E+02  0.51100000000E-03 0.  1.
         11   -1    0    0    0    0 -0.00000000000E+00 -0.00000000000E+00 -0.45593999997E+02  0.45594000000E+02  0.51100000000E-03 0. -1.
         23    2    1    2    0    0  0.17763568394E-14 -0.17763568394E-14  0.71054273576E-14  0.91188000000E+02  0.91188000000E+02 0.  0.
    9900012    2    3    3    0    0  0.92614501328E+01  0.87939300232E+01  0.34535109514E+02  0.54367062302E+02  0.39999950130E+02 0.  0.
         12    1    3    3    0    0 -0.92614501328E+01 -0.87939300232E+01 -0.34535109514E+02  0.36820937698E+02  0.00000000000E+00 0. -1.
         11    1    4    4    0    0  0.12165044452E+02  0.71461935526E+01  0.27078934110E+02  0.30533998454E+02  0.51100000000E-03 0. -1.
        -11    1    4    4    0    0  0.50210095719E+01  0.99396765771E+01  0.42971392952E+01  0.11936210201E+02  0.51100000000E-03 0.  1.
         12    1    4    4    0    0 -0.79246038907E+01 -0.82919401065E+01  0.31590361083E+01  0.11896853647E+02  0.00000000000E+00 0. -1.
</event>
<event>
 8    1  0.2502431E-006  0.9118800E+02  0.7816164E-02  0.1184000E+00
        -11   -1    0    0    0    0  0.00000000000E+00  0.00000000000E+00  0.45593999997E+02  0.45594000000E+02  0.51100000000E-03 0.  1.
         11   -1    0    0    0    0 -0.00000000000E+00 -0.00000000000E+00 -0.45593999997E+02  0.45594000000E+02  0.51100000000E-03 0. -1.
         23    2    1    2    0    0  0.00000000000E+00  0.00000000000E+00  0.35527136788E-14  0.91188000000E+02  0.91188000000E+02 0.  0.
    9900012    2    3    3    0    0 -0.83439355693E+01 -0.20937291402E+02 -0.29116804429E+02  0.54367085669E+02  0.40000003399E+02 0.  0.
        -12    1    3    3    0    0  0.83439355693E+01  0.20937291402E+02  0.29116804429E+02  0.36820914331E+02  0.00000000000E+00 0.  1.
         11    1    4    4    0    0  0.12532922385E+01  0.54671878827E+01 -0.37779233004E+01  0.67626614218E+01  0.51100000000E-03 0. -1.
        -11    1    4    4    0    0 -0.48624057955E+01 -0.14980800984E+02  0.35805683332E+01  0.16152023344E+02  0.51100000000E-03 0.  1.
        -12    1    4    4    0    0 -0.47348220122E+01 -0.11423678301E+02 -0.28919449462E+02  0.31452400903E+02  0.00000000000E+00 0.  1.
</event>
<event>
 8    1  0.2502431E-006  0.9118800E+02  0.7816164E-02  0.1184000E+00
        -11   -1    0    0    0    0  0.00000000000E+00  0.00000000000E+00  0.45593999997E+02  0.45594000000E+02  0.51100000000E-03 0.  1.
         11   -1    0    0    0    0 -0.00000000000E+00 -0.00000000000E+00 -0.45593999997E+02  0.45594000000E+02  0.51100000000E-03 0. -1.
         23    2    1    2    0    0 -0.71054273576E-14 -0.71054273576E-14 -0.26645352591E-14  0.91188000000E+02  0.91188000000E+02 0.  0.
    9900012    2    3    3    0    0 -0.16704607031E+02  0.32224991785E+02 -0.61875530441E+01  0.54367084690E+02  0.40000001168E+02 0.  0.
        -12    1    3    3    0    0  0.16704607031E+02 -0.32224991785E+02  0.61875530441E+01  0.36820915310E+02  0.00000000000E+00 0.  1.
         11    1    4    4    0    0 -0.14261563020E+02  0.26186711380E+02 -0.12629264637E+02  0.32382624326E+02  0.51100000000E-03 0. -1.
        -11    1    4    4    0    0  0.41573937139E+01 -0.11685340755E+01  0.10537640342E+02  0.11388206997E+02  0.51100000000E-03 0.  1.
        -12    1    4    4    0    0 -0.66004377250E+01  0.72068144799E+01 -0.40959287490E+01  0.10596253367E+02  0.00000000000E+00 0.  1.
</event>
<event>
 8    1  0.2502431E-006  0.9118800E+02  0.7816164E-02  0.1184000E+00
        -11   -1    0    0    0    0  0.00000000000E+00  0.00000000000E+00  0.45593999997E+02  0.45594000000E+02  0.51100000000E-03 0.  1.
         11   -1    0    0    0    0 -0.00000000000E+00 -0.00000000000E+00 -0.45593999997E+02  0.45594000000E+02  0.51100000000E-03 0. -1.
         23    2    1    2    0    0  0.00000000000E+00 -0.35527136788E-14  0.00000000000E+00  0.91188000000E+02  0.91188000000E+02 0.  0.
    9900012    2    3    3    0    0 -0.13024361431E+02  0.20533893774E+02 -0.27649664946E+02  0.54367098926E+02  0.40000033623E+02 0.  0.
        -12    1    3    3    0    0  0.13024361431E+02 -0.20533893774E+02  0.27649664946E+02  0.36820901074E+02  0.00000000000E+00 0.  1.
         11    1    4    4    0    0  0.64677873975E+01  0.12986817949E+02 -0.27939271501E+01  0.14774834803E+02  0.51100000000E-03 0. -1.
        -11    1    4    4    0    0 -0.15838804694E+02 -0.56769761554E+01 -0.16284965840E+02  0.23415719187E+02  0.51100000000E-03 0.  1.
        -12    1    4    4    0    0 -0.36533441349E+01  0.13224051980E+02 -0.85707719566E+01  0.16176544936E+02  0.00000000000E+00 0.  1.
</event>
<event>
 8    1  0.2502431E-006  0.9118800E+02  0.7816164E-02  0.1184000E+00
        -11   -1    0    0    0    0  0.00000000000E+00  0.00000000000E+00  0.45593999997E+02  0.45594000000E+02  0.51100000000E-03 0.  1.
         11   -1    0    0    0    0 -0.00000000000E+00 -0.00000000000E+00 -0.45593999997E+02  0.45594000000E+02  0.51100000000E-03 0. -1.
         23    2    1    2    0    0  0.00000000000E+00  0.00000000000E+00  0.00000000000E+00  0.91188000000E+02  0.91188000000E+02 0.  0.
    9900012    2    3    3    0    0 -0.17819830385E+02 -0.20617654374E+02  0.24761782903E+02  0.54367083127E+02  0.39999997604E+02 0.  0.
         12    1    3    3    0    0  0.17819830385E+02  0.20617654374E+02 -0.24761782903E+02  0.36820916873E+02  0.00000000000E+00 0. -1.
         11    1    4    4    0    0  0.94830559874E+01 -0.14144820319E+02  0.22752145852E+01  0.17180829269E+02  0.51100000000E-03 0. -1.
        -11    1    4    4    0    0 -0.16709845732E+02 -0.64339027570E+01  0.90102253009E+01  0.20044904822E+02  0.51100000000E-03 0.  1.
        -12    1    4    4    0    0 -0.10593040640E+02 -0.38931298440E-01  0.13476343017E+02  0.17141349036E+02  0.00000000000E+00 0.  1.
</event>
<event>
 8    1  0.2502431E-006  0.9118800E+02  0.7816164E-02  0.1184000E+00
        -11   -1    0    0    0    0  0.00000000000E+00  0.00000000000E+00  0.45593999997E+02  0.45594000000E+02  0.51100000000E-03 0. -1.
         11   -1    0    0    0    0 -0.00000000000E+00 -0.00000000000E+00 -0.45593999997E+02  0.45594000000E+02  0.51100000000E-03 0.  1.
         23    2    1    2    0    0  0.00000000000E+00  0.00000000000E+00 -0.13322676296E-14  0.91188000000E+02  0.91188000000E+02 0.  0.
    9900012    2    3    3    0    0 -0.17237941929E+02 -0.32414914678E+02 -0.28118974191E+01  0.54367080638E+02  0.39999991931E+02 0.  0.
         12    1    3    3    0    0  0.17237941929E+02  0.32414914678E+02  0.28118974191E+01  0.36820919362E+02  0.00000000000E+00 0. -1.
         11    1    4    4    0    0 -0.11643993330E+02 -0.13422768122E+02 -0.11009579445E+02  0.20903686865E+02  0.51100000000E-03 0.  1.
        -11    1    4    4    0    0 -0.73044199616E+01 -0.25075971374E+02  0.68518694305E+01  0.27001981525E+02  0.51100000000E-03 0. -1.
        -12    1    4    4    0    0  0.17104713631E+01  0.60838248178E+01  0.13458125957E+01  0.64614122481E+01  0.00000000000E+00 0.  1.
</event>
<event>
 8    1  0.2502431E-006  0.9118800E+02  0.7816164E-02  0.1184000E+00
        -11   -1    0    0    0    0  0.00000000000E+00  0.00000000000E+00  0.45593999997E+02  0.45594000000E+02  0.51100000000E-03 0.  1.
         11   -1    0    0    0    0 -0.00000000000E+00 -0.00000000000E+00 -0.45593999997E+02  0.45594000000E+02  0.51100000000E-03 0. -1.
         23    2    1    2    0    0 -0.17763568394E-14  0.26645352591E-14  0.00000000000E+00  0.91188000000E+02  0.91188000000E+02 0.  0.
    9900012    2    3    3    0    0 -0.90838409607E+01  0.40772481060E+01  0.35449107415E+02  0.54367091059E+02  0.40000015687E+02 0.  0.
         12    1    3    3    0    0  0.90838409607E+01 -0.40772481060E+01 -0.35449107415E+02  0.36820908941E+02  0.00000000000E+00 0. -1.
         11    1    4    4    0    0 -0.17729306915E+01 -0.42561748104E+01 -0.65826421608E+00  0.46574262520E+01  0.51100000000E-03 0. -1.
        -11    1    4    4    0    0 -0.63445640704E+01 -0.11771562080E+02  0.19337795171E+02  0.23511135434E+02  0.51100000000E-03 0.  1.
        -12    1    4    4    0    0 -0.96634619889E+00  0.20104984996E+02  0.16769576460E+02  0.26198529373E+02  0.00000000000E+00 0.  1.
</event>
<event>
 8    1  0.2502431E-006  0.9118800E+02  0.7816164E-02  0.1184000E+00
        -11   -1    0    0    0    0  0.00000000000E+00  0.00000000000E+00  0.45593999997E+02  0.45594000000E+02  0.51100000000E-03 0. -1.
         11   -1    0    0    0    0 -0.00000000000E+00 -0.00000000000E+00 -0.45593999997E+02  0.45594000000E+02  0.51100000000E-03 0.  1.
         23    2    1    2    0    0  0.00000000000E+00  0.00000000000E+00 -0.35527136788E-14  0.91188000000E+02  0.91188000000E+02 0.  0.
    9900012    2    3    3    0    0  0.32412128538E+02 -0.32756885759E+01 -0.17161110813E+02  0.54367082897E+02  0.39999997079E+02 0.  0.
         12    1    3    3    0    0 -0.32412128538E+02  0.32756885759E+01  0.17161110813E+02  0.36820917103E+02  0.00000000000E+00 0. -1.
         11    1    4    4    0    0  0.18980337257E+02 -0.11209094977E+01  0.62146578479E+01  0.20003290052E+02  0.51100000000E-03 0. -1.
        -11    1    4    4    0    0  0.52856175663E+01  0.19128218230E+01  0.30627287405E+01  0.64013239242E+01  0.51100000000E-03 0.  1.
        -12    1    4    4    0    0  0.81461737148E+01 -0.40676009012E+01 -0.26438497401E+02  0.27962468920E+02  0.00000000000E+00 0.  1.
</event>
<event>
 8    1  0.2502431E-006  0.9118800E+02  0.7816164E-02  0.1184000E+00
        -11   -1    0    0    0    0  0.00000000000E+00  0.00000000000E+00  0.45593999997E+02  0.45594000000E+02  0.51100000000E-03 0.  1.
         11   -1    0    0    0    0 -0.00000000000E+00 -0.00000000000E+00 -0.45593999997E+02  0.45594000000E+02  0.51100000000E-03 0. -1.
         23    2    1    2    0    0  0.88817841970E-15  0.71054273576E-14  0.00000000000E+00  0.91188000000E+02  0.91188000000E+02 0.  0.
    9900012    2    3    3    0    0  0.57987337516E+00  0.35605543188E+02 -0.93643790900E+01  0.54367047343E+02  0.39999916027E+02 0.  0.
        -12    1    3    3    0    0 -0.57987337516E+00 -0.35605543188E+02  0.93643790900E+01  0.36820952657E+02  0.00000000000E+00 0.  1.
         11    1    4    4    0    0 -0.70196945664E+01  0.10435032435E+02  0.41900018731E-01  0.12576476835E+02  0.51100000000E-03 0. -1.
        -11    1    4    4    0    0  0.55421536269E+01 -0.35882291454E+01 -0.11092901933E+02  0.12909040583E+02  0.51100000000E-03 0.  1.
        -12    1    4    4    0    0  0.20574143146E+01  0.28758739899E+02  0.16866228238E+01  0.28881529924E+02  0.00000000000E+00 0.  1.
</event>
<event>
 8    1  0.2502431E-006  0.9118800E+02  0.7816164E-02  0.1184000E+00
        -11   -1    0    0    0    0  0.00000000000E+00  0.00000000000E+00  0.45593999997E+02  0.45594000000E+02  0.51100000000E-03 0.  1.
         11   -1    0    0    0    0 -0.00000000000E+00 -0.00000000000E+00 -0.45593999997E+02  0.45594000000E+02  0.51100000000E-03 0. -1.
         23    2    1    2    0    0 -0.35527136788E-14  0.35527136788E-14  0.00000000000E+00  0.91188000000E+02  0.91188000000E+02 0.  0.
    9900012    2    3    3    0    0  0.13657816587E+02 -0.18204616638E+02 -0.28945390331E+02  0.54367086890E+02  0.40000006184E+02 0.  0.
        -12    1    3    3    0    0 -0.13657816587E+02  0.18204616638E+02  0.28945390331E+02  0.36820913110E+02  0.00000000000E+00 0.  1.
         11    1    4    4    0    0  0.17601410867E+02  0.19616128599E+01 -0.15948139068E+02  0.23832765880E+02  0.51100000000E-03 0. -1.
        -11    1    4    4    0    0 -0.71625761794E+01 -0.22189575341E+00 -0.53092024084E+01  0.89184844972E+01  0.51100000000E-03 0.  1.
        -12    1    4    4    0    0  0.32189819000E+01 -0.19944333744E+02 -0.76880488545E+01  0.21615836513E+02  0.00000000000E+00 0.  1.
</event>
<event>
 8    1  0.2502431E-006  0.9118800E+02  0.7816164E-02  0.1184000E+00
        -11   -1    0    0    0    0  0.00000000000E+00  0.00000000000E+00  0.45593999997E+02  0.45594000000E+02  0.51100000000E-03 0. -1.
         11   -1    0    0    0    0 -0.00000000000E+00 -0.00000000000E+00 -0.45593999997E+02  0.45594000000E+02  0.51100000000E-03 0.  1.
         23    2    1    2    0    0 -0.35527136788E-14  0.00000000000E+00  0.00000000000E+00  0.91188000000E+02  0.91188000000E+02 0.  0.
    9900012    2    3    3    0    0 -0.22647325521E+02  0.12750144161E+02 -0.26082796803E+02  0.54367084498E+02  0.40000000729E+02 0.  0.
         12    1    3    3    0    0  0.22647325521E+02 -0.12750144161E+02  0.26082796803E+02  0.36820915502E+02  0.00000000000E+00 0. -1.
         11    1    4    4    0    0 -0.19564646238E+02  0.15290387777E+01  0.67888930459E+00  0.19636044228E+02  0.51100000000E-03 0. -1.
        -11    1    4    4    0    0  0.75902050164E+01  0.78212947061E+01 -0.12192970540E+02  0.16353971809E+02  0.51100000000E-03 0.  1.
        -12    1    4    4    0    0 -0.10672884299E+02  0.33998106775E+01 -0.14568715567E+02  0.18377068460E+02  0.00000000000E+00 0.  1.
</event>
<event>
 8    1  0.2502431E-006  0.9118800E+02  0.7816164E-02  0.1184000E+00
        -11   -1    0    0    0    0  0.00000000000E+00  0.00000000000E+00  0.45593999997E+02  0.45594000000E+02  0.51100000000E-03 0. -1.
         11   -1    0    0    0    0 -0.00000000000E+00 -0.00000000000E+00 -0.45593999997E+02  0.45594000000E+02  0.51100000000E-03 0.  1.
         23    2    1    2    0    0  0.00000000000E+00  0.00000000000E+00  0.00000000000E+00  0.91188000000E+02  0.91188000000E+02 0.  0.
    9900012    2    3    3    0    0 -0.29470821921E+02 -0.13821677882E+02 -0.17210716368E+02  0.54367124371E+02  0.40000091629E+02 0.  0.
         12    1    3    3    0    0  0.29470821921E+02  0.13821677882E+02  0.17210716368E+02  0.36820875629E+02  0.00000000000E+00 0. -1.
         11    1    4    4    0    0 -0.65623495589E+01 -0.27681094718E+01  0.79017632198E+01  0.10637890957E+02  0.51100000000E-03 0. -1.
        -11    1    4    4    0    0 -0.21381640412E+02 -0.64054585276E+01 -0.47933295911E+01  0.22829377006E+02  0.51100000000E-03 0.  1.
         12    1    4    4    0    0 -0.15268319499E+01 -0.46481098828E+01 -0.20319149997E+02  0.20899856408E+02  0.00000000000E+00 0. -1.
</event>
<event>
 8    1  0.2502431E-006  0.9118800E+02  0.7816164E-02  0.1184000E+00
        -11   -1    0    0    0    0  0.00000000000E+00  0.00000000000E+00  0.45593999997E+02  0.45594000000E+02  0.51100000000E-03 0.  1.
         11   -1    0    0    0    0 -0.00000000000E+00 -0.00000000000E+00 -0.45593999997E+02  0.45594000000E+02  0.51100000000E-03 0. -1.
         23    2    1    2    0    0  0.17763568394E-14  0.71054273576E-14  0.14710455076E-14  0.91188000000E+02  0.91188000000E+02 0.  0.
    9900012    2    3    3    0    0  0.14636623070E+02  0.33786674784E+02 -0.15190530948E+00  0.54366902744E+02  0.39999586384E+02 0.  0.
         12    1    3    3    0    0 -0.14636623070E+02 -0.33786674784E+02  0.15190530948E+00  0.36821097256E+02  0.00000000000E+00 0. -1.
         11    1    4    4    0    0 -0.55461802741E+01 -0.57814885427E-01 -0.15172243019E+01  0.57502546063E+01  0.51100000000E-03 0. -1.
        -11    1    4    4    0    0  0.10416373600E+01  0.53876634510E+01 -0.10892347195E+02  0.12196522190E+02  0.51100000000E-03 0.  1.
        -12    1    4    4    0    0  0.19141165984E+02  0.28456826219E+02  0.12257666188E+02  0.36420125948E+02  0.00000000000E+00 0.  1.
</event>
<event>
 8    1  0.2502431E-006  0.9118800E+02  0.7816164E-02  0.1184000E+00
        -11   -1    0    0    0    0  0.00000000000E+00  0.00000000000E+00  0.45593999997E+02  0.45594000000E+02  0.51100000000E-03 0.  1.
         11   -1    0    0    0    0 -0.00000000000E+00 -0.00000000000E+00 -0.45593999997E+02  0.45594000000E+02  0.51100000000E-03 0. -1.
         23    2    1    2    0    0 -0.71054273576E-14  0.35527136788E-14 -0.99920072216E-15  0.91188000000E+02  0.91188000000E+02 0.  0.
    9900012    2    3    3    0    0  0.34628482666E+02 -0.12483554309E+02  0.90173810872E+00  0.54367026744E+02  0.39999869068E+02 0.  0.
        -12    1    3    3    0    0 -0.34628482666E+02  0.12483554309E+02 -0.90173810872E+00  0.36820973256E+02  0.00000000000E+00 0.  1.
         11    1    4    4    0    0  0.12722751108E+02 -0.13692383240E+02 -0.47836525769E+01  0.19293343069E+02  0.51100000000E-03 0. -1.
        -11    1    4    4    0    0  0.34573906460E+01  0.85896366702E+01  0.11123444217E+02  0.14472954768E+02  0.51100000000E-03 0.  1.
        -12    1    4    4    0    0  0.18448340912E+02 -0.73808077386E+01 -0.54380535312E+01  0.20600728907E+02  0.00000000000E+00 0.  1.
</event>
<event>
 8    1  0.2502431E-006  0.9118800E+02  0.7816164E-02  0.1184000E+00
        -11   -1    0    0    0    0  0.00000000000E+00  0.00000000000E+00  0.45593999997E+02  0.45594000000E+02  0.51100000000E-03 0. -1.
         11   -1    0    0    0    0 -0.00000000000E+00 -0.00000000000E+00 -0.45593999997E+02  0.45594000000E+02  0.51100000000E-03 0.  1.
         23    2    1    2    0    0  0.11102230246E-15  0.00000000000E+00  0.00000000000E+00  0.91188000000E+02  0.91188000000E+02 0.  0.
    9900012    2    3    3    0    0 -0.53554574825E+00 -0.15659510019E+02 -0.33320748154E+02  0.54367091254E+02  0.40000016133E+02 0.  0.
         12    1    3    3    0    0  0.53554574825E+00  0.15659510019E+02  0.33320748154E+02  0.36820908746E+02  0.00000000000E+00 0. -1.
         11    1    4    4    0    0 -0.67390378230E+01  0.81103956665E+01 -0.70769209330E+01  0.12699447185E+02  0.51100000000E-03 0. -1.
        -11    1    4    4    0    0  0.94991331103E+01 -0.34823700028E+01 -0.15407942489E+02  0.18432718809E+02  0.51100000000E-03 0.  1.
        -12    1    4    4    0    0 -0.32956410356E+01 -0.20287535683E+02 -0.10835884732E+02  0.23234925260E+02  0.00000000000E+00 0.  1.
</event>
<event>
 8    1  0.2502431E-006  0.9118800E+02  0.7816164E-02  0.1184000E+00
        -11   -1    0    0    0    0  0.00000000000E+00  0.00000000000E+00  0.45593999997E+02  0.45594000000E+02  0.51100000000E-03 0. -1.
         11   -1    0    0    0    0 -0.00000000000E+00 -0.00000000000E+00 -0.45593999997E+02  0.45594000000E+02  0.51100000000E-03 0.  1.
         23    2    1    2    0    0 -0.35527136788E-14  0.00000000000E+00 -0.35527136788E-14  0.91188000000E+02  0.91188000000E+02 0.  0.
    9900012    2    3    3    0    0 -0.23186598303E+02 -0.11592477385E+02 -0.26149117767E+02  0.54367078871E+02  0.39999987903E+02 0.  0.
         12    1    3    3    0    0  0.23186598303E+02  0.11592477385E+02  0.26149117767E+02  0.36820921129E+02  0.00000000000E+00 0. -1.
         11    1    4    4    0    0  0.24074046110E+01  0.85273936954E+01 -0.41523001036E+01  0.97853787156E+01  0.51100000000E-03 0. -1.
        -11    1    4    4    0    0 -0.42349024650E+01  0.43303242396E+01 -0.54243008823E+01  0.81307531773E+01  0.51100000000E-03 0.  1.
        -12    1    4    4    0    0 -0.21359100449E+02 -0.24450195320E+02 -0.16572516781E+02  0.36450946978E+02  0.00000000000E+00 0.  1.
</event>
<event>
 8    1  0.2502431E-006  0.9118800E+02  0.7816164E-02  0.1184000E+00
        -11   -1    0    0    0    0  0.00000000000E+00  0.00000000000E+00  0.45593999997E+02  0.45594000000E+02  0.51100000000E-03 0. -1.
         11   -1    0    0    0    0 -0.00000000000E+00 -0.00000000000E+00 -0.45593999997E+02  0.45594000000E+02  0.51100000000E-03 0.  1.
         23    2    1    2    0    0  0.99920072216E-15 -0.35527136788E-14  0.00000000000E+00  0.91188000000E+02  0.91188000000E+02 0.  0.
    9900012    2    3    3    0    0 -0.67084780530E+00  0.28853372656E+02 -0.22865092272E+02  0.54367087532E+02  0.40000007647E+02 0.  0.
         12    1    3    3    0    0  0.67084780530E+00 -0.28853372656E+02  0.22865092272E+02  0.36820912468E+02  0.00000000000E+00 0. -1.
         11    1    4    4    0    0  0.11025661409E+02  0.16158229434E+02 -0.80160389746E+01  0.21140257072E+02  0.51100000000E-03 0. -1.
        -11    1    4    4    0    0  0.25048646514E+01  0.58142856093E+01  0.48581309676E+01  0.79800815051E+01  0.51100000000E-03 0.  1.
        -12    1    4    4    0    0 -0.14201373866E+02  0.68808576117E+01 -0.19707184265E+02  0.25246748955E+02  0.00000000000E+00 0.  1.
</event>
<event>
 8    1  0.2502431E-006  0.9118800E+02  0.7816164E-02  0.1184000E+00
        -11   -1    0    0    0    0  0.00000000000E+00  0.00000000000E+00  0.45593999997E+02  0.45594000000E+02  0.51100000000E-03 0.  1.
         11   -1    0    0    0    0 -0.00000000000E+00 -0.00000000000E+00 -0.45593999997E+02  0.45594000000E+02  0.51100000000E-03 0. -1.
         23    2    1    2    0    0 -0.17763568394E-14  0.35527136788E-14  0.35527136788E-14  0.91188000000E+02  0.91188000000E+02 0.  0.
    9900012    2    3    3    0    0 -0.73048090877E+01 -0.29106721764E+02 -0.21335841219E+02  0.54367087353E+02  0.40000007239E+02 0.  0.
        -12    1    3    3    0    0  0.73048090877E+01  0.29106721764E+02  0.21335841219E+02  0.36820912647E+02  0.00000000000E+00 0.  1.
         11    1    4    4    0    0 -0.17121648360E+02 -0.26459311980E+02 -0.22789785189E+02  0.38892420113E+02  0.51100000000E-03 0. -1.
        -11    1    4    4    0    0  0.13430391808E+01  0.13863234148E+01  0.50639956778E+01  0.54193818224E+01  0.51100000000E-03 0.  1.
        -12    1    4    4    0    0  0.84738000913E+01 -0.40337331985E+01 -0.36100517082E+01  0.10055285418E+02  0.00000000000E+00 0.  1.
</event>
<event>
 8    1  0.2502431E-006  0.9118800E+02  0.7816164E-02  0.1184000E+00
        -11   -1    0    0    0    0  0.00000000000E+00  0.00000000000E+00  0.45593999997E+02  0.45594000000E+02  0.51100000000E-03 0. -1.
         11   -1    0    0    0    0 -0.00000000000E+00 -0.00000000000E+00 -0.45593999997E+02  0.45594000000E+02  0.51100000000E-03 0.  1.
         23    2    1    2    0    0 -0.35527136788E-14 -0.17763568394E-14  0.00000000000E+00  0.91188000000E+02  0.91188000000E+02 0.  0.
    9900012    2    3    3    0    0 -0.31894453226E+02 -0.70574763894E+01 -0.16991610415E+02  0.54367096371E+02  0.40000027797E+02 0.  0.
         12    1    3    3    0    0  0.31894453226E+02  0.70574763894E+01  0.16991610415E+02  0.36820903629E+02  0.00000000000E+00 0. -1.
         11    1    4    4    0    0 -0.12935896849E+02 -0.78900520494E+01 -0.14634896954E+02  0.21065862379E+02  0.51100000000E-03 0. -1.
        -11    1    4    4    0    0  0.33428854863E+01  0.88557411730E+01 -0.15100413923E+01  0.95853669917E+01  0.51100000000E-03 0.  1.
         12    1    4    4    0    0 -0.22301441863E+02 -0.80231655130E+01 -0.84667206881E+00  0.23715867001E+02  0.00000000000E+00 0. -1.
</event>
<event>
 8    1  0.2502431E-006  0.9118800E+02  0.7816164E-02  0.1184000E+00
        -11   -1    0    0    0    0  0.00000000000E+00  0.00000000000E+00  0.45593999997E+02  0.45594000000E+02  0.51100000000E-03 0.  1.
         11   -1    0    0    0    0 -0.00000000000E+00 -0.00000000000E+00 -0.45593999997E+02  0.45594000000E+02  0.51100000000E-03 0. -1.
         23    2    1    2    0    0  0.00000000000E+00 -0.35527136788E-14  0.00000000000E+00  0.91188000000E+02  0.91188000000E+02 0.  0.
    9900012    2    3    3    0    0 -0.33883608292E+02  0.74746519980E+01  0.12321123609E+02  0.54367089903E+02  0.40000013052E+02 0.  0.
         12    1    3    3    0    0  0.33883608292E+02 -0.74746519980E+01 -0.12321123609E+02  0.36820910097E+02  0.00000000000E+00 0. -1.
         11    1    4    4    0    0  0.14519306659E+01 -0.86719803394E+01  0.34919454283E+01  0.94607097409E+01  0.51100000000E-03 0. -1.
        -11    1    4    4    0    0 -0.21343434807E+02  0.20277893236E+02  0.58336303832E+01  0.30012770734E+02  0.51100000000E-03 0.  1.
         12    1    4    4    0    0 -0.13992104151E+02 -0.41312608984E+01  0.29955477978E+01  0.14893609428E+02  0.00000000000E+00 0. -1.
</event>
<event>
 8    1  0.2502431E-006  0.9118800E+02  0.7816164E-02  0.1184000E+00
        -11   -1    0    0    0    0  0.00000000000E+00  0.00000000000E+00  0.45593999997E+02  0.45594000000E+02  0.51100000000E-03 0.  1.
         11   -1    0    0    0    0 -0.00000000000E+00 -0.00000000000E+00 -0.45593999997E+02  0.45594000000E+02  0.51100000000E-03 0. -1.
         23    2    1    2    0    0 -0.35527136788E-14  0.00000000000E+00  0.00000000000E+00  0.91188000000E+02  0.91188000000E+02 0.  0.
    9900012    2    3    3    0    0 -0.19475581119E+02  0.16888553882E+02 -0.26291799073E+02  0.54367079172E+02  0.39999988588E+02 0.  0.
        -12    1    3    3    0    0  0.19475581119E+02 -0.16888553882E+02  0.26291799073E+02  0.36820920828E+02  0.00000000000E+00 0.  1.
         11    1    4    4    0    0 -0.15823826806E+02  0.15531987269E+02 -0.14987639866E+02  0.26763136444E+02  0.51100000000E-03 0. -1.
        -11    1    4    4    0    0 -0.98119407386E+01  0.10243806127E+02 -0.47487846856E+01  0.14958633001E+02  0.51100000000E-03 0.  1.
         12    1    4    4    0    0  0.61601864251E+01 -0.88872395140E+01 -0.65553745214E+01  0.12645309727E+02  0.00000000000E+00 0. -1.
</event>
<event>
 8    1  0.2502431E-006  0.9118800E+02  0.7816164E-02  0.1184000E+00
        -11   -1    0    0    0    0  0.00000000000E+00  0.00000000000E+00  0.45593999997E+02  0.45594000000E+02  0.51100000000E-03 0. -1.
         11   -1    0    0    0    0 -0.00000000000E+00 -0.00000000000E+00 -0.45593999997E+02  0.45594000000E+02  0.51100000000E-03 0.  1.
         23    2    1    2    0    0  0.35527136788E-14 -0.35527136788E-14  0.00000000000E+00  0.91188000000E+02  0.91188000000E+02 0.  0.
    9900012    2    3    3    0    0 -0.23707718730E+02 -0.23900918041E+02  0.14915410872E+02  0.54367091645E+02  0.40000017023E+02 0.  0.
        -12    1    3    3    0    0  0.23707718730E+02  0.23900918041E+02 -0.14915410872E+02  0.36820908355E+02  0.00000000000E+00 0.  1.
         11    1    4    4    0    0 -0.32496678985E+01 -0.23626206342E+02  0.13194930544E+02  0.27255534482E+02  0.51100000000E-03 0. -1.
        -11    1    4    4    0    0  0.36125578274E+00 -0.16370354035E+01  0.56390188494E+01  0.58829350241E+01  0.51100000000E-03 0.  1.
        -12    1    4    4    0    0 -0.20819306615E+02  0.13623237038E+01 -0.39185385218E+01  0.21228622139E+02  0.00000000000E+00 0.  1.
</event>
<event>
 8    1  0.2502431E-006  0.9118800E+02  0.7816164E-02  0.1184000E+00
        -11   -1    0    0    0    0  0.00000000000E+00  0.00000000000E+00  0.45593999997E+02  0.45594000000E+02  0.51100000000E-03 0.  1.
         11   -1    0    0    0    0 -0.00000000000E+00 -0.00000000000E+00 -0.45593999997E+02  0.45594000000E+02  0.51100000000E-03 0. -1.
         23    2    1    2    0    0  0.00000000000E+00  0.00000000000E+00  0.00000000000E+00  0.91188000000E+02  0.91188000000E+02 0.  0.
    9900012    2    3    3    0    0  0.13260476492E+02 -0.20750300788E+02  0.27374511722E+02  0.54367094096E+02  0.40000022610E+02 0.  0.
         12    1    3    3    0    0 -0.13260476492E+02  0.20750300788E+02 -0.27374511722E+02  0.36820905904E+02  0.00000000000E+00 0. -1.
         11    1    4    4    0    0  0.38608708708E+00 -0.27819648798E+02  0.14102877524E+02  0.31192516365E+02  0.51100000000E-03 0. -1.
        -11    1    4    4    0    0  0.44006678979E+01  0.80649232199E-01  0.11150508875E+02  0.11987753362E+02  0.51100000000E-03 0.  1.
         12    1    4    4    0    0  0.84737215071E+01  0.69886987783E+01  0.21211253239E+01  0.11186824368E+02  0.00000000000E+00 0. -1.
</event>
<event>
 8    1  0.2502431E-006  0.9118800E+02  0.7816164E-02  0.1184000E+00
        -11   -1    0    0    0    0  0.00000000000E+00  0.00000000000E+00  0.45593999997E+02  0.45594000000E+02  0.51100000000E-03 0. -1.
         11   -1    0    0    0    0 -0.00000000000E+00 -0.00000000000E+00 -0.45593999997E+02  0.45594000000E+02  0.51100000000E-03 0.  1.
         23    2    1    2    0    0 -0.35527136788E-14 -0.35527136788E-14  0.00000000000E+00  0.91188000000E+02  0.91188000000E+02 0.  0.
    9900012    2    3    3    0    0 -0.25846390436E+02 -0.18428430785E+02 -0.18658417594E+02  0.54367088728E+02  0.40000010372E+02 0.  0.
         12    1    3    3    0    0  0.25846390436E+02  0.18428430785E+02  0.18658417594E+02  0.36820911272E+02  0.00000000000E+00 0. -1.
         11    1    4    4    0    0 -0.64790598351E+01  0.66120556774E+01  0.56018164698E+00  0.92742277505E+01  0.51100000000E-03 0. -1.
        -11    1    4    4    0    0 -0.25042115340E+02 -0.24397996247E+02 -0.17678588291E+02  0.39177828498E+02  0.51100000000E-03 0.  1.
        -12    1    4    4    0    0  0.56747847386E+01 -0.64249021532E+00 -0.15400109507E+01  0.59150324796E+01  0.00000000000E+00 0.  1.
</event>
<event>
 8    1  0.2502431E-006  0.9118800E+02  0.7816164E-02  0.1184000E+00
        -11   -1    0    0    0    0  0.00000000000E+00  0.00000000000E+00  0.45593999997E+02  0.45594000000E+02  0.51100000000E-03 0.  1.
         11   -1    0    0    0    0 -0.00000000000E+00 -0.00000000000E+00 -0.45593999997E+02  0.45594000000E+02  0.51100000000E-03 0. -1.
         23    2    1    2    0    0  0.00000000000E+00  0.00000000000E+00  0.35527136788E-14  0.91188000000E+02  0.91188000000E+02 0.  0.
    9900012    2    3    3    0    0  0.98917232652E+01  0.17583193179E+02 -0.30802015186E+02  0.54367095461E+02  0.40000025723E+02 0.  0.
        -12    1    3    3    0    0 -0.98917232652E+01 -0.17583193179E+02  0.30802015186E+02  0.36820904539E+02  0.00000000000E+00 0.  1.
         11    1    4    4    0    0  0.11236455512E+02  0.92010686895E+01 -0.16682168240E+02  0.22118144925E+02  0.51100000000E-03 0. -1.
        -11    1    4    4    0    0  0.13182979961E+02  0.47794150685E+01 -0.65922684146E+01  0.15494895036E+02  0.51100000000E-03 0.  1.
        -12    1    4    4    0    0 -0.14527712208E+02  0.36027094212E+01 -0.75275785316E+01  0.16754055501E+02  0.00000000000E+00 0.  1.
</event>
<event>
 8    1  0.2502431E-006  0.9118800E+02  0.7816164E-02  0.1184000E+00
        -11   -1    0    0    0    0  0.00000000000E+00  0.00000000000E+00  0.45593999997E+02  0.45594000000E+02  0.51100000000E-03 0. -1.
         11   -1    0    0    0    0 -0.00000000000E+00 -0.00000000000E+00 -0.45593999997E+02  0.45594000000E+02  0.51100000000E-03 0.  1.
         23    2    1    2    0    0  0.17763568394E-14  0.35527136788E-14  0.00000000000E+00  0.91188000000E+02  0.91188000000E+02 0.  0.
    9900012    2    3    3    0    0  0.61608981171E+01 -0.17085802640E+02  0.32029643579E+02  0.54367090380E+02  0.40000014140E+02 0.  0.
        -12    1    3    3    0    0 -0.61608981171E+01  0.17085802640E+02 -0.32029643579E+02  0.36820909620E+02  0.00000000000E+00 0.  1.
         11    1    4    4    0    0  0.18605879937E+02 -0.10295058365E+02  0.28312372213E+02  0.35408437068E+02  0.51100000000E-03 0. -1.
        -11    1    4    4    0    0 -0.14938942699E+01 -0.46615322206E+01  0.58212569961E+01  0.76058290809E+01  0.51100000000E-03 0.  1.
        -12    1    4    4    0    0 -0.10951087550E+02 -0.21292120539E+01 -0.21039856309E+01  0.11352824232E+02  0.00000000000E+00 0.  1.
</event>
<event>
 8    1  0.2502431E-006  0.9118800E+02  0.7816164E-02  0.1184000E+00
        -11   -1    0    0    0    0  0.00000000000E+00  0.00000000000E+00  0.45593999997E+02  0.45594000000E+02  0.51100000000E-03 0. -1.
         11   -1    0    0    0    0 -0.00000000000E+00 -0.00000000000E+00 -0.45593999997E+02  0.45594000000E+02  0.51100000000E-03 0.  1.
         23    2    1    2    0    0  0.35527136788E-14  0.00000000000E+00  0.00000000000E+00  0.91188000000E+02  0.91188000000E+02 0.  0.
    9900012    2    3    3    0    0  0.17424634991E+02  0.12334130615E+02 -0.30000514800E+02  0.54367087859E+02  0.40000008393E+02 0.  0.
         12    1    3    3    0    0 -0.17424634991E+02 -0.12334130615E+02  0.30000514800E+02  0.36820912141E+02  0.00000000000E+00 0. -1.
         11    1    4    4    0    0  0.14638489427E+01  0.20911969539E+02 -0.56227749009E+01  0.21704122226E+02  0.51100000000E-03 0. -1.
        -11    1    4    4    0    0  0.14448195788E+02 -0.20617276364E+01 -0.19625751505E+02  0.24457538813E+02  0.51100000000E-03 0.  1.
         12    1    4    4    0    0  0.15125902602E+01 -0.65161112880E+01 -0.47519883947E+01  0.82054268211E+01  0.00000000000E+00 0. -1.
</event>
<event>
 8    1  0.2502431E-006  0.9118800E+02  0.7816164E-02  0.1184000E+00
        -11   -1    0    0    0    0  0.00000000000E+00  0.00000000000E+00  0.45593999997E+02  0.45594000000E+02  0.51100000000E-03 0. -1.
         11   -1    0    0    0    0 -0.00000000000E+00 -0.00000000000E+00 -0.45593999997E+02  0.45594000000E+02  0.51100000000E-03 0.  1.
         23    2    1    2    0    0 -0.22204460493E-14 -0.71054273576E-14  0.17763568394E-14  0.91188000000E+02  0.91188000000E+02 0.  0.
    9900012    2    3    3    0    0  0.15984588296E+01  0.36101300208E+02 -0.70656581420E+01  0.54367048460E+02  0.39999918574E+02 0.  0.
         12    1    3    3    0    0 -0.15984588296E+01 -0.36101300208E+02  0.70656581420E+01  0.36820951540E+02  0.00000000000E+00 0. -1.
         11    1    4    4    0    0 -0.85847845010E+01  0.74776467625E+01 -0.29490674104E+01  0.11760558018E+02  0.51100000000E-03 0. -1.
        -11    1    4    4    0    0 -0.10208371314E+02  0.13878397529E+02 -0.11280087160E+01  0.17265374794E+02  0.51100000000E-03 0.  1.
        -12    1    4    4    0    0  0.20391614644E+02  0.14745255917E+02 -0.29885820156E+01  0.25341115649E+02  0.00000000000E+00 0.  1.
</event>
<event>
 8    1  0.2502431E-006  0.9118800E+02  0.7816164E-02  0.1184000E+00
        -11   -1    0    0    0    0  0.00000000000E+00  0.00000000000E+00  0.45593999997E+02  0.45594000000E+02  0.51100000000E-03 0.  1.
         11   -1    0    0    0    0 -0.00000000000E+00 -0.00000000000E+00 -0.45593999997E+02  0.45594000000E+02  0.51100000000E-03 0. -1.
         23    2    1    2    0    0 -0.17763568394E-14  0.00000000000E+00  0.00000000000E+00  0.91188000000E+02  0.91188000000E+02 0.  0.
    9900012    2    3    3    0    0  0.94963518293E+01 -0.35102859435E+02 -0.57785332790E+01  0.54367042850E+02  0.39999905785E+02 0.  0.
        -12    1    3    3    0    0 -0.94963518293E+01  0.35102859435E+02  0.57785332790E+01  0.36820957150E+02  0.00000000000E+00 0.  1.
         11    1    4    4    0    0 -0.13445895734E+02 -0.17646209406E+02 -0.10274836433E+02  0.24448989396E+02  0.51100000000E-03 0. -1.
        -11    1    4    4    0    0  0.19677375469E+02 -0.17457764851E+02  0.37806298660E+01  0.26575662200E+02  0.51100000000E-03 0.  1.
         12    1    4    4    0    0  0.32648720948E+01  0.11148213907E-02  0.71567328795E+00  0.33423912538E+01  0.00000000000E+00 0. -1.
</event>
<event>
 8    1  0.2502431E-006  0.9118800E+02  0.7816164E-02  0.1184000E+00
        -11   -1    0    0    0    0  0.00000000000E+00  0.00000000000E+00  0.45593999997E+02  0.45594000000E+02  0.51100000000E-03 0.  1.
         11   -1    0    0    0    0 -0.00000000000E+00 -0.00000000000E+00 -0.45593999997E+02  0.45594000000E+02  0.51100000000E-03 0. -1.
         23    2    1    2    0    0  0.00000000000E+00  0.00000000000E+00  0.35527136788E-14  0.91188000000E+02  0.91188000000E+02 0.  0.
    9900012    2    3    3    0    0  0.46130854163E+01  0.19559444404E+02 -0.30853319819E+02  0.54367085205E+02  0.40000002342E+02 0.  0.
        -12    1    3    3    0    0 -0.46130854163E+01 -0.19559444404E+02  0.30853319819E+02  0.36820914795E+02  0.00000000000E+00 0.  1.
         11    1    4    4    0    0 -0.30251079892E+01 -0.41036071368E+01 -0.67814392466E+01  0.84840313764E+01  0.51100000000E-03 0. -1.
        -11    1    4    4    0    0 -0.12747959464E+01  0.64453667434E+01 -0.25605121207E+02  0.26434638062E+02  0.51100000000E-03 0.  1.
        -12    1    4    4    0    0  0.89129893518E+01  0.17217684798E+02  0.15332406344E+01  0.19448415767E+02  0.00000000000E+00 0.  1.
</event>
<event>
 8    1  0.2502431E-006  0.9118800E+02  0.7816164E-02  0.1184000E+00
        -11   -1    0    0    0    0  0.00000000000E+00  0.00000000000E+00  0.45593999997E+02  0.45594000000E+02  0.51100000000E-03 0.  1.
         11   -1    0    0    0    0 -0.00000000000E+00 -0.00000000000E+00 -0.45593999997E+02  0.45594000000E+02  0.51100000000E-03 0. -1.
         23    2    1    2    0    0 -0.88817841970E-15  0.17763568394E-14  0.00000000000E+00  0.91188000000E+02  0.91188000000E+02 0.  0.
    9900012    2    3    3    0    0 -0.23933919135E+01  0.12178312753E+02 -0.34666116073E+02  0.54367092489E+02  0.40000018947E+02 0.  0.
        -12    1    3    3    0    0  0.23933919135E+01 -0.12178312753E+02  0.34666116073E+02  0.36820907511E+02  0.00000000000E+00 0.  1.
         11    1    4    4    0    0  0.76731112357E+01 -0.68985106053E+01 -0.58038250363E+01  0.11838516373E+02  0.51100000000E-03 0. -1.
        -11    1    4    4    0    0 -0.16718724610E+02  0.86262210318E+01 -0.18370020521E+02  0.26294202709E+02  0.51100000000E-03 0.  1.
        -12    1    4    4    0    0  0.66522214608E+01  0.10450602326E+02 -0.10492270515E+02  0.16234373407E+02  0.00000000000E+00 0.  1.
</event>
<event>
 8    1  0.2502431E-006  0.9118800E+02  0.7816164E-02  0.1184000E+00
        -11   -1    0    0    0    0  0.00000000000E+00  0.00000000000E+00  0.45593999997E+02  0.45594000000E+02  0.51100000000E-03 0.  1.
         11   -1    0    0    0    0 -0.00000000000E+00 -0.00000000000E+00 -0.45593999997E+02  0.45594000000E+02  0.51100000000E-03 0. -1.
         23    2    1    2    0    0  0.35527136788E-14 -0.88817841970E-15  0.71054273576E-14  0.91188000000E+02  0.91188000000E+02 0.  0.
    9900012    2    3    3    0    0  0.12568301015E+02 -0.21898229927E+01  0.34540180410E+02  0.54367060605E+02  0.39999946262E+02 0.  0.
         12    1    3    3    0    0 -0.12568301015E+02  0.21898229927E+01 -0.34540180410E+02  0.36820939395E+02  0.00000000000E+00 0. -1.
         11    1    4    4    0    0 -0.10678599143E+01  0.42983227071E+01  0.28690107575E+02  0.29029953080E+02  0.51100000000E-03 0. -1.
        -11    1    4    4    0    0  0.96049472213E+01 -0.11316568445E+02  0.99129888665E+01  0.17849007844E+02  0.51100000000E-03 0.  1.
         12    1    4    4    0    0  0.40312137079E+01  0.48284227451E+01 -0.40629160312E+01  0.74880996815E+01  0.00000000000E+00 0. -1.
</event>
<event>
 8    1  0.2502431E-006  0.9118800E+02  0.7816164E-02  0.1184000E+00
        -11   -1    0    0    0    0  0.00000000000E+00  0.00000000000E+00  0.45593999997E+02  0.45594000000E+02  0.51100000000E-03 0. -1.
         11   -1    0    0    0    0 -0.00000000000E+00 -0.00000000000E+00 -0.45593999997E+02  0.45594000000E+02  0.51100000000E-03 0.  1.
         23    2    1    2    0    0  0.00000000000E+00  0.00000000000E+00  0.00000000000E+00  0.91188000000E+02  0.91188000000E+02 0.  0.
    9900012    2    3    3    0    0 -0.44427284050E+01 -0.34391351182E+02 -0.12380499891E+02  0.54367086794E+02  0.40000005964E+02 0.  0.
        -12    1    3    3    0    0  0.44427284050E+01  0.34391351182E+02  0.12380499891E+02  0.36820913206E+02  0.00000000000E+00 0.  1.
         11    1    4    4    0    0  0.38583234502E+00 -0.22254792163E+02  0.58347171293E+01  0.23010183942E+02  0.51100000000E-03 0. -1.
        -11    1    4    4    0    0  0.37496879215E+01 -0.13487192907E+02 -0.17824150895E+02  0.22664176301E+02  0.51100000000E-03 0.  1.
        -12    1    4    4    0    0 -0.85782486715E+01  0.13506338885E+01 -0.39106612549E+00  0.86927265507E+01  0.00000000000E+00 0.  1.
</event>
<event>
 8    1  0.2502431E-006  0.9118800E+02  0.7816164E-02  0.1184000E+00
        -11   -1    0    0    0    0  0.00000000000E+00  0.00000000000E+00  0.45593999997E+02  0.45594000000E+02  0.51100000000E-03 0.  1.
         11   -1    0    0    0    0 -0.00000000000E+00 -0.00000000000E+00 -0.45593999997E+02  0.45594000000E+02  0.51100000000E-03 0. -1.
         23    2    1    2    0    0  0.17763568394E-14  0.00000000000E+00  0.00000000000E+00  0.91188000000E+02  0.91188000000E+02 0.  0.
    9900012    2    3    3    0    0 -0.12056491656E+02  0.23674565751E+02  0.25493823143E+02  0.54367094620E+02  0.40000023805E+02 0.  0.
         12    1    3    3    0    0  0.12056491656E+02 -0.23674565751E+02 -0.25493823143E+02  0.36820905380E+02  0.00000000000E+00 0. -1.
         11    1    4    4    0    0 -0.91346102469E+01  0.33118065426E+02  0.26529512702E+02  0.43405787706E+02  0.51100000000E-03 0.  1.
        -11    1    4    4    0    0 -0.12176217300E+01 -0.87968006466E+01 -0.16600825826E+01  0.90344993628E+01  0.51100000000E-03 0. -1.
        -12    1    4    4    0    0 -0.17042596797E+01 -0.64669902840E+00  0.62439302341E+00  0.19268075505E+01  0.00000000000E+00 0.  1.
</event>
<event>
 8    1  0.2502431E-006  0.9118800E+02  0.7816164E-02  0.1184000E+00
        -11   -1    0    0    0    0  0.00000000000E+00  0.00000000000E+00  0.45593999997E+02  0.45594000000E+02  0.51100000000E-03 0.  1.
         11   -1    0    0    0    0 -0.00000000000E+00 -0.00000000000E+00 -0.45593999997E+02  0.45594000000E+02  0.51100000000E-03 0. -1.
         23    2    1    2    0    0 -0.35527136788E-14  0.00000000000E+00  0.35527136788E-14  0.91188000000E+02  0.91188000000E+02 0.  0.
    9900012    2    3    3    0    0  0.30041910079E+02  0.19552185487E+02 -0.84248666906E+01  0.54367045405E+02  0.39999911610E+02 0.  0.
        -12    1    3    3    0    0 -0.30041910079E+02 -0.19552185487E+02  0.84248666906E+01  0.36820954595E+02  0.00000000000E+00 0.  1.
         11    1    4    4    0    0  0.14843352066E+02 -0.50053456529E+00  0.79511994897E+01  0.16846281755E+02  0.51100000000E-03 0. -1.
        -11    1    4    4    0    0  0.74994160000E+01  0.49998013968E+01  0.49677455707E+01  0.10291634985E+02  0.51100000000E-03 0.  1.
         12    1    4    4    0    0  0.76991420134E+01  0.15052918655E+02 -0.21343811751E+02  0.27229128665E+02  0.00000000000E+00 0. -1.
</event>
<event>
 8    1  0.2502431E-006  0.9118800E+02  0.7816164E-02  0.1184000E+00
        -11   -1    0    0    0    0  0.00000000000E+00  0.00000000000E+00  0.45593999997E+02  0.45594000000E+02  0.51100000000E-03 0. -1.
         11   -1    0    0    0    0 -0.00000000000E+00 -0.00000000000E+00 -0.45593999997E+02  0.45594000000E+02  0.51100000000E-03 0.  1.
         23    2    1    2    0    0  0.00000000000E+00  0.76674777638E-15  0.35527136788E-14  0.91188000000E+02  0.91188000000E+02 0.  0.
    9900012    2    3    3    0    0 -0.19278929629E+02  0.19458826339E-01 -0.31370407679E+02  0.54367082246E+02  0.39999995596E+02 0.  0.
         12    1    3    3    0    0  0.19278929629E+02 -0.19458826339E-01  0.31370407679E+02  0.36820917754E+02  0.00000000000E+00 0. -1.
         11    1    4    4    0    0 -0.75130449225E+01  0.24750231346E+01  0.79445938948E+01  0.11211072917E+02  0.51100000000E-03 0. -1.
        -11    1    4    4    0    0  0.62055572091E-01 -0.49482821069E+01 -0.17830473842E+02  0.18504462824E+02  0.51100000000E-03 0.  1.
         12    1    4    4    0    0 -0.11827940279E+02  0.24927177986E+01 -0.21484527732E+02  0.24651546505E+02  0.00000000000E+00 0. -1.
</event>
<event>
 8    1  0.2502431E-006  0.9118800E+02  0.7816164E-02  0.1184000E+00
        -11   -1    0    0    0    0  0.00000000000E+00  0.00000000000E+00  0.45593999997E+02  0.45594000000E+02  0.51100000000E-03 0.  1.
         11   -1    0    0    0    0 -0.00000000000E+00 -0.00000000000E+00 -0.45593999997E+02  0.45594000000E+02  0.51100000000E-03 0. -1.
         23    2    1    2    0    0  0.17763568394E-14  0.17763568394E-14 -0.35527136788E-14  0.91188000000E+02  0.91188000000E+02 0.  0.
    9900012    2    3    3    0    0 -0.13297218140E+02  0.14912521531E+02 -0.30928628118E+02  0.54367090913E+02  0.40000015355E+02 0.  0.
        -12    1    3    3    0    0  0.13297218140E+02 -0.14912521531E+02  0.30928628118E+02  0.36820909087E+02  0.00000000000E+00 0.  1.
         11    1    4    4    0    0  0.46604144531E+01 -0.16516967782E+01 -0.80687026859E+01  0.94631669337E+01  0.51100000000E-03 0.  1.
        -11    1    4    4    0    0  0.25096028305E+01  0.53260239561E+01 -0.20623488434E+02  0.21447445372E+02  0.51100000000E-03 0. -1.
         12    1    4    4    0    0 -0.20467235424E+02  0.11238194353E+02 -0.22364369988E+01  0.23456478608E+02  0.00000000000E+00 0. -1.
</event>
<event>
 8    1  0.2502431E-006  0.9118800E+02  0.7816164E-02  0.1184000E+00
        -11   -1    0    0    0    0  0.00000000000E+00  0.00000000000E+00  0.45593999997E+02  0.45594000000E+02  0.51100000000E-03 0. -1.
         11   -1    0    0    0    0 -0.00000000000E+00 -0.00000000000E+00 -0.45593999997E+02  0.45594000000E+02  0.51100000000E-03 0.  1.
         23    2    1    2    0    0  0.00000000000E+00  0.00000000000E+00 -0.71054273576E-14  0.91188000000E+02  0.91188000000E+02 0.  0.
    9900012    2    3    3    0    0  0.31674190717E+01  0.14939960487E+02  0.33504387015E+02  0.54367096804E+02  0.40000028785E+02 0.  0.
        -12    1    3    3    0    0 -0.31674190717E+01 -0.14939960487E+02 -0.33504387015E+02  0.36820903196E+02  0.00000000000E+00 0.  1.
         11    1    4    4    0    0  0.24889122105E+01 -0.23378716349E+01 -0.54258064470E+01  0.64109050558E+01  0.51100000000E-03 0. -1.
        -11    1    4    4    0    0 -0.59335987756E+01  0.86606251494E+01  0.37670137048E+01  0.11153672710E+02  0.51100000000E-03 0.  1.
         12    1    4    4    0    0  0.66121056369E+01  0.86172069722E+01  0.35163179757E+02  0.36802519038E+02  0.00000000000E+00 0. -1.
</event>
<event>
 8    1  0.2502431E-006  0.9118800E+02  0.7816164E-02  0.1184000E+00
        -11   -1    0    0    0    0  0.00000000000E+00  0.00000000000E+00  0.45593999997E+02  0.45594000000E+02  0.51100000000E-03 0. -1.
         11   -1    0    0    0    0 -0.00000000000E+00 -0.00000000000E+00 -0.45593999997E+02  0.45594000000E+02  0.51100000000E-03 0.  1.
         23    2    1    2    0    0  0.00000000000E+00  0.35527136788E-14  0.00000000000E+00  0.91188000000E+02  0.91188000000E+02 0.  0.
    9900012    2    3    3    0    0 -0.20962660238E+02 -0.28118302268E+02  0.11212061224E+02  0.54367049937E+02  0.39999921940E+02 0.  0.
        -12    1    3    3    0    0  0.20962660238E+02  0.28118302268E+02 -0.11212061224E+02  0.36820950063E+02  0.00000000000E+00 0.  1.
         11    1    4    4    0    0 -0.12024772884E+02 -0.21791118625E+02  0.98967113940E+01  0.26784191429E+02  0.51100000000E-03 0. -1.
        -11    1    4    4    0    0  0.71021904341E+01 -0.61878791036E+01 -0.46042500110E+01  0.10484754417E+02  0.51100000000E-03 0.  1.
        -12    1    4    4    0    0 -0.16040077788E+02 -0.13930453922E+00  0.59195998411E+01  0.17098104090E+02  0.00000000000E+00 0.  1.
</event>
