<event>
 8    1  0.2484572E-006  0.9118800E+02  0.7816164E-02  0.1184000E+00
        -11   -1    0    0    0    0  0.00000000000E+00  0.00000000000E+00  0.45593999997E+02  0.45594000000E+02  0.51100000000E-03 0.  1.
         11   -1    0    0    0    0 -0.00000000000E+00 -0.00000000000E+00 -0.45593999997E+02  0.45594000000E+02  0.51100000000E-03 0. -1.
         23    2    1    2    0    0 -0.22204460493E-14  0.00000000000E+00  0.17763568394E-14  0.91188000000E+02  0.91188000000E+02 0.  0.
    9900012    2    3    3    0    0 -0.21994211128E+01 -0.34337900655E+02  0.13109180640E+02  0.54367088935E+02  0.40000010845E+02 0.  0.
        -12    1    3    3    0    0  0.21994211128E+01  0.34337900655E+02 -0.13109180640E+02  0.36820911065E+02  0.00000000000E+00 0.  1.
         11    1    4    4    0    0 -0.26310435282E+01 -0.76486077742E+01 -0.10384927386E+01  0.81548794203E+01  0.51100000000E-03 0. -1.
        -11    1    4    4    0    0  0.16390721518E+02 -0.20510195837E+02  0.47272699115E+01  0.26677161885E+02  0.51100000000E-03 0.  1.
        -12    1    4    4    0    0 -0.15959099102E+02 -0.61790970435E+01  0.94204034672E+01  0.19535047630E+02  0.00000000000E+00 0.  1.
</event>
<event>
 8    1  0.2484572E-006  0.9118800E+02  0.7816164E-02  0.1184000E+00
        -11   -1    0    0    0    0  0.00000000000E+00  0.00000000000E+00  0.45593999997E+02  0.45594000000E+02  0.51100000000E-03 0.  1.
         11   -1    0    0    0    0 -0.00000000000E+00 -0.00000000000E+00 -0.45593999997E+02  0.45594000000E+02  0.51100000000E-03 0. -1.
         23    2    1    2    0    0 -0.35527136788E-14  0.17763568394E-14 -0.35527136788E-14  0.91188000000E+02  0.91188000000E+02 0.  0.
    9900012    2    3    3    0    0  0.21762018303E+02  0.91860154700E+01 -0.28245559519E+02  0.54367082665E+02  0.39999996552E+02 0.  0.
        -12    1    3    3    0    0 -0.21762018303E+02 -0.91860154700E+01  0.28245559519E+02  0.36820917335E+02  0.00000000000E+00 0.  1.
         11    1    4    4    0    0  0.75409547376E+01  0.78327456211E+00  0.12821249860E+01  0.76891717457E+01  0.51100000000E-03 0. -1.
        -11    1    4    4    0    0 -0.16911907443E+01  0.17659867687E+02 -0.14731902943E+02  0.23059922321E+02  0.51100000000E-03 0.  1.
         12    1    4    4    0    0  0.15912254309E+02 -0.92571267794E+01 -0.14795781562E+02  0.23617988598E+02  0.00000000000E+00 0. -1.
</event>
<event>
 8    1  0.2484572E-006  0.9118800E+02  0.7816164E-02  0.1184000E+00
        -11   -1    0    0    0    0  0.00000000000E+00  0.00000000000E+00  0.45593999997E+02  0.45594000000E+02  0.51100000000E-03 0.  1.
         11   -1    0    0    0    0 -0.00000000000E+00 -0.00000000000E+00 -0.45593999997E+02  0.45594000000E+02  0.51100000000E-03 0. -1.
         23    2    1    2    0    0  0.00000000000E+00  0.17763568394E-14  0.00000000000E+00  0.91188000000E+02  0.91188000000E+02 0.  0.
    9900012    2    3    3    0    0  0.26101056308E+02 -0.15472676221E+02  0.20859321095E+02  0.54367080316E+02  0.39999991196E+02 0.  0.
         12    1    3    3    0    0 -0.26101056308E+02  0.15472676221E+02 -0.20859321095E+02  0.36820919684E+02  0.00000000000E+00 0. -1.
         11    1    4    4    0    0  0.95549225852E+01  0.93849465857E+01  0.61729087543E+01  0.14747154667E+02  0.51100000000E-03 0. -1.
        -11    1    4    4    0    0  0.18779961686E+02 -0.10839837848E+02  0.13107729052E+02  0.25337750624E+02  0.51100000000E-03 0.  1.
         12    1    4    4    0    0 -0.22338279632E+01 -0.14017784959E+02  0.15786832880E+01  0.14282175025E+02  0.00000000000E+00 0. -1.
</event>
<event>
 8    1  0.2484572E-006  0.9118800E+02  0.7816164E-02  0.1184000E+00
        -11   -1    0    0    0    0  0.00000000000E+00  0.00000000000E+00  0.45593999997E+02  0.45594000000E+02  0.51100000000E-03 0.  1.
         11   -1    0    0    0    0 -0.00000000000E+00 -0.00000000000E+00 -0.45593999997E+02  0.45594000000E+02  0.51100000000E-03 0. -1.
         23    2    1    2    0    0  0.00000000000E+00  0.00000000000E+00 -0.71054273576E-14  0.91188000000E+02  0.91188000000E+02 0.  0.
    9900012    2    3    3    0    0  0.12314596221E+02 -0.93754418796E+01 -0.33410055619E+02  0.54367081937E+02  0.39999994891E+02 0.  0.
        -12    1    3    3    0    0 -0.12314596221E+02  0.93754418796E+01  0.33410055619E+02  0.36820918063E+02  0.00000000000E+00 0.  1.
         11    1    4    4    0    0 -0.16254372105E+01 -0.48991636372E+01 -0.13030342825E+02  0.14015480186E+02  0.51100000000E-03 0. -1.
        -11    1    4    4    0    0  0.10734903561E+01 -0.73334784011E+01  0.68547700356E+01  0.10095551471E+02  0.51100000000E-03 0.  1.
        -12    1    4    4    0    0  0.12866543075E+02  0.28572001587E+01 -0.27234482831E+02  0.30256050279E+02  0.00000000000E+00 0.  1.
</event>
<event>
 8    1  0.2484572E-006  0.9118800E+02  0.7816164E-02  0.1184000E+00
        -11   -1    0    0    0    0  0.00000000000E+00  0.00000000000E+00  0.45593999997E+02  0.45594000000E+02  0.51100000000E-03 0. -1.
         11   -1    0    0    0    0 -0.00000000000E+00 -0.00000000000E+00 -0.45593999997E+02  0.45594000000E+02  0.51100000000E-03 0.  1.
         23    2    1    2    0    0  0.88817841970E-15  0.00000000000E+00  0.00000000000E+00  0.91188000000E+02  0.91188000000E+02 0.  0.
    9900012    2    3    3    0    0  0.77072776989E+01 -0.25766696074E+02  0.25148692295E+02  0.54367061932E+02  0.39999949286E+02 0.  0.
         12    1    3    3    0    0 -0.77072776989E+01  0.25766696074E+02 -0.25148692295E+02  0.36820938068E+02  0.00000000000E+00 0. -1.
         11    1    4    4    0    0  0.39906027296E+01 -0.49915895396E+01  0.25819036755E+02  0.26598186696E+02  0.51100000000E-03 0. -1.
        -11    1    4    4    0    0  0.61876433333E+01 -0.14924857154E+00  0.26481290251E+01  0.67321462217E+01  0.51100000000E-03 0.  1.
        -12    1    4    4    0    0 -0.24709683639E+01 -0.20625857962E+02 -0.33184734857E+01  0.21036729014E+02  0.00000000000E+00 0.  1.
</event>
<event>
 8    1  0.2484572E-006  0.9118800E+02  0.7816164E-02  0.1184000E+00
        -11   -1    0    0    0    0  0.00000000000E+00  0.00000000000E+00  0.45593999997E+02  0.45594000000E+02  0.51100000000E-03 0. -1.
         11   -1    0    0    0    0 -0.00000000000E+00 -0.00000000000E+00 -0.45593999997E+02  0.45594000000E+02  0.51100000000E-03 0.  1.
         23    2    1    2    0    0  0.17763568394E-14 -0.35527136788E-14 -0.71054273576E-14  0.91188000000E+02  0.91188000000E+02 0.  0.
    9900012    2    3    3    0    0  0.10217141367E+02 -0.21555964278E+02 -0.28048842078E+02  0.54366985409E+02  0.39999774835E+02 0.  0.
         12    1    3    3    0    0 -0.10217141367E+02  0.21555964278E+02  0.28048842078E+02  0.36821014591E+02  0.00000000000E+00 0. -1.
         11    1    4    4    0    0 -0.32271105352E+01 -0.27444682420E+02 -0.75783688231E+01  0.28654083650E+02  0.51100000000E-03 0. -1.
        -11    1    4    4    0    0  0.11590132769E+02  0.58830622126E+01 -0.19907864656E+02  0.23775295456E+02  0.51100000000E-03 0.  1.
         12    1    4    4    0    0  0.18541191328E+01  0.56559299416E-02 -0.56260859882E+00  0.19376063026E+01  0.00000000000E+00 0. -1.
</event>
<event>
 8    1  0.2484572E-006  0.9118800E+02  0.7816164E-02  0.1184000E+00
        -11   -1    0    0    0    0  0.00000000000E+00  0.00000000000E+00  0.45593999997E+02  0.45594000000E+02  0.51100000000E-03 0. -1.
         11   -1    0    0    0    0 -0.00000000000E+00 -0.00000000000E+00 -0.45593999997E+02  0.45594000000E+02  0.51100000000E-03 0.  1.
         23    2    1    2    0    0  0.17763568394E-14  0.00000000000E+00  0.35527136788E-14  0.91188000000E+02  0.91188000000E+02 0.  0.
    9900012    2    3    3    0    0  0.12065549029E+02 -0.14647273030E+02  0.31554088226E+02  0.54367074369E+02  0.39999977638E+02 0.  0.
        -12    1    3    3    0    0 -0.12065549029E+02  0.14647273030E+02 -0.31554088226E+02  0.36820925631E+02  0.00000000000E+00 0.  1.
         11    1    4    4    0    0  0.21431845551E+01 -0.20957587652E+02  0.23623206143E+02  0.31652323595E+02  0.51100000000E-03 0. -1.
        -11    1    4    4    0    0  0.14219586487E+02  0.76811233414E+01  0.38086824418E+01  0.16604287333E+02  0.51100000000E-03 0.  1.
        -12    1    4    4    0    0 -0.42972220128E+01 -0.13708087192E+01  0.41221996406E+01  0.61104634398E+01  0.00000000000E+00 0.  1.
</event>
<event>
 8    1  0.2484572E-006  0.9118800E+02  0.7816164E-02  0.1184000E+00
        -11   -1    0    0    0    0  0.00000000000E+00  0.00000000000E+00  0.45593999997E+02  0.45594000000E+02  0.51100000000E-03 0. -1.
         11   -1    0    0    0    0 -0.00000000000E+00 -0.00000000000E+00 -0.45593999997E+02  0.45594000000E+02  0.51100000000E-03 0.  1.
         23    2    1    2    0    0  0.00000000000E+00  0.88817841970E-15  0.00000000000E+00  0.91188000000E+02  0.91188000000E+02 0.  0.
    9900012    2    3    3    0    0  0.11868934427E+02 -0.70267306386E+01  0.34139914862E+02  0.54367077487E+02  0.39999984748E+02 0.  0.
        -12    1    3    3    0    0 -0.11868934427E+02  0.70267306386E+01 -0.34139914862E+02  0.36820922513E+02  0.00000000000E+00 0.  1.
         11    1    4    4    0    0  0.98286422294E+01  0.96992835537E+01  0.19348614186E+02  0.23770721081E+02  0.51100000000E-03 0. -1.
        -11    1    4    4    0    0 -0.20471090538E+01  0.33477535929E+01 -0.17205609884E+01  0.42846750137E+01  0.51100000000E-03 0.  1.
        -12    1    4    4    0    0  0.40874012516E+01 -0.20073767785E+02  0.16511861665E+02  0.26311681393E+02  0.00000000000E+00 0.  1.
</event>
<event>
 8    1  0.2484572E-006  0.9118800E+02  0.7816164E-02  0.1184000E+00
        -11   -1    0    0    0    0  0.00000000000E+00  0.00000000000E+00  0.45593999997E+02  0.45594000000E+02  0.51100000000E-03 0. -1.
         11   -1    0    0    0    0 -0.00000000000E+00 -0.00000000000E+00 -0.45593999997E+02  0.45594000000E+02  0.51100000000E-03 0.  1.
         23    2    1    2    0    0  0.00000000000E+00  0.00000000000E+00  0.00000000000E+00  0.91188000000E+02  0.91188000000E+02 0.  0.
    9900012    2    3    3    0    0 -0.36020669026E+02  0.59395902400E+01  0.47971170907E+01  0.54367086626E+02  0.40000005581E+02 0.  0.
        -12    1    3    3    0    0  0.36020669026E+02 -0.59395902400E+01 -0.47971170907E+01  0.36820913374E+02  0.00000000000E+00 0.  1.
         11    1    4    4    0    0 -0.10227157442E+02  0.10442890828E+02  0.11541136190E+01  0.14662220046E+02  0.51100000000E-03 0. -1.
        -11    1    4    4    0    0 -0.17117154995E+01  0.10698449923E+02  0.29031723825E+01  0.11216737977E+02  0.51100000000E-03 0.  1.
        -12    1    4    4    0    0 -0.24081796085E+02 -0.15201750510E+02  0.73983108911E+00  0.28488128603E+02  0.00000000000E+00 0.  1.
</event>
<event>
 8    1  0.2484572E-006  0.9118800E+02  0.7816164E-02  0.1184000E+00
        -11   -1    0    0    0    0  0.00000000000E+00  0.00000000000E+00  0.45593999997E+02  0.45594000000E+02  0.51100000000E-03 0.  1.
         11   -1    0    0    0    0 -0.00000000000E+00 -0.00000000000E+00 -0.45593999997E+02  0.45594000000E+02  0.51100000000E-03 0. -1.
         23    2    1    2    0    0  0.00000000000E+00  0.00000000000E+00  0.00000000000E+00  0.91188000000E+02  0.91188000000E+02 0.  0.
    9900012    2    3    3    0    0  0.28239106099E+02  0.84251457101E+01 -0.22075995364E+02  0.54367085226E+02  0.40000002390E+02 0.  0.
        -12    1    3    3    0    0 -0.28239106099E+02 -0.84251457101E+01  0.22075995364E+02  0.36820914774E+02  0.00000000000E+00 0.  1.
         11    1    4    4    0    0  0.31103703980E+02  0.19254086005E+02 -0.11829602446E+02  0.38446062522E+02  0.51100000000E-03 0. -1.
        -11    1    4    4    0    0 -0.37093486292E+00 -0.41339868857E+01 -0.10604666466E+01  0.42839269384E+01  0.51100000000E-03 0.  1.
         12    1    4    4    0    0 -0.24936630181E+01 -0.66949534095E+01 -0.91859262707E+01  0.11637095765E+02  0.00000000000E+00 0. -1.
</event>
<event>
 8    1  0.2484572E-006  0.9118800E+02  0.7816164E-02  0.1184000E+00
        -11   -1    0    0    0    0  0.00000000000E+00  0.00000000000E+00  0.45593999997E+02  0.45594000000E+02  0.51100000000E-03 0. -1.
         11   -1    0    0    0    0 -0.00000000000E+00 -0.00000000000E+00 -0.45593999997E+02  0.45594000000E+02  0.51100000000E-03 0.  1.
         23    2    1    2    0    0  0.00000000000E+00  0.00000000000E+00  0.17763568394E-14  0.91188000000E+02  0.91188000000E+02 0.  0.
    9900012    2    3    3    0    0 -0.13013834287E+02 -0.33938237730E+02 -0.58836265006E+01  0.54367069487E+02  0.39999966510E+02 0.  0.
         12    1    3    3    0    0  0.13013834287E+02  0.33938237730E+02  0.58836265006E+01  0.36820930513E+02  0.00000000000E+00 0. -1.
         11    1    4    4    0    0  0.38643758568E+01 -0.11322976455E+02  0.83847212074E+00  0.11993591302E+02  0.51100000000E-03 0. -1.
        -11    1    4    4    0    0 -0.12119625204E+02 -0.90738179907E+01 -0.18429642755E+02  0.23851021370E+02  0.51100000000E-03 0.  1.
         12    1    4    4    0    0 -0.47585849391E+01 -0.13541443284E+02  0.11707544134E+02  0.18522456816E+02  0.00000000000E+00 0. -1.
</event>
<event>
 8    1  0.2484572E-006  0.9118800E+02  0.7816164E-02  0.1184000E+00
        -11   -1    0    0    0    0  0.00000000000E+00  0.00000000000E+00  0.45593999997E+02  0.45594000000E+02  0.51100000000E-03 0.  1.
         11   -1    0    0    0    0 -0.00000000000E+00 -0.00000000000E+00 -0.45593999997E+02  0.45594000000E+02  0.51100000000E-03 0. -1.
         23    2    1    2    0    0  0.00000000000E+00  0.35527136788E-14 -0.35527136788E-14  0.91188000000E+02  0.91188000000E+02 0.  0.
    9900012    2    3    3    0    0 -0.30031269264E+02 -0.12681133127E+02  0.17119911641E+02  0.54367086845E+02  0.40000006081E+02 0.  0.
         12    1    3    3    0    0  0.30031269264E+02  0.12681133127E+02 -0.17119911641E+02  0.36820913155E+02  0.00000000000E+00 0. -1.
         11    1    4    4    0    0 -0.28005957026E+01 -0.16452101027E+02  0.17353886260E+00  0.16689669874E+02  0.51100000000E-03 0. -1.
        -11    1    4    4    0    0 -0.24233503736E+02 -0.35068296193E+01  0.79956400672E+01  0.25758315505E+02  0.51100000000E-03 0.  1.
         12    1    4    4    0    0 -0.29971698252E+01  0.72777975200E+01  0.89507327114E+01  0.11919101467E+02  0.00000000000E+00 0. -1.
</event>
<event>
 8    1  0.2484572E-006  0.9118800E+02  0.7816164E-02  0.1184000E+00
        -11   -1    0    0    0    0  0.00000000000E+00  0.00000000000E+00  0.45593999997E+02  0.45594000000E+02  0.51100000000E-03 0.  1.
         11   -1    0    0    0    0 -0.00000000000E+00 -0.00000000000E+00 -0.45593999997E+02  0.45594000000E+02  0.51100000000E-03 0. -1.
         23    2    1    2    0    0  0.00000000000E+00  0.00000000000E+00 -0.22204460493E-15  0.91188000000E+02  0.91188000000E+02 0.  0.
    9900012    2    3    3    0    0 -0.31617290333E+02 -0.18866476351E+02  0.43183002953E+00  0.54367035114E+02  0.39999888150E+02 0.  0.
         12    1    3    3    0    0  0.31617290333E+02  0.18866476351E+02 -0.43183002953E+00  0.36820964886E+02  0.00000000000E+00 0. -1.
         11    1    4    4    0    0  0.48397521571E+01 -0.20460114743E+01  0.31290873598E+01  0.61155990599E+01  0.51100000000E-03 0. -1.
        -11    1    4    4    0    0 -0.31848929633E+02 -0.20860008647E+02 -0.93530069796E+01  0.39204247466E+02  0.51100000000E-03 0.  1.
         12    1    4    4    0    0 -0.46081128571E+01  0.40395437697E+01  0.66557496493E+01  0.90471885890E+01  0.00000000000E+00 0. -1.
</event>
<event>
 8    1  0.2484572E-006  0.9118800E+02  0.7816164E-02  0.1184000E+00
        -11   -1    0    0    0    0  0.00000000000E+00  0.00000000000E+00  0.45593999997E+02  0.45594000000E+02  0.51100000000E-03 0.  1.
         11   -1    0    0    0    0 -0.00000000000E+00 -0.00000000000E+00 -0.45593999997E+02  0.45594000000E+02  0.51100000000E-03 0. -1.
         23    2    1    2    0    0  0.00000000000E+00  0.00000000000E+00  0.00000000000E+00  0.91188000000E+02  0.91188000000E+02 0.  0.
    9900012    2    3    3    0    0 -0.15477015863E+02  0.32098442581E+02 -0.92698640860E+01  0.54367103537E+02  0.40000044134E+02 0.  0.
         12    1    3    3    0    0  0.15477015863E+02 -0.32098442581E+02  0.92698640860E+01  0.36820896463E+02  0.00000000000E+00 0. -1.
         11    1    4    4    0    0 -0.19232015407E+02  0.21679131652E+02 -0.12938552551E+02  0.31737380298E+02  0.51100000000E-03 0. -1.
        -11    1    4    4    0    0  0.31418216621E+01  0.98430324051E+01 -0.66431303488E+01  0.12283627778E+02  0.51100000000E-03 0.  1.
        -12    1    4    4    0    0  0.61317788174E+00  0.57627852372E+00  0.10311818814E+02  0.10346095462E+02  0.00000000000E+00 0.  1.
</event>
<event>
 8    1  0.2484572E-006  0.9118800E+02  0.7816164E-02  0.1184000E+00
        -11   -1    0    0    0    0  0.00000000000E+00  0.00000000000E+00  0.45593999997E+02  0.45594000000E+02  0.51100000000E-03 0.  1.
         11   -1    0    0    0    0 -0.00000000000E+00 -0.00000000000E+00 -0.45593999997E+02  0.45594000000E+02  0.51100000000E-03 0. -1.
         23    2    1    2    0    0  0.00000000000E+00 -0.35527136788E-14  0.00000000000E+00  0.91188000000E+02  0.91188000000E+02 0.  0.
    9900012    2    3    3    0    0 -0.21620572272E+01 -0.22635894696E+02 -0.28960785130E+02  0.54367010124E+02  0.39999831179E+02 0.  0.
        -12    1    3    3    0    0  0.21620572272E+01  0.22635894696E+02  0.28960785130E+02  0.36820989876E+02  0.00000000000E+00 0.  1.
         11    1    4    4    0    0 -0.22204239179E+01 -0.34792576185E+01 -0.70460737369E+01  0.81659458312E+01  0.51100000000E-03 0. -1.
        -11    1    4    4    0    0  0.37115614007E+00 -0.21846283466E+02  0.21770353916E+01  0.21957626045E+02  0.51100000000E-03 0.  1.
         12    1    4    4    0    0 -0.31278944934E+00  0.26896463889E+01 -0.24091746785E+02  0.24243438248E+02  0.00000000000E+00 0. -1.
</event>
<event>
 8    1  0.2484572E-006  0.9118800E+02  0.7816164E-02  0.1184000E+00
        -11   -1    0    0    0    0  0.00000000000E+00  0.00000000000E+00  0.45593999997E+02  0.45594000000E+02  0.51100000000E-03 0. -1.
         11   -1    0    0    0    0 -0.00000000000E+00 -0.00000000000E+00 -0.45593999997E+02  0.45594000000E+02  0.51100000000E-03 0.  1.
         23    2    1    2    0    0 -0.17763568394E-14  0.00000000000E+00  0.00000000000E+00  0.91188000000E+02  0.91188000000E+02 0.  0.
    9900012    2    3    3    0    0  0.98515580469E+01 -0.28853610733E+02 -0.20644576031E+02  0.54367047163E+02  0.39999915618E+02 0.  0.
         12    1    3    3    0    0 -0.98515580469E+01  0.28853610733E+02  0.20644576031E+02  0.36820952837E+02  0.00000000000E+00 0. -1.
         11    1    4    4    0    0  0.82988736589E+00  0.39656874147E+01 -0.31346388060E+01  0.51226312005E+01  0.51100000000E-03 0. -1.
        -11    1    4    4    0    0 -0.11360221952E+02 -0.15719193777E+02 -0.82098875001E+01  0.21060625556E+02  0.51100000000E-03 0.  1.
        -12    1    4    4    0    0  0.20381892633E+02 -0.17100104371E+02 -0.93000497252E+01  0.28183790406E+02  0.00000000000E+00 0.  1.
</event>
<event>
 8    1  0.2484572E-006  0.9118800E+02  0.7816164E-02  0.1184000E+00
        -11   -1    0    0    0    0  0.00000000000E+00  0.00000000000E+00  0.45593999997E+02  0.45594000000E+02  0.51100000000E-03 0.  1.
         11   -1    0    0    0    0 -0.00000000000E+00 -0.00000000000E+00 -0.45593999997E+02  0.45594000000E+02  0.51100000000E-03 0. -1.
         23    2    1    2    0    0  0.00000000000E+00 -0.35527136788E-14  0.71054273576E-14  0.91188000000E+02  0.91188000000E+02 0.  0.
    9900012    2    3    3    0    0 -0.18555398528E+02  0.11977872229E+02 -0.29461958647E+02  0.54367092285E+02  0.40000018482E+02 0.  0.
        -12    1    3    3    0    0  0.18555398528E+02 -0.11977872229E+02  0.29461958647E+02  0.36820907715E+02  0.00000000000E+00 0.  1.
         11    1    4    4    0    0 -0.85525422926E+00 -0.94098663029E+00  0.54050786954E+01  0.55526382558E+01  0.51100000000E-03 0. -1.
        -11    1    4    4    0    0  0.54837357128E+01 -0.27921411259E+01 -0.59988737990E+01  0.85938289809E+01  0.51100000000E-03 0.  1.
         12    1    4    4    0    0 -0.23183880011E+02  0.15710999985E+02 -0.28868163544E+02  0.40220625048E+02  0.00000000000E+00 0. -1.
</event>
<event>
 8    1  0.2484572E-006  0.9118800E+02  0.7816164E-02  0.1184000E+00
        -11   -1    0    0    0    0  0.00000000000E+00  0.00000000000E+00  0.45593999997E+02  0.45594000000E+02  0.51100000000E-03 0. -1.
         11   -1    0    0    0    0 -0.00000000000E+00 -0.00000000000E+00 -0.45593999997E+02  0.45594000000E+02  0.51100000000E-03 0.  1.
         23    2    1    2    0    0 -0.17763568394E-14  0.00000000000E+00 -0.71054273576E-14  0.91188000000E+02  0.91188000000E+02 0.  0.
    9900012    2    3    3    0    0  0.85469968224E+01 -0.24148730752E+02  0.26449378703E+02  0.54367055072E+02  0.39999933648E+02 0.  0.
        -12    1    3    3    0    0 -0.85469968224E+01  0.24148730752E+02 -0.26449378703E+02  0.36820944928E+02  0.00000000000E+00 0.  1.
         11    1    4    4    0    0  0.15651516630E+02 -0.83893030975E+01  0.21971873463E+02  0.28250904464E+02  0.51100000000E-03 0. -1.
        -11    1    4    4    0    0 -0.65157056888E+01 -0.66062359201E+01  0.11346242516E+02  0.14657216419E+02  0.51100000000E-03 0.  1.
         12    1    4    4    0    0 -0.58881411888E+00 -0.91531917342E+01 -0.68687372764E+01  0.11458934190E+02  0.00000000000E+00 0. -1.
</event>
<event>
 8    1  0.2484572E-006  0.9118800E+02  0.7816164E-02  0.1184000E+00
        -11   -1    0    0    0    0  0.00000000000E+00  0.00000000000E+00  0.45593999997E+02  0.45594000000E+02  0.51100000000E-03 0. -1.
         11   -1    0    0    0    0 -0.00000000000E+00 -0.00000000000E+00 -0.45593999997E+02  0.45594000000E+02  0.51100000000E-03 0.  1.
         23    2    1    2    0    0  0.88817841970E-15  0.88817841970E-15 -0.71054273576E-14  0.91188000000E+02  0.91188000000E+02 0.  0.
    9900012    2    3    3    0    0 -0.50471862528E+01  0.50533781975E+01  0.36121718770E+02  0.54366955919E+02  0.39999707608E+02 0.  0.
        -12    1    3    3    0    0  0.50471862528E+01 -0.50533781975E+01 -0.36121718770E+02  0.36821044081E+02  0.00000000000E+00 0.  1.
         11    1    4    4    0    0 -0.74614422850E+01 -0.12063326172E+02  0.18413319842E+02  0.23243220671E+02  0.51100000000E-03 0. -1.
        -11    1    4    4    0    0 -0.92151995573E+00  0.14111760588E+02  0.14026819555E+01  0.14211210464E+02  0.51100000000E-03 0.  1.
         12    1    4    4    0    0  0.33357759878E+01  0.30049437810E+01  0.16305716973E+02  0.16912524784E+02  0.00000000000E+00 0. -1.
</event>
<event>
 8    1  0.2484572E-006  0.9118800E+02  0.7816164E-02  0.1184000E+00
        -11   -1    0    0    0    0  0.00000000000E+00  0.00000000000E+00  0.45593999997E+02  0.45594000000E+02  0.51100000000E-03 0.  1.
         11   -1    0    0    0    0 -0.00000000000E+00 -0.00000000000E+00 -0.45593999997E+02  0.45594000000E+02  0.51100000000E-03 0. -1.
         23    2    1    2    0    0 -0.17763568394E-14  0.00000000000E+00  0.35527136788E-14  0.91188000000E+02  0.91188000000E+02 0.  0.
    9900012    2    3    3    0    0 -0.59555753453E+01  0.21696806692E+02  0.29147183802E+02  0.54367100746E+02  0.40000037771E+02 0.  0.
         12    1    3    3    0    0  0.59555753453E+01 -0.21696806692E+02 -0.29147183802E+02  0.36820899254E+02  0.00000000000E+00 0. -1.
         11    1    4    4    0    0 -0.12746986660E+02 -0.44076240527E+01  0.15448740143E+02  0.20507959210E+02  0.51100000000E-03 0. -1.
        -11    1    4    4    0    0  0.20613885694E+01  0.89899083663E+00 -0.26271814857E+01  0.34582640412E+01  0.51100000000E-03 0.  1.
        -12    1    4    4    0    0  0.47300227448E+01  0.25205439908E+02  0.16325625144E+02  0.30400877495E+02  0.00000000000E+00 0.  1.
</event>
<event>
 8    1  0.2484572E-006  0.9118800E+02  0.7816164E-02  0.1184000E+00
        -11   -1    0    0    0    0  0.00000000000E+00  0.00000000000E+00  0.45593999997E+02  0.45594000000E+02  0.51100000000E-03 0. -1.
         11   -1    0    0    0    0 -0.00000000000E+00 -0.00000000000E+00 -0.45593999997E+02  0.45594000000E+02  0.51100000000E-03 0.  1.
         23    2    1    2    0    0  0.00000000000E+00  0.35527136788E-14  0.35527136788E-14  0.91188000000E+02  0.91188000000E+02 0.  0.
    9900012    2    3    3    0    0  0.11080954889E+02  0.16880349314E+02  0.30790371368E+02  0.54367072212E+02  0.39999972722E+02 0.  0.
        -12    1    3    3    0    0 -0.11080954889E+02 -0.16880349314E+02 -0.30790371368E+02  0.36820927788E+02  0.00000000000E+00 0.  1.
         11    1    4    4    0    0  0.12153419081E+02  0.14549481496E+02  0.18113352550E+02  0.26219964684E+02  0.51100000000E-03 0. -1.
        -11    1    4    4    0    0  0.43200754064E+01  0.13190386694E+01 -0.66597218567E+01  0.80470373429E+01  0.51100000000E-03 0.  1.
        -12    1    4    4    0    0 -0.53925395980E+01  0.10118291484E+01  0.19336740675E+02  0.20100070185E+02  0.00000000000E+00 0.  1.
</event>
<event>
 8    1  0.2484572E-006  0.9118800E+02  0.7816164E-02  0.1184000E+00
        -11   -1    0    0    0    0  0.00000000000E+00  0.00000000000E+00  0.45593999997E+02  0.45594000000E+02  0.51100000000E-03 0.  1.
         11   -1    0    0    0    0 -0.00000000000E+00 -0.00000000000E+00 -0.45593999997E+02  0.45594000000E+02  0.51100000000E-03 0. -1.
         23    2    1    2    0    0  0.00000000000E+00 -0.35527136788E-14  0.88817841970E-15  0.91188000000E+02  0.91188000000E+02 0.  0.
    9900012    2    3    3    0    0  0.27127761023E+02 -0.24862333771E+02  0.13154080272E+01  0.54367063606E+02  0.39999953102E+02 0.  0.
         12    1    3    3    0    0 -0.27127761023E+02  0.24862333771E+02 -0.13154080272E+01  0.36820936394E+02  0.00000000000E+00 0. -1.
         11    1    4    4    0    0  0.70400816656E+00  0.11825835192E+00 -0.42493921280E+01  0.43089379498E+01  0.51100000000E-03 0. -1.
        -11    1    4    4    0    0  0.20427176496E+02 -0.15219023862E+01 -0.83628851931E+01  0.22125179671E+02  0.51100000000E-03 0.  1.
        -12    1    4    4    0    0  0.59965763611E+01 -0.23458689737E+02  0.13927685348E+02  0.27932945985E+02  0.00000000000E+00 0.  1.
</event>
<event>
 8    1  0.2484572E-006  0.9118800E+02  0.7816164E-02  0.1184000E+00
        -11   -1    0    0    0    0  0.00000000000E+00  0.00000000000E+00  0.45593999997E+02  0.45594000000E+02  0.51100000000E-03 0.  1.
         11   -1    0    0    0    0 -0.00000000000E+00 -0.00000000000E+00 -0.45593999997E+02  0.45594000000E+02  0.51100000000E-03 0. -1.
         23    2    1    2    0    0  0.00000000000E+00  0.17763568394E-14  0.00000000000E+00  0.91188000000E+02  0.91188000000E+02 0.  0.
    9900012    2    3    3    0    0 -0.29970767180E+02  0.11844788496E+02  0.17811057967E+02  0.54367086299E+02  0.40000004835E+02 0.  0.
         12    1    3    3    0    0  0.29970767180E+02 -0.11844788496E+02 -0.17811057967E+02  0.36820913701E+02  0.00000000000E+00 0. -1.
         11    1    4    4    0    0  0.52732203551E+01 -0.89217635809E+01  0.30127118411E+01  0.10792643384E+02  0.51100000000E-03 0. -1.
        -11    1    4    4    0    0 -0.60038070239E+01  0.46488612740E+01  0.29555297804E+01  0.81481756528E+01  0.51100000000E-03 0.  1.
         12    1    4    4    0    0 -0.29240180511E+02  0.16117690803E+02  0.11842816346E+02  0.35426267262E+02  0.00000000000E+00 0. -1.
</event>
<event>
 8    1  0.2484572E-006  0.9118800E+02  0.7816164E-02  0.1184000E+00
        -11   -1    0    0    0    0  0.00000000000E+00  0.00000000000E+00  0.45593999997E+02  0.45594000000E+02  0.51100000000E-03 0.  1.
         11   -1    0    0    0    0 -0.00000000000E+00 -0.00000000000E+00 -0.45593999997E+02  0.45594000000E+02  0.51100000000E-03 0. -1.
         23    2    1    2    0    0  0.00000000000E+00 -0.44408920985E-15  0.35527136788E-14  0.91188000000E+02  0.91188000000E+02 0.  0.
    9900012    2    3    3    0    0 -0.26950791036E+02  0.29820506092E+01 -0.24910747325E+02  0.54367039996E+02  0.39999899280E+02 0.  0.
        -12    1    3    3    0    0  0.26950791036E+02 -0.29820506092E+01  0.24910747325E+02  0.36820960004E+02  0.00000000000E+00 0.  1.
         11    1    4    4    0    0 -0.21264600425E+01  0.64344668336E+01 -0.25544176206E+02  0.26427809861E+02  0.51100000000E-03 0. -1.
        -11    1    4    4    0    0 -0.78584583310E+01 -0.49983220134E+01  0.46887853437E+01  0.10427046492E+02  0.51100000000E-03 0.  1.
         12    1    4    4    0    0 -0.16965872663E+02  0.15459057890E+01 -0.40553564626E+01  0.17512183643E+02  0.00000000000E+00 0. -1.
</event>
<event>
 8    1  0.2484572E-006  0.9118800E+02  0.7816164E-02  0.1184000E+00
        -11   -1    0    0    0    0  0.00000000000E+00  0.00000000000E+00  0.45593999997E+02  0.45594000000E+02  0.51100000000E-03 0.  1.
         11   -1    0    0    0    0 -0.00000000000E+00 -0.00000000000E+00 -0.45593999997E+02  0.45594000000E+02  0.51100000000E-03 0. -1.
         23    2    1    2    0    0  0.00000000000E+00  0.17763568394E-14  0.00000000000E+00  0.91188000000E+02  0.91188000000E+02 0.  0.
    9900012    2    3    3    0    0 -0.30640363346E+02 -0.13791819218E+02 -0.15057677707E+02  0.54367084731E+02  0.40000001261E+02 0.  0.
        -12    1    3    3    0    0  0.30640363346E+02  0.13791819218E+02  0.15057677707E+02  0.36820915269E+02  0.00000000000E+00 0.  1.
         11    1    4    4    0    0 -0.26855164596E+01  0.66630419360E+01 -0.13211578522E+02  0.15038415269E+02  0.51100000000E-03 0. -1.
        -11    1    4    4    0    0  0.23050499386E+01  0.62519742442E+00 -0.40114196664E+00  0.24217849156E+01  0.51100000000E-03 0.  1.
         12    1    4    4    0    0 -0.30259896825E+02 -0.21080058578E+02 -0.14449572187E+01  0.36906884546E+02  0.00000000000E+00 0. -1.
</event>
<event>
 8    1  0.2484572E-006  0.9118800E+02  0.7816164E-02  0.1184000E+00
        -11   -1    0    0    0    0  0.00000000000E+00  0.00000000000E+00  0.45593999997E+02  0.45594000000E+02  0.51100000000E-03 0.  1.
         11   -1    0    0    0    0 -0.00000000000E+00 -0.00000000000E+00 -0.45593999997E+02  0.45594000000E+02  0.51100000000E-03 0. -1.
         23    2    1    2    0    0 -0.35527136788E-14  0.00000000000E+00 -0.35527136788E-14  0.91188000000E+02  0.91188000000E+02 0.  0.
    9900012    2    3    3    0    0 -0.27054836959E+02 -0.16583101309E+02 -0.18676624356E+02  0.54367085437E+02  0.40000002871E+02 0.  0.
        -12    1    3    3    0    0  0.27054836959E+02  0.16583101309E+02  0.18676624356E+02  0.36820914563E+02  0.00000000000E+00 0.  1.
         11    1    4    4    0    0 -0.20787054183E+02  0.59982833985E+01 -0.18077359286E+01  0.21710571959E+02  0.51100000000E-03 0. -1.
        -11    1    4    4    0    0 -0.44887549346E+01 -0.21266173142E+02 -0.74420392053E+01  0.22973528000E+02  0.51100000000E-03 0.  1.
        -12    1    4    4    0    0 -0.17790278420E+01 -0.13152115652E+01 -0.94268492216E+01  0.96829854782E+01  0.00000000000E+00 0.  1.
</event>
<event>
 8    1  0.2484572E-006  0.9118800E+02  0.7816164E-02  0.1184000E+00
        -11   -1    0    0    0    0  0.00000000000E+00  0.00000000000E+00  0.45593999997E+02  0.45594000000E+02  0.51100000000E-03 0. -1.
         11   -1    0    0    0    0 -0.00000000000E+00 -0.00000000000E+00 -0.45593999997E+02  0.45594000000E+02  0.51100000000E-03 0.  1.
         23    2    1    2    0    0  0.00000000000E+00  0.35527136788E-14  0.00000000000E+00  0.91188000000E+02  0.91188000000E+02 0.  0.
    9900012    2    3    3    0    0 -0.21226570989E+02 -0.11673523741E+02  0.27729787393E+02  0.54367087717E+02  0.40000008069E+02 0.  0.
        -12    1    3    3    0    0  0.21226570989E+02  0.11673523741E+02 -0.27729787393E+02  0.36820912283E+02  0.00000000000E+00 0.  1.
         11    1    4    4    0    0  0.87300682774E+00 -0.44216135481E+01  0.16482425707E+02  0.17087514879E+02  0.51100000000E-03 0. -1.
        -11    1    4    4    0    0 -0.23503770458E+01  0.75088020875E+01  0.98188866139E+01  0.12582405002E+02  0.51100000000E-03 0.  1.
         12    1    4    4    0    0 -0.19749200771E+02 -0.14760712280E+02  0.14284750725E+01  0.24697167836E+02  0.00000000000E+00 0. -1.
</event>
<event>
 8    1  0.2484572E-006  0.9118800E+02  0.7816164E-02  0.1184000E+00
        -11   -1    0    0    0    0  0.00000000000E+00  0.00000000000E+00  0.45593999997E+02  0.45594000000E+02  0.51100000000E-03 0. -1.
         11   -1    0    0    0    0 -0.00000000000E+00 -0.00000000000E+00 -0.45593999997E+02  0.45594000000E+02  0.51100000000E-03 0.  1.
         23    2    1    2    0    0  0.35527136788E-14  0.35527136788E-14 -0.35527136788E-14  0.91188000000E+02  0.91188000000E+02 0.  0.
    9900012    2    3    3    0    0 -0.14342596837E+02 -0.24748457663E+02 -0.23185841100E+02  0.54367089253E+02  0.40000011570E+02 0.  0.
         12    1    3    3    0    0  0.14342596837E+02  0.24748457663E+02  0.23185841100E+02  0.36820910747E+02  0.00000000000E+00 0. -1.
         11    1    4    4    0    0  0.44911678759E+01 -0.92807677731E+01  0.87656570140E+01  0.13532922171E+02  0.51100000000E-03 0. -1.
        -11    1    4    4    0    0 -0.12379130240E+02 -0.14074131552E+02 -0.25001231250E+02  0.31247169611E+02  0.51100000000E-03 0.  1.
         12    1    4    4    0    0 -0.64546344726E+01 -0.13935583380E+01 -0.69502668640E+01  0.95869974703E+01  0.00000000000E+00 0. -1.
</event>
<event>
 8    1  0.2484572E-006  0.9118800E+02  0.7816164E-02  0.1184000E+00
        -11   -1    0    0    0    0  0.00000000000E+00  0.00000000000E+00  0.45593999997E+02  0.45594000000E+02  0.51100000000E-03 0.  1.
         11   -1    0    0    0    0 -0.00000000000E+00 -0.00000000000E+00 -0.45593999997E+02  0.45594000000E+02  0.51100000000E-03 0. -1.
         23    2    1    2    0    0  0.00000000000E+00 -0.44408920985E-15  0.00000000000E+00  0.91188000000E+02  0.91188000000E+02 0.  0.
    9900012    2    3    3    0    0 -0.25093712403E+02 -0.33324773472E+01 -0.26739102155E+02  0.54367090295E+02  0.40000013946E+02 0.  0.
        -12    1    3    3    0    0  0.25093712403E+02  0.33324773472E+01  0.26739102155E+02  0.36820909705E+02  0.00000000000E+00 0.  1.
         11    1    4    4    0    0 -0.16494761871E+01  0.86372191698E+01 -0.22754242771E+02  0.24394218394E+02  0.51100000000E-03 0. -1.
        -11    1    4    4    0    0 -0.24703647985E+01  0.29338240725E+01 -0.15191963400E+01  0.41252858939E+01  0.51100000000E-03 0.  1.
        -12    1    4    4    0    0 -0.20973871417E+02 -0.14903520589E+02 -0.24656630437E+01  0.25847586008E+02  0.00000000000E+00 0.  1.
</event>
<event>
 8    1  0.2484572E-006  0.9118800E+02  0.7816164E-02  0.1184000E+00
        -11   -1    0    0    0    0  0.00000000000E+00  0.00000000000E+00  0.45593999997E+02  0.45594000000E+02  0.51100000000E-03 0.  1.
         11   -1    0    0    0    0 -0.00000000000E+00 -0.00000000000E+00 -0.45593999997E+02  0.45594000000E+02  0.51100000000E-03 0. -1.
         23    2    1    2    0    0  0.00000000000E+00  0.00000000000E+00  0.57731597281E-14  0.91188000000E+02  0.91188000000E+02 0.  0.
    9900012    2    3    3    0    0  0.26350544201E+02  0.25590524857E+02 -0.25600444978E+01  0.54367082440E+02  0.39999996038E+02 0.  0.
        -12    1    3    3    0    0 -0.26350544201E+02 -0.25590524857E+02  0.25600444978E+01  0.36820917560E+02  0.00000000000E+00 0.  1.
         11    1    4    4    0    0  0.77813530604E+01  0.93876662670E+01 -0.19233233637E+02  0.22772681217E+02  0.51100000000E-03 0. -1.
        -11    1    4    4    0    0  0.10717936985E+02  0.25293690037E+01  0.78766307347E+01  0.13539320247E+02  0.51100000000E-03 0.  1.
         12    1    4    4    0    0  0.78512541556E+01  0.13673489586E+02  0.87965584047E+01  0.18055080976E+02  0.00000000000E+00 0. -1.
</event>
<event>
 8    1  0.2484572E-006  0.9118800E+02  0.7816164E-02  0.1184000E+00
        -11   -1    0    0    0    0  0.00000000000E+00  0.00000000000E+00  0.45593999997E+02  0.45594000000E+02  0.51100000000E-03 0. -1.
         11   -1    0    0    0    0 -0.00000000000E+00 -0.00000000000E+00 -0.45593999997E+02  0.45594000000E+02  0.51100000000E-03 0.  1.
         23    2    1    2    0    0  0.00000000000E+00  0.35527136788E-14  0.35527136788E-14  0.91188000000E+02  0.91188000000E+02 0.  0.
    9900012    2    3    3    0    0  0.72292999687E+01  0.18730226545E+02  0.30865754831E+02  0.54367095805E+02  0.40000026507E+02 0.  0.
        -12    1    3    3    0    0 -0.72292999687E+01 -0.18730226545E+02 -0.30865754831E+02  0.36820904195E+02  0.00000000000E+00 0.  1.
         11    1    4    4    0    0  0.22968628206E+01 -0.69129421435E+01 -0.16265705887E+01  0.74639185444E+01  0.51100000000E-03 0.  1.
        -11    1    4    4    0    0  0.57053135352E+01 -0.18580149106E+01  0.35530164034E+01  0.69732881604E+01  0.51100000000E-03 0. -1.
         12    1    4    4    0    0 -0.77287638714E+00  0.27501183599E+02  0.28939309016E+02  0.39929889100E+02  0.00000000000E+00 0. -1.
</event>
<event>
 8    1  0.2484572E-006  0.9118800E+02  0.7816164E-02  0.1184000E+00
        -11   -1    0    0    0    0  0.00000000000E+00  0.00000000000E+00  0.45593999997E+02  0.45594000000E+02  0.51100000000E-03 0. -1.
         11   -1    0    0    0    0 -0.00000000000E+00 -0.00000000000E+00 -0.45593999997E+02  0.45594000000E+02  0.51100000000E-03 0.  1.
         23    2    1    2    0    0 -0.35527136788E-14 -0.17763568394E-14  0.17763568394E-14  0.91188000000E+02  0.91188000000E+02 0.  0.
    9900012    2    3    3    0    0 -0.31830829301E+02  0.12667030005E+02 -0.13495327104E+02  0.54367092940E+02  0.40000019974E+02 0.  0.
         12    1    3    3    0    0  0.31830829301E+02 -0.12667030005E+02  0.13495327104E+02  0.36820907060E+02  0.00000000000E+00 0. -1.
         11    1    4    4    0    0 -0.29328006963E+00 -0.17727421929E+01 -0.94768957282E+01  0.96457338230E+01  0.51100000000E-03 0. -1.
        -11    1    4    4    0    0 -0.28973901885E+02  0.18355094093E+02 -0.11259580909E+02  0.36099510137E+02  0.51100000000E-03 0.  1.
        -12    1    4    4    0    0 -0.25636473464E+01 -0.39153218957E+01  0.72411495336E+01  0.86218489799E+01  0.00000000000E+00 0.  1.
</event>
<event>
 8    1  0.2484572E-006  0.9118800E+02  0.7816164E-02  0.1184000E+00
        -11   -1    0    0    0    0  0.00000000000E+00  0.00000000000E+00  0.45593999997E+02  0.45594000000E+02  0.51100000000E-03 0. -1.
         11   -1    0    0    0    0 -0.00000000000E+00 -0.00000000000E+00 -0.45593999997E+02  0.45594000000E+02  0.51100000000E-03 0.  1.
         23    2    1    2    0    0  0.00000000000E+00 -0.44408920985E-15  0.00000000000E+00  0.91188000000E+02  0.91188000000E+02 0.  0.
    9900012    2    3    3    0    0  0.29796528294E+02 -0.30669295995E+01  0.21413565121E+02  0.54367083027E+02  0.39999997377E+02 0.  0.
         12    1    3    3    0    0 -0.29796528294E+02  0.30669295995E+01 -0.21413565121E+02  0.36820916973E+02  0.00000000000E+00 0. -1.
         11    1    4    4    0    0 -0.17295502773E+01  0.92377917331E+01  0.17862773635E+02  0.20184321204E+02  0.51100000000E-03 0. -1.
        -11    1    4    4    0    0  0.21339872417E+02 -0.95963433472E+01  0.33807967051E+01  0.23641272111E+02  0.51100000000E-03 0.  1.
         12    1    4    4    0    0  0.10186206154E+02 -0.27083779854E+01  0.16999478149E+00  0.10541489712E+02  0.00000000000E+00 0. -1.
</event>
<event>
 8    1  0.2484572E-006  0.9118800E+02  0.7816164E-02  0.1184000E+00
        -11   -1    0    0    0    0  0.00000000000E+00  0.00000000000E+00  0.45593999997E+02  0.45594000000E+02  0.51100000000E-03 0.  1.
         11   -1    0    0    0    0 -0.00000000000E+00 -0.00000000000E+00 -0.45593999997E+02  0.45594000000E+02  0.51100000000E-03 0. -1.
         23    2    1    2    0    0 -0.71054273576E-14  0.11102230246E-14  0.00000000000E+00  0.91188000000E+02  0.91188000000E+02 0.  0.
    9900012    2    3    3    0    0  0.32227396119E+02 -0.90254260450E+00 -0.17786517844E+02  0.54367083923E+02  0.39999999419E+02 0.  0.
        -12    1    3    3    0    0 -0.32227396119E+02  0.90254260450E+00  0.17786517844E+02  0.36820916077E+02  0.00000000000E+00 0.  1.
         11    1    4    4    0    0 -0.46282102975E+01  0.53378752578E+00  0.23565089708E+01  0.52209572370E+01  0.51100000000E-03 0. -1.
        -11    1    4    4    0    0  0.77548108309E+01  0.10695722232E+02 -0.73763739785E+01  0.15130976784E+02  0.51100000000E-03 0.  1.
         12    1    4    4    0    0  0.29100795585E+02 -0.12132052363E+02 -0.12766652836E+02  0.34015149902E+02  0.00000000000E+00 0. -1.
</event>
<event>
 8    1  0.2484572E-006  0.9118800E+02  0.7816164E-02  0.1184000E+00
        -11   -1    0    0    0    0  0.00000000000E+00  0.00000000000E+00  0.45593999997E+02  0.45594000000E+02  0.51100000000E-03 0. -1.
         11   -1    0    0    0    0 -0.00000000000E+00 -0.00000000000E+00 -0.45593999997E+02  0.45594000000E+02  0.51100000000E-03 0.  1.
         23    2    1    2    0    0 -0.35527136788E-14 -0.44408920985E-15 -0.35527136788E-14  0.91188000000E+02  0.91188000000E+02 0.  0.
    9900012    2    3    3    0    0 -0.29329084867E+02  0.37359147919E+00  0.22258591539E+02  0.54367086283E+02  0.40000004798E+02 0.  0.
        -12    1    3    3    0    0  0.29329084867E+02 -0.37359147919E+00 -0.22258591539E+02  0.36820913717E+02  0.00000000000E+00 0.  1.
         11    1    4    4    0    0 -0.55595612724E+01 -0.70266405777E+01  0.13381807525E+02  0.16104507824E+02  0.51100000000E-03 0. -1.
        -11    1    4    4    0    0 -0.78973539821E+01  0.47662669711E+00 -0.99308872183E+01  0.12697160869E+02  0.51100000000E-03 0.  1.
        -12    1    4    4    0    0 -0.15872169612E+02  0.69236053598E+01  0.18807671232E+02  0.25565417590E+02  0.00000000000E+00 0.  1.
</event>
<event>
 8    1  0.2484572E-006  0.9118800E+02  0.7816164E-02  0.1184000E+00
        -11   -1    0    0    0    0  0.00000000000E+00  0.00000000000E+00  0.45593999997E+02  0.45594000000E+02  0.51100000000E-03 0.  1.
         11   -1    0    0    0    0 -0.00000000000E+00 -0.00000000000E+00 -0.45593999997E+02  0.45594000000E+02  0.51100000000E-03 0. -1.
         23    2    1    2    0    0 -0.17763568394E-14  0.00000000000E+00 -0.88817841970E-15  0.91188000000E+02  0.91188000000E+02 0.  0.
    9900012    2    3    3    0    0  0.11515694052E+02  0.34354696896E+02 -0.65515689486E+01  0.54367089311E+02  0.40000011702E+02 0.  0.
        -12    1    3    3    0    0 -0.11515694052E+02 -0.34354696896E+02  0.65515689486E+01  0.36820910689E+02  0.00000000000E+00 0.  1.
         11    1    4    4    0    0  0.18325237715E+00  0.24396411763E+01 -0.40330580957E+01  0.47170953316E+01  0.51100000000E-03 0. -1.
        -11    1    4    4    0    0  0.16180622156E+02  0.14889285543E+02 -0.16170698279E+02  0.27294593612E+02  0.51100000000E-03 0.  1.
        -12    1    4    4    0    0 -0.48481804811E+01  0.17025770176E+02  0.13652187426E+02  0.22355400368E+02  0.00000000000E+00 0.  1.
</event>
<event>
 8    1  0.2484572E-006  0.9118800E+02  0.7816164E-02  0.1184000E+00
        -11   -1    0    0    0    0  0.00000000000E+00  0.00000000000E+00  0.45593999997E+02  0.45594000000E+02  0.51100000000E-03 0.  1.
         11   -1    0    0    0    0 -0.00000000000E+00 -0.00000000000E+00 -0.45593999997E+02  0.45594000000E+02  0.51100000000E-03 0. -1.
         23    2    1    2    0    0  0.00000000000E+00  0.35527136788E-14  0.35527136788E-14  0.91188000000E+02  0.91188000000E+02 0.  0.
    9900012    2    3    3    0    0 -0.68166689175E+01  0.30048399906E+02  0.20159546027E+02  0.54367073775E+02  0.39999976285E+02 0.  0.
         12    1    3    3    0    0  0.68166689175E+01 -0.30048399906E+02 -0.20159546027E+02  0.36820926225E+02  0.00000000000E+00 0. -1.
         11    1    4    4    0    0  0.44706140599E+01  0.84616916441E+01 -0.42278686074E+01  0.10462384469E+02  0.51100000000E-03 0. -1.
        -11    1    4    4    0    0  0.68959006685E+01  0.15180732238E+02  0.15145086654E+02  0.22525135457E+02  0.51100000000E-03 0.  1.
        -12    1    4    4    0    0 -0.18183183646E+02  0.64059760238E+01  0.92423279800E+01  0.21379553850E+02  0.00000000000E+00 0.  1.
</event>
<event>
 8    1  0.2484572E-006  0.9118800E+02  0.7816164E-02  0.1184000E+00
        -11   -1    0    0    0    0  0.00000000000E+00  0.00000000000E+00  0.45593999997E+02  0.45594000000E+02  0.51100000000E-03 0. -1.
         11   -1    0    0    0    0 -0.00000000000E+00 -0.00000000000E+00 -0.45593999997E+02  0.45594000000E+02  0.51100000000E-03 0.  1.
         23    2    1    2    0    0  0.44408920985E-15  0.00000000000E+00  0.00000000000E+00  0.91188000000E+02  0.91188000000E+02 0.  0.
    9900012    2    3    3    0    0  0.92476309423E+00 -0.32058021125E+02 -0.18088906734E+02  0.54367075893E+02  0.39999981114E+02 0.  0.
         12    1    3    3    0    0 -0.92476309423E+00  0.32058021125E+02  0.18088906734E+02  0.36820924107E+02  0.00000000000E+00 0. -1.
         11    1    4    4    0    0  0.74985090981E+00 -0.10496431832E+02 -0.40043010567E+01  0.11259297705E+02  0.51100000000E-03 0. -1.
        -11    1    4    4    0    0  0.12898737629E+02 -0.14109199221E+02 -0.19586362367E+02  0.27369189358E+02  0.51100000000E-03 0.  1.
         12    1    4    4    0    0 -0.12723825444E+02 -0.74523900721E+01  0.55017566891E+01  0.15738588831E+02  0.00000000000E+00 0. -1.
</event>
<event>
 8    1  0.2484572E-006  0.9118800E+02  0.7816164E-02  0.1184000E+00
        -11   -1    0    0    0    0  0.00000000000E+00  0.00000000000E+00  0.45593999997E+02  0.45594000000E+02  0.51100000000E-03 0. -1.
         11   -1    0    0    0    0 -0.00000000000E+00 -0.00000000000E+00 -0.45593999997E+02  0.45594000000E+02  0.51100000000E-03 0.  1.
         23    2    1    2    0    0 -0.17763568394E-14  0.71054273576E-14  0.00000000000E+00  0.91188000000E+02  0.91188000000E+02 0.  0.
    9900012    2    3    3    0    0 -0.12201988344E+02  0.31328405166E+02 -0.15014253703E+02  0.54367010007E+02  0.39999830913E+02 0.  0.
        -12    1    3    3    0    0  0.12201988344E+02 -0.31328405166E+02  0.15014253703E+02  0.36820989993E+02  0.00000000000E+00 0.  1.
         11    1    4    4    0    0 -0.49366144198E+01  0.41232702478E+01 -0.13083676242E+02  0.14579235362E+02  0.51100000000E-03 0.  1.
        -11    1    4    4    0    0 -0.57468914300E+01  0.23563457289E+02 -0.13364329113E+02  0.27692391977E+02  0.51100000000E-03 0. -1.
         12    1    4    4    0    0 -0.15184824945E+01  0.36416776294E+01  0.11433751652E+02  0.12095382668E+02  0.00000000000E+00 0. -1.
</event>
<event>
 8    1  0.2484572E-006  0.9118800E+02  0.7816164E-02  0.1184000E+00
        -11   -1    0    0    0    0  0.00000000000E+00  0.00000000000E+00  0.45593999997E+02  0.45594000000E+02  0.51100000000E-03 0. -1.
         11   -1    0    0    0    0 -0.00000000000E+00 -0.00000000000E+00 -0.45593999997E+02  0.45594000000E+02  0.51100000000E-03 0.  1.
         23    2    1    2    0    0  0.17763568394E-14  0.00000000000E+00  0.71054273576E-14  0.91188000000E+02  0.91188000000E+02 0.  0.
    9900012    2    3    3    0    0 -0.46340312654E+01  0.12034904998E+02 -0.34488690122E+02  0.54367042240E+02  0.39999904394E+02 0.  0.
         12    1    3    3    0    0  0.46340312654E+01 -0.12034904998E+02  0.34488690122E+02  0.36820957760E+02  0.00000000000E+00 0. -1.
         11    1    4    4    0    0  0.53879566106E+01  0.15590611177E+02 -0.11366577856E+02  0.20032381928E+02  0.51100000000E-03 0. -1.
        -11    1    4    4    0    0 -0.17996320254E+01 -0.78419072505E+01  0.13559458799E+01  0.81592140701E+01  0.51100000000E-03 0.  1.
        -12    1    4    4    0    0 -0.82223558506E+01  0.42862010714E+01 -0.24478058146E+02  0.26175446242E+02  0.00000000000E+00 0.  1.
</event>
<event>
 8    1  0.2484572E-006  0.9118800E+02  0.7816164E-02  0.1184000E+00
        -11   -1    0    0    0    0  0.00000000000E+00  0.00000000000E+00  0.45593999997E+02  0.45594000000E+02  0.51100000000E-03 0.  1.
         11   -1    0    0    0    0 -0.00000000000E+00 -0.00000000000E+00 -0.45593999997E+02  0.45594000000E+02  0.51100000000E-03 0. -1.
         23    2    1    2    0    0  0.00000000000E+00  0.00000000000E+00  0.00000000000E+00  0.91188000000E+02  0.91188000000E+02 0.  0.
    9900012    2    3    3    0    0 -0.81835545833E+01  0.13134018340E+02 -0.33411178371E+02  0.54367084157E+02  0.39999999953E+02 0.  0.
        -12    1    3    3    0    0  0.81835545833E+01 -0.13134018340E+02  0.33411178371E+02  0.36820915843E+02  0.00000000000E+00 0.  1.
         11    1    4    4    0    0  0.32705530182E+01 -0.60261810993E+01 -0.14978124627E+02  0.16472874470E+02  0.51100000000E-03 0. -1.
        -11    1    4    4    0    0 -0.97461766594E+01  0.12436751915E+02 -0.24180746224E+02  0.28885450419E+02  0.51100000000E-03 0.  1.
        -12    1    4    4    0    0 -0.17079309422E+01  0.67234475233E+01  0.57476924807E+01  0.90087592683E+01  0.00000000000E+00 0.  1.
</event>
<event>
 8    1  0.2484572E-006  0.9118800E+02  0.7816164E-02  0.1184000E+00
        -11   -1    0    0    0    0  0.00000000000E+00  0.00000000000E+00  0.45593999997E+02  0.45594000000E+02  0.51100000000E-03 0.  1.
         11   -1    0    0    0    0 -0.00000000000E+00 -0.00000000000E+00 -0.45593999997E+02  0.45594000000E+02  0.51100000000E-03 0. -1.
         23    2    1    2    0    0  0.00000000000E+00  0.35527136788E-14  0.13322676296E-14  0.91188000000E+02  0.91188000000E+02 0.  0.
    9900012    2    3    3    0    0 -0.34598238444E+02  0.12096976076E+02  0.35221904328E+01  0.54367071725E+02  0.39999971611E+02 0.  0.
         12    1    3    3    0    0  0.34598238444E+02 -0.12096976076E+02 -0.35221904328E+01  0.36820928275E+02  0.00000000000E+00 0. -1.
         11    1    4    4    0    0 -0.19824957313E+01  0.48635447737E+01 -0.12132143991E+02  0.13220184385E+02  0.51100000000E-03 0. -1.
        -11    1    4    4    0    0 -0.66281449229E+01 -0.20329746154E+01 -0.32949349118E+01  0.76760593562E+01  0.51100000000E-03 0.  1.
        -12    1    4    4    0    0 -0.25987597790E+02  0.92664059177E+01  0.18949269336E+02  0.33470827983E+02  0.00000000000E+00 0.  1.
</event>
<event>
 8    1  0.2484572E-006  0.9118800E+02  0.7816164E-02  0.1184000E+00
        -11   -1    0    0    0    0  0.00000000000E+00  0.00000000000E+00  0.45593999997E+02  0.45594000000E+02  0.51100000000E-03 0.  1.
         11   -1    0    0    0    0 -0.00000000000E+00 -0.00000000000E+00 -0.45593999997E+02  0.45594000000E+02  0.51100000000E-03 0. -1.
         23    2    1    2    0    0 -0.17763568394E-14  0.00000000000E+00  0.00000000000E+00  0.91188000000E+02  0.91188000000E+02 0.  0.
    9900012    2    3    3    0    0 -0.52662866349E+01  0.88543062567E+01  0.35350366322E+02  0.54367069630E+02  0.39999966835E+02 0.  0.
         12    1    3    3    0    0  0.52662866349E+01 -0.88543062567E+01 -0.35350366322E+02  0.36820930370E+02  0.00000000000E+00 0. -1.
         11    1    4    4    0    0  0.37643570985E+01  0.23061485059E+01 -0.48157329612E+01  0.65329923857E+01  0.51100000000E-03 0. -1.
        -11    1    4    4    0    0 -0.14332157979E+02  0.11675372410E+02  0.26597956804E+02  0.32390992261E+02  0.51100000000E-03 0.  1.
        -12    1    4    4    0    0  0.53015142453E+01 -0.51272146587E+01  0.13568142480E+02  0.15443084983E+02  0.00000000000E+00 0.  1.
</event>
<event>
 8    1  0.2484572E-006  0.9118800E+02  0.7816164E-02  0.1184000E+00
        -11   -1    0    0    0    0  0.00000000000E+00  0.00000000000E+00  0.45593999997E+02  0.45594000000E+02  0.51100000000E-03 0. -1.
         11   -1    0    0    0    0 -0.00000000000E+00 -0.00000000000E+00 -0.45593999997E+02  0.45594000000E+02  0.51100000000E-03 0.  1.
         23    2    1    2    0    0 -0.35527136788E-14 -0.17763568394E-14  0.35527136788E-14  0.91188000000E+02  0.91188000000E+02 0.  0.
    9900012    2    3    3    0    0 -0.28378338276E+02  0.12016275644E+02  0.20150965071E+02  0.54367050026E+02  0.39999922145E+02 0.  0.
        -12    1    3    3    0    0  0.28378338276E+02 -0.12016275644E+02 -0.20150965071E+02  0.36820949974E+02  0.00000000000E+00 0.  1.
         11    1    4    4    0    0 -0.14302482324E+02 -0.26462526781E+01  0.74772725002E+00  0.14564434427E+02  0.51100000000E-03 0. -1.
        -11    1    4    4    0    0  0.17190196226E+01 -0.20131021097E+01  0.16430611132E+02  0.16642493533E+02  0.51100000000E-03 0.  1.
        -12    1    4    4    0    0 -0.15794875574E+02  0.16675630432E+02  0.29726266895E+01  0.23160122067E+02  0.00000000000E+00 0.  1.
</event>
<event>
 8    1  0.2484572E-006  0.9118800E+02  0.7816164E-02  0.1184000E+00
        -11   -1    0    0    0    0  0.00000000000E+00  0.00000000000E+00  0.45593999997E+02  0.45594000000E+02  0.51100000000E-03 0. -1.
         11   -1    0    0    0    0 -0.00000000000E+00 -0.00000000000E+00 -0.45593999997E+02  0.45594000000E+02  0.51100000000E-03 0.  1.
         23    2    1    2    0    0  0.00000000000E+00  0.00000000000E+00 -0.88817841970E-15  0.91188000000E+02  0.91188000000E+02 0.  0.
    9900012    2    3    3    0    0 -0.12430084148E+02 -0.33903319676E+02  0.71998594274E+01  0.54367081316E+02  0.39999993476E+02 0.  0.
        -12    1    3    3    0    0  0.12430084148E+02  0.33903319676E+02 -0.71998594274E+01  0.36820918684E+02  0.00000000000E+00 0.  1.
         11    1    4    4    0    0 -0.10748090021E+02 -0.27214132348E+02  0.13492252857E+01  0.29290798004E+02  0.51100000000E-03 0. -1.
        -11    1    4    4    0    0  0.38846823323E+01 -0.93856040426E+01 -0.59361519011E+01  0.11765127272E+02  0.51100000000E-03 0.  1.
         12    1    4    4    0    0 -0.55666764593E+01  0.26964167151E+01  0.11786786043E+02  0.13311156040E+02  0.00000000000E+00 0. -1.
</event>
<event>
 8    1  0.2484572E-006  0.9118800E+02  0.7816164E-02  0.1184000E+00
        -11   -1    0    0    0    0  0.00000000000E+00  0.00000000000E+00  0.45593999997E+02  0.45594000000E+02  0.51100000000E-03 0. -1.
         11   -1    0    0    0    0 -0.00000000000E+00 -0.00000000000E+00 -0.45593999997E+02  0.45594000000E+02  0.51100000000E-03 0.  1.
         23    2    1    2    0    0 -0.35527136788E-14 -0.71054273576E-14 -0.88817841970E-15  0.91188000000E+02  0.91188000000E+02 0.  0.
    9900012    2    3    3    0    0  0.16868332607E+02  0.32553616044E+02  0.33921663910E+01  0.54367009311E+02  0.39999829326E+02 0.  0.
        -12    1    3    3    0    0 -0.16868332607E+02 -0.32553616044E+02 -0.33921663910E+01  0.36820990689E+02  0.00000000000E+00 0.  1.
         11    1    4    4    0    0  0.93593871992E+01  0.84470123391E+01  0.10396732446E+02  0.16341425642E+02  0.51100000000E-03 0. -1.
        -11    1    4    4    0    0  0.13530617535E+02  0.25419595161E+02 -0.13526941439E+00  0.28796731188E+02  0.51100000000E-03 0.  1.
        -12    1    4    4    0    0 -0.60216721275E+01 -0.13129914555E+01 -0.68692966410E+01  0.92288524809E+01  0.00000000000E+00 0.  1.
</event>
<event>
 8    1  0.2484572E-006  0.9118800E+02  0.7816164E-02  0.1184000E+00
        -11   -1    0    0    0    0  0.00000000000E+00  0.00000000000E+00  0.45593999997E+02  0.45594000000E+02  0.51100000000E-03 0.  1.
         11   -1    0    0    0    0 -0.00000000000E+00 -0.00000000000E+00 -0.45593999997E+02  0.45594000000E+02  0.51100000000E-03 0. -1.
         23    2    1    2    0    0  0.35527136788E-14 -0.71054273576E-14 -0.35527136788E-14  0.91188000000E+02  0.91188000000E+02 0.  0.
    9900012    2    3    3    0    0 -0.19622181417E+02  0.24878499788E+02  0.18756604628E+02  0.54367082407E+02  0.39999995962E+02 0.  0.
         12    1    3    3    0    0  0.19622181417E+02 -0.24878499788E+02 -0.18756604628E+02  0.36820917593E+02  0.00000000000E+00 0. -1.
         11    1    4    4    0    0 -0.68735529916E+01  0.37107547618E+01  0.59796624884E+01  0.98372656448E+01  0.51100000000E-03 0. -1.
        -11    1    4    4    0    0 -0.27746202368E+01  0.29142824132E+02  0.53582503180E+01  0.29760940216E+02  0.51100000000E-03 0.  1.
         12    1    4    4    0    0 -0.99740081882E+01 -0.79750791052E+01  0.74186918215E+01  0.14768876545E+02  0.00000000000E+00 0. -1.
</event>
<event>
 8    1  0.2484572E-006  0.9118800E+02  0.7816164E-02  0.1184000E+00
        -11   -1    0    0    0    0  0.00000000000E+00  0.00000000000E+00  0.45593999997E+02  0.45594000000E+02  0.51100000000E-03 0.  1.
         11   -1    0    0    0    0 -0.00000000000E+00 -0.00000000000E+00 -0.45593999997E+02  0.45594000000E+02  0.51100000000E-03 0. -1.
         23    2    1    2    0    0  0.35527136788E-14  0.35527136788E-14  0.17763568394E-14  0.91188000000E+02  0.91188000000E+02 0.  0.
    9900012    2    3    3    0    0 -0.22184793081E+02 -0.28058868129E+02 -0.87363605595E+01  0.54366958182E+02  0.39999712766E+02 0.  0.
        -12    1    3    3    0    0  0.22184793081E+02  0.28058868129E+02  0.87363605595E+01  0.36821041818E+02  0.00000000000E+00 0.  1.
         11    1    4    4    0    0 -0.42124305067E+01 -0.16368499567E+02 -0.12379130627E+02  0.20950303678E+02  0.51100000000E-03 0. -1.
        -11    1    4    4    0    0 -0.21580959118E+02 -0.15846573929E+02  0.59849628056E+01  0.27434858880E+02  0.51100000000E-03 0.  1.
         12    1    4    4    0    0  0.36085965437E+01  0.41562053662E+01 -0.23421927380E+01  0.59817956237E+01  0.00000000000E+00 0. -1.
</event>
<event>
 8    1  0.2484572E-006  0.9118800E+02  0.7816164E-02  0.1184000E+00
        -11   -1    0    0    0    0  0.00000000000E+00  0.00000000000E+00  0.45593999997E+02  0.45594000000E+02  0.51100000000E-03 0.  1.
         11   -1    0    0    0    0 -0.00000000000E+00 -0.00000000000E+00 -0.45593999997E+02  0.45594000000E+02  0.51100000000E-03 0. -1.
         23    2    1    2    0    0  0.35527136788E-14  0.00000000000E+00  0.00000000000E+00  0.91188000000E+02  0.91188000000E+02 0.  0.
    9900012    2    3    3    0    0 -0.19797434906E+02 -0.25348775417E+02 -0.17924347670E+02  0.54367067321E+02  0.39999961571E+02 0.  0.
        -12    1    3    3    0    0  0.19797434906E+02  0.25348775417E+02  0.17924347670E+02  0.36820932679E+02  0.00000000000E+00 0.  1.
         11    1    4    4    0    0 -0.24856061140E+02 -0.80263824906E+01 -0.62789235694E+01  0.26863943730E+02  0.51100000000E-03 0. -1.
        -11    1    4    4    0    0 -0.28343600333E+01 -0.73518428894E+01  0.27034653032E+01  0.83301810050E+01  0.51100000000E-03 0.  1.
        -12    1    4    4    0    0  0.78929862679E+01 -0.99705500369E+01 -0.14348889404E+02  0.19172942585E+02  0.00000000000E+00 0.  1.
</event>
<event>
 8    1  0.2484572E-006  0.9118800E+02  0.7816164E-02  0.1184000E+00
        -11   -1    0    0    0    0  0.00000000000E+00  0.00000000000E+00  0.45593999997E+02  0.45594000000E+02  0.51100000000E-03 0.  1.
         11   -1    0    0    0    0 -0.00000000000E+00 -0.00000000000E+00 -0.45593999997E+02  0.45594000000E+02  0.51100000000E-03 0. -1.
         23    2    1    2    0    0  0.00000000000E+00 -0.44408920985E-15  0.00000000000E+00  0.91188000000E+02  0.91188000000E+02 0.  0.
    9900012    2    3    3    0    0  0.23010411652E+02  0.21737195726E+01 -0.28663114603E+02  0.54367105932E+02  0.40000049593E+02 0.  0.
        -12    1    3    3    0    0 -0.23010411652E+02 -0.21737195726E+01  0.28663114603E+02  0.36820894068E+02  0.00000000000E+00 0.  1.
         11    1    4    4    0    0  0.14858263532E+02 -0.52121269463E+01 -0.26015293126E+02  0.30409369266E+02  0.51100000000E-03 0. -1.
        -11    1    4    4    0    0  0.13655021741E+02  0.21324209349E+01 -0.66768357535E+01  0.15348842749E+02  0.51100000000E-03 0.  1.
        -12    1    4    4    0    0 -0.55028736201E+01  0.52534255841E+01  0.40290142758E+01  0.86088939174E+01  0.00000000000E+00 0.  1.
</event>
<event>
 8    1  0.2484572E-006  0.9118800E+02  0.7816164E-02  0.1184000E+00
        -11   -1    0    0    0    0  0.00000000000E+00  0.00000000000E+00  0.45593999997E+02  0.45594000000E+02  0.51100000000E-03 0.  1.
         11   -1    0    0    0    0 -0.00000000000E+00 -0.00000000000E+00 -0.45593999997E+02  0.45594000000E+02  0.51100000000E-03 0. -1.
         23    2    1    2    0    0  0.00000000000E+00 -0.13322676296E-14  0.00000000000E+00  0.91188000000E+02  0.91188000000E+02 0.  0.
    9900012    2    3    3    0    0  0.12272994892E+02  0.82827979498E+00 -0.34705416566E+02  0.54367103894E+02  0.40000044947E+02 0.  0.
        -12    1    3    3    0    0 -0.12272994892E+02 -0.82827979498E+00  0.34705416566E+02  0.36820896106E+02  0.00000000000E+00 0.  1.
         11    1    4    4    0    0 -0.55967840405E+01  0.11433209097E+02 -0.44752257309E+01  0.13493328257E+02  0.51100000000E-03 0. -1.
        -11    1    4    4    0    0  0.11202979607E+02  0.31687585312E+01 -0.17230347971E+02  0.20795015609E+02  0.51100000000E-03 0.  1.
        -12    1    4    4    0    0  0.66667993256E+01 -0.13773687833E+02 -0.12999842864E+02  0.20078760028E+02  0.00000000000E+00 0.  1.
</event>
<event>
 8    1  0.2484572E-006  0.9118800E+02  0.7816164E-02  0.1184000E+00
        -11   -1    0    0    0    0  0.00000000000E+00  0.00000000000E+00  0.45593999997E+02  0.45594000000E+02  0.51100000000E-03 0.  1.
         11   -1    0    0    0    0 -0.00000000000E+00 -0.00000000000E+00 -0.45593999997E+02  0.45594000000E+02  0.51100000000E-03 0. -1.
         23    2    1    2    0    0  0.00000000000E+00  0.00000000000E+00  0.00000000000E+00  0.91188000000E+02  0.91188000000E+02 0.  0.
    9900012    2    3    3    0    0 -0.23100739031E+02  0.25550699813E+02 -0.13011428023E+02  0.54367086596E+02  0.40000005513E+02 0.  0.
         12    1    3    3    0    0  0.23100739031E+02 -0.25550699813E+02  0.13011428023E+02  0.36820913404E+02  0.00000000000E+00 0. -1.
         11    1    4    4    0    0 -0.42101181223E+01  0.41980143438E+01 -0.12371279485E+02  0.13725777770E+02  0.51100000000E-03 0. -1.
        -11    1    4    4    0    0 -0.18724771686E+02  0.22821535882E+02 -0.99981104652E+01  0.31167319227E+02  0.51100000000E-03 0.  1.
         12    1    4    4    0    0 -0.16584922292E+00 -0.14688504125E+01  0.93579619266E+01  0.94739895988E+01  0.00000000000E+00 0. -1.
</event>
<event>
 8    1  0.2484572E-006  0.9118800E+02  0.7816164E-02  0.1184000E+00
        -11   -1    0    0    0    0  0.00000000000E+00  0.00000000000E+00  0.45593999997E+02  0.45594000000E+02  0.51100000000E-03 0.  1.
         11   -1    0    0    0    0 -0.00000000000E+00 -0.00000000000E+00 -0.45593999997E+02  0.45594000000E+02  0.51100000000E-03 0. -1.
         23    2    1    2    0    0  0.00000000000E+00  0.00000000000E+00  0.00000000000E+00  0.91188000000E+02  0.91188000000E+02 0.  0.
    9900012    2    3    3    0    0  0.33015542910E+02  0.32857762996E+00 -0.16298648309E+02  0.54367082391E+02  0.39999995926E+02 0.  0.
        -12    1    3    3    0    0 -0.33015542910E+02 -0.32857762996E+00  0.16298648309E+02  0.36820917609E+02  0.00000000000E+00 0.  1.
         11    1    4    4    0    0  0.19648534897E+02  0.42791900118E+01 -0.19771904998E+02  0.28201145691E+02  0.51100000000E-03 0. -1.
        -11    1    4    4    0    0  0.33961306283E+01 -0.12079971687E+02 -0.89375908933E+00  0.12580072526E+02  0.51100000000E-03 0.  1.
         12    1    4    4    0    0  0.99708773846E+01  0.81293593049E+01  0.43670157784E+01  0.13585864173E+02  0.00000000000E+00 0. -1.
</event>
<event>
 8    1  0.2484572E-006  0.9118800E+02  0.7816164E-02  0.1184000E+00
        -11   -1    0    0    0    0  0.00000000000E+00  0.00000000000E+00  0.45593999997E+02  0.45594000000E+02  0.51100000000E-03 0.  1.
         11   -1    0    0    0    0 -0.00000000000E+00 -0.00000000000E+00 -0.45593999997E+02  0.45594000000E+02  0.51100000000E-03 0. -1.
         23    2    1    2    0    0 -0.88817841970E-15  0.00000000000E+00  0.13322676296E-14  0.91188000000E+02  0.91188000000E+02 0.  0.
    9900012    2    3    3    0    0  0.65702015611E+01 -0.36009554300E+02 -0.39905810172E+01  0.54367078144E+02  0.39999986245E+02 0.  0.
         12    1    3    3    0    0 -0.65702015611E+01  0.36009554300E+02  0.39905810172E+01  0.36820921856E+02  0.00000000000E+00 0. -1.
         11    1    4    4    0    0 -0.11455513697E+01  0.69927126556E+00 -0.11863895698E+02  0.11939568235E+02  0.51100000000E-03 0. -1.
        -11    1    4    4    0    0 -0.40036339560E+01 -0.15420411907E+02 -0.22736495189E+01  0.16093093880E+02  0.51100000000E-03 0.  1.
        -12    1    4    4    0    0  0.11719386887E+02 -0.21288413659E+02  0.10146964200E+02  0.26334416029E+02  0.00000000000E+00 0.  1.
</event>
<event>
 8    1  0.2484572E-006  0.9118800E+02  0.7816164E-02  0.1184000E+00
        -11   -1    0    0    0    0  0.00000000000E+00  0.00000000000E+00  0.45593999997E+02  0.45594000000E+02  0.51100000000E-03 0.  1.
         11   -1    0    0    0    0 -0.00000000000E+00 -0.00000000000E+00 -0.45593999997E+02  0.45594000000E+02  0.51100000000E-03 0. -1.
         23    2    1    2    0    0  0.00000000000E+00  0.00000000000E+00  0.00000000000E+00  0.91188000000E+02  0.91188000000E+02 0.  0.
    9900012    2    3    3    0    0  0.35450018172E+02  0.55186821159E+01 -0.82837342901E+01  0.54367083465E+02  0.39999998376E+02 0.  0.
        -12    1    3    3    0    0 -0.35450018172E+02 -0.55186821159E+01  0.82837342901E+01  0.36820916535E+02  0.00000000000E+00 0.  1.
         11    1    4    4    0    0  0.10889375763E+00 -0.25092684943E+01  0.11152089620E+02  0.11431421144E+02  0.51100000000E-03 0.  1.
        -11    1    4    4    0    0  0.15365746359E+02  0.93874678894E+01 -0.67313039345E+01  0.19223453578E+02  0.51100000000E-03 0. -1.
        -12    1    4    4    0    0  0.19975378055E+02 -0.13595172792E+01 -0.12704519975E+02  0.23712208743E+02  0.00000000000E+00 0.  1.
</event>
<event>
 8    1  0.2484572E-006  0.9118800E+02  0.7816164E-02  0.1184000E+00
        -11   -1    0    0    0    0  0.00000000000E+00  0.00000000000E+00  0.45593999997E+02  0.45594000000E+02  0.51100000000E-03 0. -1.
         11   -1    0    0    0    0 -0.00000000000E+00 -0.00000000000E+00 -0.45593999997E+02  0.45594000000E+02  0.51100000000E-03 0.  1.
         23    2    1    2    0    0 -0.44408920985E-15  0.17763568394E-14  0.00000000000E+00  0.91188000000E+02  0.91188000000E+02 0.  0.
    9900012    2    3    3    0    0 -0.35056525152E+01  0.15124090840E+02 -0.33387910285E+02  0.54367078278E+02  0.39999986550E+02 0.  0.
         12    1    3    3    0    0  0.35056525152E+01 -0.15124090840E+02  0.33387910285E+02  0.36820921722E+02  0.00000000000E+00 0. -1.
         11    1    4    4    0    0 -0.13273751902E+01 -0.11308814750E+01 -0.10031682543E+02  0.10182115336E+02  0.51100000000E-03 0. -1.
        -11    1    4    4    0    0 -0.28730095549E+01 -0.99473358354E+01 -0.11323254346E+02  0.15343394780E+02  0.51100000000E-03 0.  1.
         12    1    4    4    0    0  0.69473222989E+00  0.26202308151E+02 -0.12032973395E+02  0.28841568162E+02  0.00000000000E+00 0. -1.
</event>
<event>
 8    1  0.2484572E-006  0.9118800E+02  0.7816164E-02  0.1184000E+00
        -11   -1    0    0    0    0  0.00000000000E+00  0.00000000000E+00  0.45593999997E+02  0.45594000000E+02  0.51100000000E-03 0.  1.
         11   -1    0    0    0    0 -0.00000000000E+00 -0.00000000000E+00 -0.45593999997E+02  0.45594000000E+02  0.51100000000E-03 0. -1.
         23    2    1    2    0    0  0.00000000000E+00  0.00000000000E+00  0.00000000000E+00  0.91188000000E+02  0.91188000000E+02 0.  0.
    9900012    2    3    3    0    0  0.20744017512E+02 -0.10104895271E+02 -0.28694196951E+02  0.54367080543E+02  0.39999991715E+02 0.  0.
        -12    1    3    3    0    0 -0.20744017512E+02  0.10104895271E+02  0.28694196951E+02  0.36820919457E+02  0.00000000000E+00 0.  1.
         11    1    4    4    0    0  0.15047726321E+01  0.87684626875E+01 -0.27369317127E+01  0.93081187164E+01  0.51100000000E-03 0. -1.
        -11    1    4    4    0    0  0.13171271410E+01 -0.11952594170E+02  0.87631671549E+00  0.12056834682E+02  0.51100000000E-03 0.  1.
        -12    1    4    4    0    0  0.17922117738E+02 -0.69207637891E+01 -0.26833581954E+02  0.33002127145E+02  0.00000000000E+00 0.  1.
</event>
<event>
 8    1  0.2484572E-006  0.9118800E+02  0.7816164E-02  0.1184000E+00
        -11   -1    0    0    0    0  0.00000000000E+00  0.00000000000E+00  0.45593999997E+02  0.45594000000E+02  0.51100000000E-03 0. -1.
         11   -1    0    0    0    0 -0.00000000000E+00 -0.00000000000E+00 -0.45593999997E+02  0.45594000000E+02  0.51100000000E-03 0.  1.
         23    2    1    2    0    0  0.00000000000E+00  0.17763568394E-14  0.00000000000E+00  0.91188000000E+02  0.91188000000E+02 0.  0.
    9900012    2    3    3    0    0 -0.98402969308E+01 -0.11855532137E+02 -0.33442411450E+02  0.54367082446E+02  0.39999996052E+02 0.  0.
         12    1    3    3    0    0  0.98402969308E+01  0.11855532137E+02  0.33442411450E+02  0.36820917554E+02  0.00000000000E+00 0. -1.
         11    1    4    4    0    0 -0.69997212151E+01 -0.19062947771E+02 -0.24292921000E+02  0.31662881830E+02  0.51100000000E-03 0. -1.
        -11    1    4    4    0    0  0.79605491647E+01  0.45700895249E+01 -0.17387030307E+01  0.93423310667E+01  0.51100000000E-03 0.  1.
         12    1    4    4    0    0 -0.10801124881E+02  0.26373261083E+01 -0.74107874194E+01  0.13361869550E+02  0.00000000000E+00 0. -1.
</event>
<event>
 8    1  0.2484572E-006  0.9118800E+02  0.7816164E-02  0.1184000E+00
        -11   -1    0    0    0    0  0.00000000000E+00  0.00000000000E+00  0.45593999997E+02  0.45594000000E+02  0.51100000000E-03 0.  1.
         11   -1    0    0    0    0 -0.00000000000E+00 -0.00000000000E+00 -0.45593999997E+02  0.45594000000E+02  0.51100000000E-03 0. -1.
         23    2    1    2    0    0  0.00000000000E+00 -0.44408920985E-15 -0.35527136788E-14  0.91188000000E+02  0.91188000000E+02 0.  0.
    9900012    2    3    3    0    0  0.34115669028E+02 -0.31365003347E+01  0.13493053941E+02  0.54367095445E+02  0.40000025687E+02 0.  0.
        -12    1    3    3    0    0 -0.34115669028E+02  0.31365003347E+01 -0.13493053941E+02  0.36820904555E+02  0.00000000000E+00 0.  1.
         11    1    4    4    0    0  0.25458125335E+02  0.62803498646E+01  0.13596515837E+02  0.29536827575E+02  0.51100000000E-03 0. -1.
        -11    1    4    4    0    0 -0.55361650597E+00 -0.16135946976E+01 -0.94250000419E+01  0.95781420502E+01  0.51100000000E-03 0.  1.
        -12    1    4    4    0    0  0.92111601984E+01 -0.78032555017E+01  0.93215381462E+01  0.15252125820E+02  0.00000000000E+00 0.  1.
</event>
<event>
 8    1  0.2484572E-006  0.9118800E+02  0.7816164E-02  0.1184000E+00
        -11   -1    0    0    0    0  0.00000000000E+00  0.00000000000E+00  0.45593999997E+02  0.45594000000E+02  0.51100000000E-03 0.  1.
         11   -1    0    0    0    0 -0.00000000000E+00 -0.00000000000E+00 -0.45593999997E+02  0.45594000000E+02  0.51100000000E-03 0. -1.
         23    2    1    2    0    0  0.00000000000E+00  0.00000000000E+00  0.00000000000E+00  0.91188000000E+02  0.91188000000E+02 0.  0.
    9900012    2    3    3    0    0  0.21676872595E+02 -0.28302335633E+02  0.92125546837E+01  0.54367079702E+02  0.39999989797E+02 0.  0.
         12    1    3    3    0    0 -0.21676872595E+02  0.28302335633E+02 -0.92125546837E+01  0.36820920298E+02  0.00000000000E+00 0. -1.
         11    1    4    4    0    0  0.74059231652E+01 -0.17431964424E+02  0.14357234673E+02  0.23766599869E+02  0.51100000000E-03 0. -1.
        -11    1    4    4    0    0  0.71402954961E+01 -0.61563685935E+01  0.96644882858E+01  0.13501371342E+02  0.51100000000E-03 0.  1.
         12    1    4    4    0    0  0.71306539337E+01 -0.47140026156E+01 -0.14809168276E+02  0.17099108491E+02  0.00000000000E+00 0. -1.
</event>
<event>
 8    1  0.2484572E-006  0.9118800E+02  0.7816164E-02  0.1184000E+00
        -11   -1    0    0    0    0  0.00000000000E+00  0.00000000000E+00  0.45593999997E+02  0.45594000000E+02  0.51100000000E-03 0.  1.
         11   -1    0    0    0    0 -0.00000000000E+00 -0.00000000000E+00 -0.45593999997E+02  0.45594000000E+02  0.51100000000E-03 0. -1.
         23    2    1    2    0    0 -0.35527136788E-14  0.00000000000E+00  0.88817841970E-15  0.91188000000E+02  0.91188000000E+02 0.  0.
    9900012    2    3    3    0    0  0.94850749582E+01  0.35283185744E+02  0.45725667688E+01  0.54367106338E+02  0.40000050519E+02 0.  0.
        -12    1    3    3    0    0 -0.94850749582E+01 -0.35283185744E+02 -0.45725667688E+01  0.36820893662E+02  0.00000000000E+00 0.  1.
         11    1    4    4    0    0 -0.26227247751E+01 -0.97344620968E+00 -0.34709352508E+01  0.44579899670E+01  0.51100000000E-03 0. -1.
        -11    1    4    4    0    0  0.19278656639E+02  0.96627394364E+01  0.16143380943E+01  0.21625013826E+02  0.51100000000E-03 0.  1.
        -12    1    4    4    0    0 -0.71708569061E+01  0.26593892517E+02  0.64291639253E+01  0.28284102545E+02  0.00000000000E+00 0.  1.
</event>
<event>
 8    1  0.2484572E-006  0.9118800E+02  0.7816164E-02  0.1184000E+00
        -11   -1    0    0    0    0  0.00000000000E+00  0.00000000000E+00  0.45593999997E+02  0.45594000000E+02  0.51100000000E-03 0. -1.
         11   -1    0    0    0    0 -0.00000000000E+00 -0.00000000000E+00 -0.45593999997E+02  0.45594000000E+02  0.51100000000E-03 0.  1.
         23    2    1    2    0    0  0.00000000000E+00  0.00000000000E+00  0.00000000000E+00  0.91188000000E+02  0.91188000000E+02 0.  0.
    9900012    2    3    3    0    0 -0.23950612389E+01 -0.32744480928E+02  0.16668629263E+02  0.54367074549E+02  0.39999978050E+02 0.  0.
         12    1    3    3    0    0  0.23950612389E+01  0.32744480928E+02 -0.16668629263E+02  0.36820925451E+02  0.00000000000E+00 0. -1.
         11    1    4    4    0    0 -0.40691140227E+01  0.56336568849E+01  0.73648246306E+01  0.10126026907E+02  0.51100000000E-03 0. -1.
        -11    1    4    4    0    0 -0.36763887854E+01 -0.27431313885E+02 -0.18284240105E+01  0.27736905930E+02  0.51100000000E-03 0.  1.
         12    1    4    4    0    0  0.53504415692E+01 -0.10946823927E+02  0.11132228642E+02  0.16504141711E+02  0.00000000000E+00 0. -1.
</event>
<event>
 8    1  0.2484572E-006  0.9118800E+02  0.7816164E-02  0.1184000E+00
        -11   -1    0    0    0    0  0.00000000000E+00  0.00000000000E+00  0.45593999997E+02  0.45594000000E+02  0.51100000000E-03 0.  1.
         11   -1    0    0    0    0 -0.00000000000E+00 -0.00000000000E+00 -0.45593999997E+02  0.45594000000E+02  0.51100000000E-03 0. -1.
         23    2    1    2    0    0  0.00000000000E+00  0.00000000000E+00  0.00000000000E+00  0.91188000000E+02  0.91188000000E+02 0.  0.
    9900012    2    3    3    0    0  0.21182732967E+02  0.22756751332E+02  0.19728203063E+02  0.54367083346E+02  0.39999998105E+02 0.  0.
         12    1    3    3    0    0 -0.21182732967E+02 -0.22756751332E+02 -0.19728203063E+02  0.36820916654E+02  0.00000000000E+00 0. -1.
         11    1    4    4    0    0  0.19718557797E+02  0.11507736447E+02 -0.15131125504E+01  0.22880975276E+02  0.51100000000E-03 0. -1.
        -11    1    4    4    0    0 -0.27944370140E+01 -0.49903233828E+01  0.22710282281E+01  0.61538423090E+01  0.51100000000E-03 0.  1.
         12    1    4    4    0    0  0.42586121832E+01  0.16239338268E+02  0.18970287385E+02  0.25332265761E+02  0.00000000000E+00 0. -1.
</event>
<event>
 8    1  0.2484572E-006  0.9118800E+02  0.7816164E-02  0.1184000E+00
        -11   -1    0    0    0    0  0.00000000000E+00  0.00000000000E+00  0.45593999997E+02  0.45594000000E+02  0.51100000000E-03 0. -1.
         11   -1    0    0    0    0 -0.00000000000E+00 -0.00000000000E+00 -0.45593999997E+02  0.45594000000E+02  0.51100000000E-03 0.  1.
         23    2    1    2    0    0  0.00000000000E+00 -0.66613381478E-15  0.00000000000E+00  0.91188000000E+02  0.91188000000E+02 0.  0.
    9900012    2    3    3    0    0 -0.48154973881E+01 -0.13987357620E+01 -0.36477860236E+02  0.54367085233E+02  0.40000002407E+02 0.  0.
         12    1    3    3    0    0  0.48154973881E+01  0.13987357620E+01  0.36477860236E+02  0.36820914767E+02  0.00000000000E+00 0. -1.
         11    1    4    4    0    0 -0.16881926443E+02  0.92301929487E+00 -0.19873749218E+02  0.26092476182E+02  0.51100000000E-03 0. -1.
        -11    1    4    4    0    0  0.16018375903E+01 -0.86227638227E+01 -0.15801395883E+01  0.89114971238E+01  0.51100000000E-03 0.  1.
         12    1    4    4    0    0  0.10464591465E+02  0.63010087658E+01 -0.15023971430E+02  0.19363111928E+02  0.00000000000E+00 0. -1.
</event>
<event>
 8    1  0.2484572E-006  0.9118800E+02  0.7816164E-02  0.1184000E+00
        -11   -1    0    0    0    0  0.00000000000E+00  0.00000000000E+00  0.45593999997E+02  0.45594000000E+02  0.51100000000E-03 0. -1.
         11   -1    0    0    0    0 -0.00000000000E+00 -0.00000000000E+00 -0.45593999997E+02  0.45594000000E+02  0.51100000000E-03 0.  1.
         23    2    1    2    0    0  0.11102230246E-14  0.44408920985E-15  0.00000000000E+00  0.91188000000E+02  0.91188000000E+02 0.  0.
    9900012    2    3    3    0    0  0.17156216257E+01 -0.22210278269E+01  0.36713855036E+02  0.54367034861E+02  0.39999887573E+02 0.  0.
        -12    1    3    3    0    0 -0.17156216257E+01  0.22210278269E+01 -0.36713855036E+02  0.36820965139E+02  0.00000000000E+00 0.  1.
         11    1    4    4    0    0  0.12024066233E+02 -0.15827273498E+02  0.12974854060E+02  0.23736629780E+02  0.51100000000E-03 0. -1.
        -11    1    4    4    0    0 -0.21974237835E+01  0.38579248062E+01  0.93463371893E+00  0.45371572095E+01  0.51100000000E-03 0.  1.
         12    1    4    4    0    0 -0.81110208243E+01  0.97483208654E+01  0.22804367257E+02  0.26093247872E+02  0.00000000000E+00 0. -1.
</event>
<event>
 8    1  0.2484572E-006  0.9118800E+02  0.7816164E-02  0.1184000E+00
        -11   -1    0    0    0    0  0.00000000000E+00  0.00000000000E+00  0.45593999997E+02  0.45594000000E+02  0.51100000000E-03 0. -1.
         11   -1    0    0    0    0 -0.00000000000E+00 -0.00000000000E+00 -0.45593999997E+02  0.45594000000E+02  0.51100000000E-03 0.  1.
         23    2    1    2    0    0  0.00000000000E+00  0.35527136788E-14 -0.35527136788E-14  0.91188000000E+02  0.91188000000E+02 0.  0.
    9900012    2    3    3    0    0 -0.14519842899E+02  0.29062629260E+02 -0.17329720156E+02  0.54367062234E+02  0.39999949974E+02 0.  0.
         12    1    3    3    0    0  0.14519842899E+02 -0.29062629260E+02  0.17329720156E+02  0.36820937766E+02  0.00000000000E+00 0. -1.
         11    1    4    4    0    0  0.20680773536E+01 -0.57168861985E+01  0.40308664809E+01  0.72943551186E+01  0.51100000000E-03 0. -1.
        -11    1    4    4    0    0 -0.11912998687E+01  0.60087919708E+01  0.25329548489E+01  0.66287734049E+01  0.51100000000E-03 0.  1.
        -12    1    4    4    0    0 -0.15396620384E+02  0.28770723488E+02 -0.23893541485E+02  0.40443933710E+02  0.00000000000E+00 0.  1.
</event>
<event>
 8    1  0.2484572E-006  0.9118800E+02  0.7816164E-02  0.1184000E+00
        -11   -1    0    0    0    0  0.00000000000E+00  0.00000000000E+00  0.45593999997E+02  0.45594000000E+02  0.51100000000E-03 0.  1.
         11   -1    0    0    0    0 -0.00000000000E+00 -0.00000000000E+00 -0.45593999997E+02  0.45594000000E+02  0.51100000000E-03 0. -1.
         23    2    1    2    0    0  0.88817841970E-15 -0.17763568394E-14  0.00000000000E+00  0.91188000000E+02  0.91188000000E+02 0.  0.
    9900012    2    3    3    0    0  0.52915903977E+01 -0.95379527047E+01 -0.35168268349E+02  0.54367074300E+02  0.39999977483E+02 0.  0.
        -12    1    3    3    0    0 -0.52915903977E+01  0.95379527047E+01  0.35168268349E+02  0.36820925700E+02  0.00000000000E+00 0.  1.
         11    1    4    4    0    0 -0.52412476004E+01  0.11533115752E+01 -0.17124806299E+02  0.17946024491E+02  0.51100000000E-03 0. -1.
        -11    1    4    4    0    0 -0.53955828001E+01 -0.14294628253E+02 -0.94803941951E+01  0.17981284298E+02  0.51100000000E-03 0.  1.
        -12    1    4    4    0    0  0.15928420798E+02  0.36033639728E+01 -0.85630678547E+01  0.18439765512E+02  0.00000000000E+00 0.  1.
</event>
<event>
 8    1  0.2484572E-006  0.9118800E+02  0.7816164E-02  0.1184000E+00
        -11   -1    0    0    0    0  0.00000000000E+00  0.00000000000E+00  0.45593999997E+02  0.45594000000E+02  0.51100000000E-03 0.  1.
         11   -1    0    0    0    0 -0.00000000000E+00 -0.00000000000E+00 -0.45593999997E+02  0.45594000000E+02  0.51100000000E-03 0. -1.
         23    2    1    2    0    0  0.35527136788E-14  0.17763568394E-14  0.00000000000E+00  0.91188000000E+02  0.91188000000E+02 0.  0.
    9900012    2    3    3    0    0 -0.20272099410E+02 -0.15242915879E+02  0.26692278226E+02  0.54367051942E+02  0.39999926513E+02 0.  0.
        -12    1    3    3    0    0  0.20272099410E+02  0.15242915879E+02 -0.26692278226E+02  0.36820948058E+02  0.00000000000E+00 0.  1.
         11    1    4    4    0    0 -0.12004262676E+01 -0.14195523672E+02  0.73761619945E+01  0.16042496115E+02  0.51100000000E-03 0. -1.
        -11    1    4    4    0    0  0.13292783892E+01 -0.97906059643E+01  0.17845152502E+01  0.10040290888E+02  0.51100000000E-03 0.  1.
        -12    1    4    4    0    0 -0.20400951531E+02  0.87432137580E+01  0.17531600981E+02  0.28284264940E+02  0.00000000000E+00 0.  1.
</event>
<event>
 8    1  0.2484572E-006  0.9118800E+02  0.7816164E-02  0.1184000E+00
        -11   -1    0    0    0    0  0.00000000000E+00  0.00000000000E+00  0.45593999997E+02  0.45594000000E+02  0.51100000000E-03 0. -1.
         11   -1    0    0    0    0 -0.00000000000E+00 -0.00000000000E+00 -0.45593999997E+02  0.45594000000E+02  0.51100000000E-03 0.  1.
         23    2    1    2    0    0 -0.17763568394E-14  0.00000000000E+00  0.00000000000E+00  0.91188000000E+02  0.91188000000E+02 0.  0.
    9900012    2    3    3    0    0 -0.15380110997E+02 -0.15394291211E+02 -0.29702558791E+02  0.54367163305E+02  0.40000180386E+02 0.  0.
         12    1    3    3    0    0  0.15380110997E+02  0.15394291211E+02  0.29702558791E+02  0.36820836695E+02  0.00000000000E+00 0. -1.
         11    1    4    4    0    0 -0.11929614218E+01 -0.89847255652E+01 -0.13608135683E+02  0.16350223468E+02  0.51100000000E-03 0. -1.
        -11    1    4    4    0    0 -0.50912164222E+01 -0.10183755431E+02 -0.23220263093E+02  0.25861360708E+02  0.51100000000E-03 0.  1.
         12    1    4    4    0    0 -0.90959331529E+01  0.37741897849E+01  0.71258399847E+01  0.12155579128E+02  0.00000000000E+00 0. -1.
</event>
<event>
 8    1  0.2484572E-006  0.9118800E+02  0.7816164E-02  0.1184000E+00
        -11   -1    0    0    0    0  0.00000000000E+00  0.00000000000E+00  0.45593999997E+02  0.45594000000E+02  0.51100000000E-03 0.  1.
         11   -1    0    0    0    0 -0.00000000000E+00 -0.00000000000E+00 -0.45593999997E+02  0.45594000000E+02  0.51100000000E-03 0. -1.
         23    2    1    2    0    0  0.00000000000E+00  0.00000000000E+00 -0.17763568394E-14  0.91188000000E+02  0.91188000000E+02 0.  0.
    9900012    2    3    3    0    0 -0.16913984571E+02  0.28543122663E+02  0.15968251294E+02  0.54367112249E+02  0.40000063993E+02 0.  0.
         12    1    3    3    0    0  0.16913984571E+02 -0.28543122663E+02 -0.15968251294E+02  0.36820887751E+02  0.00000000000E+00 0. -1.
         11    1    4    4    0    0 -0.43413815717E+01  0.44972435435E+01 -0.25541393516E+01  0.67525122383E+01  0.51100000000E-03 0. -1.
        -11    1    4    4    0    0  0.56311279267E+01 -0.56340415045E+01  0.78847826494E+01  0.11208114163E+02  0.51100000000E-03 0.  1.
        -12    1    4    4    0    0 -0.18203730926E+02  0.29679920624E+02  0.10637607996E+02  0.36406485847E+02  0.00000000000E+00 0.  1.
</event>
<event>
 8    1  0.2484572E-006  0.9118800E+02  0.7816164E-02  0.1184000E+00
        -11   -1    0    0    0    0  0.00000000000E+00  0.00000000000E+00  0.45593999997E+02  0.45594000000E+02  0.51100000000E-03 0. -1.
         11   -1    0    0    0    0 -0.00000000000E+00 -0.00000000000E+00 -0.45593999997E+02  0.45594000000E+02  0.51100000000E-03 0.  1.
         23    2    1    2    0    0 -0.35527136788E-14  0.00000000000E+00 -0.17763568394E-14  0.91188000000E+02  0.91188000000E+02 0.  0.
    9900012    2    3    3    0    0  0.18971139347E+02 -0.28438376093E+02  0.13679711364E+02  0.54367083853E+02  0.39999999260E+02 0.  0.
        -12    1    3    3    0    0 -0.18971139347E+02  0.28438376093E+02 -0.13679711364E+02  0.36820916147E+02  0.00000000000E+00 0.  1.
         11    1    4    4    0    0  0.10502311975E+02 -0.25806930674E+02  0.19371811466E+02  0.33934691797E+02  0.51100000000E-03 0. -1.
        -11    1    4    4    0    0  0.49192975229E+01 -0.81252091547E+01 -0.90155740720E+01  0.13095766035E+02  0.51100000000E-03 0.  1.
         12    1    4    4    0    0  0.35495298491E+01  0.54937637364E+01  0.33234739702E+01  0.73366260210E+01  0.00000000000E+00 0. -1.
</event>
<event>
 8    1  0.2484572E-006  0.9118800E+02  0.7816164E-02  0.1184000E+00
        -11   -1    0    0    0    0  0.00000000000E+00  0.00000000000E+00  0.45593999997E+02  0.45594000000E+02  0.51100000000E-03 0.  1.
         11   -1    0    0    0    0 -0.00000000000E+00 -0.00000000000E+00 -0.45593999997E+02  0.45594000000E+02  0.51100000000E-03 0. -1.
         23    2    1    2    0    0  0.00000000000E+00  0.35527136788E-14  0.00000000000E+00  0.91188000000E+02  0.91188000000E+02 0.  0.
    9900012    2    3    3    0    0  0.26574227358E+02  0.18965751843E+02 -0.17026159779E+02  0.54367089915E+02  0.40000013080E+02 0.  0.
        -12    1    3    3    0    0 -0.26574227358E+02 -0.18965751843E+02  0.17026159779E+02  0.36820910085E+02  0.00000000000E+00 0.  1.
         11    1    4    4    0    0  0.18830238735E+02  0.14646392912E+02 -0.14280855104E+02  0.27803552631E+02  0.51100000000E-03 0. -1.
        -11    1    4    4    0    0  0.90369280997E-02  0.24178027659E+01 -0.13200360409E+02  0.13419961516E+02  0.51100000000E-03 0.  1.
        -12    1    4    4    0    0  0.77349516956E+01  0.19015561642E+01  0.10455055735E+02  0.13143575769E+02  0.00000000000E+00 0.  1.
</event>
<event>
 8    1  0.2484572E-006  0.9118800E+02  0.7816164E-02  0.1184000E+00
        -11   -1    0    0    0    0  0.00000000000E+00  0.00000000000E+00  0.45593999997E+02  0.45594000000E+02  0.51100000000E-03 0.  1.
         11   -1    0    0    0    0 -0.00000000000E+00 -0.00000000000E+00 -0.45593999997E+02  0.45594000000E+02  0.51100000000E-03 0. -1.
         23    2    1    2    0    0  0.00000000000E+00  0.00000000000E+00  0.00000000000E+00  0.91188000000E+02  0.91188000000E+02 0.  0.
    9900012    2    3    3    0    0 -0.22782368639E+02 -0.24598100809E+02 -0.15220928333E+02  0.54367088231E+02  0.40000009240E+02 0.  0.
        -12    1    3    3    0    0  0.22782368639E+02  0.24598100809E+02  0.15220928333E+02  0.36820911769E+02  0.00000000000E+00 0.  1.
         11    1    4    4    0    0 -0.39193419096E+01 -0.28548394544E+02 -0.12962393294E+02  0.31597400403E+02  0.51100000000E-03 0. -1.
        -11    1    4    4    0    0 -0.12855006093E+02  0.53356973609E+01 -0.64234536680E+01  0.15329109735E+02  0.51100000000E-03 0.  1.
         12    1    4    4    0    0 -0.60080206366E+01 -0.13854036252E+01  0.41649186292E+01  0.74405780933E+01  0.00000000000E+00 0. -1.
</event>
<event>
 8    1  0.2484572E-006  0.9118800E+02  0.7816164E-02  0.1184000E+00
        -11   -1    0    0    0    0  0.00000000000E+00  0.00000000000E+00  0.45593999997E+02  0.45594000000E+02  0.51100000000E-03 0.  1.
         11   -1    0    0    0    0 -0.00000000000E+00 -0.00000000000E+00 -0.45593999997E+02  0.45594000000E+02  0.51100000000E-03 0. -1.
         23    2    1    2    0    0  0.00000000000E+00  0.35527136788E-14  0.00000000000E+00  0.91188000000E+02  0.91188000000E+02 0.  0.
    9900012    2    3    3    0    0  0.28611482287E+02  0.21101452334E+02 -0.95860090375E+01  0.54367085039E+02  0.40000001963E+02 0.  0.
        -12    1    3    3    0    0 -0.28611482287E+02 -0.21101452334E+02  0.95860090375E+01  0.36820914961E+02  0.00000000000E+00 0.  1.
         11    1    4    4    0    0  0.10259295953E+02  0.45574960872E+01 -0.15124556470E+02  0.18835501923E+02  0.51100000000E-03 0. -1.
        -11    1    4    4    0    0  0.17324721656E+02  0.22006087008E+02  0.84538802835E+01  0.29255459969E+02  0.51100000000E-03 0.  1.
        -12    1    4    4    0    0  0.10274646783E+01 -0.54621307613E+01 -0.29153328513E+01  0.62761231467E+01  0.00000000000E+00 0.  1.
</event>
<event>
 8    1  0.2484572E-006  0.9118800E+02  0.7816164E-02  0.1184000E+00
        -11   -1    0    0    0    0  0.00000000000E+00  0.00000000000E+00  0.45593999997E+02  0.45594000000E+02  0.51100000000E-03 0.  1.
         11   -1    0    0    0    0 -0.00000000000E+00 -0.00000000000E+00 -0.45593999997E+02  0.45594000000E+02  0.51100000000E-03 0. -1.
         23    2    1    2    0    0  0.35527136788E-14  0.00000000000E+00  0.17763568394E-14  0.91188000000E+02  0.91188000000E+02 0.  0.
    9900012    2    3    3    0    0 -0.12892122554E+02  0.30592977234E+02 -0.15926147627E+02  0.54367092105E+02  0.40000018072E+02 0.  0.
         12    1    3    3    0    0  0.12892122554E+02 -0.30592977234E+02  0.15926147627E+02  0.36820907895E+02  0.00000000000E+00 0. -1.
         11    1    4    4    0    0  0.20483791087E+01  0.61212134149E+01  0.11175650385E+02  0.12905823199E+02  0.51100000000E-03 0. -1.
        -11    1    4    4    0    0 -0.11847148025E+01  0.14095034892E+02 -0.12000874928E+02  0.18549785903E+02  0.51100000000E-03 0.  1.
        -12    1    4    4    0    0 -0.13755786860E+02  0.10376728927E+02 -0.15100923085E+02  0.22911483003E+02  0.00000000000E+00 0.  1.
</event>
<event>
 8    1  0.2484572E-006  0.9118800E+02  0.7816164E-02  0.1184000E+00
        -11   -1    0    0    0    0  0.00000000000E+00  0.00000000000E+00  0.45593999997E+02  0.45594000000E+02  0.51100000000E-03 0. -1.
         11   -1    0    0    0    0 -0.00000000000E+00 -0.00000000000E+00 -0.45593999997E+02  0.45594000000E+02  0.51100000000E-03 0.  1.
         23    2    1    2    0    0  0.00000000000E+00  0.00000000000E+00  0.00000000000E+00  0.91188000000E+02  0.91188000000E+02 0.  0.
    9900012    2    3    3    0    0  0.12230706540E+02  0.53875632411E+01  0.34309848531E+02  0.54367058590E+02  0.39999941667E+02 0.  0.
        -12    1    3    3    0    0 -0.12230706540E+02 -0.53875632411E+01 -0.34309848531E+02  0.36820941410E+02  0.00000000000E+00 0.  1.
         11    1    4    4    0    0  0.84824694252E+00 -0.40833952179E+01  0.17069419951E+02  0.17571532008E+02  0.51100000000E-03 0. -1.
        -11    1    4    4    0    0 -0.69256465981E+00  0.10482447852E+02  0.21517903161E+02  0.23945386100E+02  0.51100000000E-03 0.  1.
         12    1    4    4    0    0  0.12075024257E+02 -0.10114893932E+01 -0.42774745814E+01  0.12850140481E+02  0.00000000000E+00 0. -1.
</event>
<event>
 8    1  0.2484572E-006  0.9118800E+02  0.7816164E-02  0.1184000E+00
        -11   -1    0    0    0    0  0.00000000000E+00  0.00000000000E+00  0.45593999997E+02  0.45594000000E+02  0.51100000000E-03 0.  1.
         11   -1    0    0    0    0 -0.00000000000E+00 -0.00000000000E+00 -0.45593999997E+02  0.45594000000E+02  0.51100000000E-03 0. -1.
         23    2    1    2    0    0  0.17763568394E-14  0.00000000000E+00  0.00000000000E+00  0.91188000000E+02  0.91188000000E+02 0.  0.
    9900012    2    3    3    0    0 -0.87433522996E+01  0.35395653467E+02  0.51460569494E+01  0.54367076656E+02  0.39999982852E+02 0.  0.
         12    1    3    3    0    0  0.87433522996E+01 -0.35395653467E+02 -0.51460569494E+01  0.36820923344E+02  0.00000000000E+00 0. -1.
         11    1    4    4    0    0 -0.43536757796E+01  0.80610324663E+00 -0.84271472710E+01  0.95195118902E+01  0.51100000000E-03 0. -1.
        -11    1    4    4    0    0  0.87203209385E+01  0.16069779760E+02  0.12468705717E+02  0.22130305947E+02  0.51100000000E-03 0.  1.
        -12    1    4    4    0    0 -0.13109997458E+02  0.18519770460E+02  0.11044985032E+01  0.22717258818E+02  0.00000000000E+00 0.  1.
</event>
<event>
 8    1  0.2484572E-006  0.9118800E+02  0.7816164E-02  0.1184000E+00
        -11   -1    0    0    0    0  0.00000000000E+00  0.00000000000E+00  0.45593999997E+02  0.45594000000E+02  0.51100000000E-03 0. -1.
         11   -1    0    0    0    0 -0.00000000000E+00 -0.00000000000E+00 -0.45593999997E+02  0.45594000000E+02  0.51100000000E-03 0.  1.
         23    2    1    2    0    0  0.35527136788E-14 -0.55511151231E-16  0.00000000000E+00  0.91188000000E+02  0.91188000000E+02 0.  0.
    9900012    2    3    3    0    0 -0.30526410931E+02  0.46386797501E+00 -0.20584049466E+02  0.54367081622E+02  0.39999994173E+02 0.  0.
         12    1    3    3    0    0  0.30526410931E+02 -0.46386797501E+00  0.20584049466E+02  0.36820918378E+02  0.00000000000E+00 0. -1.
         11    1    4    4    0    0 -0.15666352564E+02 -0.71364632597E+01  0.13233784034E+01  0.17266008258E+02  0.51100000000E-03 0. -1.
        -11    1    4    4    0    0 -0.18523367796E+00 -0.82657394031E+01 -0.50089387364E+01  0.96667588633E+01  0.51100000000E-03 0.  1.
         12    1    4    4    0    0 -0.14674824689E+02  0.15866070638E+02 -0.16898489133E+02  0.27434314500E+02  0.00000000000E+00 0. -1.
</event>
<event>
 8    1  0.2484572E-006  0.9118800E+02  0.7816164E-02  0.1184000E+00
        -11   -1    0    0    0    0  0.00000000000E+00  0.00000000000E+00  0.45593999997E+02  0.45594000000E+02  0.51100000000E-03 0. -1.
         11   -1    0    0    0    0 -0.00000000000E+00 -0.00000000000E+00 -0.45593999997E+02  0.45594000000E+02  0.51100000000E-03 0.  1.
         23    2    1    2    0    0  0.17763568394E-14  0.00000000000E+00  0.00000000000E+00  0.91188000000E+02  0.91188000000E+02 0.  0.
    9900012    2    3    3    0    0 -0.51911425977E+01  0.35991776343E+02  0.57813142918E+01  0.54367088540E+02  0.40000009946E+02 0.  0.
         12    1    3    3    0    0  0.51911425977E+01 -0.35991776343E+02 -0.57813142918E+01  0.36820911460E+02  0.00000000000E+00 0. -1.
         11    1    4    4    0    0 -0.74315015784E+01 -0.32736908919E+01  0.34420087753E+00  0.81278990071E+01  0.51100000000E-03 0. -1.
        -11    1    4    4    0    0  0.12633415703E+02  0.26895744902E+02  0.25205687703E+01  0.29821763083E+02  0.51100000000E-03 0.  1.
         12    1    4    4    0    0 -0.10393056722E+02  0.12369722332E+02  0.29165446440E+01  0.16417426451E+02  0.00000000000E+00 0. -1.
</event>
<event>
 8    1  0.2484572E-006  0.9118800E+02  0.7816164E-02  0.1184000E+00
        -11   -1    0    0    0    0  0.00000000000E+00  0.00000000000E+00  0.45593999997E+02  0.45594000000E+02  0.51100000000E-03 0.  1.
         11   -1    0    0    0    0 -0.00000000000E+00 -0.00000000000E+00 -0.45593999997E+02  0.45594000000E+02  0.51100000000E-03 0. -1.
         23    2    1    2    0    0  0.00000000000E+00 -0.88817841970E-15  0.00000000000E+00  0.91188000000E+02  0.91188000000E+02 0.  0.
    9900012    2    3    3    0    0 -0.31077129954E+02  0.30664080316E+01  0.19508686273E+02  0.54367086045E+02  0.40000004256E+02 0.  0.
         12    1    3    3    0    0  0.31077129954E+02 -0.30664080316E+01 -0.19508686273E+02  0.36820913955E+02  0.00000000000E+00 0. -1.
         11    1    4    4    0    0 -0.13313825151E+02  0.35772901374E+00  0.13059836757E+02  0.18653290503E+02  0.51100000000E-03 0. -1.
        -11    1    4    4    0    0 -0.46346410820E+01 -0.13421438513E+02  0.11136297533E+01  0.14242720288E+02  0.51100000000E-03 0.  1.
         12    1    4    4    0    0 -0.13128663721E+02  0.16130117531E+02  0.53352197629E+01  0.21471075254E+02  0.00000000000E+00 0. -1.
</event>
<event>
 8    1  0.2484572E-006  0.9118800E+02  0.7816164E-02  0.1184000E+00
        -11   -1    0    0    0    0  0.00000000000E+00  0.00000000000E+00  0.45593999997E+02  0.45594000000E+02  0.51100000000E-03 0.  1.
         11   -1    0    0    0    0 -0.00000000000E+00 -0.00000000000E+00 -0.45593999997E+02  0.45594000000E+02  0.51100000000E-03 0. -1.
         23    2    1    2    0    0  0.17763568394E-14  0.00000000000E+00  0.00000000000E+00  0.91188000000E+02  0.91188000000E+02 0.  0.
    9900012    2    3    3    0    0  0.13216497978E+02  0.30286182171E+02  0.16243431232E+02  0.54367113162E+02  0.40000066076E+02 0.  0.
         12    1    3    3    0    0 -0.13216497978E+02 -0.30286182171E+02 -0.16243431232E+02  0.36820886838E+02  0.00000000000E+00 0. -1.
         11    1    4    4    0    0  0.52615846253E+00  0.60929689827E+01  0.18770137885E+02  0.19741306700E+02  0.51100000000E-03 0.  1.
        -11    1    4    4    0    0  0.98542610090E+00  0.18534537150E+02 -0.83838395640E+01  0.20366366835E+02  0.51100000000E-03 0. -1.
         12    1    4    4    0    0  0.11704913414E+02  0.56586760388E+01  0.58571329115E+01  0.14259439628E+02  0.00000000000E+00 0. -1.
</event>
<event>
 8    1  0.2484572E-006  0.9118800E+02  0.7816164E-02  0.1184000E+00
        -11   -1    0    0    0    0  0.00000000000E+00  0.00000000000E+00  0.45593999997E+02  0.45594000000E+02  0.51100000000E-03 0.  1.
         11   -1    0    0    0    0 -0.00000000000E+00 -0.00000000000E+00 -0.45593999997E+02  0.45594000000E+02  0.51100000000E-03 0. -1.
         23    2    1    2    0    0  0.00000000000E+00  0.00000000000E+00 -0.35527136788E-14  0.91188000000E+02  0.91188000000E+02 0.  0.
    9900012    2    3    3    0    0 -0.24370151355E+02  0.26948765081E+01  0.27469950985E+02  0.54367287846E+02  0.40000464299E+02 0.  0.
         12    1    3    3    0    0  0.24370151355E+02 -0.26948765081E+01 -0.27469950985E+02  0.36820712154E+02  0.00000000000E+00 0. -1.
         11    1    4    4    0    0 -0.17488031949E+02 -0.81347240733E+01 -0.15251727975E+01  0.19347639379E+02  0.51100000000E-03 0. -1.
        -11    1    4    4    0    0 -0.58920484187E+01  0.30175676297E+01  0.20237279691E+01  0.69222412644E+01  0.51100000000E-03 0.  1.
         12    1    4    4    0    0 -0.99007098672E+00  0.78120329517E+01  0.26971395813E+02  0.28097407203E+02  0.00000000000E+00 0. -1.
</event>
<event>
 8    1  0.2484572E-006  0.9118800E+02  0.7816164E-02  0.1184000E+00
        -11   -1    0    0    0    0  0.00000000000E+00  0.00000000000E+00  0.45593999997E+02  0.45594000000E+02  0.51100000000E-03 0.  1.
         11   -1    0    0    0    0 -0.00000000000E+00 -0.00000000000E+00 -0.45593999997E+02  0.45594000000E+02  0.51100000000E-03 0. -1.
         23    2    1    2    0    0  0.00000000000E+00  0.00000000000E+00  0.00000000000E+00  0.91188000000E+02  0.91188000000E+02 0.  0.
    9900012    2    3    3    0    0  0.23019989421E+02  0.92317458522E+01 -0.27214592688E+02  0.54367094259E+02  0.40000022983E+02 0.  0.
        -12    1    3    3    0    0 -0.23019989421E+02 -0.92317458522E+01  0.27214592688E+02  0.36820905741E+02  0.00000000000E+00 0.  1.
         11    1    4    4    0    0  0.28250060029E+01  0.11505933070E+02 -0.25651556727E+01  0.12122177140E+02  0.51100000000E-03 0. -1.
        -11    1    4    4    0    0  0.20867164655E+02  0.12192832117E+01 -0.29546011106E+02  0.36192429938E+02  0.51100000000E-03 0.  1.
        -12    1    4    4    0    0 -0.67218123682E+00 -0.34934704293E+01  0.48965740910E+01  0.60524871817E+01  0.00000000000E+00 0.  1.
</event>
<event>
 8    1  0.2484572E-006  0.9118800E+02  0.7816164E-02  0.1184000E+00
        -11   -1    0    0    0    0  0.00000000000E+00  0.00000000000E+00  0.45593999997E+02  0.45594000000E+02  0.51100000000E-03 0. -1.
         11   -1    0    0    0    0 -0.00000000000E+00 -0.00000000000E+00 -0.45593999997E+02  0.45594000000E+02  0.51100000000E-03 0.  1.
         23    2    1    2    0    0  0.00000000000E+00 -0.17763568394E-14  0.00000000000E+00  0.91188000000E+02  0.91188000000E+02 0.  0.
    9900012    2    3    3    0    0  0.34531435874E+02 -0.42623379966E+01  0.12049615100E+02  0.54367070995E+02  0.39999969948E+02 0.  0.
        -12    1    3    3    0    0 -0.34531435874E+02  0.42623379966E+01 -0.12049615100E+02  0.36820929005E+02  0.00000000000E+00 0.  1.
         11    1    4    4    0    0  0.12377861479E+01  0.37021896828E+01  0.23158784362E+01  0.45389003280E+01  0.51100000000E-03 0. -1.
        -11    1    4    4    0    0  0.16599111510E+02 -0.14431392484E+02  0.19534724872E+02  0.29417699911E+02  0.51100000000E-03 0.  1.
        -12    1    4    4    0    0  0.16694538216E+02  0.64668648047E+01 -0.98009882079E+01  0.20410470757E+02  0.00000000000E+00 0.  1.
</event>
<event>
 8    1  0.2484572E-006  0.9118800E+02  0.7816164E-02  0.1184000E+00
        -11   -1    0    0    0    0  0.00000000000E+00  0.00000000000E+00  0.45593999997E+02  0.45594000000E+02  0.51100000000E-03 0.  1.
         11   -1    0    0    0    0 -0.00000000000E+00 -0.00000000000E+00 -0.45593999997E+02  0.45594000000E+02  0.51100000000E-03 0. -1.
         23    2    1    2    0    0  0.00000000000E+00  0.88817841970E-15  0.00000000000E+00  0.91188000000E+02  0.91188000000E+02 0.  0.
    9900012    2    3    3    0    0 -0.34561437625E+02 -0.57046935959E+00 -0.12687106843E+02  0.54367067284E+02  0.39999961488E+02 0.  0.
        -12    1    3    3    0    0  0.34561437625E+02  0.57046935959E+00  0.12687106843E+02  0.36820932716E+02  0.00000000000E+00 0.  1.
         11    1    4    4    0    0 -0.23058480739E+02  0.16767205784E+02 -0.11207271692E+02  0.30633897285E+02  0.51100000000E-03 0. -1.
        -11    1    4    4    0    0 -0.57963293868E+00 -0.35829399518E+01  0.39346827849E+01  0.53530516457E+01  0.51100000000E-03 0.  1.
         12    1    4    4    0    0 -0.10923323947E+02 -0.13754735192E+02 -0.54145179356E+01  0.18380118354E+02  0.00000000000E+00 0. -1.
</event>
<event>
 8    1  0.2484572E-006  0.9118800E+02  0.7816164E-02  0.1184000E+00
        -11   -1    0    0    0    0  0.00000000000E+00  0.00000000000E+00  0.45593999997E+02  0.45594000000E+02  0.51100000000E-03 0. -1.
         11   -1    0    0    0    0 -0.00000000000E+00 -0.00000000000E+00 -0.45593999997E+02  0.45594000000E+02  0.51100000000E-03 0.  1.
         23    2    1    2    0    0  0.35527136788E-14  0.71054273576E-14  0.00000000000E+00  0.91188000000E+02  0.91188000000E+02 0.  0.
    9900012    2    3    3    0    0 -0.16472345022E+02  0.30536402151E+02  0.12327645124E+02  0.54367070610E+02  0.39999969069E+02 0.  0.
        -12    1    3    3    0    0  0.16472345022E+02 -0.30536402151E+02 -0.12327645124E+02  0.36820929390E+02  0.00000000000E+00 0.  1.
         11    1    4    4    0    0 -0.87061810598E+01  0.39422388194E+01  0.11060439821E+01  0.96209235059E+01  0.51100000000E-03 0. -1.
        -11    1    4    4    0    0 -0.18857405628E+02  0.24701733766E+02  0.12343993654E+02  0.33438773567E+02  0.51100000000E-03 0.  1.
         12    1    4    4    0    0  0.11091241666E+02  0.18924295654E+01 -0.11223925122E+01  0.11307373537E+02  0.00000000000E+00 0. -1.
</event>
<event>
 8    1  0.2484572E-006  0.9118800E+02  0.7816164E-02  0.1184000E+00
        -11   -1    0    0    0    0  0.00000000000E+00  0.00000000000E+00  0.45593999997E+02  0.45594000000E+02  0.51100000000E-03 0. -1.
         11   -1    0    0    0    0 -0.00000000000E+00 -0.00000000000E+00 -0.45593999997E+02  0.45594000000E+02  0.51100000000E-03 0.  1.
         23    2    1    2    0    0 -0.71054273576E-14  0.00000000000E+00 -0.17763568394E-14  0.91188000000E+02  0.91188000000E+02 0.  0.
    9900012    2    3    3    0    0  0.34746250835E+02  0.85657407336E+01 -0.86663598145E+01  0.54367086732E+02  0.40000005823E+02 0.  0.
         12    1    3    3    0    0 -0.34746250835E+02 -0.85657407336E+01  0.86663598145E+01  0.36820913268E+02  0.00000000000E+00 0. -1.
         11    1    4    4    0    0  0.14896767862E+02  0.10265209863E+02 -0.22028009889E+02  0.28504761816E+02  0.51100000000E-03 0. -1.
        -11    1    4    4    0    0  0.52285964629E+01  0.16454968729E+01 -0.41458163002E+00  0.54970682295E+01  0.51100000000E-03 0.  1.
         12    1    4    4    0    0  0.14620886511E+02 -0.33449660023E+01  0.13776231705E+02  0.20365256686E+02  0.00000000000E+00 0. -1.
</event>
<event>
 8    1  0.2484572E-006  0.9118800E+02  0.7816164E-02  0.1184000E+00
        -11   -1    0    0    0    0  0.00000000000E+00  0.00000000000E+00  0.45593999997E+02  0.45594000000E+02  0.51100000000E-03 0.  1.
         11   -1    0    0    0    0 -0.00000000000E+00 -0.00000000000E+00 -0.45593999997E+02  0.45594000000E+02  0.51100000000E-03 0. -1.
         23    2    1    2    0    0  0.35527136788E-14  0.00000000000E+00 -0.35527136788E-14  0.91188000000E+02  0.91188000000E+02 0.  0.
    9900012    2    3    3    0    0  0.21217268182E+02 -0.17840506919E+02 -0.24234755819E+02  0.54367088199E+02  0.40000009167E+02 0.  0.
        -12    1    3    3    0    0 -0.21217268182E+02  0.17840506919E+02  0.24234755819E+02  0.36820911801E+02  0.00000000000E+00 0.  1.
         11    1    4    4    0    0  0.37287089455E+00 -0.35852604530E+01  0.54643555588E+01  0.65461673638E+01  0.51100000000E-03 0. -1.
        -11    1    4    4    0    0 -0.38036194805E+01 -0.96794204652E+01 -0.22381783735E+01  0.10638051719E+02  0.51100000000E-03 0.  1.
         12    1    4    4    0    0  0.24648016768E+02 -0.45758260012E+01 -0.27460933004E+02  0.37182869116E+02  0.00000000000E+00 0. -1.
</event>
<event>
 8    1  0.2484572E-006  0.9118800E+02  0.7816164E-02  0.1184000E+00
        -11   -1    0    0    0    0  0.00000000000E+00  0.00000000000E+00  0.45593999997E+02  0.45594000000E+02  0.51100000000E-03 0.  1.
         11   -1    0    0    0    0 -0.00000000000E+00 -0.00000000000E+00 -0.45593999997E+02  0.45594000000E+02  0.51100000000E-03 0. -1.
         23    2    1    2    0    0  0.00000000000E+00  0.71054273576E-14  0.00000000000E+00  0.91188000000E+02  0.91188000000E+02 0.  0.
    9900012    2    3    3    0    0 -0.90396203216E+01 -0.34817401982E+02 -0.78621996521E+01  0.54367076604E+02  0.39999982735E+02 0.  0.
         12    1    3    3    0    0  0.90396203216E+01  0.34817401982E+02  0.78621996521E+01  0.36820923396E+02  0.00000000000E+00 0. -1.
         11    1    4    4    0    0 -0.26775753541E+01 -0.71132856659E+01 -0.18598109371E+02  0.20091239762E+02  0.51100000000E-03 0. -1.
        -11    1    4    4    0    0 -0.82393321783E+00 -0.22752833398E+02  0.20700190462E+01  0.22861655074E+02  0.51100000000E-03 0.  1.
        -12    1    4    4    0    0 -0.55381117497E+01 -0.49512829178E+01  0.86658906730E+01  0.11414181768E+02  0.00000000000E+00 0.  1.
</event>
<event>
 8    1  0.2484572E-006  0.9118800E+02  0.7816164E-02  0.1184000E+00
        -11   -1    0    0    0    0  0.00000000000E+00  0.00000000000E+00  0.45593999997E+02  0.45594000000E+02  0.51100000000E-03 0.  1.
         11   -1    0    0    0    0 -0.00000000000E+00 -0.00000000000E+00 -0.45593999997E+02  0.45594000000E+02  0.51100000000E-03 0. -1.
         23    2    1    2    0    0  0.88817841970E-15  0.00000000000E+00  0.00000000000E+00  0.91188000000E+02  0.91188000000E+02 0.  0.
    9900012    2    3    3    0    0  0.21493403629E+01  0.87919703948E+01 -0.35691187225E+02  0.54367092176E+02  0.40000018235E+02 0.  0.
        -12    1    3    3    0    0 -0.21493403629E+01 -0.87919703948E+01  0.35691187225E+02  0.36820907824E+02  0.00000000000E+00 0.  1.
         11    1    4    4    0    0 -0.60856373019E+01 -0.90449996234E+01 -0.14654494751E+02  0.18264753385E+02  0.51100000000E-03 0. -1.
        -11    1    4    4    0    0 -0.23880935932E+01 -0.14116548797E+00  0.32736741772E+01  0.40546099177E+01  0.51100000000E-03 0.  1.
         12    1    4    4    0    0  0.10623071258E+02  0.17978135506E+02 -0.24310366651E+02  0.32047728874E+02  0.00000000000E+00 0. -1.
</event>
<event>
 8    1  0.2484572E-006  0.9118800E+02  0.7816164E-02  0.1184000E+00
        -11   -1    0    0    0    0  0.00000000000E+00  0.00000000000E+00  0.45593999997E+02  0.45594000000E+02  0.51100000000E-03 0. -1.
         11   -1    0    0    0    0 -0.00000000000E+00 -0.00000000000E+00 -0.45593999997E+02  0.45594000000E+02  0.51100000000E-03 0.  1.
         23    2    1    2    0    0 -0.35527136788E-14 -0.35527136788E-14 -0.17763568394E-14  0.91188000000E+02  0.91188000000E+02 0.  0.
    9900012    2    3    3    0    0 -0.19511832618E+02 -0.29604841185E+02 -0.99308233561E+01  0.54367089009E+02  0.40000011014E+02 0.  0.
         12    1    3    3    0    0  0.19511832618E+02  0.29604841185E+02  0.99308233561E+01  0.36820910991E+02  0.00000000000E+00 0. -1.
         11    1    4    4    0    0  0.35943562979E+01 -0.22876499779E+00 -0.19986804301E+01  0.41190356084E+01  0.51100000000E-03 0. -1.
        -11    1    4    4    0    0 -0.33980110349E+01 -0.28063600525E+02 -0.10855122968E+02  0.30281113724E+02  0.51100000000E-03 0.  1.
         12    1    4    4    0    0 -0.19708177881E+02 -0.13124756619E+01  0.29229800420E+01  0.19966939677E+02  0.00000000000E+00 0. -1.
</event>
<event>
 8    1  0.2484572E-006  0.9118800E+02  0.7816164E-02  0.1184000E+00
        -11   -1    0    0    0    0  0.00000000000E+00  0.00000000000E+00  0.45593999997E+02  0.45594000000E+02  0.51100000000E-03 0.  1.
         11   -1    0    0    0    0 -0.00000000000E+00 -0.00000000000E+00 -0.45593999997E+02  0.45594000000E+02  0.51100000000E-03 0. -1.
         23    2    1    2    0    0  0.00000000000E+00 -0.35527136788E-14  0.35527136788E-14  0.91188000000E+02  0.91188000000E+02 0.  0.
    9900012    2    3    3    0    0  0.29715408337E+02 -0.17586268279E+02  0.12786651804E+02  0.54367071319E+02  0.39999970685E+02 0.  0.
        -12    1    3    3    0    0 -0.29715408337E+02  0.17586268279E+02 -0.12786651804E+02  0.36820928681E+02  0.00000000000E+00 0.  1.
         11    1    4    4    0    0  0.18938466066E+02 -0.68993023250E+00 -0.50778331173E+01  0.19619528284E+02  0.51100000000E-03 0. -1.
        -11    1    4    4    0    0  0.12683677268E+01 -0.28935722108E+01  0.17535999329E+02  0.17818327350E+02  0.51100000000E-03 0.  1.
         12    1    4    4    0    0  0.95085745441E+01 -0.14002765836E+02  0.32848559205E+00  0.16929215684E+02  0.00000000000E+00 0. -1.
</event>
<event>
 8    1  0.2484572E-006  0.9118800E+02  0.7816164E-02  0.1184000E+00
        -11   -1    0    0    0    0  0.00000000000E+00  0.00000000000E+00  0.45593999997E+02  0.45594000000E+02  0.51100000000E-03 0. -1.
         11   -1    0    0    0    0 -0.00000000000E+00 -0.00000000000E+00 -0.45593999997E+02  0.45594000000E+02  0.51100000000E-03 0.  1.
         23    2    1    2    0    0 -0.35527136788E-14  0.17763568394E-14  0.35527136788E-14  0.91188000000E+02  0.91188000000E+02 0.  0.
    9900012    2    3    3    0    0 -0.26390526331E+02  0.15393703878E+02  0.20551241258E+02  0.54367088600E+02  0.40000010081E+02 0.  0.
         12    1    3    3    0    0  0.26390526331E+02 -0.15393703878E+02 -0.20551241258E+02  0.36820911400E+02  0.00000000000E+00 0. -1.
         11    1    4    4    0    0 -0.17126538115E+02 -0.10367648404E+02  0.50363907483E+01  0.20643925820E+02  0.51100000000E-03 0. -1.
        -11    1    4    4    0    0 -0.13517333382E+01  0.19132237690E+02  0.72670665811E+01  0.20510484124E+02  0.51100000000E-03 0.  1.
         12    1    4    4    0    0 -0.79122548784E+01  0.66291145916E+01  0.82477839283E+01  0.13212678656E+02  0.00000000000E+00 0. -1.
</event>
<event>
 8    1  0.2484572E-006  0.9118800E+02  0.7816164E-02  0.1184000E+00
        -11   -1    0    0    0    0  0.00000000000E+00  0.00000000000E+00  0.45593999997E+02  0.45594000000E+02  0.51100000000E-03 0.  1.
         11   -1    0    0    0    0 -0.00000000000E+00 -0.00000000000E+00 -0.45593999997E+02  0.45594000000E+02  0.51100000000E-03 0. -1.
         23    2    1    2    0    0  0.00000000000E+00  0.13322676296E-14  0.00000000000E+00  0.91188000000E+02  0.91188000000E+02 0.  0.
    9900012    2    3    3    0    0  0.33697534092E+02  0.15593542369E+01 -0.14758903771E+02  0.54367073477E+02  0.39999975605E+02 0.  0.
        -12    1    3    3    0    0 -0.33697534092E+02 -0.15593542369E+01  0.14758903771E+02  0.36820926523E+02  0.00000000000E+00 0.  1.
         11    1    4    4    0    0  0.26200128723E+01  0.19004794536E+01  0.94638483201E+00  0.33722298433E+01  0.51100000000E-03 0. -1.
        -11    1    4    4    0    0  0.12655207593E+02 -0.12850089469E+02 -0.21423661807E+02  0.28004506139E+02  0.51100000000E-03 0.  1.
        -12    1    4    4    0    0  0.18422313626E+02  0.12508964252E+02  0.57183732040E+01  0.22990337494E+02  0.00000000000E+00 0.  1.
</event>
<event>
 8    1  0.2484572E-006  0.9118800E+02  0.7816164E-02  0.1184000E+00
        -11   -1    0    0    0    0  0.00000000000E+00  0.00000000000E+00  0.45593999997E+02  0.45594000000E+02  0.51100000000E-03 0. -1.
         11   -1    0    0    0    0 -0.00000000000E+00 -0.00000000000E+00 -0.45593999997E+02  0.45594000000E+02  0.51100000000E-03 0.  1.
         23    2    1    2    0    0  0.71054273576E-14  0.00000000000E+00  0.00000000000E+00  0.91188000000E+02  0.91188000000E+02 0.  0.
    9900012    2    3    3    0    0  0.19950414547E+02 -0.29741981588E+02 -0.85542511645E+01  0.54367085802E+02  0.40000003703E+02 0.  0.
         12    1    3    3    0    0 -0.19950414547E+02  0.29741981588E+02  0.85542511645E+01  0.36820914198E+02  0.00000000000E+00 0. -1.
         11    1    4    4    0    0  0.17916786380E+02 -0.31380887530E+02  0.65530028978E+01  0.36724830613E+02  0.51100000000E-03 0. -1.
        -11    1    4    4    0    0  0.13670135498E+01 -0.31322028846E+01 -0.27744146850E+01  0.44019084567E+01  0.51100000000E-03 0.  1.
        -12    1    4    4    0    0  0.66661461667E+00  0.47711088260E+01 -0.12332839377E+02  0.13240346732E+02  0.00000000000E+00 0.  1.
</event>
<event>
 8    1  0.2484572E-006  0.9118800E+02  0.7816164E-02  0.1184000E+00
        -11   -1    0    0    0    0  0.00000000000E+00  0.00000000000E+00  0.45593999997E+02  0.45594000000E+02  0.51100000000E-03 0.  1.
         11   -1    0    0    0    0 -0.00000000000E+00 -0.00000000000E+00 -0.45593999997E+02  0.45594000000E+02  0.51100000000E-03 0. -1.
         23    2    1    2    0    0  0.00000000000E+00 -0.17763568394E-14 -0.35527136788E-14  0.91188000000E+02  0.91188000000E+02 0.  0.
    9900012    2    3    3    0    0  0.34193726112E+02  0.11342927939E+02  0.76095858527E+01  0.54367099461E+02  0.40000034841E+02 0.  0.
         12    1    3    3    0    0 -0.34193726112E+02 -0.11342927939E+02 -0.76095858527E+01  0.36820900539E+02  0.00000000000E+00 0. -1.
         11    1    4    4    0    0  0.10766134450E+02  0.12875291007E+02  0.20195111487E+02  0.26258813715E+02  0.51100000000E-03 0. -1.
        -11    1    4    4    0    0  0.49843674483E+01 -0.41290619449E+01 -0.39092321669E+01  0.75614263073E+01  0.51100000000E-03 0.  1.
         12    1    4    4    0    0  0.18443224214E+02  0.25966988767E+01 -0.86762934670E+01  0.20546859439E+02  0.00000000000E+00 0. -1.
</event>
<event>
 8    1  0.2484572E-006  0.9118800E+02  0.7816164E-02  0.1184000E+00
        -11   -1    0    0    0    0  0.00000000000E+00  0.00000000000E+00  0.45593999997E+02  0.45594000000E+02  0.51100000000E-03 0.  1.
         11   -1    0    0    0    0 -0.00000000000E+00 -0.00000000000E+00 -0.45593999997E+02  0.45594000000E+02  0.51100000000E-03 0. -1.
         23    2    1    2    0    0  0.88817841970E-15 -0.17763568394E-14  0.00000000000E+00  0.91188000000E+02  0.91188000000E+02 0.  0.
    9900012    2    3    3    0    0 -0.63143917368E+01  0.14805393651E+02  0.33116572323E+02  0.54367101225E+02  0.40000038863E+02 0.  0.
         12    1    3    3    0    0  0.63143917368E+01 -0.14805393651E+02 -0.33116572323E+02  0.36820898775E+02  0.00000000000E+00 0. -1.
         11    1    4    4    0    0 -0.12621309888E+02  0.13156820713E+02  0.36816786363E+01  0.18599842806E+02  0.51100000000E-03 0. -1.
        -11    1    4    4    0    0  0.83039272867E+00  0.92764568057E+01  0.21654837576E+02  0.23572742599E+02  0.51100000000E-03 0.  1.
        -12    1    4    4    0    0  0.54765254223E+01 -0.76278838678E+01  0.77800561110E+01  0.12194515820E+02  0.00000000000E+00 0.  1.
</event>
<event>
 8    1  0.2484572E-006  0.9118800E+02  0.7816164E-02  0.1184000E+00
        -11   -1    0    0    0    0  0.00000000000E+00  0.00000000000E+00  0.45593999997E+02  0.45594000000E+02  0.51100000000E-03 0.  1.
         11   -1    0    0    0    0 -0.00000000000E+00 -0.00000000000E+00 -0.45593999997E+02  0.45594000000E+02  0.51100000000E-03 0. -1.
         23    2    1    2    0    0  0.00000000000E+00 -0.35527136788E-14  0.17763568394E-14  0.91188000000E+02  0.91188000000E+02 0.  0.
    9900012    2    3    3    0    0 -0.21393506225E+02  0.26263672725E+02 -0.14433233264E+02  0.54367070679E+02  0.39999969227E+02 0.  0.
        -12    1    3    3    0    0  0.21393506225E+02 -0.26263672725E+02  0.14433233264E+02  0.36820929321E+02  0.00000000000E+00 0.  1.
         11    1    4    4    0    0  0.18472877747E+01  0.24391464678E+02 -0.11559134739E+02  0.27054937025E+02  0.51100000000E-03 0. -1.
        -11    1    4    4    0    0 -0.29215429722E+01  0.30074395828E+01  0.40362911723E+01  0.58199444045E+01  0.51100000000E-03 0.  1.
         12    1    4    4    0    0 -0.20319251028E+02 -0.11352315357E+01 -0.69103896974E+01  0.21492189250E+02  0.00000000000E+00 0. -1.
</event>
<event>
 8    1  0.2484572E-006  0.9118800E+02  0.7816164E-02  0.1184000E+00
        -11   -1    0    0    0    0  0.00000000000E+00  0.00000000000E+00  0.45593999997E+02  0.45594000000E+02  0.51100000000E-03 0. -1.
         11   -1    0    0    0    0 -0.00000000000E+00 -0.00000000000E+00 -0.45593999997E+02  0.45594000000E+02  0.51100000000E-03 0.  1.
         23    2    1    2    0    0  0.17763568394E-14 -0.88817841970E-15  0.00000000000E+00  0.91188000000E+02  0.91188000000E+02 0.  0.
    9900012    2    3    3    0    0  0.14717369018E+02  0.48804959775E+01  0.33396987959E+02  0.54367095658E+02  0.40000026172E+02 0.  0.
         12    1    3    3    0    0 -0.14717369018E+02 -0.48804959775E+01 -0.33396987959E+02  0.36820904342E+02  0.00000000000E+00 0. -1.
         11    1    4    4    0    0  0.20483665743E+01  0.90057114347E+01  0.43787652025E+01  0.10221165737E+02  0.51100000000E-03 0. -1.
        -11    1    4    4    0    0  0.48442596751E+01  0.12126636153E+02  0.20237360825E+02  0.24084703228E+02  0.51100000000E-03 0.  1.
        -12    1    4    4    0    0  0.78247427685E+01 -0.16251851610E+02  0.87808619317E+01  0.20061226693E+02  0.00000000000E+00 0.  1.
</event>
<event>
 8    1  0.2484572E-006  0.9118800E+02  0.7816164E-02  0.1184000E+00
        -11   -1    0    0    0    0  0.00000000000E+00  0.00000000000E+00  0.45593999997E+02  0.45594000000E+02  0.51100000000E-03 0. -1.
         11   -1    0    0    0    0 -0.00000000000E+00 -0.00000000000E+00 -0.45593999997E+02  0.45594000000E+02  0.51100000000E-03 0.  1.
         23    2    1    2    0    0  0.35527136788E-14  0.00000000000E+00  0.00000000000E+00  0.91188000000E+02  0.91188000000E+02 0.  0.
    9900012    2    3    3    0    0 -0.25450555456E+02  0.19171280160E+02  0.18452827788E+02  0.54367141654E+02  0.40000131027E+02 0.  0.
         12    1    3    3    0    0  0.25450555456E+02 -0.19171280160E+02 -0.18452827788E+02  0.36820858346E+02  0.00000000000E+00 0. -1.
         11    1    4    4    0    0 -0.37257352413E+01 -0.27235076049E+01 -0.14386930202E+01  0.48340908793E+01  0.51100000000E-03 0. -1.
        -11    1    4    4    0    0 -0.97354324287E+01  0.78098582599E+01 -0.88879226910E+01  0.15322131074E+02  0.51100000000E-03 0.  1.
        -12    1    4    4    0    0 -0.11989387787E+02  0.14084929505E+02  0.28779443499E+02  0.34210919701E+02  0.00000000000E+00 0.  1.
</event>
<event>
 8    1  0.2484572E-006  0.9118800E+02  0.7816164E-02  0.1184000E+00
        -11   -1    0    0    0    0  0.00000000000E+00  0.00000000000E+00  0.45593999997E+02  0.45594000000E+02  0.51100000000E-03 0. -1.
         11   -1    0    0    0    0 -0.00000000000E+00 -0.00000000000E+00 -0.45593999997E+02  0.45594000000E+02  0.51100000000E-03 0.  1.
         23    2    1    2    0    0  0.00000000000E+00  0.17763568394E-14  0.00000000000E+00  0.91188000000E+02  0.91188000000E+02 0.  0.
    9900012    2    3    3    0    0  0.33961385278E+02  0.12890205085E+02 -0.60205127743E+01  0.54367086769E+02  0.40000005907E+02 0.  0.
         12    1    3    3    0    0 -0.33961385278E+02 -0.12890205085E+02  0.60205127743E+01  0.36820913231E+02  0.00000000000E+00 0. -1.
         11    1    4    4    0    0  0.20101736188E+02  0.63998797677E+01  0.14177300746E+01  0.21143514789E+02  0.51100000000E-03 0. -1.
        -11    1    4    4    0    0  0.21741564499E+02  0.61979054545E+00 -0.16386405745E+01  0.21812035906E+02  0.51100000000E-03 0.  1.
         12    1    4    4    0    0 -0.78819154090E+01  0.58705347713E+01 -0.57996022745E+01  0.11411536074E+02  0.00000000000E+00 0. -1.
</event>
<event>
 8    1  0.2484572E-006  0.9118800E+02  0.7816164E-02  0.1184000E+00
        -11   -1    0    0    0    0  0.00000000000E+00  0.00000000000E+00  0.45593999997E+02  0.45594000000E+02  0.51100000000E-03 0.  1.
         11   -1    0    0    0    0 -0.00000000000E+00 -0.00000000000E+00 -0.45593999997E+02  0.45594000000E+02  0.51100000000E-03 0. -1.
         23    2    1    2    0    0  0.00000000000E+00 -0.44408920985E-15 -0.35527136788E-14  0.91188000000E+02  0.91188000000E+02 0.  0.
    9900012    2    3    3    0    0  0.19080762729E+02 -0.29223927292E+01 -0.31355462051E+02  0.54367070000E+02  0.39999967679E+02 0.  0.
        -12    1    3    3    0    0 -0.19080762729E+02  0.29223927292E+01  0.31355462051E+02  0.36820930000E+02  0.00000000000E+00 0.  1.
         11    1    4    4    0    0  0.95746079991E+01 -0.14405742332E+01 -0.15406781321E+02  0.18196628352E+02  0.51100000000E-03 0. -1.
        -11    1    4    4    0    0  0.16281995751E+01 -0.15872736515E+02 -0.92986195970E+01  0.18467786143E+02  0.51100000000E-03 0.  1.
        -12    1    4    4    0    0  0.78779551550E+01  0.14390918019E+02 -0.66500611334E+01  0.17702655505E+02  0.00000000000E+00 0.  1.
</event>
<event>
 8    1  0.2484572E-006  0.9118800E+02  0.7816164E-02  0.1184000E+00
        -11   -1    0    0    0    0  0.00000000000E+00  0.00000000000E+00  0.45593999997E+02  0.45594000000E+02  0.51100000000E-03 0. -1.
         11   -1    0    0    0    0 -0.00000000000E+00 -0.00000000000E+00 -0.45593999997E+02  0.45594000000E+02  0.51100000000E-03 0.  1.
         23    2    1    2    0    0  0.00000000000E+00  0.53290705182E-14 -0.35527136788E-14  0.91188000000E+02  0.91188000000E+02 0.  0.
    9900012    2    3    3    0    0 -0.28188060072E+02  0.76636561087E+01 -0.22416166831E+02  0.54367042774E+02  0.39999905613E+02 0.  0.
         12    1    3    3    0    0  0.28188060072E+02 -0.76636561087E+01  0.22416166831E+02  0.36820957226E+02  0.00000000000E+00 0. -1.
         11    1    4    4    0    0 -0.11240310154E+02 -0.13518209201E+02 -0.22016041447E+01  0.17718171842E+02  0.51100000000E-03 0. -1.
        -11    1    4    4    0    0 -0.16826869404E+02  0.20071614957E+02 -0.22223986600E+02  0.34349946748E+02  0.51100000000E-03 0.  1.
        -12    1    4    4    0    0 -0.12088051405E+00  0.11102503520E+01  0.20094239130E+01  0.22989241843E+01  0.00000000000E+00 0.  1.
</event>
<event>
 8    1  0.2484572E-006  0.9118800E+02  0.7816164E-02  0.1184000E+00
        -11   -1    0    0    0    0  0.00000000000E+00  0.00000000000E+00  0.45593999997E+02  0.45594000000E+02  0.51100000000E-03 0.  1.
         11   -1    0    0    0    0 -0.00000000000E+00 -0.00000000000E+00 -0.45593999997E+02  0.45594000000E+02  0.51100000000E-03 0. -1.
         23    2    1    2    0    0  0.00000000000E+00  0.00000000000E+00  0.00000000000E+00  0.91188000000E+02  0.91188000000E+02 0.  0.
    9900012    2    3    3    0    0 -0.12109350874E+02  0.13600235446E+02  0.32002775877E+02  0.54367075968E+02  0.39999981284E+02 0.  0.
         12    1    3    3    0    0  0.12109350874E+02 -0.13600235446E+02 -0.32002775877E+02  0.36820924032E+02  0.00000000000E+00 0. -1.
         11    1    4    4    0    0  0.75276940074E+01 -0.27358148941E+01  0.18300111035E+02  0.19976108839E+02  0.51100000000E-03 0. -1.
        -11    1    4    4    0    0 -0.10994540653E+02  0.19124443811E+02  0.12129978753E+02  0.25174603474E+02  0.51100000000E-03 0.  1.
         12    1    4    4    0    0 -0.86425042284E+01 -0.27883934714E+01  0.15726860886E+01  0.92163636551E+01  0.00000000000E+00 0. -1.
</event>
<event>
 8    1  0.2484572E-006  0.9118800E+02  0.7816164E-02  0.1184000E+00
        -11   -1    0    0    0    0  0.00000000000E+00  0.00000000000E+00  0.45593999997E+02  0.45594000000E+02  0.51100000000E-03 0. -1.
         11   -1    0    0    0    0 -0.00000000000E+00 -0.00000000000E+00 -0.45593999997E+02  0.45594000000E+02  0.51100000000E-03 0.  1.
         23    2    1    2    0    0  0.71054273576E-14  0.26645352591E-14 -0.35527136788E-14  0.91188000000E+02  0.91188000000E+02 0.  0.
    9900012    2    3    3    0    0 -0.31652154822E+02  0.74160597154E+01  0.17289349349E+02  0.54367103114E+02  0.40000043170E+02 0.  0.
        -12    1    3    3    0    0  0.31652154822E+02 -0.74160597154E+01 -0.17289349349E+02  0.36820896886E+02  0.00000000000E+00 0.  1.
         11    1    4    4    0    0 -0.88518989635E+01  0.19909125794E+02  0.12866974773E+02  0.25303921538E+02  0.51100000000E-03 0. -1.
        -11    1    4    4    0    0 -0.16617091393E+01 -0.62819266660E+01  0.24438526220E+01  0.69423552056E+01  0.51100000000E-03 0.  1.
         12    1    4    4    0    0 -0.21138546719E+02 -0.62111394128E+01  0.19785219541E+01  0.22120826371E+02  0.00000000000E+00 0. -1.
</event>
<event>
 8    1  0.2484572E-006  0.9118800E+02  0.7816164E-02  0.1184000E+00
        -11   -1    0    0    0    0  0.00000000000E+00  0.00000000000E+00  0.45593999997E+02  0.45594000000E+02  0.51100000000E-03 0. -1.
         11   -1    0    0    0    0 -0.00000000000E+00 -0.00000000000E+00 -0.45593999997E+02  0.45594000000E+02  0.51100000000E-03 0.  1.
         23    2    1    2    0    0  0.35527136788E-14  0.00000000000E+00  0.66613381478E-15  0.91188000000E+02  0.91188000000E+02 0.  0.
    9900012    2    3    3    0    0  0.26855749631E+02  0.25180296254E+02 -0.70521127082E+00  0.54367137291E+02  0.40000121083E+02 0.  0.
        -12    1    3    3    0    0 -0.26855749631E+02 -0.25180296254E+02  0.70521127082E+00  0.36820862709E+02  0.00000000000E+00 0.  1.
         11    1    4    4    0    0  0.19890282024E+02  0.72528947721E+01 -0.89463457994E+01  0.22984014119E+02  0.51100000000E-03 0. -1.
        -11    1    4    4    0    0 -0.69707575908E+01  0.89250101296E+01 -0.25281060952E+01  0.11603386915E+02  0.51100000000E-03 0.  1.
        -12    1    4    4    0    0  0.13936225197E+02  0.90023913524E+01  0.10769240624E+02  0.19779736258E+02  0.00000000000E+00 0.  1.
</event>
<event>
 8    1  0.2484572E-006  0.9118800E+02  0.7816164E-02  0.1184000E+00
        -11   -1    0    0    0    0  0.00000000000E+00  0.00000000000E+00  0.45593999997E+02  0.45594000000E+02  0.51100000000E-03 0. -1.
         11   -1    0    0    0    0 -0.00000000000E+00 -0.00000000000E+00 -0.45593999997E+02  0.45594000000E+02  0.51100000000E-03 0.  1.
         23    2    1    2    0    0 -0.17763568394E-14  0.00000000000E+00  0.00000000000E+00  0.91188000000E+02  0.91188000000E+02 0.  0.
    9900012    2    3    3    0    0  0.12465059202E+02  0.33966645989E+02  0.68314345056E+01  0.54367092379E+02  0.40000018697E+02 0.  0.
        -12    1    3    3    0    0 -0.12465059202E+02 -0.33966645989E+02 -0.68314345056E+01  0.36820907621E+02  0.00000000000E+00 0.  1.
         11    1    4    4    0    0  0.22099220291E+01  0.25356604515E+02  0.47840424393E+01  0.25898420998E+02  0.51100000000E-03 0. -1.
        -11    1    4    4    0    0  0.98659739232E+01  0.65454543854E+01  0.12844606221E+02  0.17468953140E+02  0.51100000000E-03 0.  1.
        -12    1    4    4    0    0  0.38916324920E+00  0.20645870889E+01 -0.10797214155E+02  0.10999718241E+02  0.00000000000E+00 0.  1.
</event>
<event>
 8    1  0.2484572E-006  0.9118800E+02  0.7816164E-02  0.1184000E+00
        -11   -1    0    0    0    0  0.00000000000E+00  0.00000000000E+00  0.45593999997E+02  0.45594000000E+02  0.51100000000E-03 0.  1.
         11   -1    0    0    0    0 -0.00000000000E+00 -0.00000000000E+00 -0.45593999997E+02  0.45594000000E+02  0.51100000000E-03 0. -1.
         23    2    1    2    0    0 -0.22204460493E-14  0.00000000000E+00  0.17763568394E-14  0.91188000000E+02  0.91188000000E+02 0.  0.
    9900012    2    3    3    0    0  0.37459976615E+01 -0.34554774722E+02  0.12153829754E+02  0.54367074805E+02  0.39999978632E+02 0.  0.
         12    1    3    3    0    0 -0.37459976615E+01  0.34554774722E+02 -0.12153829754E+02  0.36820925195E+02  0.00000000000E+00 0. -1.
         11    1    4    4    0    0 -0.43869490100E+01 -0.19785864958E+02 -0.49697373936E+01  0.20866817289E+02  0.51100000000E-03 0. -1.
        -11    1    4    4    0    0 -0.78803996965E+01 -0.52329874484E+01  0.93682220253E+01  0.13313468413E+02  0.51100000000E-03 0.  1.
         12    1    4    4    0    0  0.16013346368E+02 -0.95359223158E+01  0.77553451223E+01  0.20186789103E+02  0.00000000000E+00 0. -1.
</event>
<event>
 8    1  0.2484572E-006  0.9118800E+02  0.7816164E-02  0.1184000E+00
        -11   -1    0    0    0    0  0.00000000000E+00  0.00000000000E+00  0.45593999997E+02  0.45594000000E+02  0.51100000000E-03 0.  1.
         11   -1    0    0    0    0 -0.00000000000E+00 -0.00000000000E+00 -0.45593999997E+02  0.45594000000E+02  0.51100000000E-03 0. -1.
         23    2    1    2    0    0 -0.17763568394E-14 -0.35527136788E-14  0.00000000000E+00  0.91188000000E+02  0.91188000000E+02 0.  0.
    9900012    2    3    3    0    0 -0.73597830933E+01 -0.29046503652E+02 -0.21398933331E+02  0.54367080277E+02  0.39999991107E+02 0.  0.
        -12    1    3    3    0    0  0.73597830933E+01  0.29046503652E+02  0.21398933331E+02  0.36820919723E+02  0.00000000000E+00 0.  1.
         11    1    4    4    0    0 -0.44611859419E+01 -0.71726614752E+01 -0.15355485649E+02  0.17525415613E+02  0.51100000000E-03 0. -1.
        -11    1    4    4    0    0  0.63641300089E+01 -0.17681690342E+02 -0.14404813341E+02  0.23677900493E+02  0.51100000000E-03 0.  1.
        -12    1    4    4    0    0 -0.92627271603E+01 -0.41921518350E+01  0.83613656588E+01  0.13163764170E+02  0.00000000000E+00 0.  1.
</event>
<event>
 8    1  0.2484572E-006  0.9118800E+02  0.7816164E-02  0.1184000E+00
        -11   -1    0    0    0    0  0.00000000000E+00  0.00000000000E+00  0.45593999997E+02  0.45594000000E+02  0.51100000000E-03 0.  1.
         11   -1    0    0    0    0 -0.00000000000E+00 -0.00000000000E+00 -0.45593999997E+02  0.45594000000E+02  0.51100000000E-03 0. -1.
         23    2    1    2    0    0 -0.88817841970E-15  0.00000000000E+00  0.71054273576E-14  0.91188000000E+02  0.91188000000E+02 0.  0.
    9900012    2    3    3    0    0 -0.66089889657E+01  0.72420057655E+01  0.35491617145E+02  0.54367078362E+02  0.39999986742E+02 0.  0.
         12    1    3    3    0    0  0.66089889657E+01 -0.72420057655E+01 -0.35491617145E+02  0.36820921638E+02  0.00000000000E+00 0. -1.
         11    1    4    4    0    0 -0.41503767110E+01  0.33425870498E+01  0.34933788846E+02  0.35337913328E+02  0.51100000000E-03 0. -1.
        -11    1    4    4    0    0  0.44071526823E+01  0.45160398098E+01  0.71185932828E+01  0.95127273122E+01  0.51100000000E-03 0.  1.
         12    1    4    4    0    0 -0.68657649371E+01 -0.61662109406E+00 -0.65607649831E+01  0.95164377216E+01  0.00000000000E+00 0. -1.
</event>
<event>
 8    1  0.2484572E-006  0.9118800E+02  0.7816164E-02  0.1184000E+00
        -11   -1    0    0    0    0  0.00000000000E+00  0.00000000000E+00  0.45593999997E+02  0.45594000000E+02  0.51100000000E-03 0.  1.
         11   -1    0    0    0    0 -0.00000000000E+00 -0.00000000000E+00 -0.45593999997E+02  0.45594000000E+02  0.51100000000E-03 0. -1.
         23    2    1    2    0    0  0.13322676296E-14  0.00000000000E+00 -0.35527136788E-14  0.91188000000E+02  0.91188000000E+02 0.  0.
    9900012    2    3    3    0    0  0.30198103582E+01 -0.26019415246E+02  0.25877600262E+02  0.54367089912E+02  0.40000013073E+02 0.  0.
         12    1    3    3    0    0 -0.30198103582E+01  0.26019415246E+02 -0.25877600262E+02  0.36820910088E+02  0.00000000000E+00 0. -1.
         11    1    4    4    0    0 -0.46421096173E+01 -0.16371115478E+02 -0.37726844966E+01  0.17429737584E+02  0.51100000000E-03 0. -1.
        -11    1    4    4    0    0 -0.21577585509E+01 -0.76123612325E+01  0.29987360617E+01  0.84614646325E+01  0.51100000000E-03 0.  1.
        -12    1    4    4    0    0  0.98196785265E+01 -0.20359385362E+01  0.26651548697E+02  0.28475887695E+02  0.00000000000E+00 0.  1.
</event>
<event>
 8    1  0.2484572E-006  0.9118800E+02  0.7816164E-02  0.1184000E+00
        -11   -1    0    0    0    0  0.00000000000E+00  0.00000000000E+00  0.45593999997E+02  0.45594000000E+02  0.51100000000E-03 0.  1.
         11   -1    0    0    0    0 -0.00000000000E+00 -0.00000000000E+00 -0.45593999997E+02  0.45594000000E+02  0.51100000000E-03 0. -1.
         23    2    1    2    0    0 -0.66613381478E-15  0.00000000000E+00  0.00000000000E+00  0.91188000000E+02  0.91188000000E+02 0.  0.
    9900012    2    3    3    0    0 -0.14296053341E+01 -0.59501895497E+01 -0.36308836665E+02  0.54367080035E+02  0.39999990557E+02 0.  0.
        -12    1    3    3    0    0  0.14296053341E+01  0.59501895497E+01  0.36308836665E+02  0.36820919965E+02  0.00000000000E+00 0.  1.
         11    1    4    4    0    0  0.47703620468E+01  0.43785163984E+01 -0.36214385593E+02  0.36788714086E+02  0.51100000000E-03 0. -1.
        -11    1    4    4    0    0  0.27780188058E+01 -0.27879311531E+01  0.35501286323E+01  0.53003171760E+01  0.51100000000E-03 0.  1.
        -12    1    4    4    0    0 -0.89779861867E+01 -0.75407747950E+01 -0.36445797036E+01  0.12278048774E+02  0.00000000000E+00 0.  1.
</event>
<event>
 8    1  0.2484572E-006  0.9118800E+02  0.7816164E-02  0.1184000E+00
        -11   -1    0    0    0    0  0.00000000000E+00  0.00000000000E+00  0.45593999997E+02  0.45594000000E+02  0.51100000000E-03 0. -1.
         11   -1    0    0    0    0 -0.00000000000E+00 -0.00000000000E+00 -0.45593999997E+02  0.45594000000E+02  0.51100000000E-03 0.  1.
         23    2    1    2    0    0  0.00000000000E+00  0.00000000000E+00  0.35527136788E-14  0.91188000000E+02  0.91188000000E+02 0.  0.
    9900012    2    3    3    0    0  0.12701607024E+02 -0.16459685852E+02 -0.30389579917E+02  0.54367100406E+02  0.40000036996E+02 0.  0.
         12    1    3    3    0    0 -0.12701607024E+02  0.16459685852E+02  0.30389579917E+02  0.36820899594E+02  0.00000000000E+00 0. -1.
         11    1    4    4    0    0 -0.24719212069E+01 -0.11638903514E+02 -0.22477735849E+02  0.25432716698E+02  0.51100000000E-03 0. -1.
        -11    1    4    4    0    0 -0.55475212155E+01  0.42104572295E+00 -0.47750108347E+01  0.73316437359E+01  0.51100000000E-03 0.  1.
         12    1    4    4    0    0  0.20721049446E+02 -0.52418280610E+01 -0.31368332328E+01  0.21602739972E+02  0.00000000000E+00 0. -1.
</event>
<event>
 8    1  0.2484572E-006  0.9118800E+02  0.7816164E-02  0.1184000E+00
        -11   -1    0    0    0    0  0.00000000000E+00  0.00000000000E+00  0.45593999997E+02  0.45594000000E+02  0.51100000000E-03 0.  1.
         11   -1    0    0    0    0 -0.00000000000E+00 -0.00000000000E+00 -0.45593999997E+02  0.45594000000E+02  0.51100000000E-03 0. -1.
         23    2    1    2    0    0  0.00000000000E+00 -0.88817841970E-15  0.00000000000E+00  0.91188000000E+02  0.91188000000E+02 0.  0.
    9900012    2    3    3    0    0  0.89493069725E+01 -0.48360258047E+01  0.35387888521E+02  0.54367083460E+02  0.39999998363E+02 0.  0.
         12    1    3    3    0    0 -0.89493069725E+01  0.48360258047E+01 -0.35387888521E+02  0.36820916540E+02  0.00000000000E+00 0. -1.
         11    1    4    4    0    0 -0.10100842341E+02  0.25427152500E+00  0.49304468003E+01  0.11242818860E+02  0.51100000000E-03 0. -1.
        -11    1    4    4    0    0 -0.32615770524E+00  0.38062165690E+01  0.18062527347E+02  0.18462084331E+02  0.51100000000E-03 0.  1.
         12    1    4    4    0    0  0.19376307019E+02 -0.88965138987E+01  0.12394914374E+02  0.24662180268E+02  0.00000000000E+00 0. -1.
</event>
<event>
 8    1  0.2484572E-006  0.9118800E+02  0.7816164E-02  0.1184000E+00
        -11   -1    0    0    0    0  0.00000000000E+00  0.00000000000E+00  0.45593999997E+02  0.45594000000E+02  0.51100000000E-03 0. -1.
         11   -1    0    0    0    0 -0.00000000000E+00 -0.00000000000E+00 -0.45593999997E+02  0.45594000000E+02  0.51100000000E-03 0.  1.
         23    2    1    2    0    0  0.00000000000E+00 -0.35527136788E-14  0.00000000000E+00  0.91188000000E+02  0.91188000000E+02 0.  0.
    9900012    2    3    3    0    0 -0.19425373643E+02  0.30881778765E+02 -0.49749049914E+01  0.54367094518E+02  0.40000023573E+02 0.  0.
        -12    1    3    3    0    0  0.19425373643E+02 -0.30881778765E+02  0.49749049914E+01  0.36820905482E+02  0.00000000000E+00 0.  1.
         11    1    4    4    0    0  0.45348146996E+01  0.50884638008E+01  0.17401016149E+01  0.70345548618E+01  0.51100000000E-03 0. -1.
        -11    1    4    4    0    0  0.64986521080E+01  0.95106663243E+01 -0.55218759618E+01  0.12774050554E+02  0.51100000000E-03 0.  1.
         12    1    4    4    0    0 -0.30458840450E+02  0.16282648640E+02 -0.11931306445E+01  0.34558489102E+02  0.00000000000E+00 0. -1.
</event>
<event>
 8    1  0.2484572E-006  0.9118800E+02  0.7816164E-02  0.1184000E+00
        -11   -1    0    0    0    0  0.00000000000E+00  0.00000000000E+00  0.45593999997E+02  0.45594000000E+02  0.51100000000E-03 0.  1.
         11   -1    0    0    0    0 -0.00000000000E+00 -0.00000000000E+00 -0.45593999997E+02  0.45594000000E+02  0.51100000000E-03 0. -1.
         23    2    1    2    0    0 -0.14210854715E-13  0.00000000000E+00 -0.35527136788E-14  0.91188000000E+02  0.91188000000E+02 0.  0.
    9900012    2    3    3    0    0  0.32748475065E+02 -0.42975622978E+01  0.16274152046E+02  0.54367086302E+02  0.40000004842E+02 0.  0.
        -12    1    3    3    0    0 -0.32748475065E+02  0.42975622978E+01 -0.16274152046E+02  0.36820913698E+02  0.00000000000E+00 0.  1.
         11    1    4    4    0    0  0.26344252483E+01 -0.10996283204E+02  0.57516043815E+01  0.12686189101E+02  0.51100000000E-03 0. -1.
        -11    1    4    4    0    0 -0.41575950519E+01  0.18515336508E+01 -0.18646007689E+01  0.49183848735E+01  0.51100000000E-03 0.  1.
        -12    1    4    4    0    0  0.34271644868E+02  0.48471872555E+01  0.12387148434E+02  0.36762512327E+02  0.00000000000E+00 0.  1.
</event>
<event>
 8    1  0.2484572E-006  0.9118800E+02  0.7816164E-02  0.1184000E+00
        -11   -1    0    0    0    0  0.00000000000E+00  0.00000000000E+00  0.45593999997E+02  0.45594000000E+02  0.51100000000E-03 0.  1.
         11   -1    0    0    0    0 -0.00000000000E+00 -0.00000000000E+00 -0.45593999997E+02  0.45594000000E+02  0.51100000000E-03 0. -1.
         23    2    1    2    0    0  0.00000000000E+00 -0.35527136788E-14 -0.35527136788E-14  0.91188000000E+02  0.91188000000E+02 0.  0.
    9900012    2    3    3    0    0 -0.18695276379E+02 -0.31707029421E+02 -0.96459817752E+00  0.54367088506E+02  0.40000009867E+02 0.  0.
         12    1    3    3    0    0  0.18695276379E+02  0.31707029421E+02  0.96459817752E+00  0.36820911494E+02  0.00000000000E+00 0. -1.
         11    1    4    4    0    0 -0.42534788270E+01 -0.98998283690E+01 -0.10263094775E+02  0.14880517413E+02  0.51100000000E-03 0.  1.
        -11    1    4    4    0    0 -0.12911153393E+02 -0.84688451194E+01 -0.81586101106E+01  0.17463737824E+02  0.51100000000E-03 0. -1.
         12    1    4    4    0    0 -0.15306441586E+01 -0.13338355933E+02  0.17457106708E+02  0.22022833268E+02  0.00000000000E+00 0. -1.
</event>
<event>
 8    1  0.2484572E-006  0.9118800E+02  0.7816164E-02  0.1184000E+00
        -11   -1    0    0    0    0  0.00000000000E+00  0.00000000000E+00  0.45593999997E+02  0.45594000000E+02  0.51100000000E-03 0. -1.
         11   -1    0    0    0    0 -0.00000000000E+00 -0.00000000000E+00 -0.45593999997E+02  0.45594000000E+02  0.51100000000E-03 0.  1.
         23    2    1    2    0    0  0.00000000000E+00 -0.35527136788E-14 -0.13322676296E-14  0.91188000000E+02  0.91188000000E+02 0.  0.
    9900012    2    3    3    0    0 -0.18127129969E+02  0.31925342211E+02  0.28212105750E+01  0.54367088206E+02  0.40000009184E+02 0.  0.
         12    1    3    3    0    0  0.18127129969E+02 -0.31925342211E+02 -0.28212105750E+01  0.36820911794E+02  0.00000000000E+00 0. -1.
         11    1    4    4    0    0  0.16572054440E+01  0.16295055354E+02 -0.38715256373E+01  0.16830444733E+02  0.51100000000E-03 0. -1.
        -11    1    4    4    0    0 -0.11643112505E+02  0.15358783372E+02 -0.78959499513E+01  0.20827873664E+02  0.51100000000E-03 0.  1.
         12    1    4    4    0    0 -0.81412229078E+01  0.27150348511E+00  0.14588686164E+02  0.16708769810E+02  0.00000000000E+00 0. -1.
</event>
<event>
 8    1  0.2484572E-006  0.9118800E+02  0.7816164E-02  0.1184000E+00
        -11   -1    0    0    0    0  0.00000000000E+00  0.00000000000E+00  0.45593999997E+02  0.45594000000E+02  0.51100000000E-03 0. -1.
         11   -1    0    0    0    0 -0.00000000000E+00 -0.00000000000E+00 -0.45593999997E+02  0.45594000000E+02  0.51100000000E-03 0.  1.
         23    2    1    2    0    0  0.00000000000E+00  0.35527136788E-14  0.35527136788E-14  0.91188000000E+02  0.91188000000E+02 0.  0.
    9900012    2    3    3    0    0 -0.12811600172E+02  0.26165338760E+02 -0.22517057714E+02  0.54367082854E+02  0.39999996982E+02 0.  0.
         12    1    3    3    0    0  0.12811600172E+02 -0.26165338760E+02  0.22517057714E+02  0.36820917146E+02  0.00000000000E+00 0. -1.
         11    1    4    4    0    0  0.64073286296E+01  0.65165383939E+00 -0.16086384734E+01  0.66382400449E+01  0.51100000000E-03 0. -1.
        -11    1    4    4    0    0 -0.56063066834E+01  0.25317841860E+02 -0.43518313223E+01  0.26293767840E+02  0.51100000000E-03 0.  1.
         12    1    4    4    0    0 -0.13612622118E+02  0.19584306051E+00 -0.16556587918E+02  0.21435074969E+02  0.00000000000E+00 0. -1.
</event>
<event>
 8    1  0.2484572E-006  0.9118800E+02  0.7816164E-02  0.1184000E+00
        -11   -1    0    0    0    0  0.00000000000E+00  0.00000000000E+00  0.45593999997E+02  0.45594000000E+02  0.51100000000E-03 0.  1.
         11   -1    0    0    0    0 -0.00000000000E+00 -0.00000000000E+00 -0.45593999997E+02  0.45594000000E+02  0.51100000000E-03 0. -1.
         23    2    1    2    0    0  0.00000000000E+00 -0.88817841970E-15  0.00000000000E+00  0.91188000000E+02  0.91188000000E+02 0.  0.
    9900012    2    3    3    0    0  0.34700471244E+02  0.70942280186E+01 -0.10066415101E+02  0.54367034658E+02  0.39999887110E+02 0.  0.
         12    1    3    3    0    0 -0.34700471244E+02 -0.70942280186E+01  0.10066415101E+02  0.36820965342E+02  0.00000000000E+00 0. -1.
         11    1    4    4    0    0  0.10426935452E+02  0.89373841730E+01 -0.25334635979E+01  0.13964822120E+02  0.51100000000E-03 0. -1.
        -11    1    4    4    0    0  0.30866230095E+02 -0.53038142965E+01 -0.25067538015E+01  0.31418759066E+02  0.51100000000E-03 0.  1.
         12    1    4    4    0    0 -0.65926943030E+01  0.34606581421E+01 -0.50261977021E+01  0.89834534723E+01  0.00000000000E+00 0. -1.
</event>
<event>
 8    1  0.2484572E-006  0.9118800E+02  0.7816164E-02  0.1184000E+00
        -11   -1    0    0    0    0  0.00000000000E+00  0.00000000000E+00  0.45593999997E+02  0.45594000000E+02  0.51100000000E-03 0. -1.
         11   -1    0    0    0    0 -0.00000000000E+00 -0.00000000000E+00 -0.45593999997E+02  0.45594000000E+02  0.51100000000E-03 0.  1.
         23    2    1    2    0    0  0.00000000000E+00  0.00000000000E+00  0.00000000000E+00  0.91188000000E+02  0.91188000000E+02 0.  0.
    9900012    2    3    3    0    0 -0.97794519112E+01  0.35085584033E+02 -0.53982378022E+01  0.54367124698E+02  0.40000092375E+02 0.  0.
         12    1    3    3    0    0  0.97794519112E+01 -0.35085584033E+02  0.53982378022E+01  0.36820875302E+02  0.00000000000E+00 0. -1.
         11    1    4    4    0    0 -0.12977355107E+02  0.34776655978E+02 -0.72611135955E+01  0.37822629701E+02  0.51100000000E-03 0. -1.
        -11    1    4    4    0    0  0.68033488928E+01  0.63986172562E+01  0.62880222494E+00  0.93607292156E+01  0.51100000000E-03 0.  1.
         12    1    4    4    0    0 -0.36054456967E+01 -0.60896892011E+01  0.12340735684E+01  0.71837657819E+01  0.00000000000E+00 0. -1.
</event>
<event>
 8    1  0.2484572E-006  0.9118800E+02  0.7816164E-02  0.1184000E+00
        -11   -1    0    0    0    0  0.00000000000E+00  0.00000000000E+00  0.45593999997E+02  0.45594000000E+02  0.51100000000E-03 0.  1.
         11   -1    0    0    0    0 -0.00000000000E+00 -0.00000000000E+00 -0.45593999997E+02  0.45594000000E+02  0.51100000000E-03 0. -1.
         23    2    1    2    0    0  0.00000000000E+00  0.00000000000E+00  0.00000000000E+00  0.91188000000E+02  0.91188000000E+02 0.  0.
    9900012    2    3    3    0    0  0.21714755909E+02 -0.22626622662E+02  0.19294735113E+02  0.54367061930E+02  0.39999949282E+02 0.  0.
         12    1    3    3    0    0 -0.21714755909E+02  0.22626622662E+02 -0.19294735113E+02  0.36820938070E+02  0.00000000000E+00 0. -1.
         11    1    4    4    0    0  0.17631579077E+02 -0.32579137375E+01  0.25114821769E+02  0.30858400079E+02  0.51100000000E-03 0. -1.
        -11    1    4    4    0    0  0.59534918649E+00  0.95041274254E+00  0.12820486505E+01  0.17033420204E+01  0.51100000000E-03 0.  1.
        -12    1    4    4    0    0  0.34878276446E+01 -0.20319121667E+02 -0.71021353067E+01  0.21805319831E+02  0.00000000000E+00 0.  1.
</event>
<event>
 8    1  0.2484572E-006  0.9118800E+02  0.7816164E-02  0.1184000E+00
        -11   -1    0    0    0    0  0.00000000000E+00  0.00000000000E+00  0.45593999997E+02  0.45594000000E+02  0.51100000000E-03 0.  1.
         11   -1    0    0    0    0 -0.00000000000E+00 -0.00000000000E+00 -0.45593999997E+02  0.45594000000E+02  0.51100000000E-03 0. -1.
         23    2    1    2    0    0  0.71054273576E-14 -0.26645352591E-14  0.88817841970E-15  0.91188000000E+02  0.91188000000E+02 0.  0.
    9900012    2    3    3    0    0 -0.36148791745E+02  0.44925022912E+01 -0.53722704807E+01  0.54367095455E+02  0.40000025708E+02 0.  0.
        -12    1    3    3    0    0  0.36148791745E+02 -0.44925022912E+01  0.53722704807E+01  0.36820904545E+02  0.00000000000E+00 0.  1.
         11    1    4    4    0    0 -0.17399166780E+02 -0.97462696189E+01  0.10409477110E+01  0.19970086342E+02  0.51100000000E-03 0. -1.
        -11    1    4    4    0    0  0.29061838043E+01 -0.43391845300E+01 -0.15928552665E+01  0.54600013599E+01  0.51100000000E-03 0.  1.
        -12    1    4    4    0    0 -0.21655808769E+02  0.18577956440E+02 -0.48203629252E+01  0.28937007752E+02  0.00000000000E+00 0.  1.
</event>
<event>
 8    1  0.2484572E-006  0.9118800E+02  0.7816164E-02  0.1184000E+00
        -11   -1    0    0    0    0  0.00000000000E+00  0.00000000000E+00  0.45593999997E+02  0.45594000000E+02  0.51100000000E-03 0.  1.
         11   -1    0    0    0    0 -0.00000000000E+00 -0.00000000000E+00 -0.45593999997E+02  0.45594000000E+02  0.51100000000E-03 0. -1.
         23    2    1    2    0    0  0.00000000000E+00  0.88817841970E-15 -0.71054273576E-14  0.91188000000E+02  0.91188000000E+02 0.  0.
    9900012    2    3    3    0    0  0.14846589719E+02 -0.57970497594E+01  0.33192651857E+02  0.54367093581E+02  0.40000021436E+02 0.  0.
         12    1    3    3    0    0 -0.14846589719E+02  0.57970497594E+01 -0.33192651857E+02  0.36820906419E+02  0.00000000000E+00 0. -1.
         11    1    4    4    0    0 -0.53831442210E+01  0.43168492581E+01  0.22517293846E+00  0.69039215186E+01  0.51100000000E-03 0. -1.
        -11    1    4    4    0    0 -0.69620608587E+00 -0.45536983279E+01  0.23299826707E+02  0.23750848326E+02  0.51100000000E-03 0.  1.
         12    1    4    4    0    0  0.20925940026E+02 -0.55602006897E+01  0.96676522117E+01  0.23712323736E+02  0.00000000000E+00 0. -1.
</event>
<event>
 8    1  0.2484572E-006  0.9118800E+02  0.7816164E-02  0.1184000E+00
        -11   -1    0    0    0    0  0.00000000000E+00  0.00000000000E+00  0.45593999997E+02  0.45594000000E+02  0.51100000000E-03 0. -1.
         11   -1    0    0    0    0 -0.00000000000E+00 -0.00000000000E+00 -0.45593999997E+02  0.45594000000E+02  0.51100000000E-03 0.  1.
         23    2    1    2    0    0 -0.22204460493E-15  0.00000000000E+00  0.22204460493E-15  0.91188000000E+02  0.91188000000E+02 0.  0.
    9900012    2    3    3    0    0 -0.14162838256E+01 -0.36750808161E+02 -0.17757121102E+01  0.54367069623E+02  0.39999966820E+02 0.  0.
        -12    1    3    3    0    0  0.14162838256E+01  0.36750808161E+02  0.17757121102E+01  0.36820930377E+02  0.00000000000E+00 0.  1.
         11    1    4    4    0    0  0.16184931348E+01 -0.11872639258E+02  0.13525360402E+02  0.18069711045E+02  0.51100000000E-03 0. -1.
        -11    1    4    4    0    0  0.74377297300E+01 -0.29035150800E+01 -0.68791242054E+01  0.10539097374E+02  0.51100000000E-03 0.  1.
         12    1    4    4    0    0 -0.10472506690E+02 -0.21974653822E+02 -0.84219483069E+01  0.25758261204E+02  0.00000000000E+00 0. -1.
</event>
<event>
 8    1  0.2484572E-006  0.9118800E+02  0.7816164E-02  0.1184000E+00
        -11   -1    0    0    0    0  0.00000000000E+00  0.00000000000E+00  0.45593999997E+02  0.45594000000E+02  0.51100000000E-03 0. -1.
         11   -1    0    0    0    0 -0.00000000000E+00 -0.00000000000E+00 -0.45593999997E+02  0.45594000000E+02  0.51100000000E-03 0.  1.
         23    2    1    2    0    0 -0.35527136788E-14  0.35527136788E-14  0.00000000000E+00  0.91188000000E+02  0.91188000000E+02 0.  0.
    9900012    2    3    3    0    0  0.21050425578E+02 -0.16257219119E+02  0.25462953384E+02  0.54367087660E+02  0.40000007938E+02 0.  0.
        -12    1    3    3    0    0 -0.21050425578E+02  0.16257219119E+02 -0.25462953384E+02  0.36820912340E+02  0.00000000000E+00 0.  1.
         11    1    4    4    0    0  0.41255243062E+01  0.88154131920E+00  0.19103846970E+02  0.19564100675E+02  0.51100000000E-03 0. -1.
        -11    1    4    4    0    0  0.31715500235E+00 -0.11972698750E+02 -0.60685079539E+01  0.13426574086E+02  0.51100000000E-03 0.  1.
         12    1    4    4    0    0  0.16607746270E+02 -0.51660616890E+01  0.12427614368E+02  0.21376412898E+02  0.00000000000E+00 0. -1.
</event>
<event>
 8    1  0.2484572E-006  0.9118800E+02  0.7816164E-02  0.1184000E+00
        -11   -1    0    0    0    0  0.00000000000E+00  0.00000000000E+00  0.45593999997E+02  0.45594000000E+02  0.51100000000E-03 0.  1.
         11   -1    0    0    0    0 -0.00000000000E+00 -0.00000000000E+00 -0.45593999997E+02  0.45594000000E+02  0.51100000000E-03 0. -1.
         23    2    1    2    0    0  0.00000000000E+00  0.00000000000E+00 -0.17763568394E-14  0.91188000000E+02  0.91188000000E+02 0.  0.
    9900012    2    3    3    0    0 -0.33322116207E+02  0.81504587490E+01 -0.13378605249E+02  0.54367075450E+02  0.39999980102E+02 0.  0.
        -12    1    3    3    0    0  0.33322116207E+02 -0.81504587490E+01  0.13378605249E+02  0.36820924550E+02  0.00000000000E+00 0.  1.
         11    1    4    4    0    0 -0.10275940178E+02 -0.22620728316E+01 -0.10627309984E+02  0.14954987054E+02  0.51100000000E-03 0. -1.
        -11    1    4    4    0    0 -0.25011914068E+02  0.34214304811E+00  0.62274335059E+01  0.25777777940E+02  0.51100000000E-03 0.  1.
        -12    1    4    4    0    0  0.19657380392E+01  0.10070388532E+02 -0.89787287712E+01  0.13634310455E+02  0.00000000000E+00 0.  1.
</event>
<event>
 8    1  0.2484572E-006  0.9118800E+02  0.7816164E-02  0.1184000E+00
        -11   -1    0    0    0    0  0.00000000000E+00  0.00000000000E+00  0.45593999997E+02  0.45594000000E+02  0.51100000000E-03 0. -1.
         11   -1    0    0    0    0 -0.00000000000E+00 -0.00000000000E+00 -0.45593999997E+02  0.45594000000E+02  0.51100000000E-03 0.  1.
         23    2    1    2    0    0  0.00000000000E+00  0.00000000000E+00  0.17763568394E-14  0.91188000000E+02  0.91188000000E+02 0.  0.
    9900012    2    3    3    0    0  0.28020604255E+02 -0.20936876749E+02  0.11501016071E+02  0.54367076037E+02  0.39999981442E+02 0.  0.
        -12    1    3    3    0    0 -0.28020604255E+02  0.20936876749E+02 -0.11501016071E+02  0.36820923963E+02  0.00000000000E+00 0.  1.
         11    1    4    4    0    0  0.35723197571E+01 -0.18492050545E+02 -0.53652123547E+01  0.19583230215E+02  0.51100000000E-03 0. -1.
        -11    1    4    4    0    0  0.11560419924E+02  0.73618208285E+01  0.10949175354E+02  0.17542068177E+02  0.51100000000E-03 0.  1.
         12    1    4    4    0    0  0.12887864574E+02 -0.98066470327E+01  0.59170530711E+01  0.17241777645E+02  0.00000000000E+00 0. -1.
</event>
<event>
 8    1  0.2484572E-006  0.9118800E+02  0.7816164E-02  0.1184000E+00
        -11   -1    0    0    0    0  0.00000000000E+00  0.00000000000E+00  0.45593999997E+02  0.45594000000E+02  0.51100000000E-03 0. -1.
         11   -1    0    0    0    0 -0.00000000000E+00 -0.00000000000E+00 -0.45593999997E+02  0.45594000000E+02  0.51100000000E-03 0.  1.
         23    2    1    2    0    0 -0.17763568394E-14  0.00000000000E+00  0.00000000000E+00  0.91188000000E+02  0.91188000000E+02 0.  0.
    9900012    2    3    3    0    0 -0.13927027986E+02  0.25435105140E+02 -0.22690886886E+02  0.54367040892E+02  0.39999901321E+02 0.  0.
         12    1    3    3    0    0  0.13927027986E+02 -0.25435105140E+02  0.22690886886E+02  0.36820959108E+02  0.00000000000E+00 0. -1.
         11    1    4    4    0    0  0.97667524909E+01 -0.12500698421E+01 -0.36553807535E+01  0.10503044204E+02  0.51100000000E-03 0. -1.
        -11    1    4    4    0    0 -0.61265220715E+01 -0.14630732386E+01 -0.37662284068E+01  0.73388917874E+01  0.51100000000E-03 0.  1.
         12    1    4    4    0    0 -0.17567258405E+02  0.28148248221E+02 -0.15269277725E+02  0.36525104901E+02  0.00000000000E+00 0. -1.
</event>
<event>
 8    1  0.2484572E-006  0.9118800E+02  0.7816164E-02  0.1184000E+00
        -11   -1    0    0    0    0  0.00000000000E+00  0.00000000000E+00  0.45593999997E+02  0.45594000000E+02  0.51100000000E-03 0. -1.
         11   -1    0    0    0    0 -0.00000000000E+00 -0.00000000000E+00 -0.45593999997E+02  0.45594000000E+02  0.51100000000E-03 0.  1.
         23    2    1    2    0    0 -0.71054273576E-14  0.00000000000E+00  0.00000000000E+00  0.91188000000E+02  0.91188000000E+02 0.  0.
    9900012    2    3    3    0    0 -0.32602015672E+02  0.14126435512E+02  0.96609395336E+01  0.54367063580E+02  0.39999953043E+02 0.  0.
        -12    1    3    3    0    0  0.32602015672E+02 -0.14126435512E+02 -0.96609395336E+01  0.36820936420E+02  0.00000000000E+00 0.  1.
         11    1    4    4    0    0 -0.15130332876E+02  0.80728947236E+00  0.39210630877E+01  0.15650987996E+02  0.51100000000E-03 0. -1.
        -11    1    4    4    0    0  0.82419198082E+01 -0.18060753535E+01  0.76782685824E+00  0.84723496536E+01  0.51100000000E-03 0.  1.
        -12    1    4    4    0    0 -0.25713602604E+02  0.15125221393E+02  0.49720495877E+01  0.30243725931E+02  0.00000000000E+00 0.  1.
</event>
<event>
 8    1  0.2484572E-006  0.9118800E+02  0.7816164E-02  0.1184000E+00
        -11   -1    0    0    0    0  0.00000000000E+00  0.00000000000E+00  0.45593999997E+02  0.45594000000E+02  0.51100000000E-03 0. -1.
         11   -1    0    0    0    0 -0.00000000000E+00 -0.00000000000E+00 -0.45593999997E+02  0.45594000000E+02  0.51100000000E-03 0.  1.
         23    2    1    2    0    0  0.00000000000E+00  0.00000000000E+00  0.00000000000E+00  0.91188000000E+02  0.91188000000E+02 0.  0.
    9900012    2    3    3    0    0 -0.34035361745E+02 -0.13965831851E+02 -0.15268123427E+01  0.54367062148E+02  0.39999949778E+02 0.  0.
         12    1    3    3    0    0  0.34035361745E+02  0.13965831851E+02  0.15268123427E+01  0.36820937852E+02  0.00000000000E+00 0. -1.
         11    1    4    4    0    0  0.55022272732E+01  0.42831417640E+01 -0.37280676617E+01  0.79068512752E+01  0.51100000000E-03 0. -1.
        -11    1    4    4    0    0 -0.24070832366E+02 -0.36675022345E+01 -0.31201342611E+01  0.24547724568E+02  0.51100000000E-03 0.  1.
         12    1    4    4    0    0 -0.15466756652E+02 -0.14581471380E+02  0.53213895801E+01  0.21912486304E+02  0.00000000000E+00 0. -1.
</event>
<event>
 8    1  0.2484572E-006  0.9118800E+02  0.7816164E-02  0.1184000E+00
        -11   -1    0    0    0    0  0.00000000000E+00  0.00000000000E+00  0.45593999997E+02  0.45594000000E+02  0.51100000000E-03 0. -1.
         11   -1    0    0    0    0 -0.00000000000E+00 -0.00000000000E+00 -0.45593999997E+02  0.45594000000E+02  0.51100000000E-03 0.  1.
         23    2    1    2    0    0  0.00000000000E+00  0.00000000000E+00  0.35527136788E-14  0.91188000000E+02  0.91188000000E+02 0.  0.
    9900012    2    3    3    0    0 -0.54321650227E+01 -0.21466699502E+02  0.29418584983E+02  0.54367071892E+02  0.39999971992E+02 0.  0.
        -12    1    3    3    0    0  0.54321650227E+01  0.21466699502E+02 -0.29418584983E+02  0.36820928108E+02  0.00000000000E+00 0.  1.
         11    1    4    4    0    0 -0.96216402715E+01  0.32264704881E+01 -0.24402632353E+01  0.10437478539E+02  0.51100000000E-03 0. -1.
        -11    1    4    4    0    0  0.97754596893E+01 -0.86554462380E+01  0.11334107638E+02  0.17289833947E+02  0.51100000000E-03 0.  1.
         12    1    4    4    0    0 -0.55859844404E+01 -0.16037723752E+02  0.20524740581E+02  0.26639759406E+02  0.00000000000E+00 0. -1.
</event>
<event>
 8    1  0.2484572E-006  0.9118800E+02  0.7816164E-02  0.1184000E+00
        -11   -1    0    0    0    0  0.00000000000E+00  0.00000000000E+00  0.45593999997E+02  0.45594000000E+02  0.51100000000E-03 0. -1.
         11   -1    0    0    0    0 -0.00000000000E+00 -0.00000000000E+00 -0.45593999997E+02  0.45594000000E+02  0.51100000000E-03 0.  1.
         23    2    1    2    0    0 -0.35527136788E-14  0.17763568394E-14  0.35527136788E-14  0.91188000000E+02  0.91188000000E+02 0.  0.
    9900012    2    3    3    0    0  0.22036630665E+02  0.78314091742E+01  0.28440039146E+02  0.54367083562E+02  0.39999998596E+02 0.  0.
        -12    1    3    3    0    0 -0.22036630665E+02 -0.78314091742E+01 -0.28440039146E+02  0.36820916438E+02  0.00000000000E+00 0.  1.
         11    1    4    4    0    0  0.85826104124E+01  0.15613059671E+02  0.20174191504E+02  0.26915178560E+02  0.51100000000E-03 0. -1.
        -11    1    4    4    0    0  0.26797199497E+01 -0.13042165384E+02  0.78464517690E+01  0.15454636280E+02  0.51100000000E-03 0.  1.
        -12    1    4    4    0    0  0.10774300303E+02  0.52605148879E+01  0.41939587294E+00  0.11997268722E+02  0.00000000000E+00 0.  1.
</event>
<event>
 8    1  0.2484572E-006  0.9118800E+02  0.7816164E-02  0.1184000E+00
        -11   -1    0    0    0    0  0.00000000000E+00  0.00000000000E+00  0.45593999997E+02  0.45594000000E+02  0.51100000000E-03 0. -1.
         11   -1    0    0    0    0 -0.00000000000E+00 -0.00000000000E+00 -0.45593999997E+02  0.45594000000E+02  0.51100000000E-03 0.  1.
         23    2    1    2    0    0  0.00000000000E+00 -0.35527136788E-14 -0.35527136788E-14  0.91188000000E+02  0.91188000000E+02 0.  0.
    9900012    2    3    3    0    0  0.16143795044E+02 -0.21148637657E+02  0.25453733543E+02  0.54367088218E+02  0.40000009211E+02 0.  0.
        -12    1    3    3    0    0 -0.16143795044E+02  0.21148637657E+02 -0.25453733543E+02  0.36820911782E+02  0.00000000000E+00 0.  1.
         11    1    4    4    0    0  0.81455026241E+01 -0.10647589934E+02  0.12209680355E+02  0.18132751557E+02  0.51100000000E-03 0. -1.
        -11    1    4    4    0    0  0.78286546384E+01 -0.91615084501E+01 -0.83098871291E+01  0.14638145200E+02  0.51100000000E-03 0.  1.
        -12    1    4    4    0    0  0.16963778146E+00 -0.13395392728E+01  0.21553940317E+02  0.21596191462E+02  0.00000000000E+00 0.  1.
</event>
<event>
 8    1  0.2484572E-006  0.9118800E+02  0.7816164E-02  0.1184000E+00
        -11   -1    0    0    0    0  0.00000000000E+00  0.00000000000E+00  0.45593999997E+02  0.45594000000E+02  0.51100000000E-03 0.  1.
         11   -1    0    0    0    0 -0.00000000000E+00 -0.00000000000E+00 -0.45593999997E+02  0.45594000000E+02  0.51100000000E-03 0. -1.
         23    2    1    2    0    0 -0.88817841970E-15 -0.35527136788E-14  0.35527136788E-14  0.91188000000E+02  0.91188000000E+02 0.  0.
    9900012    2    3    3    0    0  0.82437540364E+00  0.24171134444E+02 -0.27764309214E+02  0.54367079299E+02  0.39999988879E+02 0.  0.
        -12    1    3    3    0    0 -0.82437540364E+00 -0.24171134444E+02  0.27764309214E+02  0.36820920701E+02  0.00000000000E+00 0.  1.
         11    1    4    4    0    0 -0.43934416799E+01  0.10797116422E+02  0.89167128653E-01  0.11657101006E+02  0.51100000000E-03 0. -1.
        -11    1    4    4    0    0 -0.10042685624E+02 -0.24372962354E+01 -0.76292819034E+01  0.12845306151E+02  0.51100000000E-03 0.  1.
        -12    1    4    4    0    0  0.15260502708E+02  0.15811314257E+02 -0.20224194440E+02  0.29864672142E+02  0.00000000000E+00 0.  1.
</event>
<event>
 8    1  0.2484572E-006  0.9118800E+02  0.7816164E-02  0.1184000E+00
        -11   -1    0    0    0    0  0.00000000000E+00  0.00000000000E+00  0.45593999997E+02  0.45594000000E+02  0.51100000000E-03 0.  1.
         11   -1    0    0    0    0 -0.00000000000E+00 -0.00000000000E+00 -0.45593999997E+02  0.45594000000E+02  0.51100000000E-03 0. -1.
         23    2    1    2    0    0  0.00000000000E+00  0.88817841970E-15  0.00000000000E+00  0.91188000000E+02  0.91188000000E+02 0.  0.
    9900012    2    3    3    0    0  0.25299050159E+02 -0.33984981999E+01  0.26536528397E+02  0.54367094684E+02  0.40000023950E+02 0.  0.
         12    1    3    3    0    0 -0.25299050159E+02  0.33984981999E+01 -0.26536528397E+02  0.36820905316E+02  0.00000000000E+00 0. -1.
         11    1    4    4    0    0  0.98864514962E+01 -0.15939875458E+02  0.79372362729E+01  0.20367161626E+02  0.51100000000E-03 0. -1.
        -11    1    4    4    0    0  0.67380539207E+01  0.45130867946E+01  0.20484108010E+02  0.22031069068E+02  0.51100000000E-03 0.  1.
         12    1    4    4    0    0  0.86745447424E+01  0.80282904636E+01 -0.18848158864E+01  0.11968863989E+02  0.00000000000E+00 0. -1.
</event>
<event>
 8    1  0.2484572E-006  0.9118800E+02  0.7816164E-02  0.1184000E+00
        -11   -1    0    0    0    0  0.00000000000E+00  0.00000000000E+00  0.45593999997E+02  0.45594000000E+02  0.51100000000E-03 0. -1.
         11   -1    0    0    0    0 -0.00000000000E+00 -0.00000000000E+00 -0.45593999997E+02  0.45594000000E+02  0.51100000000E-03 0.  1.
         23    2    1    2    0    0  0.00000000000E+00  0.00000000000E+00 -0.44408920985E-15  0.91188000000E+02  0.91188000000E+02 0.  0.
    9900012    2    3    3    0    0  0.35839903181E+02  0.76244028479E+01  0.36256002506E+01  0.54367147810E+02  0.40000145062E+02 0.  0.
        -12    1    3    3    0    0 -0.35839903181E+02 -0.76244028479E+01 -0.36256002506E+01  0.36820852190E+02  0.00000000000E+00 0.  1.
         11    1    4    4    0    0  0.18457060549E+02 -0.10382504819E+02 -0.11316367071E+02  0.24010823692E+02  0.51100000000E-03 0. -1.
        -11    1    4    4    0    0  0.53645556344E+01  0.57599994090E+01  0.95383617294E+01  0.12366745533E+02  0.51100000000E-03 0.  1.
         12    1    4    4    0    0  0.12018286998E+02  0.12246908258E+02  0.54036055919E+01  0.17989578584E+02  0.00000000000E+00 0. -1.
</event>
<event>
 8    1  0.2484572E-006  0.9118800E+02  0.7816164E-02  0.1184000E+00
        -11   -1    0    0    0    0  0.00000000000E+00  0.00000000000E+00  0.45593999997E+02  0.45594000000E+02  0.51100000000E-03 0. -1.
         11   -1    0    0    0    0 -0.00000000000E+00 -0.00000000000E+00 -0.45593999997E+02  0.45594000000E+02  0.51100000000E-03 0.  1.
         23    2    1    2    0    0  0.00000000000E+00  0.00000000000E+00  0.00000000000E+00  0.91188000000E+02  0.91188000000E+02 0.  0.
    9900012    2    3    3    0    0 -0.72883800882E+01  0.11377906469E+02 -0.34252042029E+02  0.54367087150E+02  0.40000006777E+02 0.  0.
         12    1    3    3    0    0  0.72883800882E+01 -0.11377906469E+02  0.34252042029E+02  0.36820912850E+02  0.00000000000E+00 0. -1.
         11    1    4    4    0    0 -0.61148827224E+01 -0.13823337373E+02 -0.13327593813E+02  0.20151952857E+02  0.51100000000E-03 0. -1.
        -11    1    4    4    0    0  0.36732696910E+01  0.17967475057E+02 -0.14862301491E+02  0.23605318808E+02  0.51100000000E-03 0.  1.
         12    1    4    4    0    0 -0.48467670567E+01  0.72337687850E+01 -0.60621467244E+01  0.10609815486E+02  0.00000000000E+00 0. -1.
</event>
<event>
 8    1  0.2484572E-006  0.9118800E+02  0.7816164E-02  0.1184000E+00
        -11   -1    0    0    0    0  0.00000000000E+00  0.00000000000E+00  0.45593999997E+02  0.45594000000E+02  0.51100000000E-03 0.  1.
         11   -1    0    0    0    0 -0.00000000000E+00 -0.00000000000E+00 -0.45593999997E+02  0.45594000000E+02  0.51100000000E-03 0. -1.
         23    2    1    2    0    0 -0.17763568394E-14 -0.35527136788E-14  0.35527136788E-14  0.91188000000E+02  0.91188000000E+02 0.  0.
    9900012    2    3    3    0    0 -0.87022634236E+01  0.31910301691E+02  0.16179708237E+02  0.54367086088E+02  0.40000004354E+02 0.  0.
         12    1    3    3    0    0  0.87022634236E+01 -0.31910301691E+02 -0.16179708237E+02  0.36820913912E+02  0.00000000000E+00 0. -1.
         11    1    4    4    0    0 -0.89816629591E+01  0.25546803224E+02  0.22043127334E+02  0.34917171813E+02  0.51100000000E-03 0.  1.
        -11    1    4    4    0    0 -0.32412653716E+01  0.10943652556E+02 -0.72335647964E+01  0.13512727053E+02  0.51100000000E-03 0. -1.
        -12    1    4    4    0    0  0.35206649071E+01 -0.45801540894E+01  0.13701456992E+01  0.59371872219E+01  0.00000000000E+00 0.  1.
</event>
<event>
 8    1  0.2484572E-006  0.9118800E+02  0.7816164E-02  0.1184000E+00
        -11   -1    0    0    0    0  0.00000000000E+00  0.00000000000E+00  0.45593999997E+02  0.45594000000E+02  0.51100000000E-03 0. -1.
         11   -1    0    0    0    0 -0.00000000000E+00 -0.00000000000E+00 -0.45593999997E+02  0.45594000000E+02  0.51100000000E-03 0.  1.
         23    2    1    2    0    0  0.00000000000E+00  0.17763568394E-14  0.88817841970E-15  0.91188000000E+02  0.91188000000E+02 0.  0.
    9900012    2    3    3    0    0  0.35487909657E+02 -0.75702269600E+01 -0.62514892111E+01  0.54367065935E+02  0.39999958413E+02 0.  0.
        -12    1    3    3    0    0 -0.35487909657E+02  0.75702269600E+01  0.62514892111E+01  0.36820934065E+02  0.00000000000E+00 0.  1.
         11    1    4    4    0    0  0.79587844029E+01  0.12411532272E+02  0.26348685438E+01  0.14977680562E+02  0.51100000000E-03 0. -1.
        -11    1    4    4    0    0  0.23377250922E+01 -0.11277220421E+02 -0.45638666808E+01  0.12388282301E+02  0.51100000000E-03 0.  1.
         12    1    4    4    0    0  0.25191400162E+02 -0.87045388112E+01 -0.43224910742E+01  0.27001103072E+02  0.00000000000E+00 0. -1.
</event>
<event>
 8    1  0.2484572E-006  0.9118800E+02  0.7816164E-02  0.1184000E+00
        -11   -1    0    0    0    0  0.00000000000E+00  0.00000000000E+00  0.45593999997E+02  0.45594000000E+02  0.51100000000E-03 0.  1.
         11   -1    0    0    0    0 -0.00000000000E+00 -0.00000000000E+00 -0.45593999997E+02  0.45594000000E+02  0.51100000000E-03 0. -1.
         23    2    1    2    0    0  0.88817841970E-15  0.00000000000E+00  0.71054273576E-14  0.91188000000E+02  0.91188000000E+02 0.  0.
    9900012    2    3    3    0    0 -0.77432305010E+01  0.88669136175E+01 -0.34888388684E+02  0.54367089627E+02  0.40000012423E+02 0.  0.
        -12    1    3    3    0    0  0.77432305010E+01 -0.88669136175E+01  0.34888388684E+02  0.36820910373E+02  0.00000000000E+00 0.  1.
         11    1    4    4    0    0  0.81500693511E+01 -0.51303012581E+01 -0.25719690200E+02  0.27463541025E+02  0.51100000000E-03 0. -1.
        -11    1    4    4    0    0 -0.88943116332E+01  0.12885436178E+02 -0.44400463313E+00  0.15663345278E+02  0.51100000000E-03 0.  1.
        -12    1    4    4    0    0 -0.69989882188E+01  0.11117786980E+01 -0.87246938515E+01  0.11240203324E+02  0.00000000000E+00 0.  1.
</event>
<event>
 8    1  0.2484572E-006  0.9118800E+02  0.7816164E-02  0.1184000E+00
        -11   -1    0    0    0    0  0.00000000000E+00  0.00000000000E+00  0.45593999997E+02  0.45594000000E+02  0.51100000000E-03 0.  1.
         11   -1    0    0    0    0 -0.00000000000E+00 -0.00000000000E+00 -0.45593999997E+02  0.45594000000E+02  0.51100000000E-03 0. -1.
         23    2    1    2    0    0  0.35527136788E-14  0.88817841970E-15 -0.35527136788E-14  0.91188000000E+02  0.91188000000E+02 0.  0.
    9900012    2    3    3    0    0  0.30514360294E+02  0.71108697060E+01 -0.19341393413E+02  0.54367079977E+02  0.39999990425E+02 0.  0.
        -12    1    3    3    0    0 -0.30514360294E+02 -0.71108697060E+01  0.19341393413E+02  0.36820920023E+02  0.00000000000E+00 0.  1.
         11    1    4    4    0    0  0.44628784203E+01 -0.78727948742E+01 -0.35361393834E+01  0.97160930896E+01  0.51100000000E-03 0. -1.
        -11    1    4    4    0    0 -0.16040317765E+01 -0.61588970765E+01  0.12992095775E+00  0.63656744227E+01  0.51100000000E-03 0.  1.
        -12    1    4    4    0    0  0.27655513651E+02  0.21142561657E+02 -0.15935174987E+02  0.38285312465E+02  0.00000000000E+00 0.  1.
</event>
<event>
 8    1  0.2484572E-006  0.9118800E+02  0.7816164E-02  0.1184000E+00
        -11   -1    0    0    0    0  0.00000000000E+00  0.00000000000E+00  0.45593999997E+02  0.45594000000E+02  0.51100000000E-03 0.  1.
         11   -1    0    0    0    0 -0.00000000000E+00 -0.00000000000E+00 -0.45593999997E+02  0.45594000000E+02  0.51100000000E-03 0. -1.
         23    2    1    2    0    0 -0.71054273576E-14 -0.35527136788E-14  0.35527136788E-14  0.91188000000E+02  0.91188000000E+02 0.  0.
    9900012    2    3    3    0    0 -0.19425451560E+02 -0.98674274521E+01  0.29682753830E+02  0.54367079754E+02  0.39999989915E+02 0.  0.
         12    1    3    3    0    0  0.19425451560E+02  0.98674274521E+01 -0.29682753830E+02  0.36820920246E+02  0.00000000000E+00 0. -1.
         11    1    4    4    0    0  0.79990432833E+01 -0.66030746039E+01  0.16505409630E+02  0.19493943547E+02  0.51100000000E-03 0. -1.
        -11    1    4    4    0    0  0.19842287353E+00  0.45399959028E-01 -0.27891214829E+01  0.27965392364E+01  0.51100000000E-03 0.  1.
        -12    1    4    4    0    0 -0.27622917717E+02 -0.33097528072E+01  0.15966465683E+02  0.32076596971E+02  0.00000000000E+00 0.  1.
</event>
<event>
 8    1  0.2484572E-006  0.9118800E+02  0.7816164E-02  0.1184000E+00
        -11   -1    0    0    0    0  0.00000000000E+00  0.00000000000E+00  0.45593999997E+02  0.45594000000E+02  0.51100000000E-03 0. -1.
         11   -1    0    0    0    0 -0.00000000000E+00 -0.00000000000E+00 -0.45593999997E+02  0.45594000000E+02  0.51100000000E-03 0.  1.
         23    2    1    2    0    0 -0.17763568394E-14 -0.88817841970E-15  0.00000000000E+00  0.91188000000E+02  0.91188000000E+02 0.  0.
    9900012    2    3    3    0    0  0.95448601252E+01  0.60888515151E+01 -0.35037145583E+02  0.54367081513E+02  0.39999993926E+02 0.  0.
         12    1    3    3    0    0 -0.95448601252E+01 -0.60888515151E+01  0.35037145583E+02  0.36820918487E+02  0.00000000000E+00 0. -1.
         11    1    4    4    0    0 -0.25390972701E+01 -0.13049460596E+02 -0.12779270666E+02  0.18440314417E+02  0.51100000000E-03 0. -1.
        -11    1    4    4    0    0  0.11311930235E+00  0.26613744976E+01 -0.13494675787E+02  0.13755071249E+02  0.51100000000E-03 0.  1.
         12    1    4    4    0    0  0.11970838093E+02  0.16476937614E+02 -0.87631991300E+01  0.22171695848E+02  0.00000000000E+00 0. -1.
</event>
<event>
 8    1  0.2484572E-006  0.9118800E+02  0.7816164E-02  0.1184000E+00
        -11   -1    0    0    0    0  0.00000000000E+00  0.00000000000E+00  0.45593999997E+02  0.45594000000E+02  0.51100000000E-03 0. -1.
         11   -1    0    0    0    0 -0.00000000000E+00 -0.00000000000E+00 -0.45593999997E+02  0.45594000000E+02  0.51100000000E-03 0.  1.
         23    2    1    2    0    0  0.35527136788E-14 -0.35527136788E-14  0.00000000000E+00  0.91188000000E+02  0.91188000000E+02 0.  0.
    9900012    2    3    3    0    0  0.20156473255E+02 -0.15250335050E+02 -0.26775429712E+02  0.54367085162E+02  0.40000002244E+02 0.  0.
        -12    1    3    3    0    0 -0.20156473255E+02  0.15250335050E+02  0.26775429712E+02  0.36820914838E+02  0.00000000000E+00 0.  1.
         11    1    4    4    0    0 -0.78642930072E+01 -0.51790104016E+01 -0.77061281838E+01  0.12167730482E+02  0.51100000000E-03 0. -1.
        -11    1    4    4    0    0 -0.39422178225E+01 -0.26133932517E+01 -0.14469790090E+01  0.49461757107E+01  0.51100000000E-03 0.  1.
         12    1    4    4    0    0  0.31962984085E+02 -0.74579313971E+01 -0.17622322520E+02  0.37253178969E+02  0.00000000000E+00 0. -1.
</event>
<event>
 8    1  0.2484572E-006  0.9118800E+02  0.7816164E-02  0.1184000E+00
        -11   -1    0    0    0    0  0.00000000000E+00  0.00000000000E+00  0.45593999997E+02  0.45594000000E+02  0.51100000000E-03 0.  1.
         11   -1    0    0    0    0 -0.00000000000E+00 -0.00000000000E+00 -0.45593999997E+02  0.45594000000E+02  0.51100000000E-03 0. -1.
         23    2    1    2    0    0  0.00000000000E+00  0.00000000000E+00  0.00000000000E+00  0.91188000000E+02  0.91188000000E+02 0.  0.
    9900012    2    3    3    0    0  0.41765245600E+01  0.34299204595E+02 -0.12724058389E+02  0.54367075851E+02  0.39999981018E+02 0.  0.
        -12    1    3    3    0    0 -0.41765245600E+01 -0.34299204595E+02  0.12724058389E+02  0.36820924149E+02  0.00000000000E+00 0.  1.
         11    1    4    4    0    0 -0.80733721327E+00 -0.66579280669E+01 -0.10966683015E+02  0.12854879857E+02  0.51100000000E-03 0. -1.
        -11    1    4    4    0    0 -0.39198392174E+00  0.46593900932E+01  0.73816628359E+00  0.47337571926E+01  0.51100000000E-03 0.  1.
         12    1    4    4    0    0  0.53758456950E+01  0.36297742569E+02 -0.24955416578E+01  0.36778438802E+02  0.00000000000E+00 0. -1.
</event>
<event>
 8    1  0.2484572E-006  0.9118800E+02  0.7816164E-02  0.1184000E+00
        -11   -1    0    0    0    0  0.00000000000E+00  0.00000000000E+00  0.45593999997E+02  0.45594000000E+02  0.51100000000E-03 0.  1.
         11   -1    0    0    0    0 -0.00000000000E+00 -0.00000000000E+00 -0.45593999997E+02  0.45594000000E+02  0.51100000000E-03 0. -1.
         23    2    1    2    0    0  0.00000000000E+00 -0.88817841970E-15  0.17763568394E-14  0.91188000000E+02  0.91188000000E+02 0.  0.
    9900012    2    3    3    0    0 -0.33522150269E+02 -0.46749068882E+01  0.14497930391E+02  0.54367091556E+02  0.40000016819E+02 0.  0.
         12    1    3    3    0    0  0.33522150269E+02  0.46749068882E+01 -0.14497930391E+02  0.36820908444E+02  0.00000000000E+00 0. -1.
         11    1    4    4    0    0 -0.19420559692E+02 -0.71236647543E+01 -0.93510592762E+01  0.22701256532E+02  0.51100000000E-03 0. -1.
        -11    1    4    4    0    0 -0.23660081095E+01  0.48628006637E+01  0.51090142407E+00  0.54319283128E+01  0.51100000000E-03 0.  1.
        -12    1    4    4    0    0 -0.11735582468E+02 -0.24140427976E+01  0.23338088243E+02  0.26233906711E+02  0.00000000000E+00 0.  1.
</event>
<event>
 8    1  0.2484572E-006  0.9118800E+02  0.7816164E-02  0.1184000E+00
        -11   -1    0    0    0    0  0.00000000000E+00  0.00000000000E+00  0.45593999997E+02  0.45594000000E+02  0.51100000000E-03 0.  1.
         11   -1    0    0    0    0 -0.00000000000E+00 -0.00000000000E+00 -0.45593999997E+02  0.45594000000E+02  0.51100000000E-03 0. -1.
         23    2    1    2    0    0 -0.88817841970E-15  0.00000000000E+00  0.00000000000E+00  0.91188000000E+02  0.91188000000E+02 0.  0.
    9900012    2    3    3    0    0 -0.78362995020E+01  0.32628110059E+02 -0.15158319043E+02  0.54367139172E+02  0.40000125370E+02 0.  0.
        -12    1    3    3    0    0  0.78362995020E+01 -0.32628110059E+02  0.15158319043E+02  0.36820860828E+02  0.00000000000E+00 0.  1.
         11    1    4    4    0    0  0.95598763493E+00 -0.31227440583E+01  0.84748951440E+01  0.90823615198E+01  0.51100000000E-03 0. -1.
        -11    1    4    4    0    0 -0.41462983930E+01  0.21164027430E+01 -0.23868446660E+01  0.52314413554E+01  0.51100000000E-03 0.  1.
         12    1    4    4    0    0 -0.46459887439E+01  0.33634451374E+02 -0.21246369521E+02  0.40053336297E+02  0.00000000000E+00 0. -1.
</event>
<event>
 8    1  0.2484572E-006  0.9118800E+02  0.7816164E-02  0.1184000E+00
        -11   -1    0    0    0    0  0.00000000000E+00  0.00000000000E+00  0.45593999997E+02  0.45594000000E+02  0.51100000000E-03 0. -1.
         11   -1    0    0    0    0 -0.00000000000E+00 -0.00000000000E+00 -0.45593999997E+02  0.45594000000E+02  0.51100000000E-03 0.  1.
         23    2    1    2    0    0  0.88817841970E-15  0.00000000000E+00 -0.17763568394E-14  0.91188000000E+02  0.91188000000E+02 0.  0.
    9900012    2    3    3    0    0  0.77513203855E+01  0.32633090674E+02 -0.15191401465E+02  0.54367078595E+02  0.39999987273E+02 0.  0.
         12    1    3    3    0    0 -0.77513203855E+01 -0.32633090674E+02  0.15191401465E+02  0.36820921405E+02  0.00000000000E+00 0. -1.
         11    1    4    4    0    0 -0.16887381333E+01  0.38560745047E+01  0.57592021282E+01  0.71336916448E+01  0.51100000000E-03 0. -1.
        -11    1    4    4    0    0 -0.33072322105E+01  0.19542550533E+02  0.14297665383E+01  0.19871922375E+02  0.51100000000E-03 0.  1.
        -12    1    4    4    0    0  0.12747290729E+02  0.92344656359E+01 -0.22380370131E+02  0.27361464576E+02  0.00000000000E+00 0.  1.
</event>
<event>
 8    1  0.2484572E-006  0.9118800E+02  0.7816164E-02  0.1184000E+00
        -11   -1    0    0    0    0  0.00000000000E+00  0.00000000000E+00  0.45593999997E+02  0.45594000000E+02  0.51100000000E-03 0. -1.
         11   -1    0    0    0    0 -0.00000000000E+00 -0.00000000000E+00 -0.45593999997E+02  0.45594000000E+02  0.51100000000E-03 0.  1.
         23    2    1    2    0    0  0.00000000000E+00  0.00000000000E+00 -0.88817841970E-15  0.91188000000E+02  0.91188000000E+02 0.  0.
    9900012    2    3    3    0    0 -0.16082436441E+02 -0.32209802697E+02 -0.77242394121E+01  0.54367081677E+02  0.39999994300E+02 0.  0.
         12    1    3    3    0    0  0.16082436441E+02  0.32209802697E+02  0.77242394121E+01  0.36820918323E+02  0.00000000000E+00 0. -1.
         11    1    4    4    0    0 -0.92217571957E+01 -0.11509079189E+02  0.12657336575E+02  0.19434708101E+02  0.51100000000E-03 0. -1.
        -11    1    4    4    0    0  0.37163835120E+01 -0.89279794555E+01 -0.15680242319E+02  0.18422549308E+02  0.51100000000E-03 0.  1.
         12    1    4    4    0    0 -0.10577062757E+02 -0.11772744053E+02 -0.47013336682E+01  0.16509824268E+02  0.00000000000E+00 0. -1.
</event>
<event>
 8    1  0.2484572E-006  0.9118800E+02  0.7816164E-02  0.1184000E+00
        -11   -1    0    0    0    0  0.00000000000E+00  0.00000000000E+00  0.45593999997E+02  0.45594000000E+02  0.51100000000E-03 0. -1.
         11   -1    0    0    0    0 -0.00000000000E+00 -0.00000000000E+00 -0.45593999997E+02  0.45594000000E+02  0.51100000000E-03 0.  1.
         23    2    1    2    0    0 -0.11102230246E-15 -0.35527136788E-14  0.35527136788E-14  0.91188000000E+02  0.91188000000E+02 0.  0.
    9900012    2    3    3    0    0 -0.18049116419E+00 -0.29424295706E+02 -0.22135018180E+02  0.54367071376E+02  0.39999970817E+02 0.  0.
         12    1    3    3    0    0  0.18049116419E+00  0.29424295706E+02  0.22135018180E+02  0.36820928624E+02  0.00000000000E+00 0. -1.
         11    1    4    4    0    0 -0.27432433421E+01 -0.13790425570E+01 -0.13659130699E+02  0.13999964076E+02  0.51100000000E-03 0. -1.
        -11    1    4    4    0    0 -0.56170019283E+01 -0.27477079472E+02 -0.13099583188E+02  0.30953831539E+02  0.51100000000E-03 0.  1.
         12    1    4    4    0    0  0.81797541062E+01 -0.56817367709E+00  0.46236957071E+01  0.94132757613E+01  0.00000000000E+00 0. -1.
</event>
<event>
 8    1  0.2484572E-006  0.9118800E+02  0.7816164E-02  0.1184000E+00
        -11   -1    0    0    0    0  0.00000000000E+00  0.00000000000E+00  0.45593999997E+02  0.45594000000E+02  0.51100000000E-03 0.  1.
         11   -1    0    0    0    0 -0.00000000000E+00 -0.00000000000E+00 -0.45593999997E+02  0.45594000000E+02  0.51100000000E-03 0. -1.
         23    2    1    2    0    0  0.00000000000E+00  0.00000000000E+00  0.00000000000E+00  0.91188000000E+02  0.91188000000E+02 0.  0.
    9900012    2    3    3    0    0  0.85706522902E+01 -0.34875607325E+02  0.81250384266E+01  0.54367077736E+02  0.39999985315E+02 0.  0.
         12    1    3    3    0    0 -0.85706522902E+01  0.34875607325E+02 -0.81250384266E+01  0.36820922264E+02  0.00000000000E+00 0. -1.
         11    1    4    4    0    0  0.15915554323E+02 -0.19405028695E+02 -0.78286412675E+01  0.26289686807E+02  0.51100000000E-03 0. -1.
        -11    1    4    4    0    0  0.26934475757E+01 -0.85078015042E+01  0.12542713898E+02  0.15393408280E+02  0.51100000000E-03 0.  1.
         12    1    4    4    0    0 -0.10038349609E+02 -0.69627771254E+01  0.34109657956E+01  0.12683982648E+02  0.00000000000E+00 0. -1.
</event>
<event>
 8    1  0.2484572E-006  0.9118800E+02  0.7816164E-02  0.1184000E+00
        -11   -1    0    0    0    0  0.00000000000E+00  0.00000000000E+00  0.45593999997E+02  0.45594000000E+02  0.51100000000E-03 0.  1.
         11   -1    0    0    0    0 -0.00000000000E+00 -0.00000000000E+00 -0.45593999997E+02  0.45594000000E+02  0.51100000000E-03 0. -1.
         23    2    1    2    0    0  0.17763568394E-14 -0.13322676296E-14  0.00000000000E+00  0.91188000000E+02  0.91188000000E+02 0.  0.
    9900012    2    3    3    0    0  0.15436107710E+02 -0.35321235420E+01  0.33241998826E+02  0.54367084695E+02  0.40000001179E+02 0.  0.
         12    1    3    3    0    0 -0.15436107710E+02  0.35321235420E+01 -0.33241998826E+02  0.36820915305E+02  0.00000000000E+00 0. -1.
         11    1    4    4    0    0 -0.22853415840E+01  0.80914645040E+00 -0.60985757972E+01  0.65627837957E+01  0.51100000000E-03 0. -1.
        -11    1    4    4    0    0  0.12465088488E+02  0.72089973751E+01  0.19211064337E+02  0.24008604028E+02  0.51100000000E-03 0.  1.
         12    1    4    4    0    0  0.52563608053E+01 -0.11550267368E+02  0.20129510287E+02  0.23795696871E+02  0.00000000000E+00 0. -1.
</event>
<event>
 8    1  0.2484572E-006  0.9118800E+02  0.7816164E-02  0.1184000E+00
        -11   -1    0    0    0    0  0.00000000000E+00  0.00000000000E+00  0.45593999997E+02  0.45594000000E+02  0.51100000000E-03 0. -1.
         11   -1    0    0    0    0 -0.00000000000E+00 -0.00000000000E+00 -0.45593999997E+02  0.45594000000E+02  0.51100000000E-03 0.  1.
         23    2    1    2    0    0  0.17763568394E-14 -0.35527136788E-14 -0.71054273576E-14  0.91188000000E+02  0.91188000000E+02 0.  0.
    9900012    2    3    3    0    0  0.45063090943E+01 -0.18331826756E+02 -0.31613558124E+02  0.54367085412E+02  0.40000002813E+02 0.  0.
         12    1    3    3    0    0 -0.45063090943E+01  0.18331826756E+02  0.31613558124E+02  0.36820914588E+02  0.00000000000E+00 0. -1.
         11    1    4    4    0    0 -0.84152142163E+01 -0.47122367193E+01 -0.21664783533E+02  0.23714633689E+02  0.51100000000E-03 0. -1.
        -11    1    4    4    0    0  0.24140312591E+01  0.15396692038E+00 -0.12860088483E+02  0.13085607697E+02  0.51100000000E-03 0.  1.
         12    1    4    4    0    0  0.10507492052E+02 -0.13773556957E+02  0.29113138923E+01  0.17566844027E+02  0.00000000000E+00 0. -1.
</event>
<event>
 8    1  0.2484572E-006  0.9118800E+02  0.7816164E-02  0.1184000E+00
        -11   -1    0    0    0    0  0.00000000000E+00  0.00000000000E+00  0.45593999997E+02  0.45594000000E+02  0.51100000000E-03 0.  1.
         11   -1    0    0    0    0 -0.00000000000E+00 -0.00000000000E+00 -0.45593999997E+02  0.45594000000E+02  0.51100000000E-03 0. -1.
         23    2    1    2    0    0  0.88817841970E-15  0.00000000000E+00  0.22204460493E-15  0.91188000000E+02  0.91188000000E+02 0.  0.
    9900012    2    3    3    0    0 -0.76693263698E+01 -0.35990034585E+02 -0.12995795130E+01  0.54366945381E+02  0.39999683583E+02 0.  0.
        -12    1    3    3    0    0  0.76693263698E+01  0.35990034585E+02  0.12995795130E+01  0.36821054619E+02  0.00000000000E+00 0.  1.
         11    1    4    4    0    0  0.18649742219E+01  0.64522915883E+01  0.69277798984E+00  0.67520468891E+01  0.51100000000E-03 0.  1.
        -11    1    4    4    0    0 -0.49005754074E+01 -0.17100075904E+02 -0.10288714968E+02  0.20549595889E+02  0.51100000000E-03 0. -1.
         12    1    4    4    0    0 -0.46337251843E+01 -0.25342250268E+02  0.82963574653E+01  0.27065302602E+02  0.00000000000E+00 0. -1.
</event>
<event>
 8    1  0.2484572E-006  0.9118800E+02  0.7816164E-02  0.1184000E+00
        -11   -1    0    0    0    0  0.00000000000E+00  0.00000000000E+00  0.45593999997E+02  0.45594000000E+02  0.51100000000E-03 0.  1.
         11   -1    0    0    0    0 -0.00000000000E+00 -0.00000000000E+00 -0.45593999997E+02  0.45594000000E+02  0.51100000000E-03 0. -1.
         23    2    1    2    0    0 -0.35527136788E-14  0.00000000000E+00  0.35527136788E-14  0.91188000000E+02  0.91188000000E+02 0.  0.
    9900012    2    3    3    0    0 -0.16971817154E+02  0.23263053274E+02  0.22947251201E+02  0.54366965755E+02  0.39999730032E+02 0.  0.
         12    1    3    3    0    0  0.16971817154E+02 -0.23263053274E+02 -0.22947251201E+02  0.36821034245E+02  0.00000000000E+00 0. -1.
         11    1    4    4    0    0 -0.14242004667E+02  0.73626091987E+01  0.59581077148E+01  0.17103852167E+02  0.51100000000E-03 0. -1.
        -11    1    4    4    0    0 -0.11922244169E+02 -0.22438565706E+01  0.27643259053E+01  0.12442519693E+02  0.51100000000E-03 0.  1.
        -12    1    4    4    0    0  0.91924316811E+01  0.18144300646E+02  0.14224817581E+02  0.24820593896E+02  0.00000000000E+00 0.  1.
</event>
<event>
 8    1  0.2484572E-006  0.9118800E+02  0.7816164E-02  0.1184000E+00
        -11   -1    0    0    0    0  0.00000000000E+00  0.00000000000E+00  0.45593999997E+02  0.45594000000E+02  0.51100000000E-03 0. -1.
         11   -1    0    0    0    0 -0.00000000000E+00 -0.00000000000E+00 -0.45593999997E+02  0.45594000000E+02  0.51100000000E-03 0.  1.
         23    2    1    2    0    0  0.00000000000E+00 -0.35527136788E-14  0.35527136788E-14  0.91188000000E+02  0.91188000000E+02 0.  0.
    9900012    2    3    3    0    0 -0.99085426237E+01 -0.29030094348E+02 -0.20368017762E+02  0.54367058373E+02  0.39999941173E+02 0.  0.
         12    1    3    3    0    0  0.99085426237E+01  0.29030094348E+02  0.20368017762E+02  0.36820941627E+02  0.00000000000E+00 0. -1.
         11    1    4    4    0    0 -0.22436185183E+02 -0.19508090000E+02 -0.74563650532E+01  0.30652004194E+02  0.51100000000E-03 0. -1.
        -11    1    4    4    0    0  0.87075974719E+01 -0.10141050847E+02 -0.14327412275E+02  0.19594333588E+02  0.51100000000E-03 0.  1.
        -12    1    4    4    0    0  0.38200450874E+01  0.61904649998E+00  0.14157595660E+01  0.41207205908E+01  0.00000000000E+00 0.  1.
</event>
<event>
 8    1  0.2484572E-006  0.9118800E+02  0.7816164E-02  0.1184000E+00
        -11   -1    0    0    0    0  0.00000000000E+00  0.00000000000E+00  0.45593999997E+02  0.45594000000E+02  0.51100000000E-03 0. -1.
         11   -1    0    0    0    0 -0.00000000000E+00 -0.00000000000E+00 -0.45593999997E+02  0.45594000000E+02  0.51100000000E-03 0.  1.
         23    2    1    2    0    0  0.00000000000E+00  0.00000000000E+00 -0.35527136788E-14  0.91188000000E+02  0.91188000000E+02 0.  0.
    9900012    2    3    3    0    0 -0.18039756579E+02  0.30194386933E+01  0.31956681297E+02  0.54367091443E+02  0.40000016562E+02 0.  0.
        -12    1    3    3    0    0  0.18039756579E+02 -0.30194386933E+01 -0.31956681297E+02  0.36820908557E+02  0.00000000000E+00 0.  1.
         11    1    4    4    0    0 -0.24806994041E+02  0.41259683006E+01  0.55255630735E+01  0.25747668153E+02  0.51100000000E-03 0. -1.
        -11    1    4    4    0    0  0.19724549538E+01 -0.63437822262E+00  0.35525668986E+00  0.21021945321E+01  0.51100000000E-03 0.  1.
         12    1    4    4    0    0  0.47947825082E+01 -0.47215138467E+00  0.26075861534E+02  0.26517228757E+02  0.00000000000E+00 0. -1.
</event>
<event>
 8    1  0.2484572E-006  0.9118800E+02  0.7816164E-02  0.1184000E+00
        -11   -1    0    0    0    0  0.00000000000E+00  0.00000000000E+00  0.45593999997E+02  0.45594000000E+02  0.51100000000E-03 0.  1.
         11   -1    0    0    0    0 -0.00000000000E+00 -0.00000000000E+00 -0.45593999997E+02  0.45594000000E+02  0.51100000000E-03 0. -1.
         23    2    1    2    0    0  0.35527136788E-14 -0.44408920985E-15  0.00000000000E+00  0.91188000000E+02  0.91188000000E+02 0.  0.
    9900012    2    3    3    0    0 -0.31697586537E+02  0.17477694491E+01 -0.18654461647E+02  0.54367073482E+02  0.39999975618E+02 0.  0.
        -12    1    3    3    0    0  0.31697586537E+02 -0.17477694491E+01  0.18654461647E+02  0.36820926518E+02  0.00000000000E+00 0.  1.
         11    1    4    4    0    0  0.38509521453E+01  0.20510207572E+01 -0.26410600512E+01  0.51001683332E+01  0.51100000000E-03 0. -1.
        -11    1    4    4    0    0 -0.56032347551E+01  0.38993329363E+01  0.80984548028E+01  0.10591789628E+02  0.51100000000E-03 0.  1.
        -12    1    4    4    0    0 -0.29945303927E+02 -0.42025842443E+01 -0.24111856398E+02  0.38675115521E+02  0.00000000000E+00 0.  1.
</event>
<event>
 8    1  0.2484572E-006  0.9118800E+02  0.7816164E-02  0.1184000E+00
        -11   -1    0    0    0    0  0.00000000000E+00  0.00000000000E+00  0.45593999997E+02  0.45594000000E+02  0.51100000000E-03 0. -1.
         11   -1    0    0    0    0 -0.00000000000E+00 -0.00000000000E+00 -0.45593999997E+02  0.45594000000E+02  0.51100000000E-03 0.  1.
         23    2    1    2    0    0  0.35527136788E-14  0.00000000000E+00  0.00000000000E+00  0.91188000000E+02  0.91188000000E+02 0.  0.
    9900012    2    3    3    0    0  0.15707856471E+02  0.23131517895E+02  0.23957775698E+02  0.54367097086E+02  0.40000029426E+02 0.  0.
        -12    1    3    3    0    0 -0.15707856471E+02 -0.23131517895E+02 -0.23957775698E+02  0.36820902914E+02  0.00000000000E+00 0.  1.
         11    1    4    4    0    0  0.23147237200E+02  0.19067296817E+02  0.20427414349E+02  0.36285474437E+02  0.51100000000E-03 0. -1.
        -11    1    4    4    0    0 -0.11457768109E+02 -0.52361905115E-02  0.44451739822E+01  0.12289835209E+02  0.51100000000E-03 0.  1.
        -12    1    4    4    0    0  0.40183873802E+01  0.40694572680E+01 -0.91481263285E+00  0.57917874397E+01  0.00000000000E+00 0.  1.
</event>
<event>
 8    1  0.2484572E-006  0.9118800E+02  0.7816164E-02  0.1184000E+00
        -11   -1    0    0    0    0  0.00000000000E+00  0.00000000000E+00  0.45593999997E+02  0.45594000000E+02  0.51100000000E-03 0.  1.
         11   -1    0    0    0    0 -0.00000000000E+00 -0.00000000000E+00 -0.45593999997E+02  0.45594000000E+02  0.51100000000E-03 0. -1.
         23    2    1    2    0    0  0.00000000000E+00  0.00000000000E+00  0.35527136788E-14  0.91188000000E+02  0.91188000000E+02 0.  0.
    9900012    2    3    3    0    0 -0.16446715002E+02  0.97144106200E+01 -0.31478759535E+02  0.54367129425E+02  0.40000103150E+02 0.  0.
        -12    1    3    3    0    0  0.16446715002E+02 -0.97144106200E+01  0.31478759535E+02  0.36820870575E+02  0.00000000000E+00 0.  1.
         11    1    4    4    0    0 -0.74281074013E+01  0.26357866948E+01 -0.46066317691E+01  0.91293596481E+01  0.51100000000E-03 0.  1.
        -11    1    4    4    0    0 -0.22112110316E+02  0.71797442997E+01 -0.16052009102E+02  0.28251745916E+02  0.51100000000E-03 0. -1.
        -12    1    4    4    0    0  0.13093502716E+02 -0.10112037453E+00 -0.10820118664E+02  0.16986023861E+02  0.00000000000E+00 0.  1.
</event>
<event>
 8    1  0.2484572E-006  0.9118800E+02  0.7816164E-02  0.1184000E+00
        -11   -1    0    0    0    0  0.00000000000E+00  0.00000000000E+00  0.45593999997E+02  0.45594000000E+02  0.51100000000E-03 0. -1.
         11   -1    0    0    0    0 -0.00000000000E+00 -0.00000000000E+00 -0.45593999997E+02  0.45594000000E+02  0.51100000000E-03 0.  1.
         23    2    1    2    0    0  0.00000000000E+00  0.00000000000E+00  0.00000000000E+00  0.91188000000E+02  0.91188000000E+02 0.  0.
    9900012    2    3    3    0    0 -0.18992327404E+02 -0.24757495855E+02 -0.19548353736E+02  0.54367078840E+02  0.39999987832E+02 0.  0.
        -12    1    3    3    0    0  0.18992327404E+02  0.24757495855E+02  0.19548353736E+02  0.36820921160E+02  0.00000000000E+00 0.  1.
         11    1    4    4    0    0 -0.62443932464E+01  0.31320044003E+01 -0.52211493005E+01  0.87213702397E+01  0.51100000000E-03 0. -1.
        -11    1    4    4    0    0  0.69286319865E+01 -0.17437036537E+02 -0.13917625328E+02  0.23361431451E+02  0.51100000000E-03 0.  1.
        -12    1    4    4    0    0 -0.19676566145E+02 -0.10452463718E+02 -0.40957910666E+00  0.22284277149E+02  0.00000000000E+00 0.  1.
</event>
<event>
 8    1  0.2484572E-006  0.9118800E+02  0.7816164E-02  0.1184000E+00
        -11   -1    0    0    0    0  0.00000000000E+00  0.00000000000E+00  0.45593999997E+02  0.45594000000E+02  0.51100000000E-03 0.  1.
         11   -1    0    0    0    0 -0.00000000000E+00 -0.00000000000E+00 -0.45593999997E+02  0.45594000000E+02  0.51100000000E-03 0. -1.
         23    2    1    2    0    0  0.35527136788E-14  0.00000000000E+00  0.00000000000E+00  0.91188000000E+02  0.91188000000E+02 0.  0.
    9900012    2    3    3    0    0 -0.26353183583E+02 -0.17331900624E+02  0.18997199876E+02  0.54367100129E+02  0.40000036364E+02 0.  0.
         12    1    3    3    0    0  0.26353183583E+02  0.17331900624E+02 -0.18997199876E+02  0.36820899871E+02  0.00000000000E+00 0. -1.
         11    1    4    4    0    0 -0.20226404791E+02 -0.12899053078E+02  0.22258397470E+02  0.32725055833E+02  0.51100000000E-03 0.  1.
        -11    1    4    4    0    0 -0.12251838301E+02  0.20738741859E+01 -0.24862714591E+01  0.12672412632E+02  0.51100000000E-03 0. -1.
        -12    1    4    4    0    0  0.61250595086E+01 -0.65067217320E+01 -0.77492613453E+00  0.89696316645E+01  0.00000000000E+00 0.  1.
</event>
<event>
 8    1  0.2484572E-006  0.9118800E+02  0.7816164E-02  0.1184000E+00
        -11   -1    0    0    0    0  0.00000000000E+00  0.00000000000E+00  0.45593999997E+02  0.45594000000E+02  0.51100000000E-03 0.  1.
         11   -1    0    0    0    0 -0.00000000000E+00 -0.00000000000E+00 -0.45593999997E+02  0.45594000000E+02  0.51100000000E-03 0. -1.
         23    2    1    2    0    0  0.00000000000E+00  0.00000000000E+00  0.00000000000E+00  0.91188000000E+02  0.91188000000E+02 0.  0.
    9900012    2    3    3    0    0 -0.23615767016E+02  0.18394258051E+02  0.21441250487E+02  0.54367076553E+02  0.39999982618E+02 0.  0.
         12    1    3    3    0    0  0.23615767016E+02 -0.18394258051E+02 -0.21441250487E+02  0.36820923447E+02  0.00000000000E+00 0. -1.
         11    1    4    4    0    0  0.20847412469E+01  0.24193809669E+01 -0.16357514344E+01  0.35882075394E+01  0.51100000000E-03 0. -1.
        -11    1    4    4    0    0 -0.26030948032E+02  0.16932892888E+02  0.35843470024E+01  0.31259889006E+02  0.51100000000E-03 0.  1.
        -12    1    4    4    0    0  0.33043976845E+00 -0.95801580397E+00  0.19492654920E+02  0.19518980007E+02  0.00000000000E+00 0.  1.
</event>
<event>
 8    1  0.2484572E-006  0.9118800E+02  0.7816164E-02  0.1184000E+00
        -11   -1    0    0    0    0  0.00000000000E+00  0.00000000000E+00  0.45593999997E+02  0.45594000000E+02  0.51100000000E-03 0. -1.
         11   -1    0    0    0    0 -0.00000000000E+00 -0.00000000000E+00 -0.45593999997E+02  0.45594000000E+02  0.51100000000E-03 0.  1.
         23    2    1    2    0    0  0.71054273576E-14  0.00000000000E+00  0.00000000000E+00  0.91188000000E+02  0.91188000000E+02 0.  0.
    9900012    2    3    3    0    0 -0.23428179839E+02  0.15599716357E+02 -0.23739153080E+02  0.54367107154E+02  0.40000052379E+02 0.  0.
         12    1    3    3    0    0  0.23428179839E+02 -0.15599716357E+02  0.23739153080E+02  0.36820892846E+02  0.00000000000E+00 0. -1.
         11    1    4    4    0    0  0.20988551540E+01  0.21274392260E+01 -0.11991845336E+02  0.12358622312E+02  0.51100000000E-03 0. -1.
        -11    1    4    4    0    0 -0.24285151369E+02  0.17994849875E+02 -0.17231514479E+02  0.34792359658E+02  0.51100000000E-03 0.  1.
         12    1    4    4    0    0 -0.12418836241E+01 -0.45225727441E+01  0.54842067353E+01  0.72161251844E+01  0.00000000000E+00 0. -1.
</event>
<event>
 8    1  0.2484572E-006  0.9118800E+02  0.7816164E-02  0.1184000E+00
        -11   -1    0    0    0    0  0.00000000000E+00  0.00000000000E+00  0.45593999997E+02  0.45594000000E+02  0.51100000000E-03 0.  1.
         11   -1    0    0    0    0 -0.00000000000E+00 -0.00000000000E+00 -0.45593999997E+02  0.45594000000E+02  0.51100000000E-03 0. -1.
         23    2    1    2    0    0  0.00000000000E+00 -0.71054273576E-14  0.88817841970E-15  0.91188000000E+02  0.91188000000E+02 0.  0.
    9900012    2    3    3    0    0  0.12658170881E+02  0.34037189024E+02 -0.60844581939E+01  0.54367079883E+02  0.39999990210E+02 0.  0.
         12    1    3    3    0    0 -0.12658170881E+02 -0.34037189024E+02  0.60844581939E+01  0.36820920117E+02  0.00000000000E+00 0. -1.
         11    1    4    4    0    0  0.14647704625E+01  0.50615447482E+01 -0.38011795554E+01  0.64972112494E+01  0.51100000000E-03 0. -1.
        -11    1    4    4    0    0 -0.12447609546E+02  0.10293494021E+02 -0.65648357715E+01  0.17435483117E+02  0.51100000000E-03 0.  1.
        -12    1    4    4    0    0  0.23641009965E+02  0.18682150255E+02  0.42815571331E+01  0.30434385517E+02  0.00000000000E+00 0.  1.
</event>
<event>
 8    1  0.2484572E-006  0.9118800E+02  0.7816164E-02  0.1184000E+00
        -11   -1    0    0    0    0  0.00000000000E+00  0.00000000000E+00  0.45593999997E+02  0.45594000000E+02  0.51100000000E-03 0. -1.
         11   -1    0    0    0    0 -0.00000000000E+00 -0.00000000000E+00 -0.45593999997E+02  0.45594000000E+02  0.51100000000E-03 0.  1.
         23    2    1    2    0    0  0.00000000000E+00  0.17763568394E-14  0.35527136788E-14  0.91188000000E+02  0.91188000000E+02 0.  0.
    9900012    2    3    3    0    0  0.19691012419E+02  0.15059952510E+02  0.27225748991E+02  0.54367088173E+02  0.40000009107E+02 0.  0.
        -12    1    3    3    0    0 -0.19691012419E+02 -0.15059952510E+02 -0.27225748991E+02  0.36820911827E+02  0.00000000000E+00 0.  1.
         11    1    4    4    0    0  0.21618522436E+02 -0.84799161129E+00 -0.77206199286E-01  0.21635285142E+02  0.51100000000E-03 0. -1.
        -11    1    4    4    0    0  0.74883183456E-01  0.10691975428E+02  0.23918372851E+02  0.26199475303E+02  0.51100000000E-03 0.  1.
         12    1    4    4    0    0 -0.20023932004E+01  0.52159686930E+01  0.33845823386E+01  0.65323277277E+01  0.00000000000E+00 0. -1.
</event>
<event>
 8    1  0.2484572E-006  0.9118800E+02  0.7816164E-02  0.1184000E+00
        -11   -1    0    0    0    0  0.00000000000E+00  0.00000000000E+00  0.45593999997E+02  0.45594000000E+02  0.51100000000E-03 0.  1.
         11   -1    0    0    0    0 -0.00000000000E+00 -0.00000000000E+00 -0.45593999997E+02  0.45594000000E+02  0.51100000000E-03 0. -1.
         23    2    1    2    0    0 -0.88817841970E-15  0.00000000000E+00  0.00000000000E+00  0.91188000000E+02  0.91188000000E+02 0.  0.
    9900012    2    3    3    0    0 -0.71421438005E+01 -0.12811960084E+02 -0.33773102694E+02  0.54367095545E+02  0.40000025914E+02 0.  0.
        -12    1    3    3    0    0  0.71421438005E+01  0.12811960084E+02  0.33773102694E+02  0.36820904455E+02  0.00000000000E+00 0.  1.
         11    1    4    4    0    0 -0.86566768036E+01  0.22547482460E+01 -0.41288517031E+01  0.98523783718E+01  0.51100000000E-03 0. -1.
        -11    1    4    4    0    0  0.12850564732E+01 -0.22548400196E+02 -0.12513275901E+02  0.25819833376E+02  0.51100000000E-03 0.  1.
         12    1    4    4    0    0  0.22947652985E+00  0.74816918657E+01 -0.17130975090E+02  0.18694883797E+02  0.00000000000E+00 0. -1.
</event>
<event>
 8    1  0.2484572E-006  0.9118800E+02  0.7816164E-02  0.1184000E+00
        -11   -1    0    0    0    0  0.00000000000E+00  0.00000000000E+00  0.45593999997E+02  0.45594000000E+02  0.51100000000E-03 0.  1.
         11   -1    0    0    0    0 -0.00000000000E+00 -0.00000000000E+00 -0.45593999997E+02  0.45594000000E+02  0.51100000000E-03 0. -1.
         23    2    1    2    0    0  0.00000000000E+00  0.00000000000E+00  0.00000000000E+00  0.91188000000E+02  0.91188000000E+02 0.  0.
    9900012    2    3    3    0    0 -0.91048862406E+01  0.59506834995E+01 -0.35177690855E+02  0.54367088531E+02  0.40000009923E+02 0.  0.
        -12    1    3    3    0    0  0.91048862406E+01 -0.59506834995E+01  0.35177690855E+02  0.36820911469E+02  0.00000000000E+00 0.  1.
         11    1    4    4    0    0 -0.36816988223E+01  0.13997702116E+02 -0.22295751365E+02  0.26581781353E+02  0.51100000000E-03 0.  1.
        -11    1    4    4    0    0 -0.90751255647E+01 -0.66284109289E+01  0.28327812976E+01  0.11589580907E+02  0.51100000000E-03 0. -1.
         12    1    4    4    0    0  0.36519381463E+01 -0.14186076872E+01 -0.15714720788E+02  0.16195726271E+02  0.00000000000E+00 0. -1.
</event>
<event>
 8    1  0.2484572E-006  0.9118800E+02  0.7816164E-02  0.1184000E+00
        -11   -1    0    0    0    0  0.00000000000E+00  0.00000000000E+00  0.45593999997E+02  0.45594000000E+02  0.51100000000E-03 0.  1.
         11   -1    0    0    0    0 -0.00000000000E+00 -0.00000000000E+00 -0.45593999997E+02  0.45594000000E+02  0.51100000000E-03 0. -1.
         23    2    1    2    0    0  0.35527136788E-14  0.26645352591E-14  0.35527136788E-14  0.91188000000E+02  0.91188000000E+02 0.  0.
    9900012    2    3    3    0    0  0.29578304417E+02  0.48501208062E+01  0.21386467984E+02  0.54367071484E+02  0.39999971061E+02 0.  0.
         12    1    3    3    0    0 -0.29578304417E+02 -0.48501208062E+01 -0.21386467984E+02  0.36820928516E+02  0.00000000000E+00 0. -1.
         11    1    4    4    0    0 -0.15907748036E+00  0.59506677068E+01  0.14883417761E+02  0.16029718535E+02  0.51100000000E-03 0. -1.
        -11    1    4    4    0    0  0.90005698069E+01 -0.10692958278E+02  0.66746836162E+01  0.15488738336E+02  0.51100000000E-03 0.  1.
        -12    1    4    4    0    0  0.20736812090E+02  0.95924113776E+01 -0.17163339379E+00  0.22848614613E+02  0.00000000000E+00 0.  1.
</event>
<event>
 8    1  0.2484572E-006  0.9118800E+02  0.7816164E-02  0.1184000E+00
        -11   -1    0    0    0    0  0.00000000000E+00  0.00000000000E+00  0.45593999997E+02  0.45594000000E+02  0.51100000000E-03 0.  1.
         11   -1    0    0    0    0 -0.00000000000E+00 -0.00000000000E+00 -0.45593999997E+02  0.45594000000E+02  0.51100000000E-03 0. -1.
         23    2    1    2    0    0  0.00000000000E+00  0.00000000000E+00 -0.35527136788E-14  0.91188000000E+02  0.91188000000E+02 0.  0.
    9900012    2    3    3    0    0  0.28700887562E+02  0.59021011073E+01 -0.22298070877E+02  0.54367085981E+02  0.40000004111E+02 0.  0.
        -12    1    3    3    0    0 -0.28700887562E+02 -0.59021011073E+01  0.22298070877E+02  0.36820914019E+02  0.00000000000E+00 0.  1.
         11    1    4    4    0    0 -0.24623037988E+01  0.50105662911E+01 -0.11190907032E+02  0.12506203062E+02  0.51100000000E-03 0. -1.
        -11    1    4    4    0    0  0.41774516341E+01 -0.45550178993E+01  0.66675070706E+01  0.90914762837E+01  0.51100000000E-03 0.  1.
         12    1    4    4    0    0  0.26985739727E+02  0.54465527155E+01 -0.17774670915E+02  0.32769406636E+02  0.00000000000E+00 0. -1.
</event>
<event>
 8    1  0.2484572E-006  0.9118800E+02  0.7816164E-02  0.1184000E+00
        -11   -1    0    0    0    0  0.00000000000E+00  0.00000000000E+00  0.45593999997E+02  0.45594000000E+02  0.51100000000E-03 0.  1.
         11   -1    0    0    0    0 -0.00000000000E+00 -0.00000000000E+00 -0.45593999997E+02  0.45594000000E+02  0.51100000000E-03 0. -1.
         23    2    1    2    0    0  0.44408920985E-15  0.71054273576E-14  0.26645352591E-14  0.91188000000E+02  0.91188000000E+02 0.  0.
    9900012    2    3    3    0    0  0.16236992160E+01  0.35976333907E+02  0.76712818948E+01  0.54367060761E+02  0.39999946616E+02 0.  0.
         12    1    3    3    0    0 -0.16236992160E+01 -0.35976333907E+02 -0.76712818948E+01  0.36820939239E+02  0.00000000000E+00 0. -1.
         11    1    4    4    0    0 -0.16177516962E+01  0.13431665584E+02 -0.71419564441E+01  0.15298179729E+02  0.51100000000E-03 0. -1.
        -11    1    4    4    0    0  0.76278447469E+01  0.26163800208E+02  0.17892815009E+02  0.32601860162E+02  0.51100000000E-03 0.  1.
        -12    1    4    4    0    0 -0.43863938347E+01 -0.36191318843E+01 -0.30795766701E+01  0.64670208703E+01  0.00000000000E+00 0.  1.
</event>
<event>
 8    1  0.2484572E-006  0.9118800E+02  0.7816164E-02  0.1184000E+00
        -11   -1    0    0    0    0  0.00000000000E+00  0.00000000000E+00  0.45593999997E+02  0.45594000000E+02  0.51100000000E-03 0. -1.
         11   -1    0    0    0    0 -0.00000000000E+00 -0.00000000000E+00 -0.45593999997E+02  0.45594000000E+02  0.51100000000E-03 0.  1.
         23    2    1    2    0    0 -0.66613381478E-15  0.88817841970E-15  0.00000000000E+00  0.91188000000E+02  0.91188000000E+02 0.  0.
    9900012    2    3    3    0    0  0.39173951387E+00  0.77650821572E+01  0.35990694876E+02  0.54367080967E+02  0.39999992681E+02 0.  0.
        -12    1    3    3    0    0 -0.39173951387E+00 -0.77650821572E+01 -0.35990694876E+02  0.36820919033E+02  0.00000000000E+00 0.  1.
         11    1    4    4    0    0  0.37358675631E+01  0.78183310561E+01  0.78068794677E+01  0.11663206002E+02  0.51100000000E-03 0. -1.
        -11    1    4    4    0    0  0.45052000361E+01  0.57556531935E+01  0.31541815950E+02  0.32377623828E+02  0.51100000000E-03 0.  1.
        -12    1    4    4    0    0 -0.78493280854E+01 -0.58089020923E+01 -0.33580005420E+01  0.10326251137E+02  0.00000000000E+00 0.  1.
</event>
<event>
 8    1  0.2484572E-006  0.9118800E+02  0.7816164E-02  0.1184000E+00
        -11   -1    0    0    0    0  0.00000000000E+00  0.00000000000E+00  0.45593999997E+02  0.45594000000E+02  0.51100000000E-03 0.  1.
         11   -1    0    0    0    0 -0.00000000000E+00 -0.00000000000E+00 -0.45593999997E+02  0.45594000000E+02  0.51100000000E-03 0. -1.
         23    2    1    2    0    0 -0.17763568394E-14  0.00000000000E+00  0.22204460493E-14  0.91188000000E+02  0.91188000000E+02 0.  0.
    9900012    2    3    3    0    0  0.11954053785E+02 -0.34763716776E+02 -0.20891402647E+01  0.54367083213E+02  0.39999997801E+02 0.  0.
        -12    1    3    3    0    0 -0.11954053785E+02  0.34763716776E+02  0.20891402647E+01  0.36820916787E+02  0.00000000000E+00 0.  1.
         11    1    4    4    0    0  0.98399909428E+01 -0.25488765090E+00  0.77599664499E+01  0.12534251834E+02  0.51100000000E-03 0. -1.
        -11    1    4    4    0    0  0.66938793547E+01 -0.21834703872E+01 -0.54202126601E+01  0.88856214914E+01  0.51100000000E-03 0.  1.
         12    1    4    4    0    0 -0.45798165126E+01 -0.32325358738E+02 -0.44288940546E+01  0.32947209888E+02  0.00000000000E+00 0. -1.
</event>
<event>
 8    1  0.2484572E-006  0.9118800E+02  0.7816164E-02  0.1184000E+00
        -11   -1    0    0    0    0  0.00000000000E+00  0.00000000000E+00  0.45593999997E+02  0.45594000000E+02  0.51100000000E-03 0. -1.
         11   -1    0    0    0    0 -0.00000000000E+00 -0.00000000000E+00 -0.45593999997E+02  0.45594000000E+02  0.51100000000E-03 0.  1.
         23    2    1    2    0    0  0.00000000000E+00 -0.35527136788E-14  0.35527136788E-14  0.91188000000E+02  0.91188000000E+02 0.  0.
    9900012    2    3    3    0    0  0.15349258573E+01  0.19732272728E+02 -0.31049317880E+02  0.54367099343E+02  0.40000034572E+02 0.  0.
        -12    1    3    3    0    0 -0.15349258573E+01 -0.19732272728E+02  0.31049317880E+02  0.36820900657E+02  0.00000000000E+00 0.  1.
         11    1    4    4    0    0  0.29994700394E+01  0.16957951813E+02 -0.91597851667E+01  0.19505655968E+02  0.51100000000E-03 0. -1.
        -11    1    4    4    0    0 -0.52896212454E+01  0.28245118881E+01 -0.27458241352E+02  0.28105390564E+02  0.51100000000E-03 0.  1.
         12    1    4    4    0    0  0.38250770633E+01 -0.50190972761E-01  0.55687086393E+01  0.67560528109E+01  0.00000000000E+00 0. -1.
</event>
<event>
 8    1  0.2484572E-006  0.9118800E+02  0.7816164E-02  0.1184000E+00
        -11   -1    0    0    0    0  0.00000000000E+00  0.00000000000E+00  0.45593999997E+02  0.45594000000E+02  0.51100000000E-03 0.  1.
         11   -1    0    0    0    0 -0.00000000000E+00 -0.00000000000E+00 -0.45593999997E+02  0.45594000000E+02  0.51100000000E-03 0. -1.
         23    2    1    2    0    0  0.44408920985E-15  0.88817841970E-15 -0.71054273576E-14  0.91188000000E+02  0.91188000000E+02 0.  0.
    9900012    2    3    3    0    0 -0.39333170152E+01 -0.77356845071E+01  0.35783630656E+02  0.54367081754E+02  0.39999994475E+02 0.  0.
         12    1    3    3    0    0  0.39333170152E+01  0.77356845071E+01 -0.35783630656E+02  0.36820918246E+02  0.00000000000E+00 0. -1.
         11    1    4    4    0    0 -0.13469880881E+02  0.11373590697E+01  0.18495497656E+02  0.22908834768E+02  0.51100000000E-03 0.  1.
        -11    1    4    4    0    0  0.15200391799E+01 -0.29805142038E+01 -0.55875389778E+01  0.65126473969E+01  0.51100000000E-03 0. -1.
        -12    1    4    4    0    0  0.80165246863E+01 -0.58925293729E+01  0.22875671977E+02  0.24945599589E+02  0.00000000000E+00 0.  1.
</event>
<event>
 8    1  0.2484572E-006  0.9118800E+02  0.7816164E-02  0.1184000E+00
        -11   -1    0    0    0    0  0.00000000000E+00  0.00000000000E+00  0.45593999997E+02  0.45594000000E+02  0.51100000000E-03 0.  1.
         11   -1    0    0    0    0 -0.00000000000E+00 -0.00000000000E+00 -0.45593999997E+02  0.45594000000E+02  0.51100000000E-03 0. -1.
         23    2    1    2    0    0 -0.17763568394E-14  0.00000000000E+00  0.71054273576E-14  0.91188000000E+02  0.91188000000E+02 0.  0.
    9900012    2    3    3    0    0  0.10421853618E+02 -0.87453886295E+01 -0.34215244136E+02  0.54367084933E+02  0.40000001721E+02 0.  0.
        -12    1    3    3    0    0 -0.10421853618E+02  0.87453886295E+01  0.34215244136E+02  0.36820915067E+02  0.00000000000E+00 0.  1.
         11    1    4    4    0    0  0.11241821345E+02  0.24241894757E+01 -0.42822883475E+01  0.12271643554E+02  0.51100000000E-03 0.  1.
        -11    1    4    4    0    0  0.27994475794E+01 -0.19324185684E+02 -0.14694930261E+02  0.24437717462E+02  0.51100000000E-03 0. -1.
        -12    1    4    4    0    0 -0.36194153068E+01  0.81546075793E+01 -0.15238025528E+02  0.17657723917E+02  0.00000000000E+00 0.  1.
</event>
<event>
 8    1  0.2484572E-006  0.9118800E+02  0.7816164E-02  0.1184000E+00
        -11   -1    0    0    0    0  0.00000000000E+00  0.00000000000E+00  0.45593999997E+02  0.45594000000E+02  0.51100000000E-03 0. -1.
         11   -1    0    0    0    0 -0.00000000000E+00 -0.00000000000E+00 -0.45593999997E+02  0.45594000000E+02  0.51100000000E-03 0.  1.
         23    2    1    2    0    0  0.00000000000E+00  0.00000000000E+00  0.00000000000E+00  0.91188000000E+02  0.91188000000E+02 0.  0.
    9900012    2    3    3    0    0 -0.35068053593E+02  0.44510740946E+01 -0.10305301525E+02  0.54367086338E+02  0.40000004925E+02 0.  0.
        -12    1    3    3    0    0  0.35068053593E+02 -0.44510740946E+01  0.10305301525E+02  0.36820913662E+02  0.00000000000E+00 0.  1.
         11    1    4    4    0    0 -0.14036621771E+02  0.18737175699E+02  0.95813895842E+00  0.23431315252E+02  0.51100000000E-03 0. -1.
        -11    1    4    4    0    0  0.17243487631E-02 -0.58015067385E+01 -0.42650878066E+01  0.72005873142E+01  0.51100000000E-03 0.  1.
         12    1    4    4    0    0 -0.21033156170E+02 -0.84845948655E+01 -0.69983526767E+01  0.23735183772E+02  0.00000000000E+00 0. -1.
</event>
<event>
 8    1  0.2484572E-006  0.9118800E+02  0.7816164E-02  0.1184000E+00
        -11   -1    0    0    0    0  0.00000000000E+00  0.00000000000E+00  0.45593999997E+02  0.45594000000E+02  0.51100000000E-03 0.  1.
         11   -1    0    0    0    0 -0.00000000000E+00 -0.00000000000E+00 -0.45593999997E+02  0.45594000000E+02  0.51100000000E-03 0. -1.
         23    2    1    2    0    0  0.00000000000E+00  0.00000000000E+00  0.00000000000E+00  0.91188000000E+02  0.91188000000E+02 0.  0.
    9900012    2    3    3    0    0  0.35314117623E+02  0.76672317977E+01  0.70637844721E+01  0.54367212420E+02  0.40000292352E+02 0.  0.
         12    1    3    3    0    0 -0.35314117623E+02 -0.76672317977E+01 -0.70637844721E+01  0.36820787580E+02  0.00000000000E+00 0. -1.
         11    1    4    4    0    0  0.28652078171E+02  0.13918433774E+01 -0.85032574743E+01  0.29919628999E+02  0.51100000000E-03 0.  1.
        -11    1    4    4    0    0  0.11282505176E+02  0.11224499135E+01  0.12503581394E+02  0.16878814081E+02  0.51100000000E-03 0. -1.
         12    1    4    4    0    0 -0.46204657236E+01  0.51529385068E+01  0.30634605524E+01  0.75687693395E+01  0.00000000000E+00 0. -1.
</event>
<event>
 8    1  0.2484572E-006  0.9118800E+02  0.7816164E-02  0.1184000E+00
        -11   -1    0    0    0    0  0.00000000000E+00  0.00000000000E+00  0.45593999997E+02  0.45594000000E+02  0.51100000000E-03 0.  1.
         11   -1    0    0    0    0 -0.00000000000E+00 -0.00000000000E+00 -0.45593999997E+02  0.45594000000E+02  0.51100000000E-03 0. -1.
         23    2    1    2    0    0  0.35527136788E-14  0.35527136788E-14 -0.35527136788E-14  0.91188000000E+02  0.91188000000E+02 0.  0.
    9900012    2    3    3    0    0  0.28701592169E+02  0.97571001494E+01 -0.20899685468E+02  0.54367092229E+02  0.40000018355E+02 0.  0.
        -12    1    3    3    0    0 -0.28701592169E+02 -0.97571001494E+01  0.20899685468E+02  0.36820907771E+02  0.00000000000E+00 0.  1.
         11    1    4    4    0    0  0.14973377085E+02 -0.21271622602E+01 -0.40442404803E+01  0.15655118075E+02  0.51100000000E-03 0. -1.
        -11    1    4    4    0    0  0.76733732313E+01 -0.66689023801E+01  0.32685244877E+01  0.10678865496E+02  0.51100000000E-03 0.  1.
        -12    1    4    4    0    0  0.60548418530E+01  0.18553164790E+02 -0.20123969476E+02  0.28033108658E+02  0.00000000000E+00 0.  1.
</event>
<event>
 8    1  0.2484572E-006  0.9118800E+02  0.7816164E-02  0.1184000E+00
        -11   -1    0    0    0    0  0.00000000000E+00  0.00000000000E+00  0.45593999997E+02  0.45594000000E+02  0.51100000000E-03 0.  1.
         11   -1    0    0    0    0 -0.00000000000E+00 -0.00000000000E+00 -0.45593999997E+02  0.45594000000E+02  0.51100000000E-03 0. -1.
         23    2    1    2    0    0  0.00000000000E+00  0.35527136788E-14  0.00000000000E+00  0.91188000000E+02  0.91188000000E+02 0.  0.
    9900012    2    3    3    0    0 -0.22859701281E+02  0.18107518833E+02  0.22479579121E+02  0.54367086670E+02  0.40000005683E+02 0.  0.
        -12    1    3    3    0    0  0.22859701281E+02 -0.18107518833E+02 -0.22479579121E+02  0.36820913330E+02  0.00000000000E+00 0.  1.
         11    1    4    4    0    0 -0.24814419542E+02  0.16469631791E+02  0.18753897599E+02  0.35195352875E+02  0.51100000000E-03 0. -1.
        -11    1    4    4    0    0 -0.77754906914E+01  0.37860310363E+01  0.31019143362E+01  0.91877178510E+01  0.51100000000E-03 0.  1.
        -12    1    4    4    0    0  0.97302089526E+01 -0.21481439945E+01  0.62376718631E+00  0.99840159448E+01  0.00000000000E+00 0.  1.
</event>
<event>
 8    1  0.2484572E-006  0.9118800E+02  0.7816164E-02  0.1184000E+00
        -11   -1    0    0    0    0  0.00000000000E+00  0.00000000000E+00  0.45593999997E+02  0.45594000000E+02  0.51100000000E-03 0.  1.
         11   -1    0    0    0    0 -0.00000000000E+00 -0.00000000000E+00 -0.45593999997E+02  0.45594000000E+02  0.51100000000E-03 0. -1.
         23    2    1    2    0    0  0.00000000000E+00  0.00000000000E+00  0.35527136788E-14  0.91188000000E+02  0.91188000000E+02 0.  0.
    9900012    2    3    3    0    0  0.22241462047E+02  0.82719896426E+01 -0.28154474045E+02  0.54367043258E+02  0.39999906716E+02 0.  0.
        -12    1    3    3    0    0 -0.22241462047E+02 -0.82719896426E+01  0.28154474045E+02  0.36820956742E+02  0.00000000000E+00 0.  1.
         11    1    4    4    0    0  0.21229578633E+02  0.20142614797E+02 -0.21236328521E+02  0.36158008644E+02  0.51100000000E-03 0. -1.
        -11    1    4    4    0    0  0.63638709082E+01 -0.78621722358E+01 -0.35322114248E+01  0.10713968593E+02  0.51100000000E-03 0.  1.
         12    1    4    4    0    0 -0.53519874939E+01 -0.40084529190E+01 -0.33859340985E+01  0.74950660210E+01  0.00000000000E+00 0. -1.
</event>
<event>
 8    1  0.2484572E-006  0.9118800E+02  0.7816164E-02  0.1184000E+00
        -11   -1    0    0    0    0  0.00000000000E+00  0.00000000000E+00  0.45593999997E+02  0.45594000000E+02  0.51100000000E-03 0. -1.
         11   -1    0    0    0    0 -0.00000000000E+00 -0.00000000000E+00 -0.45593999997E+02  0.45594000000E+02  0.51100000000E-03 0.  1.
         23    2    1    2    0    0  0.88817841970E-15  0.00000000000E+00  0.00000000000E+00  0.91188000000E+02  0.91188000000E+02 0.  0.
    9900012    2    3    3    0    0  0.68580983072E+01 -0.64793188286E+01 -0.35591624349E+02  0.54367098210E+02  0.40000031989E+02 0.  0.
         12    1    3    3    0    0 -0.68580983072E+01  0.64793188286E+01  0.35591624349E+02  0.36820901790E+02  0.00000000000E+00 0. -1.
         11    1    4    4    0    0  0.21481260894E+01 -0.17902504969E+02 -0.30252887081E+02  0.35218621593E+02  0.51100000000E-03 0. -1.
        -11    1    4    4    0    0 -0.17765799812E+00 -0.19791973202E+01 -0.44282290091E+01  0.48536580859E+01  0.51100000000E-03 0.  1.
         12    1    4    4    0    0  0.48876302158E+01  0.13402383461E+02 -0.91050825795E+00  0.14294818531E+02  0.00000000000E+00 0. -1.
</event>
<event>
 8    1  0.2484572E-006  0.9118800E+02  0.7816164E-02  0.1184000E+00
        -11   -1    0    0    0    0  0.00000000000E+00  0.00000000000E+00  0.45593999997E+02  0.45594000000E+02  0.51100000000E-03 0.  1.
         11   -1    0    0    0    0 -0.00000000000E+00 -0.00000000000E+00 -0.45593999997E+02  0.45594000000E+02  0.51100000000E-03 0. -1.
         23    2    1    2    0    0  0.35527136788E-14  0.17763568394E-14  0.00000000000E+00  0.91188000000E+02  0.91188000000E+02 0.  0.
    9900012    2    3    3    0    0 -0.31103241898E+02  0.97813876431E+01  0.17108294488E+02  0.54367069253E+02  0.39999965976E+02 0.  0.
         12    1    3    3    0    0  0.31103241898E+02 -0.97813876431E+01 -0.17108294488E+02  0.36820930747E+02  0.00000000000E+00 0. -1.
         11    1    4    4    0    0 -0.35126060293E+02  0.14178805839E+02  0.20483144699E+02  0.43063184552E+02  0.51100000000E-03 0.  1.
        -11    1    4    4    0    0 -0.26735908034E+01 -0.12469768114E+01  0.43219006404E+00  0.29815813698E+01  0.51100000000E-03 0. -1.
        -12    1    4    4    0    0  0.66964091986E+01 -0.31504413847E+01 -0.38070402754E+01  0.83223033309E+01  0.00000000000E+00 0.  1.
</event>
<event>
 8    1  0.2484572E-006  0.9118800E+02  0.7816164E-02  0.1184000E+00
        -11   -1    0    0    0    0  0.00000000000E+00  0.00000000000E+00  0.45593999997E+02  0.45594000000E+02  0.51100000000E-03 0. -1.
         11   -1    0    0    0    0 -0.00000000000E+00 -0.00000000000E+00 -0.45593999997E+02  0.45594000000E+02  0.51100000000E-03 0.  1.
         23    2    1    2    0    0  0.00000000000E+00  0.17763568394E-14 -0.35527136788E-14  0.91188000000E+02  0.91188000000E+02 0.  0.
    9900012    2    3    3    0    0 -0.26370469887E+02  0.14181471450E+02 -0.21430398022E+02  0.54367112260E+02  0.40000064020E+02 0.  0.
         12    1    3    3    0    0  0.26370469887E+02 -0.14181471450E+02  0.21430398022E+02  0.36820887740E+02  0.00000000000E+00 0. -1.
         11    1    4    4    0    0  0.15719373600E+01  0.25000278486E+01  0.50313919033E+01  0.58340407140E+01  0.51100000000E-03 0. -1.
        -11    1    4    4    0    0  0.30035831918E+01  0.83575317330E+01 -0.98166752962E+01  0.13237709877E+02  0.51100000000E-03 0.  1.
        -12    1    4    4    0    0 -0.30945990439E+02  0.33239118682E+01 -0.16645114629E+02  0.35295361669E+02  0.00000000000E+00 0.  1.
</event>
<event>
 8    1  0.2484572E-006  0.9118800E+02  0.7816164E-02  0.1184000E+00
        -11   -1    0    0    0    0  0.00000000000E+00  0.00000000000E+00  0.45593999997E+02  0.45594000000E+02  0.51100000000E-03 0. -1.
         11   -1    0    0    0    0 -0.00000000000E+00 -0.00000000000E+00 -0.45593999997E+02  0.45594000000E+02  0.51100000000E-03 0.  1.
         23    2    1    2    0    0 -0.35527136788E-14  0.35527136788E-14 -0.35527136788E-14  0.91188000000E+02  0.91188000000E+02 0.  0.
    9900012    2    3    3    0    0  0.20431166803E+02 -0.16465228694E+02  0.25830998276E+02  0.54367125421E+02  0.40000094021E+02 0.  0.
        -12    1    3    3    0    0 -0.20431166803E+02  0.16465228694E+02 -0.25830998276E+02  0.36820874579E+02  0.00000000000E+00 0.  1.
         11    1    4    4    0    0  0.27380416255E+02 -0.94445572632E+01  0.23181689071E+02  0.37098215114E+02  0.51100000000E-03 0. -1.
        -11    1    4    4    0    0 -0.65362271569E+01 -0.15982994834E+01  0.74329641930E+01  0.10026254717E+02  0.51100000000E-03 0.  1.
        -12    1    4    4    0    0 -0.41302229460E+00 -0.54223719470E+01 -0.47836549887E+01  0.72426555902E+01  0.00000000000E+00 0.  1.
</event>
<event>
 8    1  0.2484572E-006  0.9118800E+02  0.7816164E-02  0.1184000E+00
        -11   -1    0    0    0    0  0.00000000000E+00  0.00000000000E+00  0.45593999997E+02  0.45594000000E+02  0.51100000000E-03 0.  1.
         11   -1    0    0    0    0 -0.00000000000E+00 -0.00000000000E+00 -0.45593999997E+02  0.45594000000E+02  0.51100000000E-03 0. -1.
         23    2    1    2    0    0 -0.35527136788E-14  0.00000000000E+00  0.00000000000E+00  0.91188000000E+02  0.91188000000E+02 0.  0.
    9900012    2    3    3    0    0  0.21354598005E+02  0.23252650526E+02 -0.18949278168E+02  0.54367085352E+02  0.40000002677E+02 0.  0.
         12    1    3    3    0    0 -0.21354598005E+02 -0.23252650526E+02  0.18949278168E+02  0.36820914648E+02  0.00000000000E+00 0. -1.
         11    1    4    4    0    0 -0.54982502926E+01  0.10413905582E+02 -0.86196580318E+01  0.14593789453E+02  0.51100000000E-03 0. -1.
        -11    1    4    4    0    0  0.91070532362E+01  0.17687635352E+02 -0.38112227388E+01  0.20256265254E+02  0.51100000000E-03 0.  1.
        -12    1    4    4    0    0  0.17745795061E+02 -0.48488904094E+01 -0.65183973978E+01  0.19517030645E+02  0.00000000000E+00 0.  1.
</event>
<event>
 8    1  0.2484572E-006  0.9118800E+02  0.7816164E-02  0.1184000E+00
        -11   -1    0    0    0    0  0.00000000000E+00  0.00000000000E+00  0.45593999997E+02  0.45594000000E+02  0.51100000000E-03 0.  1.
         11   -1    0    0    0    0 -0.00000000000E+00 -0.00000000000E+00 -0.45593999997E+02  0.45594000000E+02  0.51100000000E-03 0. -1.
         23    2    1    2    0    0  0.00000000000E+00  0.35527136788E-14  0.00000000000E+00  0.91188000000E+02  0.91188000000E+02 0.  0.
    9900012    2    3    3    0    0  0.53169205256E+01  0.26442496458E+02 -0.25065991152E+02  0.54367093232E+02  0.40000020641E+02 0.  0.
        -12    1    3    3    0    0 -0.53169205256E+01 -0.26442496458E+02  0.25065991152E+02  0.36820906768E+02  0.00000000000E+00 0.  1.
         11    1    4    4    0    0  0.25826003794E+01 -0.12291812828E+01  0.44736029265E+01  0.53097866954E+01  0.51100000000E-03 0. -1.
        -11    1    4    4    0    0 -0.41673331247E+01 -0.52282355126E+00  0.32168196586E+01  0.52903628245E+01  0.51100000000E-03 0.  1.
         12    1    4    4    0    0  0.69016532709E+01  0.28194501292E+02 -0.32756413737E+02  0.43766943712E+02  0.00000000000E+00 0. -1.
</event>
<event>
 8    1  0.2484572E-006  0.9118800E+02  0.7816164E-02  0.1184000E+00
        -11   -1    0    0    0    0  0.00000000000E+00  0.00000000000E+00  0.45593999997E+02  0.45594000000E+02  0.51100000000E-03 0. -1.
         11   -1    0    0    0    0 -0.00000000000E+00 -0.00000000000E+00 -0.45593999997E+02  0.45594000000E+02  0.51100000000E-03 0.  1.
         23    2    1    2    0    0 -0.35527136788E-14  0.00000000000E+00  0.00000000000E+00  0.91188000000E+02  0.91188000000E+02 0.  0.
    9900012    2    3    3    0    0  0.15409786632E+02  0.15538561271E+02 -0.29612002300E+02  0.54367094380E+02  0.40000023259E+02 0.  0.
         12    1    3    3    0    0 -0.15409786632E+02 -0.15538561271E+02  0.29612002300E+02  0.36820905620E+02  0.00000000000E+00 0. -1.
         11    1    4    4    0    0 -0.25542981788E+01  0.14773181031E+02 -0.34146740229E+01  0.15376323225E+02  0.51100000000E-03 0. -1.
        -11    1    4    4    0    0 -0.45576978356E+01 -0.28060136896E+01 -0.88363046854E+01  0.10330856844E+02  0.51100000000E-03 0.  1.
         12    1    4    4    0    0  0.22521782646E+02  0.35713939292E+01 -0.17361023592E+02  0.28659914311E+02  0.00000000000E+00 0. -1.
</event>
<event>
 8    1  0.2484572E-006  0.9118800E+02  0.7816164E-02  0.1184000E+00
        -11   -1    0    0    0    0  0.00000000000E+00  0.00000000000E+00  0.45593999997E+02  0.45594000000E+02  0.51100000000E-03 0. -1.
         11   -1    0    0    0    0 -0.00000000000E+00 -0.00000000000E+00 -0.45593999997E+02  0.45594000000E+02  0.51100000000E-03 0.  1.
         23    2    1    2    0    0  0.00000000000E+00 -0.35527136788E-14  0.00000000000E+00  0.91188000000E+02  0.91188000000E+02 0.  0.
    9900012    2    3    3    0    0 -0.66000947180E+01  0.26295951293E+02  0.24914658180E+02  0.54367102443E+02  0.40000041639E+02 0.  0.
        -12    1    3    3    0    0  0.66000947180E+01 -0.26295951293E+02 -0.24914658180E+02  0.36820897557E+02  0.00000000000E+00 0.  1.
         11    1    4    4    0    0  0.61964670847E+01  0.89324330125E+01  0.13284354245E+02  0.17165623549E+02  0.51100000000E-03 0. -1.
        -11    1    4    4    0    0 -0.73681751458E+01  0.57024139991E+01  0.19856168688E+02  0.21933421202E+02  0.51100000000E-03 0.  1.
        -12    1    4    4    0    0 -0.54283866570E+01  0.11661104282E+02 -0.82258647529E+01  0.15268057692E+02  0.00000000000E+00 0.  1.
</event>
<event>
 8    1  0.2484572E-006  0.9118800E+02  0.7816164E-02  0.1184000E+00
        -11   -1    0    0    0    0  0.00000000000E+00  0.00000000000E+00  0.45593999997E+02  0.45594000000E+02  0.51100000000E-03 0.  1.
         11   -1    0    0    0    0 -0.00000000000E+00 -0.00000000000E+00 -0.45593999997E+02  0.45594000000E+02  0.51100000000E-03 0. -1.
         23    2    1    2    0    0  0.00000000000E+00  0.00000000000E+00  0.00000000000E+00  0.91188000000E+02  0.91188000000E+02 0.  0.
    9900012    2    3    3    0    0 -0.46798070782E+01 -0.19157968860E+02 -0.31094242113E+02  0.54367078533E+02  0.39999987131E+02 0.  0.
        -12    1    3    3    0    0  0.46798070782E+01  0.19157968860E+02  0.31094242113E+02  0.36820921467E+02  0.00000000000E+00 0.  1.
         11    1    4    4    0    0 -0.91189042702E+01 -0.20192528757E+02 -0.22754558192E+02  0.31759448224E+02  0.51100000000E-03 0. -1.
        -11    1    4    4    0    0 -0.81942378112E+01  0.10332298777E+01 -0.21232762308E+01  0.85276842988E+01  0.51100000000E-03 0.  1.
        -12    1    4    4    0    0  0.12633335003E+02  0.13300191512E-02 -0.62164076896E+01  0.14079946010E+02  0.00000000000E+00 0.  1.
</event>
<event>
 8    1  0.2484572E-006  0.9118800E+02  0.7816164E-02  0.1184000E+00
        -11   -1    0    0    0    0  0.00000000000E+00  0.00000000000E+00  0.45593999997E+02  0.45594000000E+02  0.51100000000E-03 0.  1.
         11   -1    0    0    0    0 -0.00000000000E+00 -0.00000000000E+00 -0.45593999997E+02  0.45594000000E+02  0.51100000000E-03 0. -1.
         23    2    1    2    0    0  0.17763568394E-14 -0.44408920985E-15  0.00000000000E+00  0.91188000000E+02  0.91188000000E+02 0.  0.
    9900012    2    3    3    0    0 -0.14535309737E+02 -0.21362260357E+01 -0.33763017277E+02  0.54367081673E+02  0.39999994289E+02 0.  0.
        -12    1    3    3    0    0  0.14535309737E+02  0.21362260357E+01  0.33763017277E+02  0.36820918327E+02  0.00000000000E+00 0.  1.
         11    1    4    4    0    0 -0.35210095048E+01 -0.35953869082E+01 -0.87976959964E+01  0.10135273556E+02  0.51100000000E-03 0. -1.
        -11    1    4    4    0    0 -0.22373237924E+02  0.58582628551E+01 -0.10727468613E+02  0.25494305286E+02  0.51100000000E-03 0.  1.
         12    1    4    4    0    0  0.11358937692E+02 -0.43991019826E+01 -0.14237852667E+02  0.18737502831E+02  0.00000000000E+00 0. -1.
</event>
<event>
 8    1  0.2484572E-006  0.9118800E+02  0.7816164E-02  0.1184000E+00
        -11   -1    0    0    0    0  0.00000000000E+00  0.00000000000E+00  0.45593999997E+02  0.45594000000E+02  0.51100000000E-03 0. -1.
         11   -1    0    0    0    0 -0.00000000000E+00 -0.00000000000E+00 -0.45593999997E+02  0.45594000000E+02  0.51100000000E-03 0.  1.
         23    2    1    2    0    0  0.00000000000E+00  0.00000000000E+00  0.88817841970E-15  0.91188000000E+02  0.91188000000E+02 0.  0.
    9900012    2    3    3    0    0 -0.33176898757E+02 -0.14433765829E+02  0.68367004436E+01  0.54367072797E+02  0.39999974056E+02 0.  0.
        -12    1    3    3    0    0  0.33176898757E+02  0.14433765829E+02 -0.68367004436E+01  0.36820927203E+02  0.00000000000E+00 0.  1.
         11    1    4    4    0    0 -0.36449422831E+02 -0.14977427265E+02  0.13187741634E+02  0.41554786510E+02  0.51100000000E-03 0. -1.
        -11    1    4    4    0    0  0.29784579585E+01  0.24467944245E+01  0.19296441091E+01  0.43106312084E+01  0.51100000000E-03 0.  1.
         12    1    4    4    0    0  0.29406611627E+00 -0.19031329887E+01 -0.82806852995E+01  0.85016550790E+01  0.00000000000E+00 0. -1.
</event>
<event>
 8    1  0.2484572E-006  0.9118800E+02  0.7816164E-02  0.1184000E+00
        -11   -1    0    0    0    0  0.00000000000E+00  0.00000000000E+00  0.45593999997E+02  0.45594000000E+02  0.51100000000E-03 0. -1.
         11   -1    0    0    0    0 -0.00000000000E+00 -0.00000000000E+00 -0.45593999997E+02  0.45594000000E+02  0.51100000000E-03 0.  1.
         23    2    1    2    0    0  0.00000000000E+00  0.00000000000E+00  0.00000000000E+00  0.91188000000E+02  0.91188000000E+02 0.  0.
    9900012    2    3    3    0    0  0.68412678082E+01  0.25842377648E+02  0.25320901593E+02  0.54367089023E+02  0.40000011045E+02 0.  0.
        -12    1    3    3    0    0 -0.68412678082E+01 -0.25842377648E+02 -0.25320901593E+02  0.36820910977E+02  0.00000000000E+00 0.  1.
         11    1    4    4    0    0  0.11280377931E+02  0.23463692113E+02  0.27576538589E+02  0.37924362284E+02  0.51100000000E-03 0. -1.
        -11    1    4    4    0    0  0.20704804172E+01  0.63028686169E+01 -0.50571784575E+01  0.83419479842E+01  0.51100000000E-03 0.  1.
         12    1    4    4    0    0 -0.65095905401E+01 -0.39241830824E+01  0.28015414619E+01  0.81007787544E+01  0.00000000000E+00 0. -1.
</event>
<event>
 8    1  0.2484572E-006  0.9118800E+02  0.7816164E-02  0.1184000E+00
        -11   -1    0    0    0    0  0.00000000000E+00  0.00000000000E+00  0.45593999997E+02  0.45594000000E+02  0.51100000000E-03 0. -1.
         11   -1    0    0    0    0 -0.00000000000E+00 -0.00000000000E+00 -0.45593999997E+02  0.45594000000E+02  0.51100000000E-03 0.  1.
         23    2    1    2    0    0  0.35527136788E-14  0.00000000000E+00 -0.71054273576E-14  0.91188000000E+02  0.91188000000E+02 0.  0.
    9900012    2    3    3    0    0 -0.23962771717E+02  0.22526873051E+01  0.27865588489E+02  0.54367081349E+02  0.39999993552E+02 0.  0.
        -12    1    3    3    0    0  0.23962771717E+02 -0.22526873051E+01 -0.27865588489E+02  0.36820918651E+02  0.00000000000E+00 0.  1.
         11    1    4    4    0    0 -0.27551692815E+01  0.80111299956E+01 -0.19569672419E+01  0.86947617922E+01  0.51100000000E-03 0. -1.
        -11    1    4    4    0    0  0.21156292939E+01  0.52843770121E+01  0.14697018449E+02  0.15760801986E+02  0.51100000000E-03 0.  1.
         12    1    4    4    0    0 -0.23323231730E+02 -0.11042819703E+02  0.15125537282E+02  0.29911517571E+02  0.00000000000E+00 0. -1.
</event>
<event>
 8    1  0.2484572E-006  0.9118800E+02  0.7816164E-02  0.1184000E+00
        -11   -1    0    0    0    0  0.00000000000E+00  0.00000000000E+00  0.45593999997E+02  0.45594000000E+02  0.51100000000E-03 0. -1.
         11   -1    0    0    0    0 -0.00000000000E+00 -0.00000000000E+00 -0.45593999997E+02  0.45594000000E+02  0.51100000000E-03 0.  1.
         23    2    1    2    0    0  0.00000000000E+00  0.53290705182E-14  0.35527136788E-14  0.91188000000E+02  0.91188000000E+02 0.  0.
    9900012    2    3    3    0    0 -0.29850446739E+02  0.11062800252E+02 -0.18502559350E+02  0.54367089875E+02  0.40000012988E+02 0.  0.
         12    1    3    3    0    0  0.29850446739E+02 -0.11062800252E+02  0.18502559350E+02  0.36820910125E+02  0.00000000000E+00 0. -1.
         11    1    4    4    0    0 -0.37017327824E+01 -0.36114854419E+01  0.25764947519E+01  0.57778869976E+01  0.51100000000E-03 0. -1.
        -11    1    4    4    0    0 -0.98430248660E+01 -0.34690902736E+01 -0.21816474657E+02  0.24184257123E+02  0.51100000000E-03 0.  1.
        -12    1    4    4    0    0 -0.16305689091E+02  0.18143375968E+02  0.73742055575E+00  0.24404945755E+02  0.00000000000E+00 0.  1.
</event>
<event>
 8    1  0.2484572E-006  0.9118800E+02  0.7816164E-02  0.1184000E+00
        -11   -1    0    0    0    0  0.00000000000E+00  0.00000000000E+00  0.45593999997E+02  0.45594000000E+02  0.51100000000E-03 0.  1.
         11   -1    0    0    0    0 -0.00000000000E+00 -0.00000000000E+00 -0.45593999997E+02  0.45594000000E+02  0.51100000000E-03 0. -1.
         23    2    1    2    0    0  0.00000000000E+00 -0.35527136788E-14  0.00000000000E+00  0.91188000000E+02  0.91188000000E+02 0.  0.
    9900012    2    3    3    0    0  0.50987060014E+01 -0.27256844386E+02  0.24224949322E+02  0.54367074721E+02  0.39999978441E+02 0.  0.
         12    1    3    3    0    0 -0.50987060014E+01  0.27256844386E+02 -0.24224949322E+02  0.36820925279E+02  0.00000000000E+00 0. -1.
         11    1    4    4    0    0 -0.18528324526E+01  0.70165155774E+01  0.17516726664E+01  0.74654428091E+01  0.51100000000E-03 0. -1.
        -11    1    4    4    0    0 -0.65523008492E+00 -0.16389075044E+02  0.22025290379E+02  0.27461691933E+02  0.51100000000E-03 0.  1.
         12    1    4    4    0    0  0.76067685389E+01 -0.17884284919E+02  0.44798627607E+00  0.19439939979E+02  0.00000000000E+00 0. -1.
</event>
<event>
 8    1  0.2484572E-006  0.9118800E+02  0.7816164E-02  0.1184000E+00
        -11   -1    0    0    0    0  0.00000000000E+00  0.00000000000E+00  0.45593999997E+02  0.45594000000E+02  0.51100000000E-03 0.  1.
         11   -1    0    0    0    0 -0.00000000000E+00 -0.00000000000E+00 -0.45593999997E+02  0.45594000000E+02  0.51100000000E-03 0. -1.
         23    2    1    2    0    0  0.00000000000E+00  0.00000000000E+00  0.00000000000E+00  0.91188000000E+02  0.91188000000E+02 0.  0.
    9900012    2    3    3    0    0 -0.20478083567E+02 -0.24496867698E+02 -0.18339374694E+02  0.54367067125E+02  0.39999961124E+02 0.  0.
        -12    1    3    3    0    0  0.20478083567E+02  0.24496867698E+02  0.18339374694E+02  0.36820932875E+02  0.00000000000E+00 0.  1.
         11    1    4    4    0    0  0.32777339525E+01 -0.64964043571E+01 -0.62806435337E+01  0.96121429917E+01  0.51100000000E-03 0. -1.
        -11    1    4    4    0    0  0.20637649137E+01  0.67814734698E+01 -0.33908334619E+00  0.70966531420E+01  0.51100000000E-03 0.  1.
        -12    1    4    4    0    0 -0.25819582433E+02 -0.24781936811E+02 -0.11719647814E+02  0.37658270991E+02  0.00000000000E+00 0.  1.
</event>
<event>
 8    1  0.2484572E-006  0.9118800E+02  0.7816164E-02  0.1184000E+00
        -11   -1    0    0    0    0  0.00000000000E+00  0.00000000000E+00  0.45593999997E+02  0.45594000000E+02  0.51100000000E-03 0.  1.
         11   -1    0    0    0    0 -0.00000000000E+00 -0.00000000000E+00 -0.45593999997E+02  0.45594000000E+02  0.51100000000E-03 0. -1.
         23    2    1    2    0    0  0.00000000000E+00  0.53290705182E-14  0.00000000000E+00  0.91188000000E+02  0.91188000000E+02 0.  0.
    9900012    2    3    3    0    0  0.29234731793E+02  0.14860892122E+02  0.16741086198E+02  0.54367087128E+02  0.40000006725E+02 0.  0.
         12    1    3    3    0    0 -0.29234731793E+02 -0.14860892122E+02 -0.16741086198E+02  0.36820912872E+02  0.00000000000E+00 0. -1.
         11    1    4    4    0    0 -0.23864471197E+01  0.14653917499E+02  0.65888559058E+01  0.16243320176E+02  0.51100000000E-03 0. -1.
        -11    1    4    4    0    0  0.25997339057E+02 -0.75101042354E+01  0.60353915664E+01  0.27725245811E+02  0.51100000000E-03 0.  1.
        -12    1    4    4    0    0  0.56238398555E+01  0.77170788586E+01  0.41168387256E+01  0.10398521141E+02  0.00000000000E+00 0.  1.
</event>
<event>
 8    1  0.2484572E-006  0.9118800E+02  0.7816164E-02  0.1184000E+00
        -11   -1    0    0    0    0  0.00000000000E+00  0.00000000000E+00  0.45593999997E+02  0.45594000000E+02  0.51100000000E-03 0.  1.
         11   -1    0    0    0    0 -0.00000000000E+00 -0.00000000000E+00 -0.45593999997E+02  0.45594000000E+02  0.51100000000E-03 0. -1.
         23    2    1    2    0    0 -0.35527136788E-14 -0.17763568394E-14  0.17763568394E-14  0.91188000000E+02  0.91188000000E+02 0.  0.
    9900012    2    3    3    0    0 -0.30229774559E+02 -0.14680459133E+02  0.15047446811E+02  0.54367071090E+02  0.39999970164E+02 0.  0.
         12    1    3    3    0    0  0.30229774559E+02  0.14680459133E+02 -0.15047446811E+02  0.36820928910E+02  0.00000000000E+00 0. -1.
         11    1    4    4    0    0  0.12459865249E+01 -0.51584215685E+01 -0.39484033534E-01  0.53069157473E+01  0.51100000000E-03 0.  1.
        -11    1    4    4    0    0 -0.26660704557E+02  0.78121866581E+01  0.43808013753E+01  0.28124986201E+02  0.51100000000E-03 0. -1.
         12    1    4    4    0    0 -0.48150565268E+01 -0.17334224223E+02  0.10706129469E+02  0.20935169141E+02  0.00000000000E+00 0. -1.
</event>
<event>
 8    1  0.2484572E-006  0.9118800E+02  0.7816164E-02  0.1184000E+00
        -11   -1    0    0    0    0  0.00000000000E+00  0.00000000000E+00  0.45593999997E+02  0.45594000000E+02  0.51100000000E-03 0. -1.
         11   -1    0    0    0    0 -0.00000000000E+00 -0.00000000000E+00 -0.45593999997E+02  0.45594000000E+02  0.51100000000E-03 0.  1.
         23    2    1    2    0    0  0.00000000000E+00  0.17763568394E-14  0.00000000000E+00  0.91188000000E+02  0.91188000000E+02 0.  0.
    9900012    2    3    3    0    0 -0.21261320640E+02 -0.14358705247E+02 -0.26411422324E+02  0.54367090167E+02  0.40000013654E+02 0.  0.
         12    1    3    3    0    0  0.21261320640E+02  0.14358705247E+02  0.26411422324E+02  0.36820909833E+02  0.00000000000E+00 0. -1.
         11    1    4    4    0    0 -0.31384956294E+01 -0.95166434676E+01  0.56838159082E+01  0.11520521744E+02  0.51100000000E-03 0. -1.
        -11    1    4    4    0    0 -0.87604809010E+01  0.17199643861E+01 -0.16291407691E+00  0.89292129756E+01  0.51100000000E-03 0.  1.
        -12    1    4    4    0    0 -0.93623441097E+01 -0.65620261652E+01 -0.31932324156E+02  0.33917355448E+02  0.00000000000E+00 0.  1.
</event>
<event>
 8    1  0.2484572E-006  0.9118800E+02  0.7816164E-02  0.1184000E+00
        -11   -1    0    0    0    0  0.00000000000E+00  0.00000000000E+00  0.45593999997E+02  0.45594000000E+02  0.51100000000E-03 0.  1.
         11   -1    0    0    0    0 -0.00000000000E+00 -0.00000000000E+00 -0.45593999997E+02  0.45594000000E+02  0.51100000000E-03 0. -1.
         23    2    1    2    0    0 -0.35527136788E-14  0.00000000000E+00  0.00000000000E+00  0.91188000000E+02  0.91188000000E+02 0.  0.
    9900012    2    3    3    0    0  0.16002712428E+02  0.22253373253E+02  0.24586158567E+02  0.54367100781E+02  0.40000037851E+02 0.  0.
         12    1    3    3    0    0 -0.16002712428E+02 -0.22253373253E+02 -0.24586158567E+02  0.36820899219E+02  0.00000000000E+00 0. -1.
         11    1    4    4    0    0 -0.34870359379E+01 -0.75564896541E+00  0.72055739881E+01  0.80405672530E+01  0.51100000000E-03 0. -1.
        -11    1    4    4    0    0 -0.71159379440E+00  0.15138777474E+02 -0.42099690529E+01  0.15729360725E+02  0.51100000000E-03 0.  1.
         12    1    4    4    0    0  0.20201342161E+02  0.78702447449E+01  0.21590553632E+02  0.30597172803E+02  0.00000000000E+00 0. -1.
</event>
<event>
 8    1  0.2484572E-006  0.9118800E+02  0.7816164E-02  0.1184000E+00
        -11   -1    0    0    0    0  0.00000000000E+00  0.00000000000E+00  0.45593999997E+02  0.45594000000E+02  0.51100000000E-03 0.  1.
         11   -1    0    0    0    0 -0.00000000000E+00 -0.00000000000E+00 -0.45593999997E+02  0.45594000000E+02  0.51100000000E-03 0. -1.
         23    2    1    2    0    0  0.00000000000E+00  0.00000000000E+00 -0.88817841970E-15  0.91188000000E+02  0.91188000000E+02 0.  0.
    9900012    2    3    3    0    0  0.15276582889E+02 -0.33207234993E+02  0.44368181951E+01  0.54367084798E+02  0.40000001413E+02 0.  0.
         12    1    3    3    0    0 -0.15276582889E+02  0.33207234993E+02 -0.44368181951E+01  0.36820915202E+02  0.00000000000E+00 0. -1.
         11    1    4    4    0    0 -0.62287759928E+01 -0.10817702435E+02  0.15097178611E+02  0.19589413943E+02  0.51100000000E-03 0. -1.
        -11    1    4    4    0    0  0.10331609975E+02 -0.30579832181E+01 -0.35463912156E+01  0.11343293920E+02  0.51100000000E-03 0.  1.
         12    1    4    4    0    0  0.11173748907E+02 -0.19331549340E+02 -0.71139692007E+01  0.23434376934E+02  0.00000000000E+00 0. -1.
</event>
<event>
 8    1  0.2484572E-006  0.9118800E+02  0.7816164E-02  0.1184000E+00
        -11   -1    0    0    0    0  0.00000000000E+00  0.00000000000E+00  0.45593999997E+02  0.45594000000E+02  0.51100000000E-03 0. -1.
         11   -1    0    0    0    0 -0.00000000000E+00 -0.00000000000E+00 -0.45593999997E+02  0.45594000000E+02  0.51100000000E-03 0.  1.
         23    2    1    2    0    0  0.35527136788E-14 -0.35527136788E-14  0.00000000000E+00  0.91188000000E+02  0.91188000000E+02 0.  0.
    9900012    2    3    3    0    0  0.22069568621E+02 -0.28546375902E+02 -0.73361298736E+01  0.54367078803E+02  0.39999987748E+02 0.  0.
         12    1    3    3    0    0 -0.22069568621E+02  0.28546375902E+02  0.73361298736E+01  0.36820921197E+02  0.00000000000E+00 0. -1.
         11    1    4    4    0    0  0.17640926402E+02 -0.79997047902E+01 -0.16876602041E+02  0.25690801034E+02  0.51100000000E-03 0.  1.
        -11    1    4    4    0    0  0.39889533257E+00  0.28620809646E+01 -0.41856460482E+00  0.29199009442E+01  0.51100000000E-03 0. -1.
        -12    1    4    4    0    0  0.40297468870E+01 -0.23408752076E+02  0.99590367728E+01  0.25756376825E+02  0.00000000000E+00 0.  1.
</event>
<event>
 8    1  0.2484572E-006  0.9118800E+02  0.7816164E-02  0.1184000E+00
        -11   -1    0    0    0    0  0.00000000000E+00  0.00000000000E+00  0.45593999997E+02  0.45594000000E+02  0.51100000000E-03 0.  1.
         11   -1    0    0    0    0 -0.00000000000E+00 -0.00000000000E+00 -0.45593999997E+02  0.45594000000E+02  0.51100000000E-03 0. -1.
         23    2    1    2    0    0  0.88817841970E-15  0.00000000000E+00  0.00000000000E+00  0.91188000000E+02  0.91188000000E+02 0.  0.
    9900012    2    3    3    0    0  0.44323264910E+01 -0.33667716735E+02  0.14234453432E+02  0.54367077513E+02  0.39999984807E+02 0.  0.
         12    1    3    3    0    0 -0.44323264910E+01  0.33667716735E+02 -0.14234453432E+02  0.36820922487E+02  0.00000000000E+00 0. -1.
         11    1    4    4    0    0 -0.27419024373E+01  0.38012521832E+01 -0.39283790036E+00  0.47033890986E+01  0.51100000000E-03 0. -1.
        -11    1    4    4    0    0 -0.37288734954E+01 -0.20206325965E+02  0.19870288262E+02  0.28583709738E+02  0.51100000000E-03 0.  1.
        -12    1    4    4    0    0  0.10903102424E+02 -0.17262642953E+02 -0.52429969298E+01  0.21079978676E+02  0.00000000000E+00 0.  1.
</event>
<event>
 8    1  0.2484572E-006  0.9118800E+02  0.7816164E-02  0.1184000E+00
        -11   -1    0    0    0    0  0.00000000000E+00  0.00000000000E+00  0.45593999997E+02  0.45594000000E+02  0.51100000000E-03 0. -1.
         11   -1    0    0    0    0 -0.00000000000E+00 -0.00000000000E+00 -0.45593999997E+02  0.45594000000E+02  0.51100000000E-03 0.  1.
         23    2    1    2    0    0  0.00000000000E+00 -0.35527136788E-14 -0.71054273576E-14  0.91188000000E+02  0.91188000000E+02 0.  0.
    9900012    2    3    3    0    0  0.12111959761E+02 -0.12852468928E+02  0.32309343238E+02  0.54367093069E+02  0.40000020268E+02 0.  0.
        -12    1    3    3    0    0 -0.12111959761E+02  0.12852468928E+02 -0.32309343238E+02  0.36820906931E+02  0.00000000000E+00 0.  1.
         11    1    4    4    0    0  0.19271782078E+01  0.87239523466E+01  0.90534839321E+01  0.12719549204E+02  0.51100000000E-03 0. -1.
        -11    1    4    4    0    0 -0.57058448676E+01 -0.55800272282E+01 -0.15452333054E+01  0.81290292010E+01  0.51100000000E-03 0.  1.
         12    1    4    4    0    0  0.15890626421E+02 -0.15996394046E+02  0.24801092611E+02  0.33518514663E+02  0.00000000000E+00 0. -1.
</event>
<event>
 8    1  0.2484572E-006  0.9118800E+02  0.7816164E-02  0.1184000E+00
        -11   -1    0    0    0    0  0.00000000000E+00  0.00000000000E+00  0.45593999997E+02  0.45594000000E+02  0.51100000000E-03 0.  1.
         11   -1    0    0    0    0 -0.00000000000E+00 -0.00000000000E+00 -0.45593999997E+02  0.45594000000E+02  0.51100000000E-03 0. -1.
         23    2    1    2    0    0 -0.35527136788E-14  0.17763568394E-14  0.00000000000E+00  0.91188000000E+02  0.91188000000E+02 0.  0.
    9900012    2    3    3    0    0 -0.30991939849E+02  0.98486642078E+01 -0.17270822072E+02  0.54367111671E+02  0.40000062677E+02 0.  0.
        -12    1    3    3    0    0  0.30991939849E+02 -0.98486642078E+01  0.17270822072E+02  0.36820888329E+02  0.00000000000E+00 0.  1.
         11    1    4    4    0    0 -0.10284086159E+02  0.98476063448E+01 -0.16807383965E+02  0.22027844535E+02  0.51100000000E-03 0. -1.
        -11    1    4    4    0    0 -0.69641264106E+01  0.52391095738E+00  0.11931065641E+02  0.13824755583E+02  0.51100000000E-03 0.  1.
         12    1    4    4    0    0 -0.13743727280E+02 -0.52285309444E+00 -0.12394503747E+02  0.18514511553E+02  0.00000000000E+00 0. -1.
</event>
<event>
 8    1  0.2484572E-006  0.9118800E+02  0.7816164E-02  0.1184000E+00
        -11   -1    0    0    0    0  0.00000000000E+00  0.00000000000E+00  0.45593999997E+02  0.45594000000E+02  0.51100000000E-03 0.  1.
         11   -1    0    0    0    0 -0.00000000000E+00 -0.00000000000E+00 -0.45593999997E+02  0.45594000000E+02  0.51100000000E-03 0. -1.
         23    2    1    2    0    0  0.00000000000E+00  0.35527136788E-14 -0.44408920985E-15  0.91188000000E+02  0.91188000000E+02 0.  0.
    9900012    2    3    3    0    0  0.19336200498E+02 -0.31282431690E+02 -0.18168252394E+01  0.54367081542E+02  0.39999993990E+02 0.  0.
         12    1    3    3    0    0 -0.19336200498E+02  0.31282431690E+02  0.18168252394E+01  0.36820918458E+02  0.00000000000E+00 0. -1.
         11    1    4    4    0    0  0.59850819611E+01 -0.35384665760E+02  0.36435526111E+01  0.36071751453E+02  0.51100000000E-03 0. -1.
        -11    1    4    4    0    0  0.18462487141E+01 -0.15727480487E+01  0.22665803257E+01  0.33195718659E+01  0.51100000000E-03 0.  1.
         12    1    4    4    0    0  0.11504869823E+02  0.56749821180E+01 -0.77269581762E+01  0.14975758223E+02  0.00000000000E+00 0. -1.
</event>
<event>
 8    1  0.2484572E-006  0.9118800E+02  0.7816164E-02  0.1184000E+00
        -11   -1    0    0    0    0  0.00000000000E+00  0.00000000000E+00  0.45593999997E+02  0.45594000000E+02  0.51100000000E-03 0. -1.
         11   -1    0    0    0    0 -0.00000000000E+00 -0.00000000000E+00 -0.45593999997E+02  0.45594000000E+02  0.51100000000E-03 0.  1.
         23    2    1    2    0    0 -0.35527136788E-14  0.00000000000E+00  0.88817841970E-15  0.91188000000E+02  0.91188000000E+02 0.  0.
    9900012    2    3    3    0    0 -0.13387853439E+02  0.33929246344E+02 -0.50355176696E+01  0.54367016643E+02  0.39999846042E+02 0.  0.
         12    1    3    3    0    0  0.13387853439E+02 -0.33929246344E+02  0.50355176696E+01  0.36820983357E+02  0.00000000000E+00 0. -1.
         11    1    4    4    0    0 -0.82410175685E+01  0.98113885566E+01  0.84327297865E+01  0.15339121483E+02  0.51100000000E-03 0. -1.
        -11    1    4    4    0    0  0.76196048084E+01  0.19808080273E+02 -0.19697149867E+01  0.21314272189E+02  0.51100000000E-03 0.  1.
        -12    1    4    4    0    0 -0.12766440679E+02  0.43097775139E+01 -0.11498532469E+02  0.17713622971E+02  0.00000000000E+00 0.  1.
</event>
<event>
 8    1  0.2484572E-006  0.9118800E+02  0.7816164E-02  0.1184000E+00
        -11   -1    0    0    0    0  0.00000000000E+00  0.00000000000E+00  0.45593999997E+02  0.45594000000E+02  0.51100000000E-03 0.  1.
         11   -1    0    0    0    0 -0.00000000000E+00 -0.00000000000E+00 -0.45593999997E+02  0.45594000000E+02  0.51100000000E-03 0. -1.
         23    2    1    2    0    0  0.00000000000E+00 -0.10658141036E-13 -0.35527136788E-14  0.91188000000E+02  0.91188000000E+02 0.  0.
    9900012    2    3    3    0    0 -0.11507768157E+02 -0.29173984715E+02 -0.19293296507E+02  0.54367062991E+02  0.39999951701E+02 0.  0.
        -12    1    3    3    0    0  0.11507768157E+02  0.29173984715E+02  0.19293296507E+02  0.36820937009E+02  0.00000000000E+00 0.  1.
         11    1    4    4    0    0 -0.25383098121E+01  0.50462151204E+01  0.18296478392E+00  0.56516174780E+01  0.51100000000E-03 0. -1.
        -11    1    4    4    0    0  0.84281247428E+01 -0.12319221500E+02 -0.53630013819E+00  0.14936000909E+02  0.51100000000E-03 0.  1.
         12    1    4    4    0    0 -0.17397583088E+02 -0.21900978335E+02 -0.18939961153E+02  0.33779444605E+02  0.00000000000E+00 0. -1.
</event>
<event>
 8    1  0.2484572E-006  0.9118800E+02  0.7816164E-02  0.1184000E+00
        -11   -1    0    0    0    0  0.00000000000E+00  0.00000000000E+00  0.45593999997E+02  0.45594000000E+02  0.51100000000E-03 0.  1.
         11   -1    0    0    0    0 -0.00000000000E+00 -0.00000000000E+00 -0.45593999997E+02  0.45594000000E+02  0.51100000000E-03 0. -1.
         23    2    1    2    0    0 -0.35527136788E-14  0.35527136788E-14  0.00000000000E+00  0.91188000000E+02  0.91188000000E+02 0.  0.
    9900012    2    3    3    0    0 -0.23137678600E+02  0.19635273920E+02 -0.20853696866E+02  0.54367179451E+02  0.40000217194E+02 0.  0.
        -12    1    3    3    0    0  0.23137678600E+02 -0.19635273920E+02  0.20853696866E+02  0.36820820549E+02  0.00000000000E+00 0.  1.
         11    1    4    4    0    0  0.39299482226E+00 -0.70194762230E+01 -0.22408246376E+01  0.73789421121E+01  0.51100000000E-03 0. -1.
        -11    1    4    4    0    0 -0.17287354054E+02  0.18349784983E+01 -0.95710110827E+01  0.19844999614E+02  0.51100000000E-03 0.  1.
         12    1    4    4    0    0 -0.62433193682E+01  0.24819771644E+02 -0.90418611460E+01  0.27143237725E+02  0.00000000000E+00 0. -1.
</event>
<event>
 8    1  0.2484572E-006  0.9118800E+02  0.7816164E-02  0.1184000E+00
        -11   -1    0    0    0    0  0.00000000000E+00  0.00000000000E+00  0.45593999997E+02  0.45594000000E+02  0.51100000000E-03 0. -1.
         11   -1    0    0    0    0 -0.00000000000E+00 -0.00000000000E+00 -0.45593999997E+02  0.45594000000E+02  0.51100000000E-03 0.  1.
         23    2    1    2    0    0  0.17763568394E-14  0.00000000000E+00  0.00000000000E+00  0.91188000000E+02  0.91188000000E+02 0.  0.
    9900012    2    3    3    0    0 -0.90930662864E+01 -0.16295941633E+02  0.31741714158E+02  0.54367109382E+02  0.40000057458E+02 0.  0.
        -12    1    3    3    0    0  0.90930662864E+01  0.16295941633E+02 -0.31741714158E+02  0.36820890618E+02  0.00000000000E+00 0.  1.
         11    1    4    4    0    0 -0.54003730559E+01  0.21965396445E+01  0.77713893957E+01  0.97151072538E+01  0.51100000000E-03 0. -1.
        -11    1    4    4    0    0 -0.17485932908E+02 -0.15747577299E+02  0.13609141965E+02  0.27183686022E+02  0.51100000000E-03 0.  1.
        -12    1    4    4    0    0  0.13793239677E+02 -0.27449039793E+01  0.10361182797E+02  0.17468316106E+02  0.00000000000E+00 0.  1.
</event>
<event>
 8    1  0.2484572E-006  0.9118800E+02  0.7816164E-02  0.1184000E+00
        -11   -1    0    0    0    0  0.00000000000E+00  0.00000000000E+00  0.45593999997E+02  0.45594000000E+02  0.51100000000E-03 0.  1.
         11   -1    0    0    0    0 -0.00000000000E+00 -0.00000000000E+00 -0.45593999997E+02  0.45594000000E+02  0.51100000000E-03 0. -1.
         23    2    1    2    0    0  0.00000000000E+00 -0.11102230246E-15  0.00000000000E+00  0.91188000000E+02  0.91188000000E+02 0.  0.
    9900012    2    3    3    0    0  0.34848082679E+02  0.50298874924E+00  0.11880084357E+02  0.54367105546E+02  0.40000048713E+02 0.  0.
         12    1    3    3    0    0 -0.34848082679E+02 -0.50298874924E+00 -0.11880084357E+02  0.36820894454E+02  0.00000000000E+00 0. -1.
         11    1    4    4    0    0  0.10971250953E+02  0.23204578352E+00 -0.42666779371E+01  0.11773985460E+02  0.51100000000E-03 0. -1.
        -11    1    4    4    0    0 -0.33125429325E+01  0.21713143141E+01 -0.61934930812E+01  0.73516599036E+01  0.51100000000E-03 0.  1.
        -12    1    4    4    0    0  0.27189374658E+02 -0.19003713484E+01  0.22340255375E+02  0.35241460182E+02  0.00000000000E+00 0.  1.
</event>
<event>
 8    1  0.2484572E-006  0.9118800E+02  0.7816164E-02  0.1184000E+00
        -11   -1    0    0    0    0  0.00000000000E+00  0.00000000000E+00  0.45593999997E+02  0.45594000000E+02  0.51100000000E-03 0.  1.
         11   -1    0    0    0    0 -0.00000000000E+00 -0.00000000000E+00 -0.45593999997E+02  0.45594000000E+02  0.51100000000E-03 0. -1.
         23    2    1    2    0    0  0.00000000000E+00  0.00000000000E+00  0.00000000000E+00  0.91188000000E+02  0.91188000000E+02 0.  0.
    9900012    2    3    3    0    0 -0.18598976253E+02 -0.13129892932E+02  0.28939011385E+02  0.54367049632E+02  0.39999921245E+02 0.  0.
         12    1    3    3    0    0  0.18598976253E+02  0.13129892932E+02 -0.28939011385E+02  0.36820950368E+02  0.00000000000E+00 0. -1.
         11    1    4    4    0    0 -0.10841866319E+02 -0.18096151749E+02 -0.24247845558E+01  0.21234320188E+02  0.51100000000E-03 0.  1.
        -11    1    4    4    0    0 -0.42311275302E+01  0.10437719666E+01  0.21601819655E+02  0.22037025951E+02  0.51100000000E-03 0. -1.
         12    1    4    4    0    0 -0.35259824030E+01  0.39224868504E+01  0.97619762862E+01  0.11095703493E+02  0.00000000000E+00 0. -1.
</event>
<event>
 8    1  0.2484572E-006  0.9118800E+02  0.7816164E-02  0.1184000E+00
        -11   -1    0    0    0    0  0.00000000000E+00  0.00000000000E+00  0.45593999997E+02  0.45594000000E+02  0.51100000000E-03 0.  1.
         11   -1    0    0    0    0 -0.00000000000E+00 -0.00000000000E+00 -0.45593999997E+02  0.45594000000E+02  0.51100000000E-03 0. -1.
         23    2    1    2    0    0 -0.35527136788E-14  0.35527136788E-14  0.13322676296E-14  0.91188000000E+02  0.91188000000E+02 0.  0.
    9900012    2    3    3    0    0 -0.22763296278E+02  0.28819591780E+02  0.26541916659E+01  0.54367064906E+02  0.39999956067E+02 0.  0.
         12    1    3    3    0    0  0.22763296278E+02 -0.28819591780E+02 -0.26541916659E+01  0.36820935094E+02  0.00000000000E+00 0. -1.
         11    1    4    4    0    0 -0.24229947020E+01  0.89406504531E+01 -0.12991395228E+02  0.15955641137E+02  0.51100000000E-03 0. -1.
        -11    1    4    4    0    0 -0.71512919917E+00  0.11813949704E+02 -0.34852550657E+00  0.11840704695E+02  0.51100000000E-03 0.  1.
        -12    1    4    4    0    0 -0.19625172377E+02  0.80649916224E+01  0.15994112400E+02  0.26570719075E+02  0.00000000000E+00 0.  1.
</event>
<event>
 8    1  0.2484572E-006  0.9118800E+02  0.7816164E-02  0.1184000E+00
        -11   -1    0    0    0    0  0.00000000000E+00  0.00000000000E+00  0.45593999997E+02  0.45594000000E+02  0.51100000000E-03 0.  1.
         11   -1    0    0    0    0 -0.00000000000E+00 -0.00000000000E+00 -0.45593999997E+02  0.45594000000E+02  0.51100000000E-03 0. -1.
         23    2    1    2    0    0 -0.35527136788E-14  0.00000000000E+00  0.00000000000E+00  0.91188000000E+02  0.91188000000E+02 0.  0.
    9900012    2    3    3    0    0  0.19676505200E+02  0.25747307816E+02 -0.17484003872E+02  0.54367094144E+02  0.40000022720E+02 0.  0.
        -12    1    3    3    0    0 -0.19676505200E+02 -0.25747307816E+02  0.17484003872E+02  0.36820905856E+02  0.00000000000E+00 0.  1.
         11    1    4    4    0    0  0.23899025312E+02  0.26852321292E+02 -0.26206969784E+02  0.44486130818E+02  0.51100000000E-03 0. -1.
        -11    1    4    4    0    0 -0.10206349098E+01 -0.10031153574E+01  0.29474784782E+01  0.32765173096E+01  0.51100000000E-03 0.  1.
         12    1    4    4    0    0 -0.32018852025E+01 -0.10189811810E+00  0.57754874342E+01  0.66044460160E+01  0.00000000000E+00 0. -1.
</event>
<event>
 8    1  0.2484572E-006  0.9118800E+02  0.7816164E-02  0.1184000E+00
        -11   -1    0    0    0    0  0.00000000000E+00  0.00000000000E+00  0.45593999997E+02  0.45594000000E+02  0.51100000000E-03 0.  1.
         11   -1    0    0    0    0 -0.00000000000E+00 -0.00000000000E+00 -0.45593999997E+02  0.45594000000E+02  0.51100000000E-03 0. -1.
         23    2    1    2    0    0  0.00000000000E+00  0.44408920985E-15  0.00000000000E+00  0.91188000000E+02  0.91188000000E+02 0.  0.
    9900012    2    3    3    0    0  0.28767605677E+02 -0.21659571581E+01  0.22880365583E+02  0.54367114133E+02  0.40000068289E+02 0.  0.
         12    1    3    3    0    0 -0.28767605677E+02  0.21659571581E+01 -0.22880365583E+02  0.36820885867E+02  0.00000000000E+00 0. -1.
         11    1    4    4    0    0  0.28018457972E+02  0.25605727369E+01  0.28975633520E+02  0.40387842948E+02  0.51100000000E-03 0. -1.
        -11    1    4    4    0    0  0.53924116911E+01 -0.37925704990E+01 -0.44649824404E+00  0.66076513058E+01  0.51100000000E-03 0.  1.
         12    1    4    4    0    0 -0.46432639859E+01 -0.93395939601E+00 -0.56487696929E+01  0.73716198789E+01  0.00000000000E+00 0. -1.
</event>
<event>
 8    1  0.2484572E-006  0.9118800E+02  0.7816164E-02  0.1184000E+00
        -11   -1    0    0    0    0  0.00000000000E+00  0.00000000000E+00  0.45593999997E+02  0.45594000000E+02  0.51100000000E-03 0.  1.
         11   -1    0    0    0    0 -0.00000000000E+00 -0.00000000000E+00 -0.45593999997E+02  0.45594000000E+02  0.51100000000E-03 0. -1.
         23    2    1    2    0    0  0.35527136788E-14  0.00000000000E+00 -0.35527136788E-14  0.91188000000E+02  0.91188000000E+02 0.  0.
    9900012    2    3    3    0    0  0.17182485290E+02  0.13778125416E+02  0.29507703071E+02  0.54367094508E+02  0.40000023550E+02 0.  0.
         12    1    3    3    0    0 -0.17182485290E+02 -0.13778125416E+02 -0.29507703071E+02  0.36820905492E+02  0.00000000000E+00 0. -1.
         11    1    4    4    0    0  0.22541691603E+01 -0.53981026162E+01  0.13803837653E+01  0.60105116304E+01  0.51100000000E-03 0. -1.
        -11    1    4    4    0    0  0.20503196473E+02  0.12441807726E+02  0.62304977092E+01  0.24778998105E+02  0.51100000000E-03 0.  1.
        -12    1    4    4    0    0 -0.55748803434E+01  0.67344203062E+01  0.21896821596E+02  0.23577584773E+02  0.00000000000E+00 0.  1.
</event>
<event>
 8    1  0.2484572E-006  0.9118800E+02  0.7816164E-02  0.1184000E+00
        -11   -1    0    0    0    0  0.00000000000E+00  0.00000000000E+00  0.45593999997E+02  0.45594000000E+02  0.51100000000E-03 0.  1.
         11   -1    0    0    0    0 -0.00000000000E+00 -0.00000000000E+00 -0.45593999997E+02  0.45594000000E+02  0.51100000000E-03 0. -1.
         23    2    1    2    0    0  0.17763568394E-14  0.71054273576E-14  0.00000000000E+00  0.91188000000E+02  0.91188000000E+02 0.  0.
    9900012    2    3    3    0    0  0.10163676791E+02 -0.33805552290E+02  0.10472081639E+02  0.54367079515E+02  0.39999989370E+02 0.  0.
        -12    1    3    3    0    0 -0.10163676791E+02  0.33805552290E+02 -0.10472081639E+02  0.36820920485E+02  0.00000000000E+00 0.  1.
         11    1    4    4    0    0  0.13685230290E+02 -0.13701456216E+02  0.49946625613E+01  0.19999052100E+02  0.51100000000E-03 0. -1.
        -11    1    4    4    0    0  0.62299842604E+01  0.39695678914E+01 -0.13556888936E+01  0.75105303253E+01  0.51100000000E-03 0.  1.
        -12    1    4    4    0    0 -0.97515377600E+01 -0.24073663965E+02  0.68331079712E+01  0.26857497089E+02  0.00000000000E+00 0.  1.
</event>
<event>
 8    1  0.2484572E-006  0.9118800E+02  0.7816164E-02  0.1184000E+00
        -11   -1    0    0    0    0  0.00000000000E+00  0.00000000000E+00  0.45593999997E+02  0.45594000000E+02  0.51100000000E-03 0.  1.
         11   -1    0    0    0    0 -0.00000000000E+00 -0.00000000000E+00 -0.45593999997E+02  0.45594000000E+02  0.51100000000E-03 0. -1.
         23    2    1    2    0    0 -0.35527136788E-14 -0.20539125956E-14  0.35527136788E-14  0.91188000000E+02  0.91188000000E+02 0.  0.
    9900012    2    3    3    0    0  0.31575412524E+02  0.29948182586E+00 -0.18938784471E+02  0.54367164558E+02  0.40000183242E+02 0.  0.
        -12    1    3    3    0    0 -0.31575412524E+02 -0.29948182586E+00  0.18938784471E+02  0.36820835442E+02  0.00000000000E+00 0.  1.
         11    1    4    4    0    0  0.91165437821E+01 -0.23162410435E+01  0.13426261267E+01  0.95015255764E+01  0.51100000000E-03 0.  1.
        -11    1    4    4    0    0  0.18019936115E+02 -0.13800638851E+02 -0.87845246575E+01  0.24338110115E+02  0.51100000000E-03 0. -1.
         12    1    4    4    0    0  0.44389326274E+01  0.16416361721E+02 -0.11496885940E+02  0.20527528866E+02  0.00000000000E+00 0. -1.
</event>
<event>
 8    1  0.2484572E-006  0.9118800E+02  0.7816164E-02  0.1184000E+00
        -11   -1    0    0    0    0  0.00000000000E+00  0.00000000000E+00  0.45593999997E+02  0.45594000000E+02  0.51100000000E-03 0.  1.
         11   -1    0    0    0    0 -0.00000000000E+00 -0.00000000000E+00 -0.45593999997E+02  0.45594000000E+02  0.51100000000E-03 0. -1.
         23    2    1    2    0    0  0.00000000000E+00  0.00000000000E+00  0.00000000000E+00  0.91188000000E+02  0.91188000000E+02 0.  0.
    9900012    2    3    3    0    0 -0.13871830338E+02  0.21911547136E+02  0.26138789939E+02  0.54367083196E+02  0.39999997762E+02 0.  0.
         12    1    3    3    0    0  0.13871830338E+02 -0.21911547136E+02 -0.26138789939E+02  0.36820916804E+02  0.00000000000E+00 0. -1.
         11    1    4    4    0    0  0.73532956457E+00  0.26089573490E+02  0.10017499645E+02  0.27956338349E+02  0.51100000000E-03 0. -1.
        -11    1    4    4    0    0 -0.25193704193E+01 -0.71906995352E+01  0.98813907224E+01  0.12477791070E+02  0.51100000000E-03 0.  1.
         12    1    4    4    0    0 -0.12087789484E+02  0.30126731808E+01  0.62398995709E+01  0.13932953777E+02  0.00000000000E+00 0. -1.
</event>
<event>
 8    1  0.2484572E-006  0.9118800E+02  0.7816164E-02  0.1184000E+00
        -11   -1    0    0    0    0  0.00000000000E+00  0.00000000000E+00  0.45593999997E+02  0.45594000000E+02  0.51100000000E-03 0.  1.
         11   -1    0    0    0    0 -0.00000000000E+00 -0.00000000000E+00 -0.45593999997E+02  0.45594000000E+02  0.51100000000E-03 0. -1.
         23    2    1    2    0    0  0.00000000000E+00  0.00000000000E+00  0.35527136788E-14  0.91188000000E+02  0.91188000000E+02 0.  0.
    9900012    2    3    3    0    0  0.32844858038E+02 -0.94750749703E+01 -0.13682782667E+02  0.54367078138E+02  0.39999986232E+02 0.  0.
        -12    1    3    3    0    0 -0.32844858038E+02  0.94750749703E+01  0.13682782667E+02  0.36820921862E+02  0.00000000000E+00 0.  1.
         11    1    4    4    0    0  0.17723949074E+02 -0.79184743723E+00 -0.28399871223E+01  0.17967496215E+02  0.51100000000E-03 0. -1.
        -11    1    4    4    0    0  0.16080825926E+02 -0.16393658489E+02  0.11780337280E+00  0.22964295744E+02  0.51100000000E-03 0.  1.
        -12    1    4    4    0    0 -0.95991696199E+00  0.77104309556E+01 -0.10960598917E+02  0.13435286179E+02  0.00000000000E+00 0.  1.
</event>
<event>
 8    1  0.2484572E-006  0.9118800E+02  0.7816164E-02  0.1184000E+00
        -11   -1    0    0    0    0  0.00000000000E+00  0.00000000000E+00  0.45593999997E+02  0.45594000000E+02  0.51100000000E-03 0.  1.
         11   -1    0    0    0    0 -0.00000000000E+00 -0.00000000000E+00 -0.45593999997E+02  0.45594000000E+02  0.51100000000E-03 0. -1.
         23    2    1    2    0    0  0.44408920985E-15 -0.17763568394E-14  0.00000000000E+00  0.91188000000E+02  0.91188000000E+02 0.  0.
    9900012    2    3    3    0    0  0.24620924974E+01 -0.91955571266E+01 -0.35569081736E+02  0.54367085483E+02  0.40000002976E+02 0.  0.
        -12    1    3    3    0    0 -0.24620924974E+01  0.91955571266E+01  0.35569081736E+02  0.36820914517E+02  0.00000000000E+00 0.  1.
         11    1    4    4    0    0  0.80469698356E+00  0.61984040176E+00 -0.24070610212E+02  0.24092032202E+02  0.51100000000E-03 0. -1.
        -11    1    4    4    0    0 -0.36171330602E+01  0.49993055208E+01  0.46561706385E+01  0.77302414284E+01  0.51100000000E-03 0.  1.
         12    1    4    4    0    0  0.52745285741E+01 -0.14814703049E+02 -0.16154642162E+02  0.22544811853E+02  0.00000000000E+00 0. -1.
</event>
<event>
 8    1  0.2484572E-006  0.9118800E+02  0.7816164E-02  0.1184000E+00
        -11   -1    0    0    0    0  0.00000000000E+00  0.00000000000E+00  0.45593999997E+02  0.45594000000E+02  0.51100000000E-03 0.  1.
         11   -1    0    0    0    0 -0.00000000000E+00 -0.00000000000E+00 -0.45593999997E+02  0.45594000000E+02  0.51100000000E-03 0. -1.
         23    2    1    2    0    0 -0.17763568394E-14  0.00000000000E+00  0.00000000000E+00  0.91188000000E+02  0.91188000000E+02 0.  0.
    9900012    2    3    3    0    0  0.94333816933E+01 -0.31405211894E+02  0.16748185244E+02  0.54367112813E+02  0.40000065279E+02 0.  0.
         12    1    3    3    0    0 -0.94333816933E+01  0.31405211894E+02 -0.16748185244E+02  0.36820887187E+02  0.00000000000E+00 0. -1.
         11    1    4    4    0    0  0.16618077189E+02 -0.15332245740E+02  0.14382219881E+02  0.26797136001E+02  0.51100000000E-03 0. -1.
        -11    1    4    4    0    0  0.69953420219E+00 -0.11118564193E+02  0.10423207499E+02  0.15256312550E+02  0.51100000000E-03 0.  1.
         12    1    4    4    0    0 -0.78842296979E+01 -0.49544019612E+01 -0.80572421352E+01  0.12313664262E+02  0.00000000000E+00 0. -1.
</event>
<event>
 8    1  0.2484572E-006  0.9118800E+02  0.7816164E-02  0.1184000E+00
        -11   -1    0    0    0    0  0.00000000000E+00  0.00000000000E+00  0.45593999997E+02  0.45594000000E+02  0.51100000000E-03 0.  1.
         11   -1    0    0    0    0 -0.00000000000E+00 -0.00000000000E+00 -0.45593999997E+02  0.45594000000E+02  0.51100000000E-03 0. -1.
         23    2    1    2    0    0 -0.22204460493E-15 -0.71054273576E-14 -0.17763568394E-14  0.91188000000E+02  0.91188000000E+02 0.  0.
    9900012    2    3    3    0    0 -0.12937382781E+01 -0.35708086524E+02 -0.88902335373E+01  0.54367116601E+02  0.40000073914E+02 0.  0.
        -12    1    3    3    0    0  0.12937382781E+01  0.35708086524E+02  0.88902335373E+01  0.36820883399E+02  0.00000000000E+00 0.  1.
         11    1    4    4    0    0  0.67615535753E+01  0.10468708571E+01 -0.11426204035E+02  0.13318133662E+02  0.51100000000E-03 0. -1.
        -11    1    4    4    0    0  0.46493912601E+01 -0.15640616942E+02  0.14888492050E+01  0.16384822539E+02  0.51100000000E-03 0.  1.
         12    1    4    4    0    0 -0.12704683113E+02 -0.21114340439E+02  0.10471212923E+01  0.24664160399E+02  0.00000000000E+00 0. -1.
</event>
<event>
 8    1  0.2484572E-006  0.9118800E+02  0.7816164E-02  0.1184000E+00
        -11   -1    0    0    0    0  0.00000000000E+00  0.00000000000E+00  0.45593999997E+02  0.45594000000E+02  0.51100000000E-03 0. -1.
         11   -1    0    0    0    0 -0.00000000000E+00 -0.00000000000E+00 -0.45593999997E+02  0.45594000000E+02  0.51100000000E-03 0.  1.
         23    2    1    2    0    0 -0.35527136788E-14  0.17763568394E-14  0.35527136788E-14  0.91188000000E+02  0.91188000000E+02 0.  0.
    9900012    2    3    3    0    0 -0.30399869958E+02 -0.10079116240E+02  0.18166770334E+02  0.54367187651E+02  0.40000235888E+02 0.  0.
        -12    1    3    3    0    0  0.30399869958E+02  0.10079116240E+02 -0.18166770334E+02  0.36820812349E+02  0.00000000000E+00 0.  1.
         11    1    4    4    0    0 -0.30557466476E+02 -0.22955204859E+02  0.15109638290E+02  0.41097461687E+02  0.51100000000E-03 0. -1.
        -11    1    4    4    0    0  0.26180280311E+00  0.94924049437E+01  0.18423813306E+01  0.96730895556E+01  0.51100000000E-03 0.  1.
         12    1    4    4    0    0 -0.10420628491E+00  0.33836836751E+01  0.12147507134E+01  0.35966364090E+01  0.00000000000E+00 0. -1.
</event>
<event>
 8    1  0.2484572E-006  0.9118800E+02  0.7816164E-02  0.1184000E+00
        -11   -1    0    0    0    0  0.00000000000E+00  0.00000000000E+00  0.45593999997E+02  0.45594000000E+02  0.51100000000E-03 0.  1.
         11   -1    0    0    0    0 -0.00000000000E+00 -0.00000000000E+00 -0.45593999997E+02  0.45594000000E+02  0.51100000000E-03 0. -1.
         23    2    1    2    0    0  0.88817841970E-15  0.00000000000E+00  0.00000000000E+00  0.91188000000E+02  0.91188000000E+02 0.  0.
    9900012    2    3    3    0    0 -0.19919701894E+01 -0.35465772802E+02 -0.96948654936E+01  0.54367090144E+02  0.40000013601E+02 0.  0.
         12    1    3    3    0    0  0.19919701894E+01  0.35465772802E+02  0.96948654936E+01  0.36820909856E+02  0.00000000000E+00 0. -1.
         11    1    4    4    0    0  0.23423070571E+01 -0.33808102064E+01  0.12022020666E+02  0.12706111174E+02  0.51100000000E-03 0. -1.
        -11    1    4    4    0    0 -0.23480050499E+01 -0.19009324386E+02 -0.40251163223E+01  0.19572151210E+02  0.51100000000E-03 0.  1.
         12    1    4    4    0    0 -0.19862721967E+01 -0.13075638210E+02 -0.17691769837E+02  0.22088827760E+02  0.00000000000E+00 0. -1.
</event>
<event>
 8    1  0.2484572E-006  0.9118800E+02  0.7816164E-02  0.1184000E+00
        -11   -1    0    0    0    0  0.00000000000E+00  0.00000000000E+00  0.45593999997E+02  0.45594000000E+02  0.51100000000E-03 0.  1.
         11   -1    0    0    0    0 -0.00000000000E+00 -0.00000000000E+00 -0.45593999997E+02  0.45594000000E+02  0.51100000000E-03 0. -1.
         23    2    1    2    0    0 -0.17763568394E-14  0.00000000000E+00  0.00000000000E+00  0.91188000000E+02  0.91188000000E+02 0.  0.
    9900012    2    3    3    0    0 -0.14950084408E+02 -0.21065911796E+02 -0.26239387253E+02  0.54367039841E+02  0.39999898926E+02 0.  0.
        -12    1    3    3    0    0  0.14950084408E+02  0.21065911796E+02  0.26239387253E+02  0.36820960159E+02  0.00000000000E+00 0.  1.
         11    1    4    4    0    0 -0.10380926139E+02 -0.14951942170E+02 -0.22206938669E+02  0.28713626164E+02  0.51100000000E-03 0. -1.
        -11    1    4    4    0    0 -0.13130342924E+02 -0.47532300715E+01  0.32435058729E+01  0.14335948940E+02  0.51100000000E-03 0.  1.
         12    1    4    4    0    0  0.85611846548E+01 -0.13607395540E+01 -0.72759544570E+01  0.11317464738E+02  0.00000000000E+00 0. -1.
</event>
<event>
 8    1  0.2484572E-006  0.9118800E+02  0.7816164E-02  0.1184000E+00
        -11   -1    0    0    0    0  0.00000000000E+00  0.00000000000E+00  0.45593999997E+02  0.45594000000E+02  0.51100000000E-03 0.  1.
         11   -1    0    0    0    0 -0.00000000000E+00 -0.00000000000E+00 -0.45593999997E+02  0.45594000000E+02  0.51100000000E-03 0. -1.
         23    2    1    2    0    0  0.00000000000E+00  0.00000000000E+00  0.00000000000E+00  0.91188000000E+02  0.91188000000E+02 0.  0.
    9900012    2    3    3    0    0 -0.19956018734E+02  0.21331143411E+01 -0.30870484201E+02  0.54367086713E+02  0.40000005780E+02 0.  0.
        -12    1    3    3    0    0  0.19956018734E+02 -0.21331143411E+01  0.30870484201E+02  0.36820913287E+02  0.00000000000E+00 0.  1.
         11    1    4    4    0    0  0.53107051107E+01  0.16917215779E+01 -0.96162437361E+01  0.11114749413E+02  0.51100000000E-03 0. -1.
        -11    1    4    4    0    0  0.40052874144E+01 -0.64863687834E+00 -0.11790634665E+02  0.12469247096E+02  0.51100000000E-03 0.  1.
        -12    1    4    4    0    0 -0.29272011259E+02  0.10900296415E+01 -0.94636057994E+01  0.30783090204E+02  0.00000000000E+00 0.  1.
</event>
<event>
 8    1  0.2484572E-006  0.9118800E+02  0.7816164E-02  0.1184000E+00
        -11   -1    0    0    0    0  0.00000000000E+00  0.00000000000E+00  0.45593999997E+02  0.45594000000E+02  0.51100000000E-03 0. -1.
         11   -1    0    0    0    0 -0.00000000000E+00 -0.00000000000E+00 -0.45593999997E+02  0.45594000000E+02  0.51100000000E-03 0.  1.
         23    2    1    2    0    0 -0.26645352591E-14 -0.17763568394E-14  0.71054273576E-14  0.91188000000E+02  0.91188000000E+02 0.  0.
    9900012    2    3    3    0    0  0.35045856016E+01 -0.47502130741E+01 -0.36344641746E+02  0.54367087082E+02  0.40000006621E+02 0.  0.
         12    1    3    3    0    0 -0.35045856016E+01  0.47502130741E+01  0.36344641746E+02  0.36820912918E+02  0.00000000000E+00 0. -1.
         11    1    4    4    0    0 -0.51516173041E+01 -0.86841430250E+01 -0.29296304802E+01  0.10513621447E+02  0.51100000000E-03 0.  1.
        -11    1    4    4    0    0 -0.90979412493E+01  0.48320843322E+01 -0.91848460638E+01  0.13801556849E+02  0.51100000000E-03 0. -1.
        -12    1    4    4    0    0  0.17754144155E+02 -0.89815438134E+00 -0.24230165202E+02  0.30051908786E+02  0.00000000000E+00 0.  1.
</event>
<event>
 8    1  0.2484572E-006  0.9118800E+02  0.7816164E-02  0.1184000E+00
        -11   -1    0    0    0    0  0.00000000000E+00  0.00000000000E+00  0.45593999997E+02  0.45594000000E+02  0.51100000000E-03 0.  1.
         11   -1    0    0    0    0 -0.00000000000E+00 -0.00000000000E+00 -0.45593999997E+02  0.45594000000E+02  0.51100000000E-03 0. -1.
         23    2    1    2    0    0  0.00000000000E+00  0.12212453271E-14  0.00000000000E+00  0.91188000000E+02  0.91188000000E+02 0.  0.
    9900012    2    3    3    0    0  0.32559204185E+02  0.87091922351E+00 -0.17173176823E+02  0.54367105393E+02  0.40000048364E+02 0.  0.
        -12    1    3    3    0    0 -0.32559204185E+02 -0.87091922351E+00  0.17173176823E+02  0.36820894607E+02  0.00000000000E+00 0.  1.
         11    1    4    4    0    0  0.43936314230E+01  0.84250125100E+01 -0.71680523284E+01  0.11902344614E+02  0.51100000000E-03 0. -1.
        -11    1    4    4    0    0  0.64117616728E+01  0.36773647947E+01 -0.15678866362E+02  0.17333797918E+02  0.51100000000E-03 0.  1.
        -12    1    4    4    0    0  0.21753811089E+02 -0.11231458081E+02  0.56737418676E+01  0.25130962861E+02  0.00000000000E+00 0.  1.
</event>
<event>
 8    1  0.2484572E-006  0.9118800E+02  0.7816164E-02  0.1184000E+00
        -11   -1    0    0    0    0  0.00000000000E+00  0.00000000000E+00  0.45593999997E+02  0.45594000000E+02  0.51100000000E-03 0.  1.
         11   -1    0    0    0    0 -0.00000000000E+00 -0.00000000000E+00 -0.45593999997E+02  0.45594000000E+02  0.51100000000E-03 0. -1.
         23    2    1    2    0    0 -0.17763568394E-14  0.00000000000E+00  0.88817841970E-15  0.91188000000E+02  0.91188000000E+02 0.  0.
    9900012    2    3    3    0    0 -0.14299695420E+02  0.33694147522E+02 -0.40004979815E+01  0.54367070484E+02  0.39999968782E+02 0.  0.
         12    1    3    3    0    0  0.14299695420E+02 -0.33694147522E+02  0.40004979815E+01  0.36820929516E+02  0.00000000000E+00 0. -1.
         11    1    4    4    0    0  0.90045099757E+00 -0.56735045181E+01  0.88265170340E+00  0.58119308157E+01  0.51100000000E-03 0. -1.
        -11    1    4    4    0    0 -0.12973275172E+02  0.40764206425E+02 -0.89574107433E+01  0.43706539575E+02  0.51100000000E-03 0.  1.
         12    1    4    4    0    0 -0.22268712448E+01 -0.13965543847E+01  0.40742610584E+01  0.48486000930E+01  0.00000000000E+00 0. -1.
</event>
<event>
 8    1  0.2484572E-006  0.9118800E+02  0.7816164E-02  0.1184000E+00
        -11   -1    0    0    0    0  0.00000000000E+00  0.00000000000E+00  0.45593999997E+02  0.45594000000E+02  0.51100000000E-03 0.  1.
         11   -1    0    0    0    0 -0.00000000000E+00 -0.00000000000E+00 -0.45593999997E+02  0.45594000000E+02  0.51100000000E-03 0. -1.
         23    2    1    2    0    0  0.00000000000E+00  0.35527136788E-14  0.17763568394E-14  0.91188000000E+02  0.91188000000E+02 0.  0.
    9900012    2    3    3    0    0 -0.18081499498E+02 -0.30732197048E+02 -0.91853932790E+01  0.54367081908E+02  0.39999994825E+02 0.  0.
         12    1    3    3    0    0  0.18081499498E+02  0.30732197048E+02  0.91853932790E+01  0.36820918092E+02  0.00000000000E+00 0. -1.
         11    1    4    4    0    0 -0.74476560418E+00 -0.22615125529E+02  0.50035429076E+01  0.23173994485E+02  0.51100000000E-03 0. -1.
        -11    1    4    4    0    0 -0.10842610139E+02 -0.29057286866E+01  0.34033333196E+01  0.11729796749E+02  0.51100000000E-03 0.  1.
         12    1    4    4    0    0 -0.64941237549E+01 -0.52113428315E+01 -0.17592269506E+02  0.19463290673E+02  0.00000000000E+00 0. -1.
</event>
<event>
 8    1  0.2484572E-006  0.9118800E+02  0.7816164E-02  0.1184000E+00
        -11   -1    0    0    0    0  0.00000000000E+00  0.00000000000E+00  0.45593999997E+02  0.45594000000E+02  0.51100000000E-03 0. -1.
         11   -1    0    0    0    0 -0.00000000000E+00 -0.00000000000E+00 -0.45593999997E+02  0.45594000000E+02  0.51100000000E-03 0.  1.
         23    2    1    2    0    0  0.35527136788E-14  0.00000000000E+00  0.00000000000E+00  0.91188000000E+02  0.91188000000E+02 0.  0.
    9900012    2    3    3    0    0 -0.29226318144E+02  0.53562186457E+01 -0.21746669466E+02  0.54367022511E+02  0.39999859417E+02 0.  0.
         12    1    3    3    0    0  0.29226318144E+02 -0.53562186457E+01  0.21746669466E+02  0.36820977489E+02  0.00000000000E+00 0. -1.
         11    1    4    4    0    0 -0.13338713492E+02 -0.75505943300E-01 -0.16410285666E+01  0.13439492319E+02  0.51100000000E-03 0. -1.
        -11    1    4    4    0    0 -0.15981923242E+02  0.12764271026E+02 -0.10170636607E+01  0.20478840399E+02  0.51100000000E-03 0.  1.
        -12    1    4    4    0    0  0.94318590922E-01 -0.73325464366E+01 -0.19088577238E+02  0.20448689792E+02  0.00000000000E+00 0.  1.
</event>
<event>
 8    1  0.2484572E-006  0.9118800E+02  0.7816164E-02  0.1184000E+00
        -11   -1    0    0    0    0  0.00000000000E+00  0.00000000000E+00  0.45593999997E+02  0.45594000000E+02  0.51100000000E-03 0. -1.
         11   -1    0    0    0    0 -0.00000000000E+00 -0.00000000000E+00 -0.45593999997E+02  0.45594000000E+02  0.51100000000E-03 0.  1.
         23    2    1    2    0    0  0.19984014443E-14  0.00000000000E+00  0.00000000000E+00  0.91188000000E+02  0.91188000000E+02 0.  0.
    9900012    2    3    3    0    0 -0.12486796459E+01  0.18759620542E+02 -0.31659096745E+02  0.54367068854E+02  0.39999965067E+02 0.  0.
         12    1    3    3    0    0  0.12486796459E+01 -0.18759620542E+02  0.31659096745E+02  0.36820931146E+02  0.00000000000E+00 0. -1.
         11    1    4    4    0    0 -0.55403624648E+01  0.86507740143E+01 -0.35671399188E+01  0.10874557221E+02  0.51100000000E-03 0. -1.
        -11    1    4    4    0    0 -0.10092677560E+02  0.55185552902E+01 -0.25763774843E+02  0.28215043633E+02  0.51100000000E-03 0.  1.
        -12    1    4    4    0    0  0.14384360378E+02  0.45902912377E+01 -0.23281819834E+01  0.15277468000E+02  0.00000000000E+00 0.  1.
</event>
<event>
 8    1  0.2484572E-006  0.9118800E+02  0.7816164E-02  0.1184000E+00
        -11   -1    0    0    0    0  0.00000000000E+00  0.00000000000E+00  0.45593999997E+02  0.45594000000E+02  0.51100000000E-03 0.  1.
         11   -1    0    0    0    0 -0.00000000000E+00 -0.00000000000E+00 -0.45593999997E+02  0.45594000000E+02  0.51100000000E-03 0. -1.
         23    2    1    2    0    0  0.88817841970E-15 -0.71054273576E-14  0.22204460493E-15  0.91188000000E+02  0.91188000000E+02 0.  0.
    9900012    2    3    3    0    0 -0.72694449050E+01  0.36088131955E+02  0.76661904776E+00  0.54367003245E+02  0.39999815498E+02 0.  0.
        -12    1    3    3    0    0  0.72694449050E+01 -0.36088131955E+02 -0.76661904776E+00  0.36820996755E+02  0.00000000000E+00 0.  1.
         11    1    4    4    0    0 -0.51637075569E+01  0.42526549624E+01 -0.48553292767E+01  0.82657832423E+01  0.51100000000E-03 0. -1.
        -11    1    4    4    0    0 -0.14829083754E+02  0.99454766636E+01 -0.51540431464E+01  0.18584358802E+02  0.51100000000E-03 0.  1.
         12    1    4    4    0    0  0.12723346406E+02  0.21890000329E+02  0.10775991471E+02  0.27516861201E+02  0.00000000000E+00 0. -1.
</event>
<event>
 8    1  0.2484572E-006  0.9118800E+02  0.7816164E-02  0.1184000E+00
        -11   -1    0    0    0    0  0.00000000000E+00  0.00000000000E+00  0.45593999997E+02  0.45594000000E+02  0.51100000000E-03 0. -1.
         11   -1    0    0    0    0 -0.00000000000E+00 -0.00000000000E+00 -0.45593999997E+02  0.45594000000E+02  0.51100000000E-03 0.  1.
         23    2    1    2    0    0  0.13322676296E-14 -0.35527136788E-14  0.35527136788E-14  0.91188000000E+02  0.91188000000E+02 0.  0.
    9900012    2    3    3    0    0  0.38621303804E+01 -0.24617015327E+02  0.27108415066E+02  0.54367086621E+02  0.40000005569E+02 0.  0.
        -12    1    3    3    0    0 -0.38621303804E+01  0.24617015327E+02 -0.27108415066E+02  0.36820913379E+02  0.00000000000E+00 0.  1.
         11    1    4    4    0    0 -0.28050356598E+01 -0.12326765314E+02  0.17808064192E+02  0.21839059473E+02  0.51100000000E-03 0. -1.
        -11    1    4    4    0    0  0.15752832175E+02 -0.59387069263E+01  0.12524641423E+02  0.20983007518E+02  0.51100000000E-03 0.  1.
        -12    1    4    4    0    0 -0.90856661344E+01 -0.63515430872E+01 -0.32242905489E+01  0.11545019629E+02  0.00000000000E+00 0.  1.
</event>
<event>
 8    1  0.2484572E-006  0.9118800E+02  0.7816164E-02  0.1184000E+00
        -11   -1    0    0    0    0  0.00000000000E+00  0.00000000000E+00  0.45593999997E+02  0.45594000000E+02  0.51100000000E-03 0. -1.
         11   -1    0    0    0    0 -0.00000000000E+00 -0.00000000000E+00 -0.45593999997E+02  0.45594000000E+02  0.51100000000E-03 0.  1.
         23    2    1    2    0    0  0.00000000000E+00  0.00000000000E+00 -0.35527136788E-14  0.91188000000E+02  0.91188000000E+02 0.  0.
    9900012    2    3    3    0    0  0.25880172517E+02 -0.16786605593E+02 -0.20104870522E+02  0.54367091870E+02  0.40000017536E+02 0.  0.
         12    1    3    3    0    0 -0.25880172517E+02  0.16786605593E+02  0.20104870522E+02  0.36820908130E+02  0.00000000000E+00 0. -1.
         11    1    4    4    0    0 -0.22712061358E+01  0.29665317455E+01 -0.36169338975E+01  0.52000864404E+01  0.51100000000E-03 0.  1.
        -11    1    4    4    0    0  0.77773531221E+01 -0.10563152904E+02  0.85084769787E+01  0.15635267878E+02  0.51100000000E-03 0. -1.
         12    1    4    4    0    0  0.20374025530E+02 -0.91899844338E+01 -0.24996413603E+02  0.33531737551E+02  0.00000000000E+00 0. -1.
</event>
<event>
 8    1  0.2484572E-006  0.9118800E+02  0.7816164E-02  0.1184000E+00
        -11   -1    0    0    0    0  0.00000000000E+00  0.00000000000E+00  0.45593999997E+02  0.45594000000E+02  0.51100000000E-03 0.  1.
         11   -1    0    0    0    0 -0.00000000000E+00 -0.00000000000E+00 -0.45593999997E+02  0.45594000000E+02  0.51100000000E-03 0. -1.
         23    2    1    2    0    0  0.88817841970E-15  0.88817841970E-15  0.00000000000E+00  0.91188000000E+02  0.91188000000E+02 0.  0.
    9900012    2    3    3    0    0 -0.77804364023E+01  0.66051889608E+01  0.35378169133E+02  0.54367101545E+02  0.40000039592E+02 0.  0.
         12    1    3    3    0    0  0.77804364023E+01 -0.66051889608E+01 -0.35378169133E+02  0.36820898455E+02  0.00000000000E+00 0. -1.
         11    1    4    4    0    0 -0.86270609612E+01  0.19808860143E+02  0.33236894789E+02  0.39642253928E+02  0.51100000000E-03 0. -1.
        -11    1    4    4    0    0  0.19285099789E+00 -0.79083061085E+01  0.42590885963E+01  0.89843382029E+01  0.51100000000E-03 0.  1.
         12    1    4    4    0    0  0.65377356104E+00 -0.52953650735E+01 -0.21178142521E+01  0.57405094144E+01  0.00000000000E+00 0. -1.
</event>
<event>
 8    1  0.2484572E-006  0.9118800E+02  0.7816164E-02  0.1184000E+00
        -11   -1    0    0    0    0  0.00000000000E+00  0.00000000000E+00  0.45593999997E+02  0.45594000000E+02  0.51100000000E-03 0.  1.
         11   -1    0    0    0    0 -0.00000000000E+00 -0.00000000000E+00 -0.45593999997E+02  0.45594000000E+02  0.51100000000E-03 0. -1.
         23    2    1    2    0    0 -0.35527136788E-14  0.00000000000E+00  0.17763568394E-14  0.91188000000E+02  0.91188000000E+02 0.  0.
    9900012    2    3    3    0    0  0.18342412263E+02  0.28039411948E+02 -0.15268711711E+02  0.54366996926E+02  0.39999801092E+02 0.  0.
        -12    1    3    3    0    0 -0.18342412263E+02 -0.28039411948E+02  0.15268711711E+02  0.36821003074E+02  0.00000000000E+00 0.  1.
         11    1    4    4    0    0  0.18147915488E+02 -0.26595700960E+01 -0.78436359765E+01  0.19948503083E+02  0.51100000000E-03 0. -1.
        -11    1    4    4    0    0  0.39429155301E+01  0.10630845968E+02  0.26626760869E+01  0.11646944366E+02  0.51100000000E-03 0.  1.
        -12    1    4    4    0    0 -0.37484187551E+01  0.20068136077E+02 -0.10087751822E+02  0.22771549477E+02  0.00000000000E+00 0.  1.
</event>
<event>
 8    1  0.2484572E-006  0.9118800E+02  0.7816164E-02  0.1184000E+00
        -11   -1    0    0    0    0  0.00000000000E+00  0.00000000000E+00  0.45593999997E+02  0.45594000000E+02  0.51100000000E-03 0.  1.
         11   -1    0    0    0    0 -0.00000000000E+00 -0.00000000000E+00 -0.45593999997E+02  0.45594000000E+02  0.51100000000E-03 0. -1.
         23    2    1    2    0    0  0.17763568394E-14 -0.71054273576E-14  0.13322676296E-14  0.91188000000E+02  0.91188000000E+02 0.  0.
    9900012    2    3    3    0    0 -0.84510877816E+01 -0.35738082341E+02 -0.26736748514E+01  0.54367082693E+02  0.39999996616E+02 0.  0.
         12    1    3    3    0    0  0.84510877816E+01  0.35738082341E+02  0.26736748514E+01  0.36820917307E+02  0.00000000000E+00 0. -1.
         11    1    4    4    0    0 -0.17397727425E+01  0.29437571827E+01 -0.22340987301E+01  0.40845701051E+01  0.51100000000E-03 0. -1.
        -11    1    4    4    0    0 -0.29284781508E+01 -0.31745313138E+02 -0.13817454198E+02  0.34745689391E+02  0.51100000000E-03 0.  1.
        -12    1    4    4    0    0 -0.37828368882E+01 -0.69365263854E+01  0.13377878077E+02  0.15536823197E+02  0.00000000000E+00 0.  1.
</event>
<event>
 8    1  0.2484572E-006  0.9118800E+02  0.7816164E-02  0.1184000E+00
        -11   -1    0    0    0    0  0.00000000000E+00  0.00000000000E+00  0.45593999997E+02  0.45594000000E+02  0.51100000000E-03 0.  1.
         11   -1    0    0    0    0 -0.00000000000E+00 -0.00000000000E+00 -0.45593999997E+02  0.45594000000E+02  0.51100000000E-03 0. -1.
         23    2    1    2    0    0  0.35527136788E-14 -0.71054273576E-14  0.35527136788E-14  0.91188000000E+02  0.91188000000E+02 0.  0.
    9900012    2    3    3    0    0  0.26239350464E+02  0.18659500606E+02  0.17863313702E+02  0.54367103052E+02  0.40000043028E+02 0.  0.
         12    1    3    3    0    0 -0.26239350464E+02 -0.18659500606E+02 -0.17863313702E+02  0.36820896948E+02  0.00000000000E+00 0. -1.
         11    1    4    4    0    0  0.13484614886E+02 -0.11351868932E+02  0.10870714229E+01  0.17660166800E+02  0.51100000000E-03 0. -1.
        -11    1    4    4    0    0  0.77596259752E+01  0.18164677278E+02  0.11041203159E+02  0.22629084457E+02  0.51100000000E-03 0.  1.
         12    1    4    4    0    0  0.49951096028E+01  0.11846692260E+02  0.57350391197E+01  0.14077851795E+02  0.00000000000E+00 0. -1.
</event>
<event>
 8    1  0.2484572E-006  0.9118800E+02  0.7816164E-02  0.1184000E+00
        -11   -1    0    0    0    0  0.00000000000E+00  0.00000000000E+00  0.45593999997E+02  0.45594000000E+02  0.51100000000E-03 0.  1.
         11   -1    0    0    0    0 -0.00000000000E+00 -0.00000000000E+00 -0.45593999997E+02  0.45594000000E+02  0.51100000000E-03 0. -1.
         23    2    1    2    0    0  0.35527136788E-14 -0.71054273576E-14  0.00000000000E+00  0.91188000000E+02  0.91188000000E+02 0.  0.
    9900012    2    3    3    0    0  0.19388076430E+02 -0.31274901741E+02 -0.13279634453E+01  0.54367075602E+02  0.39999980450E+02 0.  0.
         12    1    3    3    0    0 -0.19388076430E+02  0.31274901741E+02  0.13279634453E+01  0.36820924398E+02  0.00000000000E+00 0. -1.
         11    1    4    4    0    0 -0.97870397470E+01 -0.18957306545E+01  0.22918696155E+00  0.99715830562E+01  0.51100000000E-03 0. -1.
        -11    1    4    4    0    0  0.83780407920E+01 -0.79708420869E+01 -0.77396580158E+01  0.13915034946E+02  0.51100000000E-03 0.  1.
        -12    1    4    4    0    0  0.20797075385E+02 -0.21408329000E+02  0.61825076090E+01  0.30480457600E+02  0.00000000000E+00 0.  1.
</event>
<event>
 8    1  0.2484572E-006  0.9118800E+02  0.7816164E-02  0.1184000E+00
        -11   -1    0    0    0    0  0.00000000000E+00  0.00000000000E+00  0.45593999997E+02  0.45594000000E+02  0.51100000000E-03 0.  1.
         11   -1    0    0    0    0 -0.00000000000E+00 -0.00000000000E+00 -0.45593999997E+02  0.45594000000E+02  0.51100000000E-03 0. -1.
         23    2    1    2    0    0  0.83266726847E-16  0.00000000000E+00  0.00000000000E+00  0.91188000000E+02  0.91188000000E+02 0.  0.
    9900012    2    3    3    0    0 -0.21681195973E+00 -0.24826962772E+02  0.27191066713E+02  0.54367092938E+02  0.40000019970E+02 0.  0.
         12    1    3    3    0    0  0.21681195973E+00  0.24826962772E+02 -0.27191066713E+02  0.36820907062E+02  0.00000000000E+00 0. -1.
         11    1    4    4    0    0 -0.18084883832E+01 -0.24808096168E+02  0.18796757441E+02  0.31177401371E+02  0.51100000000E-03 0. -1.
        -11    1    4    4    0    0  0.60123402244E+01 -0.88792741295E+01  0.78185341691E+01  0.13270991706E+02  0.51100000000E-03 0.  1.
         12    1    4    4    0    0 -0.44206638009E+01  0.88604075251E+01  0.57577510266E+00  0.99186998604E+01  0.00000000000E+00 0. -1.
</event>
<event>
 8    1  0.2484572E-006  0.9118800E+02  0.7816164E-02  0.1184000E+00
        -11   -1    0    0    0    0  0.00000000000E+00  0.00000000000E+00  0.45593999997E+02  0.45594000000E+02  0.51100000000E-03 0.  1.
         11   -1    0    0    0    0 -0.00000000000E+00 -0.00000000000E+00 -0.45593999997E+02  0.45594000000E+02  0.51100000000E-03 0. -1.
         23    2    1    2    0    0 -0.17763568394E-14  0.00000000000E+00  0.13322676296E-14  0.91188000000E+02  0.91188000000E+02 0.  0.
    9900012    2    3    3    0    0 -0.12270766052E+02 -0.34630494573E+02  0.24367342383E+01  0.54367074867E+02  0.39999978775E+02 0.  0.
        -12    1    3    3    0    0  0.12270766052E+02  0.34630494573E+02 -0.24367342383E+01  0.36820925133E+02  0.00000000000E+00 0.  1.
         11    1    4    4    0    0  0.17973795658E+01 -0.10126217438E+02  0.82415960098E+01  0.13179330710E+02  0.51100000000E-03 0. -1.
        -11    1    4    4    0    0  0.91683789679E+01 -0.88680331937E+01 -0.23094981305E+01  0.12962830227E+02  0.51100000000E-03 0.  1.
         12    1    4    4    0    0 -0.23236524585E+02 -0.15636243941E+02 -0.34953636409E+01  0.28224913930E+02  0.00000000000E+00 0. -1.
</event>
<event>
 8    1  0.2484572E-006  0.9118800E+02  0.7816164E-02  0.1184000E+00
        -11   -1    0    0    0    0  0.00000000000E+00  0.00000000000E+00  0.45593999997E+02  0.45594000000E+02  0.51100000000E-03 0.  1.
         11   -1    0    0    0    0 -0.00000000000E+00 -0.00000000000E+00 -0.45593999997E+02  0.45594000000E+02  0.51100000000E-03 0. -1.
         23    2    1    2    0    0  0.00000000000E+00  0.00000000000E+00  0.00000000000E+00  0.91188000000E+02  0.91188000000E+02 0.  0.
    9900012    2    3    3    0    0  0.22620882467E+02  0.26477006206E+02 -0.11960103332E+02  0.54367078597E+02  0.39999987278E+02 0.  0.
         12    1    3    3    0    0 -0.22620882467E+02 -0.26477006206E+02  0.11960103332E+02  0.36820921403E+02  0.00000000000E+00 0. -1.
         11    1    4    4    0    0  0.40426283442E+01  0.86824724386E+01 -0.39449289432E+01  0.10358119337E+02  0.51100000000E-03 0. -1.
        -11    1    4    4    0    0  0.48524522125E+01  0.25912614972E+02 -0.46999438783E+00  0.26367229702E+02  0.51100000000E-03 0.  1.
         12    1    4    4    0    0  0.13725801911E+02 -0.81180812049E+01 -0.75451800010E+01  0.17641729558E+02  0.00000000000E+00 0. -1.
</event>
<event>
 8    1  0.2484572E-006  0.9118800E+02  0.7816164E-02  0.1184000E+00
        -11   -1    0    0    0    0  0.00000000000E+00  0.00000000000E+00  0.45593999997E+02  0.45594000000E+02  0.51100000000E-03 0. -1.
         11   -1    0    0    0    0 -0.00000000000E+00 -0.00000000000E+00 -0.45593999997E+02  0.45594000000E+02  0.51100000000E-03 0.  1.
         23    2    1    2    0    0 -0.33306690739E-15 -0.88817841970E-15  0.00000000000E+00  0.91188000000E+02  0.91188000000E+02 0.  0.
    9900012    2    3    3    0    0 -0.42235537324E+00  0.11356084889E+01  0.36800981819E+02  0.54367078589E+02  0.39999987260E+02 0.  0.
        -12    1    3    3    0    0  0.42235537324E+00 -0.11356084889E+01 -0.36800981819E+02  0.36820921411E+02  0.00000000000E+00 0.  1.
         11    1    4    4    0    0 -0.33451078393E+01 -0.10743348822E+02  0.30546219390E+02  0.32552738897E+02  0.51100000000E-03 0. -1.
        -11    1    4    4    0    0 -0.55387143345E+01  0.79561874657E+01  0.76952503602E+01  0.12377202989E+02  0.51100000000E-03 0.  1.
         12    1    4    4    0    0  0.84614668006E+01  0.39227698453E+01 -0.14404879316E+01  0.94371367034E+01  0.00000000000E+00 0. -1.
</event>
<event>
 8    1  0.2484572E-006  0.9118800E+02  0.7816164E-02  0.1184000E+00
        -11   -1    0    0    0    0  0.00000000000E+00  0.00000000000E+00  0.45593999997E+02  0.45594000000E+02  0.51100000000E-03 0.  1.
         11   -1    0    0    0    0 -0.00000000000E+00 -0.00000000000E+00 -0.45593999997E+02  0.45594000000E+02  0.51100000000E-03 0. -1.
         23    2    1    2    0    0  0.88817841970E-15 -0.35527136788E-14  0.00000000000E+00  0.91188000000E+02  0.91188000000E+02 0.  0.
    9900012    2    3    3    0    0  0.46006910196E+01  0.31947530852E+02  0.17719160310E+02  0.54367085733E+02  0.40000003546E+02 0.  0.
         12    1    3    3    0    0 -0.46006910196E+01 -0.31947530852E+02 -0.17719160310E+02  0.36820914267E+02  0.00000000000E+00 0. -1.
         11    1    4    4    0    0  0.21049859255E+01 -0.96597702652E+00 -0.54153454535E+01  0.58898254647E+01  0.51100000000E-03 0. -1.
        -11    1    4    4    0    0  0.14683216450E+02  0.15567866069E+02  0.11846196224E+02  0.24459919552E+02  0.51100000000E-03 0.  1.
         12    1    4    4    0    0 -0.12187511356E+02  0.17345641809E+02  0.11288309539E+02  0.24017340716E+02  0.00000000000E+00 0. -1.
</event>
<event>
 8    1  0.2484572E-006  0.9118800E+02  0.7816164E-02  0.1184000E+00
        -11   -1    0    0    0    0  0.00000000000E+00  0.00000000000E+00  0.45593999997E+02  0.45594000000E+02  0.51100000000E-03 0. -1.
         11   -1    0    0    0    0 -0.00000000000E+00 -0.00000000000E+00 -0.45593999997E+02  0.45594000000E+02  0.51100000000E-03 0.  1.
         23    2    1    2    0    0 -0.17763568394E-14  0.00000000000E+00  0.00000000000E+00  0.91188000000E+02  0.91188000000E+02 0.  0.
    9900012    2    3    3    0    0 -0.13381660051E+02 -0.99449164222E+01 -0.32830032794E+02  0.54367065172E+02  0.39999956672E+02 0.  0.
         12    1    3    3    0    0  0.13381660051E+02  0.99449164222E+01  0.32830032794E+02  0.36820934828E+02  0.00000000000E+00 0. -1.
         11    1    4    4    0    0 -0.47154400236E+01 -0.43797186332E+01 -0.22100989785E+02  0.23018928291E+02  0.51100000000E-03 0. -1.
        -11    1    4    4    0    0 -0.63278837709E+01 -0.11141700606E+02 -0.17871180310E+02  0.21989967971E+02  0.51100000000E-03 0.  1.
         12    1    4    4    0    0 -0.23383362564E+01  0.55765028174E+01  0.71421373009E+01  0.93581689098E+01  0.00000000000E+00 0. -1.
</event>
<event>
 8    1  0.2484572E-006  0.9118800E+02  0.7816164E-02  0.1184000E+00
        -11   -1    0    0    0    0  0.00000000000E+00  0.00000000000E+00  0.45593999997E+02  0.45594000000E+02  0.51100000000E-03 0.  1.
         11   -1    0    0    0    0 -0.00000000000E+00 -0.00000000000E+00 -0.45593999997E+02  0.45594000000E+02  0.51100000000E-03 0. -1.
         23    2    1    2    0    0  0.00000000000E+00  0.00000000000E+00  0.00000000000E+00  0.91188000000E+02  0.91188000000E+02 0.  0.
    9900012    2    3    3    0    0 -0.13623398294E+02  0.19367053637E+02 -0.28197494203E+02  0.54367103393E+02  0.40000043804E+02 0.  0.
        -12    1    3    3    0    0  0.13623398294E+02 -0.19367053637E+02  0.28197494203E+02  0.36820896607E+02  0.00000000000E+00 0.  1.
         11    1    4    4    0    0 -0.97675320418E+01  0.13568339444E+02 -0.87896577171E+01  0.18888160326E+02  0.51100000000E-03 0. -1.
        -11    1    4    4    0    0  0.10636865247E+02  0.24813475106E+01  0.13534179715E+00  0.10923291876E+02  0.51100000000E-03 0.  1.
         12    1    4    4    0    0 -0.14492731499E+02  0.33173666823E+01 -0.19543178283E+02  0.24555651190E+02  0.00000000000E+00 0. -1.
</event>
<event>
 8    1  0.2484572E-006  0.9118800E+02  0.7816164E-02  0.1184000E+00
        -11   -1    0    0    0    0  0.00000000000E+00  0.00000000000E+00  0.45593999997E+02  0.45594000000E+02  0.51100000000E-03 0. -1.
         11   -1    0    0    0    0 -0.00000000000E+00 -0.00000000000E+00 -0.45593999997E+02  0.45594000000E+02  0.51100000000E-03 0.  1.
         23    2    1    2    0    0  0.00000000000E+00  0.00000000000E+00  0.35527136788E-14  0.91188000000E+02  0.91188000000E+02 0.  0.
    9900012    2    3    3    0    0  0.11349310638E+02  0.16150121839E+02  0.31082895639E+02  0.54367086259E+02  0.40000004746E+02 0.  0.
        -12    1    3    3    0    0 -0.11349310638E+02 -0.16150121839E+02 -0.31082895639E+02  0.36820913741E+02  0.00000000000E+00 0.  1.
         11    1    4    4    0    0  0.91826971892E+01  0.63849362733E+01  0.34065027423E+02  0.35854085297E+02  0.51100000000E-03 0. -1.
        -11    1    4    4    0    0  0.16585464645E+01 -0.26351886781E+01 -0.50484062648E+01  0.59313912213E+01  0.51100000000E-03 0.  1.
         12    1    4    4    0    0  0.50806698422E+00  0.12400374244E+02  0.20662744810E+01  0.12581609741E+02  0.00000000000E+00 0. -1.
</event>
<event>
 8    1  0.2484572E-006  0.9118800E+02  0.7816164E-02  0.1184000E+00
        -11   -1    0    0    0    0  0.00000000000E+00  0.00000000000E+00  0.45593999997E+02  0.45594000000E+02  0.51100000000E-03 0.  1.
         11   -1    0    0    0    0 -0.00000000000E+00 -0.00000000000E+00 -0.45593999997E+02  0.45594000000E+02  0.51100000000E-03 0. -1.
         23    2    1    2    0    0 -0.11102230246E-14  0.14210854715E-13 -0.35527136788E-14  0.91188000000E+02  0.91188000000E+02 0.  0.
    9900012    2    3    3    0    0  0.19661394604E+01 -0.32963407303E+02  0.16288899604E+02  0.54367079646E+02  0.39999989669E+02 0.  0.
         12    1    3    3    0    0 -0.19661394604E+01  0.32963407303E+02 -0.16288899604E+02  0.36820920354E+02  0.00000000000E+00 0. -1.
         11    1    4    4    0    0  0.10310899758E+02 -0.38031562637E+01  0.15650256126E+00  0.10991048389E+02  0.51100000000E-03 0. -1.
        -11    1    4    4    0    0  0.58684530852E+00  0.48541821483E+01  0.58266638845E+00  0.49241214574E+01  0.51100000000E-03 0.  1.
        -12    1    4    4    0    0 -0.89316056060E+01 -0.34014433188E+02  0.15549730654E+02  0.38451909799E+02  0.00000000000E+00 0.  1.
</event>
<event>
 8    1  0.2484572E-006  0.9118800E+02  0.7816164E-02  0.1184000E+00
        -11   -1    0    0    0    0  0.00000000000E+00  0.00000000000E+00  0.45593999997E+02  0.45594000000E+02  0.51100000000E-03 0. -1.
         11   -1    0    0    0    0 -0.00000000000E+00 -0.00000000000E+00 -0.45593999997E+02  0.45594000000E+02  0.51100000000E-03 0.  1.
         23    2    1    2    0    0  0.00000000000E+00  0.00000000000E+00  0.35527136788E-14  0.91188000000E+02  0.91188000000E+02 0.  0.
    9900012    2    3    3    0    0  0.24735196997E+02 -0.19157687655E+02  0.19414754877E+02  0.54367086463E+02  0.40000005209E+02 0.  0.
        -12    1    3    3    0    0 -0.24735196997E+02  0.19157687655E+02 -0.19414754877E+02  0.36820913537E+02  0.00000000000E+00 0.  1.
         11    1    4    4    0    0  0.15252605422E+02 -0.11869096660E+02 -0.76945242479E+01  0.20801998253E+02  0.51100000000E-03 0. -1.
        -11    1    4    4    0    0  0.13107984123E+02 -0.67538900353E+01  0.25717729652E+02  0.29645166505E+02  0.51100000000E-03 0.  1.
        -12    1    4    4    0    0 -0.36253925472E+01 -0.53470095963E+00  0.13915494733E+01  0.39199217051E+01  0.00000000000E+00 0.  1.
</event>
<event>
 8    1  0.2484572E-006  0.9118800E+02  0.7816164E-02  0.1184000E+00
        -11   -1    0    0    0    0  0.00000000000E+00  0.00000000000E+00  0.45593999997E+02  0.45594000000E+02  0.51100000000E-03 0.  1.
         11   -1    0    0    0    0 -0.00000000000E+00 -0.00000000000E+00 -0.45593999997E+02  0.45594000000E+02  0.51100000000E-03 0. -1.
         23    2    1    2    0    0  0.88817841970E-15  0.00000000000E+00 -0.17763568394E-14  0.91188000000E+02  0.91188000000E+02 0.  0.
    9900012    2    3    3    0    0  0.40179623781E+01 -0.33787407911E+02 -0.14072946124E+02  0.54367071609E+02  0.39999971346E+02 0.  0.
        -12    1    3    3    0    0 -0.40179623781E+01  0.33787407911E+02  0.14072946124E+02  0.36820928391E+02  0.00000000000E+00 0.  1.
         11    1    4    4    0    0  0.67597274192E+00 -0.15451175699E+01  0.68870284269E+01  0.70905210152E+01  0.51100000000E-03 0. -1.
        -11    1    4    4    0    0  0.58083902354E+00  0.19055606785E+01  0.42817787487E+01  0.47225168062E+01  0.51100000000E-03 0.  1.
         12    1    4    4    0    0  0.27611506126E+01 -0.34147851019E+02 -0.25241753299E+02  0.42554033787E+02  0.00000000000E+00 0. -1.
</event>
<event>
 8    1  0.2484572E-006  0.9118800E+02  0.7816164E-02  0.1184000E+00
        -11   -1    0    0    0    0  0.00000000000E+00  0.00000000000E+00  0.45593999997E+02  0.45594000000E+02  0.51100000000E-03 0. -1.
         11   -1    0    0    0    0 -0.00000000000E+00 -0.00000000000E+00 -0.45593999997E+02  0.45594000000E+02  0.51100000000E-03 0.  1.
         23    2    1    2    0    0  0.88817841970E-15 -0.44408920985E-15  0.00000000000E+00  0.91188000000E+02  0.91188000000E+02 0.  0.
    9900012    2    3    3    0    0  0.51609148831E+01  0.24181431083E+00 -0.36456636508E+02  0.54367083905E+02  0.39999999378E+02 0.  0.
         12    1    3    3    0    0 -0.51609148831E+01 -0.24181431083E+00  0.36456636508E+02  0.36820916095E+02  0.00000000000E+00 0. -1.
         11    1    4    4    0    0  0.72148098182E+01  0.48920986302E+01  0.67696017526E+00  0.87432479697E+01  0.51100000000E-03 0. -1.
        -11    1    4    4    0    0  0.90831528556E+01 -0.94599606117E+01 -0.26171061583E+02  0.29273178598E+02  0.51100000000E-03 0.  1.
         12    1    4    4    0    0 -0.11137047791E+02  0.48096762923E+01 -0.10962535101E+02  0.16350657337E+02  0.00000000000E+00 0. -1.
</event>
<event>
 8    1  0.2484572E-006  0.9118800E+02  0.7816164E-02  0.1184000E+00
        -11   -1    0    0    0    0  0.00000000000E+00  0.00000000000E+00  0.45593999997E+02  0.45594000000E+02  0.51100000000E-03 0. -1.
         11   -1    0    0    0    0 -0.00000000000E+00 -0.00000000000E+00 -0.45593999997E+02  0.45594000000E+02  0.51100000000E-03 0.  1.
         23    2    1    2    0    0 -0.88817841970E-15  0.00000000000E+00 -0.71054273576E-14  0.91188000000E+02  0.91188000000E+02 0.  0.
    9900012    2    3    3    0    0 -0.48229706550E+01 -0.22485831659E+02 -0.28755985276E+02  0.54367077137E+02  0.39999983949E+02 0.  0.
         12    1    3    3    0    0  0.48229706550E+01  0.22485831659E+02  0.28755985276E+02  0.36820922863E+02  0.00000000000E+00 0. -1.
         11    1    4    4    0    0 -0.57728282025E+01  0.95543668922E+01 -0.81436952201E+01  0.13817787242E+02  0.51100000000E-03 0. -1.
        -11    1    4    4    0    0 -0.11449299776E+01 -0.20856640034E+02 -0.54403317087E+01  0.21584890723E+02  0.51100000000E-03 0.  1.
         12    1    4    4    0    0  0.20947875251E+01 -0.11183558517E+02 -0.15171958347E+02  0.18964399172E+02  0.00000000000E+00 0. -1.
</event>
<event>
 8    1  0.2484572E-006  0.9118800E+02  0.7816164E-02  0.1184000E+00
        -11   -1    0    0    0    0  0.00000000000E+00  0.00000000000E+00  0.45593999997E+02  0.45594000000E+02  0.51100000000E-03 0.  1.
         11   -1    0    0    0    0 -0.00000000000E+00 -0.00000000000E+00 -0.45593999997E+02  0.45594000000E+02  0.51100000000E-03 0. -1.
         23    2    1    2    0    0  0.00000000000E+00  0.00000000000E+00  0.00000000000E+00  0.91188000000E+02  0.91188000000E+02 0.  0.
    9900012    2    3    3    0    0  0.16227976545E+02 -0.18149552305E+02 -0.27622920673E+02  0.54367092650E+02  0.40000019313E+02 0.  0.
        -12    1    3    3    0    0 -0.16227976545E+02  0.18149552305E+02  0.27622920673E+02  0.36820907350E+02  0.00000000000E+00 0.  1.
         11    1    4    4    0    0  0.76455351455E+01 -0.77433463144E+00 -0.21932046818E+02  0.23239373478E+02  0.51100000000E-03 0. -1.
        -11    1    4    4    0    0  0.21125746065E+01 -0.24357948728E+01 -0.12918831122E+02  0.13315114192E+02  0.51100000000E-03 0.  1.
         12    1    4    4    0    0  0.64698667926E+01 -0.14939422800E+02  0.72279572661E+01  0.17812604980E+02  0.00000000000E+00 0. -1.
</event>
<event>
 8    1  0.2484572E-006  0.9118800E+02  0.7816164E-02  0.1184000E+00
        -11   -1    0    0    0    0  0.00000000000E+00  0.00000000000E+00  0.45593999997E+02  0.45594000000E+02  0.51100000000E-03 0. -1.
         11   -1    0    0    0    0 -0.00000000000E+00 -0.00000000000E+00 -0.45593999997E+02  0.45594000000E+02  0.51100000000E-03 0.  1.
         23    2    1    2    0    0  0.00000000000E+00  0.00000000000E+00  0.00000000000E+00  0.91188000000E+02  0.91188000000E+02 0.  0.
    9900012    2    3    3    0    0  0.21648863200E+02 -0.23542923856E+02  0.18243855902E+02  0.54367070901E+02  0.39999969732E+02 0.  0.
        -12    1    3    3    0    0 -0.21648863200E+02  0.23542923856E+02 -0.18243855902E+02  0.36820929099E+02  0.00000000000E+00 0.  1.
         11    1    4    4    0    0  0.78784588554E+01 -0.90653494563E+01  0.48476997857E+01  0.12951867362E+02  0.51100000000E-03 0. -1.
        -11    1    4    4    0    0  0.15266668556E+02 -0.14567293900E+02  0.23278864981E+02  0.31419464913E+02  0.51100000000E-03 0.  1.
        -12    1    4    4    0    0 -0.14962642106E+01  0.89719500541E-01 -0.98827088640E+01  0.99957386254E+01  0.00000000000E+00 0.  1.
</event>
<event>
 8    1  0.2484572E-006  0.9118800E+02  0.7816164E-02  0.1184000E+00
        -11   -1    0    0    0    0  0.00000000000E+00  0.00000000000E+00  0.45593999997E+02  0.45594000000E+02  0.51100000000E-03 0.  1.
         11   -1    0    0    0    0 -0.00000000000E+00 -0.00000000000E+00 -0.45593999997E+02  0.45594000000E+02  0.51100000000E-03 0. -1.
         23    2    1    2    0    0  0.88817841970E-15 -0.17763568394E-14 -0.71054273576E-14  0.91188000000E+02  0.91188000000E+02 0.  0.
    9900012    2    3    3    0    0  0.21057042262E+01 -0.13513161797E+02 -0.34186855033E+02  0.54367074033E+02  0.39999976872E+02 0.  0.
        -12    1    3    3    0    0 -0.21057042262E+01  0.13513161797E+02  0.34186855033E+02  0.36820925967E+02  0.00000000000E+00 0.  1.
         11    1    4    4    0    0  0.16278720961E+02 -0.10611050280E+02 -0.19418823931E+02  0.27471473701E+02  0.51100000000E-03 0. -1.
        -11    1    4    4    0    0  0.23203197412E+01 -0.79587948499E+00  0.20861101080E+01  0.32201185537E+01  0.51100000000E-03 0.  1.
        -12    1    4    4    0    0 -0.16493336476E+02 -0.21062320321E+01 -0.16854141210E+02  0.23675481778E+02  0.00000000000E+00 0.  1.
</event>
<event>
 8    1  0.2484572E-006  0.9118800E+02  0.7816164E-02  0.1184000E+00
        -11   -1    0    0    0    0  0.00000000000E+00  0.00000000000E+00  0.45593999997E+02  0.45594000000E+02  0.51100000000E-03 0. -1.
         11   -1    0    0    0    0 -0.00000000000E+00 -0.00000000000E+00 -0.45593999997E+02  0.45594000000E+02  0.51100000000E-03 0.  1.
         23    2    1    2    0    0  0.00000000000E+00  0.35527136788E-14  0.00000000000E+00  0.91188000000E+02  0.91188000000E+02 0.  0.
    9900012    2    3    3    0    0 -0.21749894513E+02 -0.28395726787E+02  0.87410054941E+01  0.54367076762E+02  0.39999983094E+02 0.  0.
        -12    1    3    3    0    0  0.21749894513E+02  0.28395726787E+02 -0.87410054941E+01  0.36820923238E+02  0.00000000000E+00 0.  1.
         11    1    4    4    0    0 -0.62519042939E+01  0.63050347038E+01  0.82312067426E+01  0.12107540403E+02  0.51100000000E-03 0. -1.
        -11    1    4    4    0    0  0.57936945753E+00  0.10073176242E+01  0.28005279196E+01  0.30320479307E+01  0.51100000000E-03 0.  1.
         12    1    4    4    0    0 -0.16077359677E+02 -0.35708079115E+02 -0.22907291681E+01  0.39227488428E+02  0.00000000000E+00 0. -1.
</event>
<event>
 8    1  0.2484572E-006  0.9118800E+02  0.7816164E-02  0.1184000E+00
        -11   -1    0    0    0    0  0.00000000000E+00  0.00000000000E+00  0.45593999997E+02  0.45594000000E+02  0.51100000000E-03 0. -1.
         11   -1    0    0    0    0 -0.00000000000E+00 -0.00000000000E+00 -0.45593999997E+02  0.45594000000E+02  0.51100000000E-03 0.  1.
         23    2    1    2    0    0  0.00000000000E+00  0.88817841970E-15  0.35527136788E-14  0.91188000000E+02  0.91188000000E+02 0.  0.
    9900012    2    3    3    0    0 -0.17378514179E+02 -0.65439125346E+01  0.31795297619E+02  0.54367129600E+02  0.40000103550E+02 0.  0.
        -12    1    3    3    0    0  0.17378514179E+02  0.65439125346E+01 -0.31795297619E+02  0.36820870400E+02  0.00000000000E+00 0.  1.
         11    1    4    4    0    0 -0.47388575741E+01  0.44326779741E+01 -0.14227539063E+01  0.66430139296E+01  0.51100000000E-03 0. -1.
        -11    1    4    4    0    0 -0.13852548691E+02 -0.16487344424E+02  0.98422108831E+01  0.23676882116E+02  0.51100000000E-03 0.  1.
        -12    1    4    4    0    0  0.12128920867E+01  0.55107539153E+01  0.23375840642E+02  0.24047233555E+02  0.00000000000E+00 0.  1.
</event>
<event>
 8    1  0.2484572E-006  0.9118800E+02  0.7816164E-02  0.1184000E+00
        -11   -1    0    0    0    0  0.00000000000E+00  0.00000000000E+00  0.45593999997E+02  0.45594000000E+02  0.51100000000E-03 0.  1.
         11   -1    0    0    0    0 -0.00000000000E+00 -0.00000000000E+00 -0.45593999997E+02  0.45594000000E+02  0.51100000000E-03 0. -1.
         23    2    1    2    0    0  0.00000000000E+00  0.17763568394E-14  0.00000000000E+00  0.91188000000E+02  0.91188000000E+02 0.  0.
    9900012    2    3    3    0    0  0.31050473534E+02 -0.10241052065E+02 -0.16934243072E+02  0.54367086887E+02  0.40000006175E+02 0.  0.
        -12    1    3    3    0    0 -0.31050473534E+02  0.10241052065E+02  0.16934243072E+02  0.36820913113E+02  0.00000000000E+00 0.  1.
         11    1    4    4    0    0  0.96908775135E+01  0.66768227238E+01 -0.13620796861E+02  0.18000532660E+02  0.51100000000E-03 0. -1.
        -11    1    4    4    0    0  0.95422152433E+01 -0.20912922505E+02  0.14041501781E+01  0.23029890087E+02  0.51100000000E-03 0.  1.
        -12    1    4    4    0    0  0.11817380777E+02  0.39950477153E+01 -0.47175963896E+01  0.13336664140E+02  0.00000000000E+00 0.  1.
</event>
<event>
 8    1  0.2484572E-006  0.9118800E+02  0.7816164E-02  0.1184000E+00
        -11   -1    0    0    0    0  0.00000000000E+00  0.00000000000E+00  0.45593999997E+02  0.45594000000E+02  0.51100000000E-03 0.  1.
         11   -1    0    0    0    0 -0.00000000000E+00 -0.00000000000E+00 -0.45593999997E+02  0.45594000000E+02  0.51100000000E-03 0. -1.
         23    2    1    2    0    0  0.00000000000E+00  0.00000000000E+00 -0.17763568394E-14  0.91188000000E+02  0.91188000000E+02 0.  0.
    9900012    2    3    3    0    0  0.34164485912E+02  0.10362879571E+02  0.90097842129E+01  0.54367114864E+02  0.40000069955E+02 0.  0.
        -12    1    3    3    0    0 -0.34164485912E+02 -0.10362879571E+02 -0.90097842129E+01  0.36820885136E+02  0.00000000000E+00 0.  1.
         11    1    4    4    0    0 -0.13790397261E+01  0.45198408739E+01  0.25613015401E+01  0.53750328308E+01  0.51100000000E-03 0.  1.
        -11    1    4    4    0    0 -0.52955193367E+01 -0.37722909738E+01 -0.24208102441E+00  0.65062514338E+01  0.51100000000E-03 0. -1.
         12    1    4    4    0    0  0.40839044975E+02  0.96153296713E+01  0.66905636972E+01  0.42485830599E+02  0.00000000000E+00 0. -1.
</event>
<event>
 8    1  0.2484572E-006  0.9118800E+02  0.7816164E-02  0.1184000E+00
        -11   -1    0    0    0    0  0.00000000000E+00  0.00000000000E+00  0.45593999997E+02  0.45594000000E+02  0.51100000000E-03 0.  1.
         11   -1    0    0    0    0 -0.00000000000E+00 -0.00000000000E+00 -0.45593999997E+02  0.45594000000E+02  0.51100000000E-03 0. -1.
         23    2    1    2    0    0  0.35527136788E-14  0.17763568394E-14  0.00000000000E+00  0.91188000000E+02  0.91188000000E+02 0.  0.
    9900012    2    3    3    0    0  0.23499603170E+02  0.92136094737E+01 -0.26807788739E+02  0.54367089015E+02  0.40000011028E+02 0.  0.
        -12    1    3    3    0    0 -0.23499603170E+02 -0.92136094737E+01  0.26807788739E+02  0.36820910985E+02  0.00000000000E+00 0.  1.
         11    1    4    4    0    0  0.16966953634E+02 -0.39675373807E+01 -0.63385949968E+01  0.18541754374E+02  0.51100000000E-03 0.  1.
        -11    1    4    4    0    0  0.12757316552E+02  0.11311232321E+02 -0.23186821821E+02  0.28780580409E+02  0.51100000000E-03 0. -1.
        -12    1    4    4    0    0 -0.62246670155E+01  0.18699145333E+01  0.27176280793E+01  0.70447542323E+01  0.00000000000E+00 0.  1.
</event>
<event>
 8    1  0.2484572E-006  0.9118800E+02  0.7816164E-02  0.1184000E+00
        -11   -1    0    0    0    0  0.00000000000E+00  0.00000000000E+00  0.45593999997E+02  0.45594000000E+02  0.51100000000E-03 0. -1.
         11   -1    0    0    0    0 -0.00000000000E+00 -0.00000000000E+00 -0.45593999997E+02  0.45594000000E+02  0.51100000000E-03 0.  1.
         23    2    1    2    0    0 -0.88817841970E-15 -0.71054273576E-14  0.88817841970E-15  0.91188000000E+02  0.91188000000E+02 0.  0.
    9900012    2    3    3    0    0  0.43428330273E+01 -0.36366287046E+02 -0.37963804598E+01  0.54367088322E+02  0.40000009447E+02 0.  0.
         12    1    3    3    0    0 -0.43428330273E+01  0.36366287046E+02  0.37963804598E+01  0.36820911678E+02  0.00000000000E+00 0. -1.
         11    1    4    4    0    0  0.63993991783E+01 -0.48458628022E+01 -0.12619022716E+02  0.14955749086E+02  0.51100000000E-03 0. -1.
        -11    1    4    4    0    0  0.41768832088E+01 -0.27067098544E+02 -0.44019140417E+00  0.27391019434E+02  0.51100000000E-03 0.  1.
         12    1    4    4    0    0 -0.62334493598E+01 -0.44533257004E+01  0.92628336606E+01  0.12020319802E+02  0.00000000000E+00 0. -1.
</event>
<event>
 8    1  0.2484572E-006  0.9118800E+02  0.7816164E-02  0.1184000E+00
        -11   -1    0    0    0    0  0.00000000000E+00  0.00000000000E+00  0.45593999997E+02  0.45594000000E+02  0.51100000000E-03 0.  1.
         11   -1    0    0    0    0 -0.00000000000E+00 -0.00000000000E+00 -0.45593999997E+02  0.45594000000E+02  0.51100000000E-03 0. -1.
         23    2    1    2    0    0 -0.35527136788E-14  0.35527136788E-14  0.17763568394E-14  0.91188000000E+02  0.91188000000E+02 0.  0.
    9900012    2    3    3    0    0 -0.23327474695E+02  0.24835800365E+02  0.13956773563E+02  0.54367087685E+02  0.40000007996E+02 0.  0.
         12    1    3    3    0    0  0.23327474695E+02 -0.24835800365E+02 -0.13956773563E+02  0.36820912315E+02  0.00000000000E+00 0. -1.
         11    1    4    4    0    0 -0.15632644466E+02  0.24669355038E+02 -0.57247930063E+01  0.29761214798E+02  0.51100000000E-03 0. -1.
        -11    1    4    4    0    0 -0.97309943516E+00  0.46821446898E+01  0.20488213346E+01  0.52026022843E+01  0.51100000000E-03 0.  1.
        -12    1    4    4    0    0 -0.67217307930E+01 -0.45156993630E+01  0.17632745235E+02  0.19403270603E+02  0.00000000000E+00 0.  1.
</event>
<event>
 8    1  0.2484572E-006  0.9118800E+02  0.7816164E-02  0.1184000E+00
        -11   -1    0    0    0    0  0.00000000000E+00  0.00000000000E+00  0.45593999997E+02  0.45594000000E+02  0.51100000000E-03 0.  1.
         11   -1    0    0    0    0 -0.00000000000E+00 -0.00000000000E+00 -0.45593999997E+02  0.45594000000E+02  0.51100000000E-03 0. -1.
         23    2    1    2    0    0  0.00000000000E+00  0.00000000000E+00 -0.35527136788E-14  0.91188000000E+02  0.91188000000E+02 0.  0.
    9900012    2    3    3    0    0 -0.20303302518E+02  0.99889320656E+01 -0.29047830261E+02  0.54367091540E+02  0.40000016785E+02 0.  0.
        -12    1    3    3    0    0  0.20303302518E+02 -0.99889320656E+01  0.29047830261E+02  0.36820908460E+02  0.00000000000E+00 0.  1.
         11    1    4    4    0    0 -0.16480299747E+02 -0.89924347570E+00 -0.20218200174E+02  0.26099512201E+02  0.51100000000E-03 0. -1.
        -11    1    4    4    0    0  0.96538940209E+01  0.58245677178E+00 -0.15032487216E+01  0.97875779761E+01  0.51100000000E-03 0.  1.
         12    1    4    4    0    0 -0.13476896792E+02  0.10305718769E+02 -0.73263813651E+01  0.18480001364E+02  0.00000000000E+00 0. -1.
</event>
<event>
 8    1  0.2484572E-006  0.9118800E+02  0.7816164E-02  0.1184000E+00
        -11   -1    0    0    0    0  0.00000000000E+00  0.00000000000E+00  0.45593999997E+02  0.45594000000E+02  0.51100000000E-03 0. -1.
         11   -1    0    0    0    0 -0.00000000000E+00 -0.00000000000E+00 -0.45593999997E+02  0.45594000000E+02  0.51100000000E-03 0.  1.
         23    2    1    2    0    0  0.00000000000E+00  0.35527136788E-14 -0.88817841970E-15  0.91188000000E+02  0.91188000000E+02 0.  0.
    9900012    2    3    3    0    0  0.34405252336E+02 -0.12236459630E+02  0.47252059487E+01  0.54367083338E+02  0.39999998085E+02 0.  0.
        -12    1    3    3    0    0 -0.34405252336E+02  0.12236459630E+02 -0.47252059487E+01  0.36820916662E+02  0.00000000000E+00 0.  1.
         11    1    4    4    0    0  0.16545295081E+02 -0.58778994636E+01  0.61005468306E+01  0.18587984380E+02  0.51100000000E-03 0. -1.
        -11    1    4    4    0    0  0.45133083189E+01  0.73774727521E+01 -0.11282648656E+02  0.14216019736E+02  0.51100000000E-03 0.  1.
        -12    1    4    4    0    0  0.13346648937E+02 -0.13736032919E+02  0.99073077739E+01  0.21563079222E+02  0.00000000000E+00 0.  1.
</event>
<event>
 8    1  0.2484572E-006  0.9118800E+02  0.7816164E-02  0.1184000E+00
        -11   -1    0    0    0    0  0.00000000000E+00  0.00000000000E+00  0.45593999997E+02  0.45594000000E+02  0.51100000000E-03 0. -1.
         11   -1    0    0    0    0 -0.00000000000E+00 -0.00000000000E+00 -0.45593999997E+02  0.45594000000E+02  0.51100000000E-03 0.  1.
         23    2    1    2    0    0 -0.22204460493E-15  0.00000000000E+00  0.00000000000E+00  0.91188000000E+02  0.91188000000E+02 0.  0.
    9900012    2    3    3    0    0  0.40658857228E+00 -0.98228535204E+01  0.35484196526E+02  0.54367055299E+02  0.39999934165E+02 0.  0.
        -12    1    3    3    0    0 -0.40658857228E+00  0.98228535204E+01 -0.35484196526E+02  0.36820944701E+02  0.00000000000E+00 0.  1.
         11    1    4    4    0    0  0.25921039707E+01  0.73739129440E+01  0.18107549097E+02  0.19722498058E+02  0.51100000000E-03 0. -1.
        -11    1    4    4    0    0  0.10617203372E+02 -0.59596513678E+01  0.34871712736E+01  0.12665023317E+02  0.51100000000E-03 0.  1.
        -12    1    4    4    0    0 -0.12802718771E+02 -0.11237115097E+02  0.13889476156E+02  0.21979533924E+02  0.00000000000E+00 0.  1.
</event>
<event>
 8    1  0.2484572E-006  0.9118800E+02  0.7816164E-02  0.1184000E+00
        -11   -1    0    0    0    0  0.00000000000E+00  0.00000000000E+00  0.45593999997E+02  0.45594000000E+02  0.51100000000E-03 0.  1.
         11   -1    0    0    0    0 -0.00000000000E+00 -0.00000000000E+00 -0.45593999997E+02  0.45594000000E+02  0.51100000000E-03 0. -1.
         23    2    1    2    0    0  0.00000000000E+00  0.00000000000E+00 -0.35527136788E-14  0.91188000000E+02  0.91188000000E+02 0.  0.
    9900012    2    3    3    0    0 -0.14467805293E+02 -0.16975263177E+02 -0.29296810116E+02  0.54367081585E+02  0.39999994090E+02 0.  0.
        -12    1    3    3    0    0  0.14467805293E+02  0.16975263177E+02  0.29296810116E+02  0.36820918415E+02  0.00000000000E+00 0.  1.
         11    1    4    4    0    0  0.10270872284E+02  0.22583281681E+01 -0.68845215130E+00  0.10538730010E+02  0.51100000000E-03 0.  1.
        -11    1    4    4    0    0 -0.16779152103E+02 -0.64170727331E+01 -0.13449128686E+02  0.22440985504E+02  0.51100000000E-03 0. -1.
        -12    1    4    4    0    0 -0.79595254751E+01 -0.12816518612E+02 -0.15159229279E+02  0.21387366071E+02  0.00000000000E+00 0.  1.
</event>
<event>
 8    1  0.2484572E-006  0.9118800E+02  0.7816164E-02  0.1184000E+00
        -11   -1    0    0    0    0  0.00000000000E+00  0.00000000000E+00  0.45593999997E+02  0.45594000000E+02  0.51100000000E-03 0. -1.
         11   -1    0    0    0    0 -0.00000000000E+00 -0.00000000000E+00 -0.45593999997E+02  0.45594000000E+02  0.51100000000E-03 0.  1.
         23    2    1    2    0    0  0.35527136788E-14  0.00000000000E+00  0.17763568394E-14  0.91188000000E+02  0.91188000000E+02 0.  0.
    9900012    2    3    3    0    0  0.16937563547E+02  0.31641077543E+02 -0.82304718247E+01  0.54367088639E+02  0.40000010170E+02 0.  0.
         12    1    3    3    0    0 -0.16937563547E+02 -0.31641077543E+02  0.82304718247E+01  0.36820911361E+02  0.00000000000E+00 0. -1.
         11    1    4    4    0    0  0.22075342803E+02  0.23696011670E+02  0.75434794049E+01  0.33252455710E+02  0.51100000000E-03 0. -1.
        -11    1    4    4    0    0 -0.37142245644E+01  0.10417256001E+02 -0.11323389752E+02  0.15828260878E+02  0.51100000000E-03 0.  1.
         12    1    4    4    0    0 -0.14235546917E+01 -0.24721901277E+01 -0.44505614781E+01  0.52863720507E+01  0.00000000000E+00 0. -1.
</event>
<event>
 8    1  0.2484572E-006  0.9118800E+02  0.7816164E-02  0.1184000E+00
        -11   -1    0    0    0    0  0.00000000000E+00  0.00000000000E+00  0.45593999997E+02  0.45594000000E+02  0.51100000000E-03 0. -1.
         11   -1    0    0    0    0 -0.00000000000E+00 -0.00000000000E+00 -0.45593999997E+02  0.45594000000E+02  0.51100000000E-03 0.  1.
         23    2    1    2    0    0  0.00000000000E+00  0.35527136788E-14  0.17763568394E-14  0.91188000000E+02  0.91188000000E+02 0.  0.
    9900012    2    3    3    0    0 -0.25395880583E+02  0.24710869524E+02  0.10010051864E+02  0.54367096133E+02  0.40000027255E+02 0.  0.
         12    1    3    3    0    0  0.25395880583E+02 -0.24710869524E+02 -0.10010051864E+02  0.36820903867E+02  0.00000000000E+00 0. -1.
         11    1    4    4    0    0 -0.10619038709E+02  0.30533566926E+01 -0.27293421986E+01  0.11381400585E+02  0.51100000000E-03 0. -1.
        -11    1    4    4    0    0 -0.15611249307E+02  0.69299679756E+01 -0.69018241657E+01  0.18422017755E+02  0.51100000000E-03 0.  1.
         12    1    4    4    0    0  0.83440743288E+00  0.14727544856E+02  0.19641218228E+02  0.24563677794E+02  0.00000000000E+00 0. -1.
</event>
<event>
 8    1  0.2484572E-006  0.9118800E+02  0.7816164E-02  0.1184000E+00
        -11   -1    0    0    0    0  0.00000000000E+00  0.00000000000E+00  0.45593999997E+02  0.45594000000E+02  0.51100000000E-03 0. -1.
         11   -1    0    0    0    0 -0.00000000000E+00 -0.00000000000E+00 -0.45593999997E+02  0.45594000000E+02  0.51100000000E-03 0.  1.
         23    2    1    2    0    0  0.17763568394E-14  0.00000000000E+00  0.00000000000E+00  0.91188000000E+02  0.91188000000E+02 0.  0.
    9900012    2    3    3    0    0 -0.55631525564E+01  0.32551030422E+02  0.16286830910E+02  0.54367094132E+02  0.40000022692E+02 0.  0.
        -12    1    3    3    0    0  0.55631525564E+01 -0.32551030422E+02 -0.16286830910E+02  0.36820905868E+02  0.00000000000E+00 0.  1.
         11    1    4    4    0    0  0.76166918055E+01  0.19429060422E+02 -0.91045421188E+01  0.22768290898E+02  0.51100000000E-03 0. -1.
        -11    1    4    4    0    0 -0.47987123917E+01  0.65781472146E+01  0.11943439701E+02  0.14454944259E+02  0.51100000000E-03 0.  1.
         12    1    4    4    0    0 -0.83811319702E+01  0.65438227847E+01  0.13447933328E+02  0.17143858974E+02  0.00000000000E+00 0. -1.
</event>
<event>
 8    1  0.2484572E-006  0.9118800E+02  0.7816164E-02  0.1184000E+00
        -11   -1    0    0    0    0  0.00000000000E+00  0.00000000000E+00  0.45593999997E+02  0.45594000000E+02  0.51100000000E-03 0.  1.
         11   -1    0    0    0    0 -0.00000000000E+00 -0.00000000000E+00 -0.45593999997E+02  0.45594000000E+02  0.51100000000E-03 0. -1.
         23    2    1    2    0    0  0.35527136788E-14  0.00000000000E+00 -0.35527136788E-14  0.91188000000E+02  0.91188000000E+02 0.  0.
    9900012    2    3    3    0    0 -0.19167135447E+02  0.12620194181E+02  0.28794646554E+02  0.54367081318E+02  0.39999993482E+02 0.  0.
         12    1    3    3    0    0  0.19167135447E+02 -0.12620194181E+02 -0.28794646554E+02  0.36820918682E+02  0.00000000000E+00 0. -1.
         11    1    4    4    0    0 -0.61352680388E+01  0.58614521044E+01 -0.82031393069E+01  0.11802102755E+02  0.51100000000E-03 0. -1.
        -11    1    4    4    0    0  0.29596053789E+01  0.36558714975E+01  0.70833752320E+01  0.85028739461E+01  0.51100000000E-03 0.  1.
         12    1    4    4    0    0 -0.15991472787E+02  0.31028705790E+01  0.29914410629E+02  0.34062104618E+02  0.00000000000E+00 0. -1.
</event>
<event>
 8    1  0.2484572E-006  0.9118800E+02  0.7816164E-02  0.1184000E+00
        -11   -1    0    0    0    0  0.00000000000E+00  0.00000000000E+00  0.45593999997E+02  0.45594000000E+02  0.51100000000E-03 0. -1.
         11   -1    0    0    0    0 -0.00000000000E+00 -0.00000000000E+00 -0.45593999997E+02  0.45594000000E+02  0.51100000000E-03 0.  1.
         23    2    1    2    0    0  0.35527136788E-14 -0.17763568394E-14 -0.35527136788E-14  0.91188000000E+02  0.91188000000E+02 0.  0.
    9900012    2    3    3    0    0  0.22505279765E+02 -0.13835961987E+02 -0.25648800376E+02  0.54367049141E+02  0.39999920127E+02 0.  0.
         12    1    3    3    0    0 -0.22505279765E+02  0.13835961987E+02  0.25648800376E+02  0.36820950859E+02  0.00000000000E+00 0. -1.
         11    1    4    4    0    0 -0.52014471461E+01  0.31484099170E+01  0.13609767572E+01  0.62305533795E+01  0.51100000000E-03 0. -1.
        -11    1    4    4    0    0 -0.26238341190E+01  0.87986815044E-01 -0.81236520228E+01  0.85373280136E+01  0.51100000000E-03 0.  1.
        -12    1    4    4    0    0  0.30330561031E+02 -0.17072358719E+02 -0.18886125110E+02  0.39599167748E+02  0.00000000000E+00 0.  1.
</event>
<event>
 8    1  0.2484572E-006  0.9118800E+02  0.7816164E-02  0.1184000E+00
        -11   -1    0    0    0    0  0.00000000000E+00  0.00000000000E+00  0.45593999997E+02  0.45594000000E+02  0.51100000000E-03 0. -1.
         11   -1    0    0    0    0 -0.00000000000E+00 -0.00000000000E+00 -0.45593999997E+02  0.45594000000E+02  0.51100000000E-03 0.  1.
         23    2    1    2    0    0  0.35527136788E-14  0.00000000000E+00  0.35527136788E-14  0.91188000000E+02  0.91188000000E+02 0.  0.
    9900012    2    3    3    0    0 -0.20559776268E+02 -0.45785747594E+01 -0.30201205620E+02  0.54367074320E+02  0.39999977528E+02 0.  0.
         12    1    3    3    0    0  0.20559776268E+02  0.45785747594E+01  0.30201205620E+02  0.36820925680E+02  0.00000000000E+00 0. -1.
         11    1    4    4    0    0 -0.27042230981E+02 -0.78221545171E+01 -0.24896146027E+02  0.37580399745E+02  0.51100000000E-03 0. -1.
        -11    1    4    4    0    0 -0.52433002512E+00  0.37858981907E+01 -0.83074256544E+01  0.91444665427E+01  0.51100000000E-03 0.  1.
         12    1    4    4    0    0  0.70067847379E+01 -0.54231843297E+00  0.30023660619E+01  0.76422080327E+01  0.00000000000E+00 0. -1.
</event>
<event>
 8    1  0.2484572E-006  0.9118800E+02  0.7816164E-02  0.1184000E+00
        -11   -1    0    0    0    0  0.00000000000E+00  0.00000000000E+00  0.45593999997E+02  0.45594000000E+02  0.51100000000E-03 0.  1.
         11   -1    0    0    0    0 -0.00000000000E+00 -0.00000000000E+00 -0.45593999997E+02  0.45594000000E+02  0.51100000000E-03 0. -1.
         23    2    1    2    0    0 -0.35527136788E-14  0.00000000000E+00  0.17763568394E-14  0.91188000000E+02  0.91188000000E+02 0.  0.
    9900012    2    3    3    0    0 -0.23160386462E+02 -0.25600555457E+02  0.12806190823E+02  0.54366939936E+02  0.39999671172E+02 0.  0.
        -12    1    3    3    0    0  0.23160386462E+02  0.25600555457E+02 -0.12806190823E+02  0.36821060064E+02  0.00000000000E+00 0.  1.
         11    1    4    4    0    0 -0.23720947153E+02 -0.25741372255E+02  0.22603026286E+02  0.41667713843E+02  0.51100000000E-03 0. -1.
        -11    1    4    4    0    0  0.35698735182E+01  0.22539835828E+01 -0.65557696687E+01  0.77975993189E+01  0.51100000000E-03 0.  1.
         12    1    4    4    0    0 -0.30093128277E+01 -0.21131667853E+01 -0.32410657937E+01  0.49016267745E+01  0.00000000000E+00 0. -1.
</event>
<event>
 8    1  0.2484572E-006  0.9118800E+02  0.7816164E-02  0.1184000E+00
        -11   -1    0    0    0    0  0.00000000000E+00  0.00000000000E+00  0.45593999997E+02  0.45594000000E+02  0.51100000000E-03 0.  1.
         11   -1    0    0    0    0 -0.00000000000E+00 -0.00000000000E+00 -0.45593999997E+02  0.45594000000E+02  0.51100000000E-03 0. -1.
         23    2    1    2    0    0  0.00000000000E+00  0.00000000000E+00 -0.35527136788E-14  0.91188000000E+02  0.91188000000E+02 0.  0.
    9900012    2    3    3    0    0  0.80850839604E+01  0.26683482278E+02  0.24050005893E+02  0.54367087565E+02  0.40000007722E+02 0.  0.
         12    1    3    3    0    0 -0.80850839604E+01 -0.26683482278E+02 -0.24050005893E+02  0.36820912435E+02  0.00000000000E+00 0. -1.
         11    1    4    4    0    0 -0.55034665001E+01  0.83502205410E+01 -0.35200243029E+01  0.10602117617E+02  0.51100000000E-03 0. -1.
        -11    1    4    4    0    0  0.65834660788E+00  0.13917135461E+02  0.10994884515E+01  0.13976013552E+02  0.51100000000E-03 0.  1.
        -12    1    4    4    0    0  0.12930203853E+02  0.44161262760E+01  0.26470541744E+02  0.29788956396E+02  0.00000000000E+00 0.  1.
</event>
<event>
 8    1  0.2484572E-006  0.9118800E+02  0.7816164E-02  0.1184000E+00
        -11   -1    0    0    0    0  0.00000000000E+00  0.00000000000E+00  0.45593999997E+02  0.45594000000E+02  0.51100000000E-03 0. -1.
         11   -1    0    0    0    0 -0.00000000000E+00 -0.00000000000E+00 -0.45593999997E+02  0.45594000000E+02  0.51100000000E-03 0.  1.
         23    2    1    2    0    0  0.88817841970E-15  0.00000000000E+00  0.00000000000E+00  0.91188000000E+02  0.91188000000E+02 0.  0.
    9900012    2    3    3    0    0 -0.77517220091E+01  0.23179628208E+01 -0.35920956716E+02  0.54367119007E+02  0.40000079400E+02 0.  0.
         12    1    3    3    0    0  0.77517220091E+01 -0.23179628208E+01  0.35920956716E+02  0.36820880993E+02  0.00000000000E+00 0. -1.
         11    1    4    4    0    0  0.75869519890E+01 -0.10119016923E+02 -0.30835114709E+01  0.13017848794E+02  0.51100000000E-03 0. -1.
        -11    1    4    4    0    0 -0.51155389381E+00  0.86727336938E+01 -0.63475968808E+01  0.10759646069E+02  0.51100000000E-03 0.  1.
        -12    1    4    4    0    0 -0.14827120104E+02  0.37642460498E+01 -0.26489848364E+02  0.30589624144E+02  0.00000000000E+00 0.  1.
</event>
<event>
 8    1  0.2484572E-006  0.9118800E+02  0.7816164E-02  0.1184000E+00
        -11   -1    0    0    0    0  0.00000000000E+00  0.00000000000E+00  0.45593999997E+02  0.45594000000E+02  0.51100000000E-03 0.  1.
         11   -1    0    0    0    0 -0.00000000000E+00 -0.00000000000E+00 -0.45593999997E+02  0.45594000000E+02  0.51100000000E-03 0. -1.
         23    2    1    2    0    0  0.88817841970E-15 -0.17763568394E-14  0.71054273576E-14  0.91188000000E+02  0.91188000000E+02 0.  0.
    9900012    2    3    3    0    0 -0.48657841646E+01  0.12243955806E+02 -0.34382989835E+02  0.54367077967E+02  0.39999985842E+02 0.  0.
        -12    1    3    3    0    0  0.48657841646E+01 -0.12243955806E+02  0.34382989835E+02  0.36820922033E+02  0.00000000000E+00 0.  1.
         11    1    4    4    0    0  0.43795680097E+01 -0.64788183918E+00 -0.13645472669E+01  0.46327482484E+01  0.51100000000E-03 0. -1.
        -11    1    4    4    0    0 -0.43626790520E+01  0.51871947506E+01  0.63712435162E+01  0.93022955283E+01  0.51100000000E-03 0.  1.
         12    1    4    4    0    0 -0.48826731223E+01  0.77046428950E+01 -0.39389686085E+02  0.40432034191E+02  0.00000000000E+00 0. -1.
</event>
<event>
 8    1  0.2484572E-006  0.9118800E+02  0.7816164E-02  0.1184000E+00
        -11   -1    0    0    0    0  0.00000000000E+00  0.00000000000E+00  0.45593999997E+02  0.45594000000E+02  0.51100000000E-03 0. -1.
         11   -1    0    0    0    0 -0.00000000000E+00 -0.00000000000E+00 -0.45593999997E+02  0.45594000000E+02  0.51100000000E-03 0.  1.
         23    2    1    2    0    0  0.22204460493E-14  0.00000000000E+00  0.00000000000E+00  0.91188000000E+02  0.91188000000E+02 0.  0.
    9900012    2    3    3    0    0 -0.55201112013E+00 -0.32737563634E+02  0.16844233717E+02  0.54367068474E+02  0.39999964200E+02 0.  0.
        -12    1    3    3    0    0  0.55201112013E+00  0.32737563634E+02 -0.16844233717E+02  0.36820931526E+02  0.00000000000E+00 0.  1.
         11    1    4    4    0    0 -0.26961840298E+01 -0.11164275478E+02  0.27760004955E+01  0.11815948303E+02  0.51100000000E-03 0. -1.
        -11    1    4    4    0    0 -0.14483556558E+02 -0.25071077336E+01  0.70209411310E+01  0.16289647460E+02  0.51100000000E-03 0.  1.
        -12    1    4    4    0    0  0.16627729468E+02 -0.19066180422E+02  0.70472920900E+01  0.26261472711E+02  0.00000000000E+00 0.  1.
</event>
<event>
 8    1  0.2484572E-006  0.9118800E+02  0.7816164E-02  0.1184000E+00
        -11   -1    0    0    0    0  0.00000000000E+00  0.00000000000E+00  0.45593999997E+02  0.45594000000E+02  0.51100000000E-03 0. -1.
         11   -1    0    0    0    0 -0.00000000000E+00 -0.00000000000E+00 -0.45593999997E+02  0.45594000000E+02  0.51100000000E-03 0.  1.
         23    2    1    2    0    0  0.00000000000E+00  0.00000000000E+00  0.35527136788E-14  0.91188000000E+02  0.91188000000E+02 0.  0.
    9900012    2    3    3    0    0  0.50180369799E+01 -0.24103755267E+02 -0.27378974730E+02  0.54367082434E+02  0.39999996025E+02 0.  0.
         12    1    3    3    0    0 -0.50180369799E+01  0.24103755267E+02  0.27378974730E+02  0.36820917566E+02  0.00000000000E+00 0. -1.
         11    1    4    4    0    0 -0.38999555926E+01  0.16032203120E+01 -0.17635807033E+02  0.18132888875E+02  0.51100000000E-03 0. -1.
        -11    1    4    4    0    0 -0.38639406241E+01 -0.14248328299E+02 -0.11861486800E+02  0.18937786720E+02  0.51100000000E-03 0.  1.
        -12    1    4    4    0    0  0.12781933197E+02 -0.11458647280E+02  0.21183191030E+01  0.17296406840E+02  0.00000000000E+00 0.  1.
</event>
<event>
 8    1  0.2484572E-006  0.9118800E+02  0.7816164E-02  0.1184000E+00
        -11   -1    0    0    0    0  0.00000000000E+00  0.00000000000E+00  0.45593999997E+02  0.45594000000E+02  0.51100000000E-03 0. -1.
         11   -1    0    0    0    0 -0.00000000000E+00 -0.00000000000E+00 -0.45593999997E+02  0.45594000000E+02  0.51100000000E-03 0.  1.
         23    2    1    2    0    0  0.00000000000E+00  0.00000000000E+00 -0.11102230246E-15  0.91188000000E+02  0.91188000000E+02 0.  0.
    9900012    2    3    3    0    0 -0.17156869097E+02 -0.32571753038E+02 -0.70774059310E+00  0.54367107155E+02  0.40000052381E+02 0.  0.
         12    1    3    3    0    0  0.17156869097E+02  0.32571753038E+02  0.70774059310E+00  0.36820892845E+02  0.00000000000E+00 0. -1.
         11    1    4    4    0    0 -0.91719973862E+01 -0.44736324590E+01 -0.16602209503E+01  0.10339016263E+02  0.51100000000E-03 0. -1.
        -11    1    4    4    0    0  0.12192335441E+02 -0.17181886061E+02  0.19198720165E-01  0.21068237253E+02  0.51100000000E-03 0.  1.
        -12    1    4    4    0    0 -0.20177207151E+02 -0.10916234518E+02  0.93328163703E+00  0.22959853638E+02  0.00000000000E+00 0.  1.
</event>
<event>
 8    1  0.2484572E-006  0.9118800E+02  0.7816164E-02  0.1184000E+00
        -11   -1    0    0    0    0  0.00000000000E+00  0.00000000000E+00  0.45593999997E+02  0.45594000000E+02  0.51100000000E-03 0.  1.
         11   -1    0    0    0    0 -0.00000000000E+00 -0.00000000000E+00 -0.45593999997E+02  0.45594000000E+02  0.51100000000E-03 0. -1.
         23    2    1    2    0    0  0.17763568394E-14  0.00000000000E+00  0.17763568394E-14  0.91188000000E+02  0.91188000000E+02 0.  0.
    9900012    2    3    3    0    0  0.99667876316E+01 -0.34064085353E+02 -0.98021793920E+01  0.54367061834E+02  0.39999949062E+02 0.  0.
        -12    1    3    3    0    0 -0.99667876316E+01  0.34064085353E+02  0.98021793920E+01  0.36820938166E+02  0.00000000000E+00 0.  1.
         11    1    4    4    0    0  0.18948149042E+02 -0.92087495836E+01 -0.47300472163E+01  0.21591821783E+02  0.51100000000E-03 0. -1.
        -11    1    4    4    0    0 -0.57038610349E+01 -0.10226163044E+02  0.68987092143E+01  0.13590461007E+02  0.51100000000E-03 0.  1.
         12    1    4    4    0    0 -0.32775003751E+01 -0.14629172726E+02 -0.11970841390E+02  0.19184779043E+02  0.00000000000E+00 0. -1.
</event>
<event>
 8    1  0.2484572E-006  0.9118800E+02  0.7816164E-02  0.1184000E+00
        -11   -1    0    0    0    0  0.00000000000E+00  0.00000000000E+00  0.45593999997E+02  0.45594000000E+02  0.51100000000E-03 0.  1.
         11   -1    0    0    0    0 -0.00000000000E+00 -0.00000000000E+00 -0.45593999997E+02  0.45594000000E+02  0.51100000000E-03 0. -1.
         23    2    1    2    0    0  0.00000000000E+00  0.71054273576E-14  0.88817841970E-15  0.91188000000E+02  0.91188000000E+02 0.  0.
    9900012    2    3    3    0    0 -0.12236483859E+02 -0.34246438372E+02  0.57644576968E+01  0.54367094920E+02  0.40000024489E+02 0.  0.
         12    1    3    3    0    0  0.12236483859E+02  0.34246438372E+02 -0.57644576968E+01  0.36820905080E+02  0.00000000000E+00 0. -1.
         11    1    4    4    0    0  0.46876246237E+00  0.78547015133E+01  0.43846502426E+00  0.78808835766E+01  0.51100000000E-03 0. -1.
        -11    1    4    4    0    0 -0.17839960353E+01 -0.10689619470E+02 -0.46107101309E+01  0.11777489310E+02  0.51100000000E-03 0.  1.
         12    1    4    4    0    0 -0.10921250286E+02 -0.31411520415E+02  0.99367028035E+01  0.34708722033E+02  0.00000000000E+00 0. -1.
</event>
<event>
 8    1  0.2484572E-006  0.9118800E+02  0.7816164E-02  0.1184000E+00
        -11   -1    0    0    0    0  0.00000000000E+00  0.00000000000E+00  0.45593999997E+02  0.45594000000E+02  0.51100000000E-03 0. -1.
         11   -1    0    0    0    0 -0.00000000000E+00 -0.00000000000E+00 -0.45593999997E+02  0.45594000000E+02  0.51100000000E-03 0.  1.
         23    2    1    2    0    0  0.00000000000E+00  0.00000000000E+00  0.35527136788E-14  0.91188000000E+02  0.91188000000E+02 0.  0.
    9900012    2    3    3    0    0  0.25755844886E+02  0.70917288321E+01  0.25340170433E+02  0.54367076584E+02  0.39999982689E+02 0.  0.
        -12    1    3    3    0    0 -0.25755844886E+02 -0.70917288321E+01 -0.25340170433E+02  0.36820923416E+02  0.00000000000E+00 0.  1.
         11    1    4    4    0    0 -0.25534324761E+01  0.98491736738E+01 -0.12970236693E+01  0.10257119972E+02  0.51100000000E-03 0. -1.
        -11    1    4    4    0    0 -0.11543014242E+01 -0.20780504629E+01 -0.19326565214E+01  0.30636362374E+01  0.51100000000E-03 0.  1.
         12    1    4    4    0    0  0.29463578786E+02 -0.67939437880E+00  0.28569850624E+02  0.41046320374E+02  0.00000000000E+00 0. -1.
</event>
<event>
 8    1  0.2484572E-006  0.9118800E+02  0.7816164E-02  0.1184000E+00
        -11   -1    0    0    0    0  0.00000000000E+00  0.00000000000E+00  0.45593999997E+02  0.45594000000E+02  0.51100000000E-03 0. -1.
         11   -1    0    0    0    0 -0.00000000000E+00 -0.00000000000E+00 -0.45593999997E+02  0.45594000000E+02  0.51100000000E-03 0.  1.
         23    2    1    2    0    0  0.00000000000E+00  0.35527136788E-14  0.00000000000E+00  0.91188000000E+02  0.91188000000E+02 0.  0.
    9900012    2    3    3    0    0 -0.44435584426E+01  0.30383149605E+02  0.20319937132E+02  0.54367070671E+02  0.39999969210E+02 0.  0.
        -12    1    3    3    0    0  0.44435584426E+01 -0.30383149605E+02 -0.20319937132E+02  0.36820929329E+02  0.00000000000E+00 0.  1.
         11    1    4    4    0    0 -0.31646839022E+01  0.31858013143E+01  0.41994844124E+00  0.45100899292E+01  0.51100000000E-03 0. -1.
        -11    1    4    4    0    0 -0.77810152289E+01  0.33243175099E+01 -0.86343674995E+01  0.12089151636E+02  0.51100000000E-03 0.  1.
         12    1    4    4    0    0  0.65021406885E+01  0.23873030781E+02  0.28534356191E+02  0.37767829106E+02  0.00000000000E+00 0. -1.
</event>
<event>
 8    1  0.2484572E-006  0.9118800E+02  0.7816164E-02  0.1184000E+00
        -11   -1    0    0    0    0  0.00000000000E+00  0.00000000000E+00  0.45593999997E+02  0.45594000000E+02  0.51100000000E-03 0. -1.
         11   -1    0    0    0    0 -0.00000000000E+00 -0.00000000000E+00 -0.45593999997E+02  0.45594000000E+02  0.51100000000E-03 0.  1.
         23    2    1    2    0    0 -0.88817841970E-15 -0.17763568394E-14  0.00000000000E+00  0.91188000000E+02  0.91188000000E+02 0.  0.
    9900012    2    3    3    0    0  0.79233645632E+01 -0.96118898529E+01 -0.34649783354E+02  0.54367141522E+02  0.40000130728E+02 0.  0.
         12    1    3    3    0    0 -0.79233645632E+01  0.96118898529E+01  0.34649783354E+02  0.36820858478E+02  0.00000000000E+00 0. -1.
         11    1    4    4    0    0 -0.12152824522E+02 -0.29144148495E+01 -0.53009297339E+01  0.13575154293E+02  0.51100000000E-03 0. -1.
        -11    1    4    4    0    0  0.14994531190E+02  0.46967711946E+01 -0.18367159408E+02  0.24171226081E+02  0.51100000000E-03 0.  1.
        -12    1    4    4    0    0  0.50816578950E+01 -0.11394246198E+02 -0.10981694212E+02  0.16620761148E+02  0.00000000000E+00 0.  1.
</event>
<event>
 8    1  0.2484572E-006  0.9118800E+02  0.7816164E-02  0.1184000E+00
        -11   -1    0    0    0    0  0.00000000000E+00  0.00000000000E+00  0.45593999997E+02  0.45594000000E+02  0.51100000000E-03 0. -1.
         11   -1    0    0    0    0 -0.00000000000E+00 -0.00000000000E+00 -0.45593999997E+02  0.45594000000E+02  0.51100000000E-03 0.  1.
         23    2    1    2    0    0 -0.44408920985E-15  0.00000000000E+00  0.00000000000E+00  0.91188000000E+02  0.91188000000E+02 0.  0.
    9900012    2    3    3    0    0 -0.27123480780E+01  0.14179740239E+02 -0.33872679670E+02  0.54367078048E+02  0.39999986027E+02 0.  0.
         12    1    3    3    0    0  0.27123480780E+01 -0.14179740239E+02  0.33872679670E+02  0.36820921952E+02  0.00000000000E+00 0. -1.
         11    1    4    4    0    0  0.32449086768E+01 -0.67453572757E+00 -0.47257318736E+01  0.57720856518E+01  0.51100000000E-03 0. -1.
        -11    1    4    4    0    0  0.16759850056E-01  0.10831738570E+02  0.62278342323E+01  0.12494509227E+02  0.51100000000E-03 0.  1.
        -12    1    4    4    0    0 -0.59740166049E+01  0.40225373967E+01 -0.35374782029E+02  0.36100483170E+02  0.00000000000E+00 0.  1.
</event>
<event>
 8    1  0.2484572E-006  0.9118800E+02  0.7816164E-02  0.1184000E+00
        -11   -1    0    0    0    0  0.00000000000E+00  0.00000000000E+00  0.45593999997E+02  0.45594000000E+02  0.51100000000E-03 0. -1.
         11   -1    0    0    0    0 -0.00000000000E+00 -0.00000000000E+00 -0.45593999997E+02  0.45594000000E+02  0.51100000000E-03 0.  1.
         23    2    1    2    0    0 -0.35527136788E-14  0.17763568394E-14  0.00000000000E+00  0.91188000000E+02  0.91188000000E+02 0.  0.
    9900012    2    3    3    0    0  0.23643571313E+02 -0.48270842543E+01 -0.27811153062E+02  0.54367089616E+02  0.40000012398E+02 0.  0.
         12    1    3    3    0    0 -0.23643571313E+02  0.48270842543E+01  0.27811153062E+02  0.36820910384E+02  0.00000000000E+00 0. -1.
         11    1    4    4    0    0  0.86178701690E+00  0.12484032827E+02 -0.62068886200E+01  0.13968508120E+02  0.51100000000E-03 0. -1.
        -11    1    4    4    0    0  0.25863223157E+02 -0.17089144316E+02 -0.19005079466E+02  0.36361218507E+02  0.51100000000E-03 0.  1.
         12    1    4    4    0    0 -0.30814388616E+01 -0.22197276537E+00 -0.25991849762E+01  0.40373629892E+01  0.00000000000E+00 0. -1.
</event>
<event>
 8    1  0.2484572E-006  0.9118800E+02  0.7816164E-02  0.1184000E+00
        -11   -1    0    0    0    0  0.00000000000E+00  0.00000000000E+00  0.45593999997E+02  0.45594000000E+02  0.51100000000E-03 0. -1.
         11   -1    0    0    0    0 -0.00000000000E+00 -0.00000000000E+00 -0.45593999997E+02  0.45594000000E+02  0.51100000000E-03 0.  1.
         23    2    1    2    0    0  0.88817841970E-15  0.00000000000E+00  0.00000000000E+00  0.91188000000E+02  0.91188000000E+02 0.  0.
    9900012    2    3    3    0    0  0.41741323134E+01  0.48213998131E+01  0.36264427492E+02  0.54367109489E+02  0.40000057701E+02 0.  0.
        -12    1    3    3    0    0 -0.41741323134E+01 -0.48213998131E+01 -0.36264427492E+02  0.36820890511E+02  0.00000000000E+00 0.  1.
         11    1    4    4    0    0 -0.59933634154E+01  0.35037970907E+01  0.31313708708E+02  0.32074060429E+02  0.51100000000E-03 0. -1.
        -11    1    4    4    0    0 -0.48016391433E+01 -0.33803863328E+01  0.26263285649E+01  0.64327561911E+01  0.51100000000E-03 0.  1.
         12    1    4    4    0    0  0.14969134872E+02  0.46979890552E+01  0.23243902186E+01  0.15860292868E+02  0.00000000000E+00 0. -1.
</event>
<event>
 8    1  0.2484572E-006  0.9118800E+02  0.7816164E-02  0.1184000E+00
        -11   -1    0    0    0    0  0.00000000000E+00  0.00000000000E+00  0.45593999997E+02  0.45594000000E+02  0.51100000000E-03 0. -1.
         11   -1    0    0    0    0 -0.00000000000E+00 -0.00000000000E+00 -0.45593999997E+02  0.45594000000E+02  0.51100000000E-03 0.  1.
         23    2    1    2    0    0 -0.88817841970E-15 -0.35527136788E-14  0.00000000000E+00  0.91188000000E+02  0.91188000000E+02 0.  0.
    9900012    2    3    3    0    0 -0.47560647444E+01 -0.30470964996E+02  0.20116654059E+02  0.54367087054E+02  0.40000006556E+02 0.  0.
        -12    1    3    3    0    0  0.47560647444E+01  0.30470964996E+02 -0.20116654059E+02  0.36820912946E+02  0.00000000000E+00 0.  1.
         11    1    4    4    0    0 -0.12447291830E+02 -0.16318636242E+02  0.19307830920E+02  0.28178454496E+02  0.51100000000E-03 0. -1.
        -11    1    4    4    0    0 -0.41432659083E+01 -0.71786766885E+01 -0.65875765186E+01  0.10587550049E+02  0.51100000000E-03 0.  1.
        -12    1    4    4    0    0  0.11834492994E+02 -0.69736520659E+01  0.73963996574E+01  0.15601082509E+02  0.00000000000E+00 0.  1.
</event>
<event>
 8    1  0.2484572E-006  0.9118800E+02  0.7816164E-02  0.1184000E+00
        -11   -1    0    0    0    0  0.00000000000E+00  0.00000000000E+00  0.45593999997E+02  0.45594000000E+02  0.51100000000E-03 0.  1.
         11   -1    0    0    0    0 -0.00000000000E+00 -0.00000000000E+00 -0.45593999997E+02  0.45594000000E+02  0.51100000000E-03 0. -1.
         23    2    1    2    0    0  0.44408920985E-15  0.88817841970E-15  0.71054273576E-14  0.91188000000E+02  0.91188000000E+02 0.  0.
    9900012    2    3    3    0    0  0.36908282555E+01  0.71007621929E+01  0.35940648630E+02  0.54367173545E+02  0.40000203729E+02 0.  0.
         12    1    3    3    0    0 -0.36908282555E+01 -0.71007621929E+01 -0.35940648630E+02  0.36820826455E+02  0.00000000000E+00 0. -1.
         11    1    4    4    0    0 -0.61407052902E+00 -0.23748083885E+01 -0.49977447134E+01  0.55672479717E+01  0.51100000000E-03 0. -1.
        -11    1    4    4    0    0 -0.10218138159E+02  0.46010592379E+01  0.18547562990E+02  0.21670075835E+02  0.51100000000E-03 0.  1.
         12    1    4    4    0    0  0.14523036944E+02  0.48745113435E+01  0.22390830353E+02  0.27129849738E+02  0.00000000000E+00 0. -1.
</event>
<event>
 8    1  0.2484572E-006  0.9118800E+02  0.7816164E-02  0.1184000E+00
        -11   -1    0    0    0    0  0.00000000000E+00  0.00000000000E+00  0.45593999997E+02  0.45594000000E+02  0.51100000000E-03 0. -1.
         11   -1    0    0    0    0 -0.00000000000E+00 -0.00000000000E+00 -0.45593999997E+02  0.45594000000E+02  0.51100000000E-03 0.  1.
         23    2    1    2    0    0 -0.17763568394E-14  0.35527136788E-14  0.00000000000E+00  0.91188000000E+02  0.91188000000E+02 0.  0.
    9900012    2    3    3    0    0  0.14509542099E+02 -0.28819571981E+02 -0.17739385024E+02  0.54367077658E+02  0.39999985136E+02 0.  0.
         12    1    3    3    0    0 -0.14509542099E+02  0.28819571981E+02  0.17739385024E+02  0.36820922342E+02  0.00000000000E+00 0. -1.
         11    1    4    4    0    0 -0.34278340844E+00 -0.35179301538E+01  0.11186204193E+01  0.37073770965E+01  0.51100000000E-03 0. -1.
        -11    1    4    4    0    0  0.16050402403E+02 -0.32739059070E+02 -0.21902493371E+02  0.42534463935E+02  0.51100000000E-03 0.  1.
         12    1    4    4    0    0 -0.11980768954E+01  0.74374172424E+01  0.30444879283E+01  0.81252366261E+01  0.00000000000E+00 0. -1.
</event>
<event>
 8    1  0.2484572E-006  0.9118800E+02  0.7816164E-02  0.1184000E+00
        -11   -1    0    0    0    0  0.00000000000E+00  0.00000000000E+00  0.45593999997E+02  0.45594000000E+02  0.51100000000E-03 0.  1.
         11   -1    0    0    0    0 -0.00000000000E+00 -0.00000000000E+00 -0.45593999997E+02  0.45594000000E+02  0.51100000000E-03 0. -1.
         23    2    1    2    0    0  0.35527136788E-14 -0.35527136788E-14  0.71054273576E-14  0.91188000000E+02  0.91188000000E+02 0.  0.
    9900012    2    3    3    0    0  0.11683671462E+02 -0.16229183253E+02  0.30917391391E+02  0.54367086672E+02  0.40000005685E+02 0.  0.
         12    1    3    3    0    0 -0.11683671462E+02  0.16229183253E+02 -0.30917391391E+02  0.36820913328E+02  0.00000000000E+00 0. -1.
         11    1    4    4    0    0  0.19037215877E+02 -0.11573548947E+02  0.93199334168E+01  0.24150026557E+02  0.51100000000E-03 0.  1.
        -11    1    4    4    0    0 -0.11962676771E+02 -0.71353585079E+01  0.90212602367E+01  0.16595243689E+02  0.51100000000E-03 0. -1.
        -12    1    4    4    0    0  0.46091323564E+01  0.24797242018E+01  0.12576197738E+02  0.13621816426E+02  0.00000000000E+00 0.  1.
</event>
<event>
 8    1  0.2484572E-006  0.9118800E+02  0.7816164E-02  0.1184000E+00
        -11   -1    0    0    0    0  0.00000000000E+00  0.00000000000E+00  0.45593999997E+02  0.45594000000E+02  0.51100000000E-03 0.  1.
         11   -1    0    0    0    0 -0.00000000000E+00 -0.00000000000E+00 -0.45593999997E+02  0.45594000000E+02  0.51100000000E-03 0. -1.
         23    2    1    2    0    0  0.00000000000E+00 -0.88817841970E-15  0.00000000000E+00  0.91188000000E+02  0.91188000000E+02 0.  0.
    9900012    2    3    3    0    0 -0.29934383393E+02  0.51345464768E+01  0.20817037028E+02  0.54367083291E+02  0.39999997979E+02 0.  0.
         12    1    3    3    0    0  0.29934383393E+02 -0.51345464768E+01 -0.20817037028E+02  0.36820916709E+02  0.00000000000E+00 0. -1.
         11    1    4    4    0    0 -0.19354560327E+02  0.15048698172E+02  0.42911299344E+01  0.24889277179E+02  0.51100000000E-03 0. -1.
        -11    1    4    4    0    0 -0.77406596434E+01  0.48609883261E+01  0.82148541407E+01  0.12289460852E+02  0.51100000000E-03 0.  1.
         12    1    4    4    0    0 -0.28391634222E+01 -0.14775140021E+02  0.83110529532E+01  0.17188345260E+02  0.00000000000E+00 0. -1.
</event>
<event>
 8    1  0.2484572E-006  0.9118800E+02  0.7816164E-02  0.1184000E+00
        -11   -1    0    0    0    0  0.00000000000E+00  0.00000000000E+00  0.45593999997E+02  0.45594000000E+02  0.51100000000E-03 0. -1.
         11   -1    0    0    0    0 -0.00000000000E+00 -0.00000000000E+00 -0.45593999997E+02  0.45594000000E+02  0.51100000000E-03 0.  1.
         23    2    1    2    0    0  0.00000000000E+00  0.00000000000E+00  0.00000000000E+00  0.91188000000E+02  0.91188000000E+02 0.  0.
    9900012    2    3    3    0    0 -0.17046995253E+02  0.25191703009E+02 -0.20749909460E+02  0.54367072660E+02  0.39999973743E+02 0.  0.
         12    1    3    3    0    0  0.17046995253E+02 -0.25191703009E+02  0.20749909460E+02  0.36820927340E+02  0.00000000000E+00 0. -1.
         11    1    4    4    0    0 -0.66202141504E+01  0.12327016400E+02 -0.15119518600E+02  0.20600543966E+02  0.51100000000E-03 0.  1.
        -11    1    4    4    0    0 -0.91861764287E+01  0.13457315520E+02 -0.16277314581E+02  0.23031199461E+02  0.51100000000E-03 0. -1.
         12    1    4    4    0    0 -0.12406046734E+01 -0.59262891197E+00  0.10646923722E+02  0.10735329232E+02  0.00000000000E+00 0. -1.
</event>
<event>
 8    1  0.2484572E-006  0.9118800E+02  0.7816164E-02  0.1184000E+00
        -11   -1    0    0    0    0  0.00000000000E+00  0.00000000000E+00  0.45593999997E+02  0.45594000000E+02  0.51100000000E-03 0.  1.
         11   -1    0    0    0    0 -0.00000000000E+00 -0.00000000000E+00 -0.45593999997E+02  0.45594000000E+02  0.51100000000E-03 0. -1.
         23    2    1    2    0    0  0.17763568394E-14  0.71054273576E-14  0.17763568394E-14  0.91188000000E+02  0.91188000000E+02 0.  0.
    9900012    2    3    3    0    0 -0.13343298842E+02 -0.32650414079E+02 -0.10568172041E+02  0.54367089857E+02  0.40000012946E+02 0.  0.
        -12    1    3    3    0    0  0.13343298842E+02  0.32650414079E+02  0.10568172041E+02  0.36820910143E+02  0.00000000000E+00 0.  1.
         11    1    4    4    0    0 -0.33611299668E+01 -0.26543221594E+01 -0.18363414720E+01  0.46599110552E+01  0.51100000000E-03 0. -1.
        -11    1    4    4    0    0 -0.76912341849E+01 -0.25771573018E+01  0.12535846675E+02  0.14931318601E+02  0.51100000000E-03 0.  1.
         12    1    4    4    0    0 -0.22909346901E+01 -0.27418934618E+02 -0.21267677244E+02  0.34775860200E+02  0.00000000000E+00 0. -1.
</event>
<event>
 8    1  0.2484572E-006  0.9118800E+02  0.7816164E-02  0.1184000E+00
        -11   -1    0    0    0    0  0.00000000000E+00  0.00000000000E+00  0.45593999997E+02  0.45594000000E+02  0.51100000000E-03 0.  1.
         11   -1    0    0    0    0 -0.00000000000E+00 -0.00000000000E+00 -0.45593999997E+02  0.45594000000E+02  0.51100000000E-03 0. -1.
         23    2    1    2    0    0  0.00000000000E+00  0.00000000000E+00 -0.71054273576E-14  0.91188000000E+02  0.91188000000E+02 0.  0.
    9900012    2    3    3    0    0 -0.11683584484E+02  0.85438700219E+01  0.33856679737E+02  0.54367100715E+02  0.40000037700E+02 0.  0.
         12    1    3    3    0    0  0.11683584484E+02 -0.85438700219E+01 -0.33856679737E+02  0.36820899285E+02  0.00000000000E+00 0. -1.
         11    1    4    4    0    0  0.90270137325E+01  0.14618203078E+02  0.13061582766E+02  0.21582024529E+02  0.51100000000E-03 0. -1.
        -11    1    4    4    0    0 -0.14418938463E+02 -0.15338516303E+00  0.19179909795E+02  0.23995796577E+02  0.51100000000E-03 0.  1.
         12    1    4    4    0    0 -0.62916597540E+01 -0.59209478933E+01  0.16151871763E+01  0.87892796081E+01  0.00000000000E+00 0. -1.
</event>
<event>
 8    1  0.2484572E-006  0.9118800E+02  0.7816164E-02  0.1184000E+00
        -11   -1    0    0    0    0  0.00000000000E+00  0.00000000000E+00  0.45593999997E+02  0.45594000000E+02  0.51100000000E-03 0. -1.
         11   -1    0    0    0    0 -0.00000000000E+00 -0.00000000000E+00 -0.45593999997E+02  0.45594000000E+02  0.51100000000E-03 0.  1.
         23    2    1    2    0    0  0.00000000000E+00  0.00000000000E+00  0.00000000000E+00  0.91188000000E+02  0.91188000000E+02 0.  0.
    9900012    2    3    3    0    0 -0.10162685057E+01  0.20895270852E+02 -0.30300726432E+02  0.54367093331E+02  0.40000020866E+02 0.  0.
        -12    1    3    3    0    0  0.10162685057E+01 -0.20895270852E+02  0.30300726432E+02  0.36820906669E+02  0.00000000000E+00 0.  1.
         11    1    4    4    0    0  0.55932772770E+01  0.20782688663E+02 -0.24625218001E+01  0.21662615554E+02  0.51100000000E-03 0. -1.
        -11    1    4    4    0    0 -0.49690434821E+01 -0.75804288978E+01 -0.12189851468E+02  0.15190351361E+02  0.51100000000E-03 0.  1.
        -12    1    4    4    0    0 -0.16405023006E+01  0.76930110867E+01 -0.15648353164E+02  0.17514126416E+02  0.00000000000E+00 0.  1.
</event>
<event>
 8    1  0.2484572E-006  0.9118800E+02  0.7816164E-02  0.1184000E+00
        -11   -1    0    0    0    0  0.00000000000E+00  0.00000000000E+00  0.45593999997E+02  0.45594000000E+02  0.51100000000E-03 0. -1.
         11   -1    0    0    0    0 -0.00000000000E+00 -0.00000000000E+00 -0.45593999997E+02  0.45594000000E+02  0.51100000000E-03 0.  1.
         23    2    1    2    0    0  0.00000000000E+00  0.00000000000E+00 -0.71054273576E-14  0.91188000000E+02  0.91188000000E+02 0.  0.
    9900012    2    3    3    0    0  0.10474776706E+02  0.14595685441E+02 -0.32140784963E+02  0.54367013612E+02  0.39999839131E+02 0.  0.
         12    1    3    3    0    0 -0.10474776706E+02 -0.14595685441E+02  0.32140784963E+02  0.36820986388E+02  0.00000000000E+00 0. -1.
         11    1    4    4    0    0 -0.54080101089E+01 -0.28515864317E+01 -0.11224934728E+02  0.12781912159E+02  0.51100000000E-03 0.  1.
        -11    1    4    4    0    0  0.15613305253E+02  0.24346984085E+02 -0.15535510867E+02  0.32831433614E+02  0.51100000000E-03 0. -1.
         12    1    4    4    0    0  0.26948156163E+00 -0.68997122127E+01 -0.53803393678E+01  0.87536678394E+01  0.00000000000E+00 0. -1.
</event>
<event>
 8    1  0.2484572E-006  0.9118800E+02  0.7816164E-02  0.1184000E+00
        -11   -1    0    0    0    0  0.00000000000E+00  0.00000000000E+00  0.45593999997E+02  0.45594000000E+02  0.51100000000E-03 0.  1.
         11   -1    0    0    0    0 -0.00000000000E+00 -0.00000000000E+00 -0.45593999997E+02  0.45594000000E+02  0.51100000000E-03 0. -1.
         23    2    1    2    0    0  0.35527136788E-14 -0.35527136788E-14  0.00000000000E+00  0.91188000000E+02  0.91188000000E+02 0.  0.
    9900012    2    3    3    0    0  0.27638644483E+02 -0.16175420211E+02  0.18172528991E+02  0.54367086136E+02  0.40000004464E+02 0.  0.
         12    1    3    3    0    0 -0.27638644483E+02  0.16175420211E+02 -0.18172528991E+02  0.36820913864E+02  0.00000000000E+00 0. -1.
         11    1    4    4    0    0 -0.19345234533E+01 -0.61411801542E+01  0.41110640125E+00  0.64517814138E+01  0.51100000000E-03 0. -1.
        -11    1    4    4    0    0  0.10483225388E+02  0.53244190617E+01 -0.64995728034E+01  0.13434727380E+02  0.51100000000E-03 0.  1.
        -12    1    4    4    0    0  0.19089942548E+02 -0.15358659119E+02  0.24260995393E+02  0.34480577342E+02  0.00000000000E+00 0.  1.
</event>
<event>
 8    1  0.2484572E-006  0.9118800E+02  0.7816164E-02  0.1184000E+00
        -11   -1    0    0    0    0  0.00000000000E+00  0.00000000000E+00  0.45593999997E+02  0.45594000000E+02  0.51100000000E-03 0.  1.
         11   -1    0    0    0    0 -0.00000000000E+00 -0.00000000000E+00 -0.45593999997E+02  0.45594000000E+02  0.51100000000E-03 0. -1.
         23    2    1    2    0    0 -0.17763568394E-14  0.00000000000E+00  0.17763568394E-14  0.91188000000E+02  0.91188000000E+02 0.  0.
    9900012    2    3    3    0    0  0.12156721349E+02 -0.32330110443E+02 -0.12757589265E+02  0.54367109203E+02  0.40000057050E+02 0.  0.
        -12    1    3    3    0    0 -0.12156721349E+02  0.32330110443E+02  0.12757589265E+02  0.36820890797E+02  0.00000000000E+00 0.  1.
         11    1    4    4    0    0 -0.36157639309E+00  0.12110790374E+01  0.89464530790E+01  0.90352904148E+01  0.51100000000E-03 0. -1.
        -11    1    4    4    0    0  0.12984896521E+02 -0.12909448631E+02 -0.55764356278E+01  0.19140481607E+02  0.51100000000E-03 0.  1.
         12    1    4    4    0    0 -0.46659877855E+00 -0.20631740850E+02 -0.16127606716E+02  0.26191337181E+02  0.00000000000E+00 0. -1.
</event>
<event>
 8    1  0.2484572E-006  0.9118800E+02  0.7816164E-02  0.1184000E+00
        -11   -1    0    0    0    0  0.00000000000E+00  0.00000000000E+00  0.45593999997E+02  0.45594000000E+02  0.51100000000E-03 0. -1.
         11   -1    0    0    0    0 -0.00000000000E+00 -0.00000000000E+00 -0.45593999997E+02  0.45594000000E+02  0.51100000000E-03 0.  1.
         23    2    1    2    0    0 -0.53290705182E-14  0.71054273576E-14  0.35527136788E-14  0.91188000000E+02  0.91188000000E+02 0.  0.
    9900012    2    3    3    0    0  0.15566806204E+02 -0.30727942513E+02 -0.13009515198E+02  0.54367090286E+02  0.40000013926E+02 0.  0.
         12    1    3    3    0    0 -0.15566806204E+02  0.30727942513E+02  0.13009515198E+02  0.36820909714E+02  0.00000000000E+00 0. -1.
         11    1    4    4    0    0  0.25085082413E+02 -0.19019261234E+02 -0.87366695645E+01  0.32669910513E+02  0.51100000000E-03 0. -1.
        -11    1    4    4    0    0 -0.81785414041E+01  0.56090941814E+00  0.10329066363E+01  0.82625695310E+01  0.51100000000E-03 0.  1.
        -12    1    4    4    0    0 -0.13397348053E+01 -0.12269590697E+02 -0.53057522696E+01  0.13434610243E+02  0.00000000000E+00 0.  1.
</event>
<event>
 8    1  0.2484572E-006  0.9118800E+02  0.7816164E-02  0.1184000E+00
        -11   -1    0    0    0    0  0.00000000000E+00  0.00000000000E+00  0.45593999997E+02  0.45594000000E+02  0.51100000000E-03 0.  1.
         11   -1    0    0    0    0 -0.00000000000E+00 -0.00000000000E+00 -0.45593999997E+02  0.45594000000E+02  0.51100000000E-03 0. -1.
         23    2    1    2    0    0  0.00000000000E+00  0.00000000000E+00  0.38857805862E-15  0.91188000000E+02  0.91188000000E+02 0.  0.
    9900012    2    3    3    0    0  0.10640545025E+02  0.35248513828E+02  0.31724393217E+00  0.54367087881E+02  0.40000008443E+02 0.  0.
        -12    1    3    3    0    0 -0.10640545025E+02 -0.35248513828E+02 -0.31724393217E+00  0.36820912119E+02  0.00000000000E+00 0.  1.
         11    1    4    4    0    0  0.13232053865E+02  0.16258080741E+02 -0.15044012825E+01  0.21016081042E+02  0.51100000000E-03 0. -1.
        -11    1    4    4    0    0  0.77774366472E+01  0.15637181377E+01  0.88539282555E+01  0.11888052028E+02  0.51100000000E-03 0.  1.
         12    1    4    4    0    0 -0.10368945488E+02  0.17426714949E+02 -0.70322830409E+01  0.21462954811E+02  0.00000000000E+00 0. -1.
</event>
<event>
 8    1  0.2484572E-006  0.9118800E+02  0.7816164E-02  0.1184000E+00
        -11   -1    0    0    0    0  0.00000000000E+00  0.00000000000E+00  0.45593999997E+02  0.45594000000E+02  0.51100000000E-03 0.  1.
         11   -1    0    0    0    0 -0.00000000000E+00 -0.00000000000E+00 -0.45593999997E+02  0.45594000000E+02  0.51100000000E-03 0. -1.
         23    2    1    2    0    0  0.00000000000E+00  0.00000000000E+00  0.00000000000E+00  0.91188000000E+02  0.91188000000E+02 0.  0.
    9900012    2    3    3    0    0  0.25488255914E+02 -0.51702833472E+01 -0.26065221278E+02  0.54367098603E+02  0.40000032885E+02 0.  0.
        -12    1    3    3    0    0 -0.25488255914E+02  0.51702833472E+01  0.26065221278E+02  0.36820901397E+02  0.00000000000E+00 0.  1.
         11    1    4    4    0    0  0.30395699418E+01 -0.65793626771E+01  0.35999535963E+01  0.80923831363E+01  0.51100000000E-03 0. -1.
        -11    1    4    4    0    0  0.11757700265E+02 -0.12987927413E+02 -0.13279166653E+02  0.21983312791E+02  0.51100000000E-03 0.  1.
         12    1    4    4    0    0  0.10690985707E+02  0.14397006743E+02 -0.16386008221E+02  0.24291402676E+02  0.00000000000E+00 0. -1.
</event>
<event>
 8    1  0.2484572E-006  0.9118800E+02  0.7816164E-02  0.1184000E+00
        -11   -1    0    0    0    0  0.00000000000E+00  0.00000000000E+00  0.45593999997E+02  0.45594000000E+02  0.51100000000E-03 0.  1.
         11   -1    0    0    0    0 -0.00000000000E+00 -0.00000000000E+00 -0.45593999997E+02  0.45594000000E+02  0.51100000000E-03 0. -1.
         23    2    1    2    0    0  0.00000000000E+00  0.00000000000E+00  0.71054273576E-14  0.91188000000E+02  0.91188000000E+02 0.  0.
    9900012    2    3    3    0    0  0.10610503089E+02  0.11512805010E+02 -0.33326490679E+02  0.54367048954E+02  0.39999919700E+02 0.  0.
        -12    1    3    3    0    0 -0.10610503089E+02 -0.11512805010E+02  0.33326490679E+02  0.36820951046E+02  0.00000000000E+00 0.  1.
         11    1    4    4    0    0  0.13055249874E+01 -0.42137386336E+01 -0.82526905243E+01  0.93577182003E+01  0.51100000000E-03 0. -1.
        -11    1    4    4    0    0  0.84089681567E+01 -0.42489435075E+01  0.35712794340E+01  0.10075629184E+02  0.51100000000E-03 0.  1.
        -12    1    4    4    0    0  0.89600994501E+00  0.19975487151E+02 -0.28645079588E+02  0.34933701570E+02  0.00000000000E+00 0.  1.
</event>
<event>
 8    1  0.2484572E-006  0.9118800E+02  0.7816164E-02  0.1184000E+00
        -11   -1    0    0    0    0  0.00000000000E+00  0.00000000000E+00  0.45593999997E+02  0.45594000000E+02  0.51100000000E-03 0. -1.
         11   -1    0    0    0    0 -0.00000000000E+00 -0.00000000000E+00 -0.45593999997E+02  0.45594000000E+02  0.51100000000E-03 0.  1.
         23    2    1    2    0    0 -0.88817841970E-15  0.71054273576E-14  0.35527136788E-14  0.91188000000E+02  0.91188000000E+02 0.  0.
    9900012    2    3    3    0    0  0.45435176773E+01 -0.32079027807E+02 -0.17494946880E+02  0.54367071926E+02  0.39999972069E+02 0.  0.
         12    1    3    3    0    0 -0.45435176773E+01  0.32079027807E+02  0.17494946880E+02  0.36820928074E+02  0.00000000000E+00 0. -1.
         11    1    4    4    0    0  0.19922777174E+01  0.54259358971E+01  0.32504371400E+01  0.66313869383E+01  0.51100000000E-03 0. -1.
        -11    1    4    4    0    0  0.62004940891E+01 -0.36793130764E+01 -0.94527733109E+01  0.11888582556E+02  0.51100000000E-03 0.  1.
         12    1    4    4    0    0 -0.36492541292E+01 -0.33825650628E+02 -0.11292610709E+02  0.35847102431E+02  0.00000000000E+00 0. -1.
</event>
<event>
 8    1  0.2484572E-006  0.9118800E+02  0.7816164E-02  0.1184000E+00
        -11   -1    0    0    0    0  0.00000000000E+00  0.00000000000E+00  0.45593999997E+02  0.45594000000E+02  0.51100000000E-03 0.  1.
         11   -1    0    0    0    0 -0.00000000000E+00 -0.00000000000E+00 -0.45593999997E+02  0.45594000000E+02  0.51100000000E-03 0. -1.
         23    2    1    2    0    0  0.88817841970E-15  0.00000000000E+00  0.00000000000E+00  0.91188000000E+02  0.91188000000E+02 0.  0.
    9900012    2    3    3    0    0 -0.27011990224E+01 -0.29977377943E+02  0.21209391617E+02  0.54367109771E+02  0.40000058345E+02 0.  0.
         12    1    3    3    0    0  0.27011990224E+01  0.29977377943E+02 -0.21209391617E+02  0.36820890229E+02  0.00000000000E+00 0. -1.
         11    1    4    4    0    0 -0.86634849130E+01 -0.75996727131E+01 -0.10105378363E+02  0.15327415578E+02  0.51100000000E-03 0. -1.
        -11    1    4    4    0    0  0.20249415167E+01 -0.11163578120E+02  0.16928845829E+02  0.20379197382E+02  0.51100000000E-03 0.  1.
         12    1    4    4    0    0  0.39373443739E+01 -0.11214127110E+02  0.14385924151E+02  0.18660496811E+02  0.00000000000E+00 0. -1.
</event>
<event>
 8    1  0.2484572E-006  0.9118800E+02  0.7816164E-02  0.1184000E+00
        -11   -1    0    0    0    0  0.00000000000E+00  0.00000000000E+00  0.45593999997E+02  0.45594000000E+02  0.51100000000E-03 0.  1.
         11   -1    0    0    0    0 -0.00000000000E+00 -0.00000000000E+00 -0.45593999997E+02  0.45594000000E+02  0.51100000000E-03 0. -1.
         23    2    1    2    0    0  0.00000000000E+00  0.00000000000E+00  0.00000000000E+00  0.91188000000E+02  0.91188000000E+02 0.  0.
    9900012    2    3    3    0    0  0.21057292447E+02 -0.12393386149E+02 -0.27545842419E+02  0.54367095340E+02  0.40000025447E+02 0.  0.
        -12    1    3    3    0    0 -0.21057292447E+02  0.12393386149E+02  0.27545842419E+02  0.36820904660E+02  0.00000000000E+00 0.  1.
         11    1    4    4    0    0  0.31292634330E+01  0.82380379335E+01 -0.12151477368E+02  0.15010528342E+02  0.51100000000E-03 0. -1.
        -11    1    4    4    0    0 -0.92575957614E+00 -0.12244551229E+02  0.19087695290E+01  0.12426965316E+02  0.51100000000E-03 0.  1.
        -12    1    4    4    0    0  0.18853788590E+02 -0.83868728533E+01 -0.17303134580E+02  0.26929601682E+02  0.00000000000E+00 0.  1.
</event>
<event>
 8    1  0.2484572E-006  0.9118800E+02  0.7816164E-02  0.1184000E+00
        -11   -1    0    0    0    0  0.00000000000E+00  0.00000000000E+00  0.45593999997E+02  0.45594000000E+02  0.51100000000E-03 0. -1.
         11   -1    0    0    0    0 -0.00000000000E+00 -0.00000000000E+00 -0.45593999997E+02  0.45594000000E+02  0.51100000000E-03 0.  1.
         23    2    1    2    0    0  0.00000000000E+00  0.00000000000E+00  0.00000000000E+00  0.91188000000E+02  0.91188000000E+02 0.  0.
    9900012    2    3    3    0    0  0.32030063389E+02 -0.16980391636E+02 -0.64436197836E+01  0.54367097014E+02  0.40000029263E+02 0.  0.
         12    1    3    3    0    0 -0.32030063389E+02  0.16980391636E+02  0.64436197836E+01  0.36820902986E+02  0.00000000000E+00 0. -1.
         11    1    4    4    0    0  0.39750062074E+01 -0.15665548885E+02 -0.16081332863E+01  0.16241803753E+02  0.51100000000E-03 0. -1.
        -11    1    4    4    0    0  0.79131066607E+00 -0.89509281246E+01 -0.39033988919E+01  0.97970306743E+01  0.51100000000E-03 0.  1.
         12    1    4    4    0    0  0.27263746515E+02  0.76360853736E+01 -0.93208760542E+00  0.28328262587E+02  0.00000000000E+00 0. -1.
</event>
<event>
 8    1  0.2484572E-006  0.9118800E+02  0.7816164E-02  0.1184000E+00
        -11   -1    0    0    0    0  0.00000000000E+00  0.00000000000E+00  0.45593999997E+02  0.45594000000E+02  0.51100000000E-03 0.  1.
         11   -1    0    0    0    0 -0.00000000000E+00 -0.00000000000E+00 -0.45593999997E+02  0.45594000000E+02  0.51100000000E-03 0. -1.
         23    2    1    2    0    0  0.00000000000E+00  0.88817841970E-15  0.00000000000E+00  0.91188000000E+02  0.91188000000E+02 0.  0.
    9900012    2    3    3    0    0  0.15114794531E+02 -0.77231820918E+01  0.32675377322E+02  0.54367016330E+02  0.39999845326E+02 0.  0.
         12    1    3    3    0    0 -0.15114794531E+02  0.77231820918E+01 -0.32675377322E+02  0.36820983670E+02  0.00000000000E+00 0. -1.
         11    1    4    4    0    0 -0.93005585963E+01 -0.15192843996E+01  0.28398891971E+01  0.98424380213E+01  0.51100000000E-03 0. -1.
        -11    1    4    4    0    0  0.45398064683E+01 -0.20462454607E+01 -0.30759438503E+01  0.58530670666E+01  0.51100000000E-03 0.  1.
        -12    1    4    4    0    0  0.19875546659E+02 -0.41576522315E+01  0.32911431975E+02  0.38671511242E+02  0.00000000000E+00 0.  1.
</event>
<event>
 8    1  0.2484572E-006  0.9118800E+02  0.7816164E-02  0.1184000E+00
        -11   -1    0    0    0    0  0.00000000000E+00  0.00000000000E+00  0.45593999997E+02  0.45594000000E+02  0.51100000000E-03 0.  1.
         11   -1    0    0    0    0 -0.00000000000E+00 -0.00000000000E+00 -0.45593999997E+02  0.45594000000E+02  0.51100000000E-03 0. -1.
         23    2    1    2    0    0 -0.88817841970E-15  0.00000000000E+00  0.00000000000E+00  0.91188000000E+02  0.91188000000E+02 0.  0.
    9900012    2    3    3    0    0 -0.39772781736E+01  0.34210031773E+02  0.13024328698E+02  0.54367107105E+02  0.40000052266E+02 0.  0.
         12    1    3    3    0    0  0.39772781736E+01 -0.34210031773E+02 -0.13024328698E+02  0.36820892895E+02  0.00000000000E+00 0. -1.
         11    1    4    4    0    0 -0.10942758063E+02 -0.39676178458E+01  0.28844153032E+00  0.11643416344E+02  0.51100000000E-03 0. -1.
        -11    1    4    4    0    0  0.14722173692E+01  0.33577768546E+02  0.10208688877E+02  0.35126219457E+02  0.51100000000E-03 0.  1.
        -12    1    4    4    0    0  0.54932625201E+01  0.45998810728E+01  0.25271982912E+01  0.75974713032E+01  0.00000000000E+00 0.  1.
</event>
<event>
 8    1  0.2484572E-006  0.9118800E+02  0.7816164E-02  0.1184000E+00
        -11   -1    0    0    0    0  0.00000000000E+00  0.00000000000E+00  0.45593999997E+02  0.45594000000E+02  0.51100000000E-03 0.  1.
         11   -1    0    0    0    0 -0.00000000000E+00 -0.00000000000E+00 -0.45593999997E+02  0.45594000000E+02  0.51100000000E-03 0. -1.
         23    2    1    2    0    0  0.35527136788E-14  0.17763568394E-14  0.35527136788E-14  0.91188000000E+02  0.91188000000E+02 0.  0.
    9900012    2    3    3    0    0  0.18834380979E+02 -0.12759319463E+02  0.28952481726E+02  0.54367077440E+02  0.39999984641E+02 0.  0.
         12    1    3    3    0    0 -0.18834380979E+02  0.12759319463E+02 -0.28952481726E+02  0.36820922560E+02  0.00000000000E+00 0. -1.
         11    1    4    4    0    0  0.21111564975E+02 -0.33904775031E+01  0.83008677983E+01  0.22936824537E+02  0.51100000000E-03 0. -1.
        -11    1    4    4    0    0  0.65216268830E+01 -0.12923056101E+01  0.18010072876E+02  0.19198031052E+02  0.51100000000E-03 0.  1.
        -12    1    4    4    0    0 -0.87988108786E+01 -0.80765363500E+01  0.26415410514E+01  0.12232221851E+02  0.00000000000E+00 0.  1.
</event>
<event>
 8    1  0.2484572E-006  0.9118800E+02  0.7816164E-02  0.1184000E+00
        -11   -1    0    0    0    0  0.00000000000E+00  0.00000000000E+00  0.45593999997E+02  0.45594000000E+02  0.51100000000E-03 0.  1.
         11   -1    0    0    0    0 -0.00000000000E+00 -0.00000000000E+00 -0.45593999997E+02  0.45594000000E+02  0.51100000000E-03 0. -1.
         23    2    1    2    0    0 -0.88817841970E-15  0.00000000000E+00  0.00000000000E+00  0.91188000000E+02  0.91188000000E+02 0.  0.
    9900012    2    3    3    0    0  0.58466634998E+01  0.31800130236E+02  0.17616705400E+02  0.54367081132E+02  0.39999993058E+02 0.  0.
         12    1    3    3    0    0 -0.58466634998E+01 -0.31800130236E+02 -0.17616705400E+02  0.36820918868E+02  0.00000000000E+00 0. -1.
         11    1    4    4    0    0  0.10330141160E+01 -0.37324308522E+01  0.49043846695E+01  0.62490917322E+01  0.51100000000E-03 0. -1.
        -11    1    4    4    0    0 -0.18620187246E+01  0.14052308215E+02  0.19963704013E+02  0.24484361500E+02  0.51100000000E-03 0.  1.
         12    1    4    4    0    0  0.66756681084E+01  0.21480252873E+02 -0.72513832826E+01  0.23633627900E+02  0.00000000000E+00 0. -1.
</event>
<event>
 8    1  0.2484572E-006  0.9118800E+02  0.7816164E-02  0.1184000E+00
        -11   -1    0    0    0    0  0.00000000000E+00  0.00000000000E+00  0.45593999997E+02  0.45594000000E+02  0.51100000000E-03 0. -1.
         11   -1    0    0    0    0 -0.00000000000E+00 -0.00000000000E+00 -0.45593999997E+02  0.45594000000E+02  0.51100000000E-03 0.  1.
         23    2    1    2    0    0  0.17763568394E-14  0.00000000000E+00  0.00000000000E+00  0.91188000000E+02  0.91188000000E+02 0.  0.
    9900012    2    3    3    0    0 -0.11505724927E+02  0.30915446601E+02  0.16359487737E+02  0.54367090402E+02  0.40000014189E+02 0.  0.
        -12    1    3    3    0    0  0.11505724927E+02 -0.30915446601E+02 -0.16359487737E+02  0.36820909598E+02  0.00000000000E+00 0.  1.
         11    1    4    4    0    0 -0.63525007966E+01  0.14979470861E+02  0.10013732396E+02  0.19105330419E+02  0.51100000000E-03 0.  1.
        -11    1    4    4    0    0  0.81962412857E+01  0.24659877176E+01  0.12652961478E+02  0.15276023732E+02  0.51100000000E-03 0. -1.
        -12    1    4    4    0    0 -0.13349465416E+02  0.13469988022E+02 -0.63072061375E+01  0.19985736251E+02  0.00000000000E+00 0.  1.
</event>
<event>
 8    1  0.2484572E-006  0.9118800E+02  0.7816164E-02  0.1184000E+00
        -11   -1    0    0    0    0  0.00000000000E+00  0.00000000000E+00  0.45593999997E+02  0.45594000000E+02  0.51100000000E-03 0.  1.
         11   -1    0    0    0    0 -0.00000000000E+00 -0.00000000000E+00 -0.45593999997E+02  0.45594000000E+02  0.51100000000E-03 0. -1.
         23    2    1    2    0    0  0.00000000000E+00  0.00000000000E+00  0.00000000000E+00  0.91188000000E+02  0.91188000000E+02 0.  0.
    9900012    2    3    3    0    0  0.14279231037E+02  0.44691018021E+01 -0.33643876777E+02  0.54367085366E+02  0.40000002708E+02 0.  0.
        -12    1    3    3    0    0 -0.14279231037E+02 -0.44691018021E+01  0.33643876777E+02  0.36820914634E+02  0.00000000000E+00 0.  1.
         11    1    4    4    0    0  0.67072565568E+01  0.25781987744E+01 -0.29741528373E+02  0.30597269644E+02  0.51100000000E-03 0. -1.
        -11    1    4    4    0    0 -0.18578708161E+01 -0.67502235190E+01 -0.77200674791E+01  0.10421930899E+02  0.51100000000E-03 0.  1.
        -12    1    4    4    0    0  0.94298452963E+01  0.86411265466E+01  0.38177190750E+01  0.13347884823E+02  0.00000000000E+00 0.  1.
</event>
<event>
 8    1  0.2484572E-006  0.9118800E+02  0.7816164E-02  0.1184000E+00
        -11   -1    0    0    0    0  0.00000000000E+00  0.00000000000E+00  0.45593999997E+02  0.45594000000E+02  0.51100000000E-03 0.  1.
         11   -1    0    0    0    0 -0.00000000000E+00 -0.00000000000E+00 -0.45593999997E+02  0.45594000000E+02  0.51100000000E-03 0. -1.
         23    2    1    2    0    0  0.00000000000E+00  0.88817841970E-15  0.35527136788E-14  0.91188000000E+02  0.91188000000E+02 0.  0.
    9900012    2    3    3    0    0 -0.30673948175E+02 -0.65779153994E+01 -0.19277444656E+02  0.54367082845E+02  0.39999996963E+02 0.  0.
         12    1    3    3    0    0  0.30673948175E+02  0.65779153994E+01  0.19277444656E+02  0.36820917155E+02  0.00000000000E+00 0. -1.
         11    1    4    4    0    0  0.24486130529E+01  0.90955938617E+00 -0.61381365304E+01  0.66708113814E+01  0.51100000000E-03 0. -1.
        -11    1    4    4    0    0 -0.18060566729E+02 -0.12657598214E+02  0.59439539596E+01  0.22841397770E+02  0.51100000000E-03 0.  1.
         12    1    4    4    0    0 -0.15061994499E+02  0.51701234287E+01 -0.19083262085E+02  0.24854873694E+02  0.00000000000E+00 0. -1.
</event>
<event>
 8    1  0.2484572E-006  0.9118800E+02  0.7816164E-02  0.1184000E+00
        -11   -1    0    0    0    0  0.00000000000E+00  0.00000000000E+00  0.45593999997E+02  0.45594000000E+02  0.51100000000E-03 0.  1.
         11   -1    0    0    0    0 -0.00000000000E+00 -0.00000000000E+00 -0.45593999997E+02  0.45594000000E+02  0.51100000000E-03 0. -1.
         23    2    1    2    0    0  0.17763568394E-14  0.00000000000E+00  0.17763568394E-14  0.91188000000E+02  0.91188000000E+02 0.  0.
    9900012    2    3    3    0    0 -0.10665417739E+02  0.33950951958E+02 -0.94531968923E+01  0.54367065658E+02  0.39999957779E+02 0.  0.
         12    1    3    3    0    0  0.10665417739E+02 -0.33950951958E+02  0.94531968923E+01  0.36820934342E+02  0.00000000000E+00 0. -1.
         11    1    4    4    0    0  0.46131579908E+01  0.16355123555E+02 -0.99199223011E+01  0.19676792215E+02  0.51100000000E-03 0. -1.
        -11    1    4    4    0    0 -0.52089283881E+01  0.75395117101E+01 -0.12458343310E+02  0.15465687507E+02  0.51100000000E-03 0.  1.
        -12    1    4    4    0    0 -0.10069647342E+02  0.10056316693E+02  0.12925068719E+02  0.19224585936E+02  0.00000000000E+00 0.  1.
</event>
<event>
 8    1  0.2484572E-006  0.9118800E+02  0.7816164E-02  0.1184000E+00
        -11   -1    0    0    0    0  0.00000000000E+00  0.00000000000E+00  0.45593999997E+02  0.45594000000E+02  0.51100000000E-03 0.  1.
         11   -1    0    0    0    0 -0.00000000000E+00 -0.00000000000E+00 -0.45593999997E+02  0.45594000000E+02  0.51100000000E-03 0. -1.
         23    2    1    2    0    0 -0.35527136788E-14  0.00000000000E+00  0.00000000000E+00  0.91188000000E+02  0.91188000000E+02 0.  0.
    9900012    2    3    3    0    0  0.28453715332E+02  0.14498094430E+02 -0.18329555410E+02  0.54367064925E+02  0.39999956109E+02 0.  0.
         12    1    3    3    0    0 -0.28453715332E+02 -0.14498094430E+02  0.18329555410E+02  0.36820935075E+02  0.00000000000E+00 0. -1.
         11    1    4    4    0    0 -0.54858069628E+01  0.14376768288E+02 -0.11184070246E+02  0.19022853938E+02  0.51100000000E-03 0. -1.
        -11    1    4    4    0    0  0.11158855731E+02  0.31266868812E+01 -0.32745982014E+01  0.12042392857E+02  0.51100000000E-03 0.  1.
         12    1    4    4    0    0  0.22780666563E+02 -0.30053607396E+01 -0.38708869634E+01  0.23301818129E+02  0.00000000000E+00 0. -1.
</event>
<event>
 8    1  0.2484572E-006  0.9118800E+02  0.7816164E-02  0.1184000E+00
        -11   -1    0    0    0    0  0.00000000000E+00  0.00000000000E+00  0.45593999997E+02  0.45594000000E+02  0.51100000000E-03 0.  1.
         11   -1    0    0    0    0 -0.00000000000E+00 -0.00000000000E+00 -0.45593999997E+02  0.45594000000E+02  0.51100000000E-03 0. -1.
         23    2    1    2    0    0  0.00000000000E+00  0.00000000000E+00  0.22204460493E-14  0.91188000000E+02  0.91188000000E+02 0.  0.
    9900012    2    3    3    0    0  0.36657032773E+02 -0.14994952751E+01 -0.31293454574E+01  0.54367090984E+02  0.40000015516E+02 0.  0.
         12    1    3    3    0    0 -0.36657032773E+02  0.14994952751E+01  0.31293454574E+01  0.36820909016E+02  0.00000000000E+00 0. -1.
         11    1    4    4    0    0  0.32880968839E+02 -0.19127540619E+01 -0.17744773969E+02  0.37412481117E+02  0.51100000000E-03 0. -1.
        -11    1    4    4    0    0  0.29930774539E+01  0.18192015361E+01  0.14912362023E+02  0.15318177053E+02  0.51100000000E-03 0.  1.
         12    1    4    4    0    0  0.78298648005E+00 -0.14059427493E+01 -0.29693351131E+00  0.16364328133E+01  0.00000000000E+00 0. -1.
</event>
<event>
 8    1  0.2484572E-006  0.9118800E+02  0.7816164E-02  0.1184000E+00
        -11   -1    0    0    0    0  0.00000000000E+00  0.00000000000E+00  0.45593999997E+02  0.45594000000E+02  0.51100000000E-03 0.  1.
         11   -1    0    0    0    0 -0.00000000000E+00 -0.00000000000E+00 -0.45593999997E+02  0.45594000000E+02  0.51100000000E-03 0. -1.
         23    2    1    2    0    0  0.17763568394E-14 -0.17763568394E-14  0.00000000000E+00  0.91188000000E+02  0.91188000000E+02 0.  0.
    9900012    2    3    3    0    0 -0.13569368128E+02 -0.68409832352E+01 -0.33538800024E+02  0.54367110412E+02  0.40000059805E+02 0.  0.
        -12    1    3    3    0    0  0.13569368128E+02  0.68409832352E+01  0.33538800024E+02  0.36820889588E+02  0.00000000000E+00 0.  1.
         11    1    4    4    0    0 -0.16481278535E+01  0.18483371794E+01 -0.66852421514E+01  0.71291751721E+01  0.51100000000E-03 0. -1.
        -11    1    4    4    0    0 -0.21885077467E+02  0.41880568311E+01 -0.12597367076E+02  0.25596681294E+02  0.51100000000E-03 0.  1.
        -12    1    4    4    0    0  0.99638371919E+01 -0.12877377246E+02 -0.14256190797E+02  0.21641253946E+02  0.00000000000E+00 0.  1.
</event>
<event>
 8    1  0.2484572E-006  0.9118800E+02  0.7816164E-02  0.1184000E+00
        -11   -1    0    0    0    0  0.00000000000E+00  0.00000000000E+00  0.45593999997E+02  0.45594000000E+02  0.51100000000E-03 0.  1.
         11   -1    0    0    0    0 -0.00000000000E+00 -0.00000000000E+00 -0.45593999997E+02  0.45594000000E+02  0.51100000000E-03 0. -1.
         23    2    1    2    0    0  0.00000000000E+00  0.00000000000E+00  0.00000000000E+00  0.91188000000E+02  0.91188000000E+02 0.  0.
    9900012    2    3    3    0    0 -0.18776990467E+02  0.75656051471E+01 -0.30756567114E+02  0.54367079684E+02  0.39999989756E+02 0.  0.
        -12    1    3    3    0    0  0.18776990467E+02 -0.75656051471E+01  0.30756567114E+02  0.36820920316E+02  0.00000000000E+00 0.  1.
         11    1    4    4    0    0 -0.68816077246E+01  0.11094448554E+01 -0.61307707063E+01  0.92829813356E+01  0.51100000000E-03 0. -1.
        -11    1    4    4    0    0  0.81275460811E+01  0.29480728984E+00 -0.22621406847E+02  0.24038967629E+02  0.51100000000E-03 0.  1.
        -12    1    4    4    0    0 -0.20022928824E+02  0.61613530018E+01 -0.20043895607E+01  0.21045130720E+02  0.00000000000E+00 0.  1.
</event>
<event>
 8    1  0.2484572E-006  0.9118800E+02  0.7816164E-02  0.1184000E+00
        -11   -1    0    0    0    0  0.00000000000E+00  0.00000000000E+00  0.45593999997E+02  0.45594000000E+02  0.51100000000E-03 0.  1.
         11   -1    0    0    0    0 -0.00000000000E+00 -0.00000000000E+00 -0.45593999997E+02  0.45594000000E+02  0.51100000000E-03 0. -1.
         23    2    1    2    0    0 -0.35527136788E-14  0.00000000000E+00  0.35527136788E-14  0.91188000000E+02  0.91188000000E+02 0.  0.
    9900012    2    3    3    0    0  0.24142865207E+02 -0.22908111776E+01 -0.27706563072E+02  0.54367090268E+02  0.40000013884E+02 0.  0.
        -12    1    3    3    0    0 -0.24142865207E+02  0.22908111776E+01  0.27706563072E+02  0.36820909732E+02  0.00000000000E+00 0.  1.
         11    1    4    4    0    0  0.76849385824E+01 -0.73828078321E+01 -0.13422265961E+02  0.17138300858E+02  0.51100000000E-03 0. -1.
        -11    1    4    4    0    0 -0.65116359859E+01  0.63266326665E+01 -0.10560408976E+02  0.13926590470E+02  0.51100000000E-03 0.  1.
        -12    1    4    4    0    0  0.22969562611E+02 -0.12346360120E+01 -0.37238881341E+01  0.23302198940E+02  0.00000000000E+00 0.  1.
</event>
<event>
 8    1  0.2484572E-006  0.9118800E+02  0.7816164E-02  0.1184000E+00
        -11   -1    0    0    0    0  0.00000000000E+00  0.00000000000E+00  0.45593999997E+02  0.45594000000E+02  0.51100000000E-03 0.  1.
         11   -1    0    0    0    0 -0.00000000000E+00 -0.00000000000E+00 -0.45593999997E+02  0.45594000000E+02  0.51100000000E-03 0. -1.
         23    2    1    2    0    0 -0.44408920985E-15  0.00000000000E+00  0.00000000000E+00  0.91188000000E+02  0.91188000000E+02 0.  0.
    9900012    2    3    3    0    0  0.32323763064E+01 -0.36227342750E+02  0.57367556109E+01  0.54367095826E+02  0.40000026554E+02 0.  0.
         12    1    3    3    0    0 -0.32323763064E+01  0.36227342750E+02 -0.57367556109E+01  0.36820904174E+02  0.00000000000E+00 0. -1.
         11    1    4    4    0    0  0.13100863222E+02 -0.15891008741E+02 -0.49295978828E+01  0.21176820146E+02  0.51100000000E-03 0. -1.
        -11    1    4    4    0    0  0.52559866845E+01 -0.93378271536E+01 -0.15875478996E+01  0.10832392191E+02  0.51100000000E-03 0.  1.
        -12    1    4    4    0    0 -0.15124473600E+02 -0.10998506855E+02  0.12253901393E+02  0.22357883489E+02  0.00000000000E+00 0.  1.
</event>
<event>
 8    1  0.2484572E-006  0.9118800E+02  0.7816164E-02  0.1184000E+00
        -11   -1    0    0    0    0  0.00000000000E+00  0.00000000000E+00  0.45593999997E+02  0.45594000000E+02  0.51100000000E-03 0.  1.
         11   -1    0    0    0    0 -0.00000000000E+00 -0.00000000000E+00 -0.45593999997E+02  0.45594000000E+02  0.51100000000E-03 0. -1.
         23    2    1    2    0    0  0.00000000000E+00 -0.35527136788E-14  0.35527136788E-14  0.91188000000E+02  0.91188000000E+02 0.  0.
    9900012    2    3    3    0    0  0.94233208646E+01 -0.27256909550E+02  0.22891959638E+02  0.54367083249E+02  0.39999997883E+02 0.  0.
         12    1    3    3    0    0 -0.94233208646E+01  0.27256909550E+02 -0.22891959638E+02  0.36820916751E+02  0.00000000000E+00 0. -1.
         11    1    4    4    0    0 -0.94546965227E+00 -0.91311678912E+01 -0.13581836756E+01  0.92799139586E+01  0.51100000000E-03 0. -1.
        -11    1    4    4    0    0  0.20245327252E+02 -0.12882541651E+02  0.23946782189E+02  0.33901055034E+02  0.51100000000E-03 0.  1.
        -12    1    4    4    0    0 -0.98765367353E+01 -0.52432000073E+01  0.30336112458E+00  0.11186114257E+02  0.00000000000E+00 0.  1.
</event>
<event>
 8    1  0.2484572E-006  0.9118800E+02  0.7816164E-02  0.1184000E+00
        -11   -1    0    0    0    0  0.00000000000E+00  0.00000000000E+00  0.45593999997E+02  0.45594000000E+02  0.51100000000E-03 0. -1.
         11   -1    0    0    0    0 -0.00000000000E+00 -0.00000000000E+00 -0.45593999997E+02  0.45594000000E+02  0.51100000000E-03 0.  1.
         23    2    1    2    0    0  0.00000000000E+00  0.00000000000E+00  0.00000000000E+00  0.91188000000E+02  0.91188000000E+02 0.  0.
    9900012    2    3    3    0    0 -0.22084473525E+02  0.23844524693E+02  0.17305926622E+02  0.54367076261E+02  0.39999981953E+02 0.  0.
        -12    1    3    3    0    0  0.22084473525E+02 -0.23844524693E+02 -0.17305926622E+02  0.36820923739E+02  0.00000000000E+00 0.  1.
         11    1    4    4    0    0  0.14654382139E+01 -0.49714545329E+01  0.63729793804E+01  0.82144832933E+01  0.51100000000E-03 0. -1.
        -11    1    4    4    0    0 -0.28104247919E+02  0.26684554144E+02  0.62004540458E+01  0.39247417897E+02  0.51100000000E-03 0.  1.
        -12    1    4    4    0    0  0.45543361798E+01  0.21314250821E+01  0.47324931955E+01  0.69051750712E+01  0.00000000000E+00 0.  1.
</event>
<event>
 8    1  0.2484572E-006  0.9118800E+02  0.7816164E-02  0.1184000E+00
        -11   -1    0    0    0    0  0.00000000000E+00  0.00000000000E+00  0.45593999997E+02  0.45594000000E+02  0.51100000000E-03 0.  1.
         11   -1    0    0    0    0 -0.00000000000E+00 -0.00000000000E+00 -0.45593999997E+02  0.45594000000E+02  0.51100000000E-03 0. -1.
         23    2    1    2    0    0  0.00000000000E+00 -0.35527136788E-14  0.00000000000E+00  0.91188000000E+02  0.91188000000E+02 0.  0.
    9900012    2    3    3    0    0  0.14142722827E+02  0.18223241109E+02  0.28699710622E+02  0.54367129352E+02  0.40000102984E+02 0.  0.
         12    1    3    3    0    0 -0.14142722827E+02 -0.18223241109E+02 -0.28699710622E+02  0.36820870648E+02  0.00000000000E+00 0. -1.
         11    1    4    4    0    0 -0.40180737038E+00 -0.54330227251E+01 -0.40028929910E+01  0.67603504090E+01  0.51100000000E-03 0. -1.
        -11    1    4    4    0    0  0.10981035689E+02  0.13327873347E+02  0.32355382114E+02  0.36675415536E+02  0.51100000000E-03 0.  1.
        -12    1    4    4    0    0  0.35634945091E+01  0.10328390487E+02  0.34722149916E+00  0.10931363407E+02  0.00000000000E+00 0.  1.
</event>
<event>
 8    1  0.2484572E-006  0.9118800E+02  0.7816164E-02  0.1184000E+00
        -11   -1    0    0    0    0  0.00000000000E+00  0.00000000000E+00  0.45593999997E+02  0.45594000000E+02  0.51100000000E-03 0. -1.
         11   -1    0    0    0    0 -0.00000000000E+00 -0.00000000000E+00 -0.45593999997E+02  0.45594000000E+02  0.51100000000E-03 0.  1.
         23    2    1    2    0    0  0.00000000000E+00  0.00000000000E+00  0.00000000000E+00  0.91188000000E+02  0.91188000000E+02 0.  0.
    9900012    2    3    3    0    0  0.86754381080E+01  0.33235590774E+02 -0.13263259855E+02  0.54367057828E+02  0.39999939930E+02 0.  0.
        -12    1    3    3    0    0 -0.86754381080E+01 -0.33235590774E+02  0.13263259855E+02  0.36820942172E+02  0.00000000000E+00 0.  1.
         11    1    4    4    0    0 -0.67136987816E+01  0.15119450882E+02  0.19040750595E+01  0.16652238540E+02  0.51100000000E-03 0. -1.
        -11    1    4    4    0    0  0.18443618730E+02  0.50047652836E+01 -0.25791337196E+01  0.19283845011E+02  0.51100000000E-03 0.  1.
        -12    1    4    4    0    0 -0.30544818408E+01  0.13111374608E+02 -0.12588201195E+02  0.18430974276E+02  0.00000000000E+00 0.  1.
</event>
<event>
 8    1  0.2484572E-006  0.9118800E+02  0.7816164E-02  0.1184000E+00
        -11   -1    0    0    0    0  0.00000000000E+00  0.00000000000E+00  0.45593999997E+02  0.45594000000E+02  0.51100000000E-03 0. -1.
         11   -1    0    0    0    0 -0.00000000000E+00 -0.00000000000E+00 -0.45593999997E+02  0.45594000000E+02  0.51100000000E-03 0.  1.
         23    2    1    2    0    0  0.17763568394E-14  0.00000000000E+00  0.17763568394E-14  0.91188000000E+02  0.91188000000E+02 0.  0.
    9900012    2    3    3    0    0 -0.12280434315E+02 -0.32250367029E+02 -0.12840685111E+02  0.54367103289E+02  0.40000043568E+02 0.  0.
        -12    1    3    3    0    0  0.12280434315E+02  0.32250367029E+02  0.12840685111E+02  0.36820896711E+02  0.00000000000E+00 0.  1.
         11    1    4    4    0    0 -0.15635674082E+02 -0.19613240189E+02  0.26846903899E+01  0.25226197840E+02  0.51100000000E-03 0. -1.
        -11    1    4    4    0    0 -0.36655021695E+00 -0.41084839309E+01 -0.18822147166E+02  0.19268814791E+02  0.51100000000E-03 0.  1.
         12    1    4    4    0    0  0.37217899835E+01 -0.85286429088E+01  0.32967716648E+01  0.98720906579E+01  0.00000000000E+00 0. -1.
</event>
<event>
 8    1  0.2484572E-006  0.9118800E+02  0.7816164E-02  0.1184000E+00
        -11   -1    0    0    0    0  0.00000000000E+00  0.00000000000E+00  0.45593999997E+02  0.45594000000E+02  0.51100000000E-03 0.  1.
         11   -1    0    0    0    0 -0.00000000000E+00 -0.00000000000E+00 -0.45593999997E+02  0.45594000000E+02  0.51100000000E-03 0. -1.
         23    2    1    2    0    0  0.35527136788E-14 -0.88817841970E-15 -0.35527136788E-14  0.91188000000E+02  0.91188000000E+02 0.  0.
    9900012    2    3    3    0    0 -0.21135352222E+02 -0.57376465288E+01 -0.29599910867E+02  0.54367103425E+02  0.40000043878E+02 0.  0.
        -12    1    3    3    0    0  0.21135352222E+02  0.57376465288E+01  0.29599910867E+02  0.36820896575E+02  0.00000000000E+00 0.  1.
         11    1    4    4    0    0 -0.10288088952E+02 -0.11288848925E+02 -0.30861140699E+01  0.15582265068E+02  0.51100000000E-03 0. -1.
        -11    1    4    4    0    0  0.38286804858E+01  0.33825806296E+00  0.33534443206E+01  0.51008628537E+01  0.51100000000E-03 0.  1.
        -12    1    4    4    0    0 -0.14675943756E+02  0.52129443328E+01 -0.29867241118E+02  0.33683975504E+02  0.00000000000E+00 0.  1.
</event>
<event>
 8    1  0.2484572E-006  0.9118800E+02  0.7816164E-02  0.1184000E+00
        -11   -1    0    0    0    0  0.00000000000E+00  0.00000000000E+00  0.45593999997E+02  0.45594000000E+02  0.51100000000E-03 0.  1.
         11   -1    0    0    0    0 -0.00000000000E+00 -0.00000000000E+00 -0.45593999997E+02  0.45594000000E+02  0.51100000000E-03 0. -1.
         23    2    1    2    0    0  0.17763568394E-14  0.00000000000E+00  0.00000000000E+00  0.91188000000E+02  0.91188000000E+02 0.  0.
    9900012    2    3    3    0    0 -0.15091626009E+02 -0.22284228924E+02  0.25128377570E+02  0.54367090266E+02  0.40000013878E+02 0.  0.
         12    1    3    3    0    0  0.15091626009E+02  0.22284228924E+02 -0.25128377570E+02  0.36820909734E+02  0.00000000000E+00 0. -1.
         11    1    4    4    0    0 -0.14669090679E+02 -0.13654088186E+02  0.13256749596E+02  0.24028269927E+02  0.51100000000E-03 0. -1.
        -11    1    4    4    0    0  0.48977409906E+01 -0.46504659496E+01  0.19255616967E+02  0.20405721879E+02  0.51100000000E-03 0.  1.
         12    1    4    4    0    0 -0.53202763207E+01 -0.39796747884E+01 -0.73839889933E+01  0.99330984594E+01  0.00000000000E+00 0. -1.
</event>
<event>
 8    1  0.2484572E-006  0.9118800E+02  0.7816164E-02  0.1184000E+00
        -11   -1    0    0    0    0  0.00000000000E+00  0.00000000000E+00  0.45593999997E+02  0.45594000000E+02  0.51100000000E-03 0.  1.
         11   -1    0    0    0    0 -0.00000000000E+00 -0.00000000000E+00 -0.45593999997E+02  0.45594000000E+02  0.51100000000E-03 0. -1.
         23    2    1    2    0    0  0.00000000000E+00 -0.17763568394E-14  0.00000000000E+00  0.91188000000E+02  0.91188000000E+02 0.  0.
    9900012    2    3    3    0    0  0.21507894920E+02 -0.84219897644E+01 -0.28675086488E+02  0.54367081481E+02  0.39999993853E+02 0.  0.
        -12    1    3    3    0    0 -0.21507894920E+02  0.84219897644E+01  0.28675086488E+02  0.36820918519E+02  0.00000000000E+00 0.  1.
         11    1    4    4    0    0  0.13763861400E+02 -0.14504934705E+01 -0.32560596021E+01  0.14217937133E+02  0.51100000000E-03 0. -1.
        -11    1    4    4    0    0 -0.18198923119E+01 -0.16825620777E+02 -0.10718152158E+02  0.20032281660E+02  0.51100000000E-03 0.  1.
         12    1    4    4    0    0  0.95639258322E+01  0.98541244830E+01 -0.14700874728E+02  0.20116862688E+02  0.00000000000E+00 0. -1.
</event>
<event>
 8    1  0.2484572E-006  0.9118800E+02  0.7816164E-02  0.1184000E+00
        -11   -1    0    0    0    0  0.00000000000E+00  0.00000000000E+00  0.45593999997E+02  0.45594000000E+02  0.51100000000E-03 0.  1.
         11   -1    0    0    0    0 -0.00000000000E+00 -0.00000000000E+00 -0.45593999997E+02  0.45594000000E+02  0.51100000000E-03 0. -1.
         23    2    1    2    0    0  0.00000000000E+00  0.88817841970E-15  0.17763568394E-14  0.91188000000E+02  0.91188000000E+02 0.  0.
    9900012    2    3    3    0    0 -0.36158561429E+02  0.43978807114E+01  0.53848405476E+01  0.54367089812E+02  0.40000012845E+02 0.  0.
         12    1    3    3    0    0  0.36158561429E+02 -0.43978807114E+01 -0.53848405476E+01  0.36820910188E+02  0.00000000000E+00 0. -1.
         11    1    4    4    0    0 -0.14018839582E+02 -0.45189359983E+01  0.23363192667E+01  0.14913317330E+02  0.51100000000E-03 0.  1.
        -11    1    4    4    0    0  0.63061870720E+01 -0.10397806838E+01 -0.51639729099E+01  0.82167971700E+01  0.51100000000E-03 0. -1.
        -12    1    4    4    0    0 -0.28445908918E+02  0.99565973935E+01  0.82124941908E+01  0.31236975313E+02  0.00000000000E+00 0.  1.
</event>
<event>
 8    1  0.2484572E-006  0.9118800E+02  0.7816164E-02  0.1184000E+00
        -11   -1    0    0    0    0  0.00000000000E+00  0.00000000000E+00  0.45593999997E+02  0.45594000000E+02  0.51100000000E-03 0. -1.
         11   -1    0    0    0    0 -0.00000000000E+00 -0.00000000000E+00 -0.45593999997E+02  0.45594000000E+02  0.51100000000E-03 0.  1.
         23    2    1    2    0    0  0.00000000000E+00 -0.17763568394E-14  0.00000000000E+00  0.91188000000E+02  0.91188000000E+02 0.  0.
    9900012    2    3    3    0    0 -0.34826508925E+02 -0.11940679110E+02 -0.55769098439E+00  0.54367128734E+02  0.40000101575E+02 0.  0.
        -12    1    3    3    0    0  0.34826508925E+02  0.11940679110E+02  0.55769098439E+00  0.36820871266E+02  0.00000000000E+00 0.  1.
         11    1    4    4    0    0 -0.25026864796E+02 -0.16152973055E+02 -0.72089570134E+01  0.30646885021E+02  0.51100000000E-03 0. -1.
        -11    1    4    4    0    0  0.51538630117E+01 -0.27791753361E+01 -0.17310041560E+00  0.58579931297E+01  0.51100000000E-03 0.  1.
         12    1    4    4    0    0 -0.14953507141E+02  0.69914692808E+01  0.68243664446E+01  0.17862250583E+02  0.00000000000E+00 0. -1.
</event>
<event>
 8    1  0.2484572E-006  0.9118800E+02  0.7816164E-02  0.1184000E+00
        -11   -1    0    0    0    0  0.00000000000E+00  0.00000000000E+00  0.45593999997E+02  0.45594000000E+02  0.51100000000E-03 0.  1.
         11   -1    0    0    0    0 -0.00000000000E+00 -0.00000000000E+00 -0.45593999997E+02  0.45594000000E+02  0.51100000000E-03 0. -1.
         23    2    1    2    0    0 -0.35527136788E-14 -0.88817841970E-15  0.35527136788E-14  0.91188000000E+02  0.91188000000E+02 0.  0.
    9900012    2    3    3    0    0  0.19919820208E+02 -0.42163951996E+01 -0.30679014587E+02  0.54367093416E+02  0.40000021060E+02 0.  0.
        -12    1    3    3    0    0 -0.19919820208E+02  0.42163951996E+01  0.30679014587E+02  0.36820906584E+02  0.00000000000E+00 0.  1.
         11    1    4    4    0    0  0.15846717420E+02  0.13203575788E+02 -0.10039115605E+02  0.22939849803E+02  0.51100000000E-03 0. -1.
        -11    1    4    4    0    0  0.18240171121E+01 -0.19532775513E+00  0.21150351244E+01  0.27997437732E+01  0.51100000000E-03 0.  1.
         12    1    4    4    0    0  0.22490856765E+01 -0.17224643233E+02 -0.22754934107E+02  0.28627499840E+02  0.00000000000E+00 0. -1.
</event>
<event>
 8    1  0.2484572E-006  0.9118800E+02  0.7816164E-02  0.1184000E+00
        -11   -1    0    0    0    0  0.00000000000E+00  0.00000000000E+00  0.45593999997E+02  0.45594000000E+02  0.51100000000E-03 0.  1.
         11   -1    0    0    0    0 -0.00000000000E+00 -0.00000000000E+00 -0.45593999997E+02  0.45594000000E+02  0.51100000000E-03 0. -1.
         23    2    1    2    0    0  0.99920072216E-15  0.22204460493E-15  0.00000000000E+00  0.91188000000E+02  0.91188000000E+02 0.  0.
    9900012    2    3    3    0    0  0.43570933776E+00  0.14896465992E+01 -0.36788190476E+02  0.54367084094E+02  0.39999999810E+02 0.  0.
        -12    1    3    3    0    0 -0.43570933776E+00 -0.14896465992E+01  0.36788190476E+02  0.36820915906E+02  0.00000000000E+00 0.  1.
         11    1    4    4    0    0  0.71121520873E-01 -0.15924146974E+02 -0.21293702730E+02  0.26589571101E+02  0.51100000000E-03 0. -1.
        -11    1    4    4    0    0 -0.42825813415E+01  0.17701079883E+02 -0.13692481213E+02  0.22784924270E+02  0.51100000000E-03 0.  1.
        -12    1    4    4    0    0  0.46471691584E+01 -0.28728630978E+00 -0.18020065332E+01  0.49925887230E+01  0.00000000000E+00 0.  1.
</event>
<event>
 8    1  0.2484572E-006  0.9118800E+02  0.7816164E-02  0.1184000E+00
        -11   -1    0    0    0    0  0.00000000000E+00  0.00000000000E+00  0.45593999997E+02  0.45594000000E+02  0.51100000000E-03 0.  1.
         11   -1    0    0    0    0 -0.00000000000E+00 -0.00000000000E+00 -0.45593999997E+02  0.45594000000E+02  0.51100000000E-03 0. -1.
         23    2    1    2    0    0  0.00000000000E+00 -0.17763568394E-14  0.00000000000E+00  0.91188000000E+02  0.91188000000E+02 0.  0.
    9900012    2    3    3    0    0 -0.84040637288E+01 -0.99278222515E+01 -0.34446914261E+02  0.54367084151E+02  0.39999999940E+02 0.  0.
        -12    1    3    3    0    0  0.84040637288E+01  0.99278222515E+01  0.34446914261E+02  0.36820915849E+02  0.00000000000E+00 0.  1.
         11    1    4    4    0    0 -0.67122367390E+01  0.50723753736E+01 -0.15751583779E+02  0.17857645583E+02  0.51100000000E-03 0. -1.
        -11    1    4    4    0    0 -0.38282541045E+01 -0.91054146770E+01  0.56434819395E+01  0.11375983236E+02  0.51100000000E-03 0.  1.
         12    1    4    4    0    0  0.21364271147E+01 -0.58947829481E+01 -0.24338812421E+02  0.25133455332E+02  0.00000000000E+00 0. -1.
</event>
<event>
 8    1  0.2484572E-006  0.9118800E+02  0.7816164E-02  0.1184000E+00
        -11   -1    0    0    0    0  0.00000000000E+00  0.00000000000E+00  0.45593999997E+02  0.45594000000E+02  0.51100000000E-03 0.  1.
         11   -1    0    0    0    0 -0.00000000000E+00 -0.00000000000E+00 -0.45593999997E+02  0.45594000000E+02  0.51100000000E-03 0. -1.
         23    2    1    2    0    0  0.00000000000E+00 -0.88817841970E-15  0.71054273576E-14  0.91188000000E+02  0.91188000000E+02 0.  0.
    9900012    2    3    3    0    0  0.11752979308E+02 -0.77028090611E+01  0.34034009992E+02  0.54367087108E+02  0.40000006681E+02 0.  0.
         12    1    3    3    0    0 -0.11752979308E+02  0.77028090611E+01 -0.34034009992E+02  0.36820912892E+02  0.00000000000E+00 0. -1.
         11    1    4    4    0    0 -0.80271520689E+01 -0.38992630662E+01 -0.28550284605E+00  0.89286580701E+01  0.51100000000E-03 0. -1.
        -11    1    4    4    0    0 -0.14927706653E+01 -0.75195099288E+01  0.55431781989E+01  0.94603498157E+01  0.51100000000E-03 0.  1.
        -12    1    4    4    0    0  0.21272902043E+02  0.37159639339E+01  0.28776334639E+02  0.35978079222E+02  0.00000000000E+00 0.  1.
</event>
<event>
 8    1  0.2484572E-006  0.9118800E+02  0.7816164E-02  0.1184000E+00
        -11   -1    0    0    0    0  0.00000000000E+00  0.00000000000E+00  0.45593999997E+02  0.45594000000E+02  0.51100000000E-03 0.  1.
         11   -1    0    0    0    0 -0.00000000000E+00 -0.00000000000E+00 -0.45593999997E+02  0.45594000000E+02  0.51100000000E-03 0. -1.
         23    2    1    2    0    0  0.17763568394E-14  0.00000000000E+00  0.00000000000E+00  0.91188000000E+02  0.91188000000E+02 0.  0.
    9900012    2    3    3    0    0 -0.15884287240E+02 -0.83910373415E+01 -0.32141254385E+02  0.54367077656E+02  0.39999985133E+02 0.  0.
        -12    1    3    3    0    0  0.15884287240E+02  0.83910373415E+01  0.32141254385E+02  0.36820922344E+02  0.00000000000E+00 0.  1.
         11    1    4    4    0    0 -0.17471881337E+02 -0.94788736483E+01 -0.13380061723E+01  0.19922498434E+02  0.51100000000E-03 0. -1.
        -11    1    4    4    0    0  0.74395526241E+01  0.44183422885E+00 -0.81718033015E+01  0.11059861219E+02  0.51100000000E-03 0.  1.
         12    1    4    4    0    0 -0.58519585272E+01  0.64600207788E+00 -0.22631444911E+02  0.23384718003E+02  0.00000000000E+00 0. -1.
</event>
<event>
 8    1  0.2484572E-006  0.9118800E+02  0.7816164E-02  0.1184000E+00
        -11   -1    0    0    0    0  0.00000000000E+00  0.00000000000E+00  0.45593999997E+02  0.45594000000E+02  0.51100000000E-03 0. -1.
         11   -1    0    0    0    0 -0.00000000000E+00 -0.00000000000E+00 -0.45593999997E+02  0.45594000000E+02  0.51100000000E-03 0.  1.
         23    2    1    2    0    0 -0.71054273576E-14  0.00000000000E+00  0.00000000000E+00  0.91188000000E+02  0.91188000000E+02 0.  0.
    9900012    2    3    3    0    0 -0.35390986867E+02 -0.69133961219E+01  0.74477244144E+01  0.54367006039E+02  0.39999821866E+02 0.  0.
        -12    1    3    3    0    0  0.35390986867E+02  0.69133961219E+01 -0.74477244144E+01  0.36820993961E+02  0.00000000000E+00 0.  1.
         11    1    4    4    0    0 -0.11407813956E+02  0.71038056022E+01  0.14603253836E+02  0.19845838258E+02  0.51100000000E-03 0. -1.
        -11    1    4    4    0    0 -0.18954355316E+02 -0.20487921143E+01  0.11671262965E+01  0.19100453362E+02  0.51100000000E-03 0.  1.
        -12    1    4    4    0    0 -0.50288175949E+01 -0.11968409610E+02 -0.83226557185E+01  0.15420714419E+02  0.00000000000E+00 0.  1.
</event>
<event>
 8    1  0.2484572E-006  0.9118800E+02  0.7816164E-02  0.1184000E+00
        -11   -1    0    0    0    0  0.00000000000E+00  0.00000000000E+00  0.45593999997E+02  0.45594000000E+02  0.51100000000E-03 0.  1.
         11   -1    0    0    0    0 -0.00000000000E+00 -0.00000000000E+00 -0.45593999997E+02  0.45594000000E+02  0.51100000000E-03 0. -1.
         23    2    1    2    0    0 -0.35527136788E-14  0.00000000000E+00  0.00000000000E+00  0.91188000000E+02  0.91188000000E+02 0.  0.
    9900012    2    3    3    0    0 -0.25971971499E+02 -0.23497971304E+02  0.11361420763E+02  0.54367084196E+02  0.40000000041E+02 0.  0.
         12    1    3    3    0    0  0.25971971499E+02  0.23497971304E+02 -0.11361420763E+02  0.36820915804E+02  0.00000000000E+00 0. -1.
         11    1    4    4    0    0  0.59868696606E+01  0.50689230395E+00  0.12476671553E+02  0.13847991964E+02  0.51100000000E-03 0. -1.
        -11    1    4    4    0    0 -0.12265489891E+02 -0.62364465759E+01 -0.23813836904E+01  0.13964472661E+02  0.51100000000E-03 0.  1.
         12    1    4    4    0    0 -0.19693351268E+02 -0.17768417032E+02  0.12661329006E+01  0.26554619570E+02  0.00000000000E+00 0. -1.
</event>
<event>
 8    1  0.2484572E-006  0.9118800E+02  0.7816164E-02  0.1184000E+00
        -11   -1    0    0    0    0  0.00000000000E+00  0.00000000000E+00  0.45593999997E+02  0.45594000000E+02  0.51100000000E-03 0.  1.
         11   -1    0    0    0    0 -0.00000000000E+00 -0.00000000000E+00 -0.45593999997E+02  0.45594000000E+02  0.51100000000E-03 0. -1.
         23    2    1    2    0    0  0.00000000000E+00 -0.17763568394E-14 -0.35527136788E-14  0.91188000000E+02  0.91188000000E+02 0.  0.
    9900012    2    3    3    0    0  0.24302028312E+02 -0.15285130895E+02 -0.23055484155E+02  0.54367093490E+02  0.40000021229E+02 0.  0.
        -12    1    3    3    0    0 -0.24302028312E+02  0.15285130895E+02  0.23055484155E+02  0.36820906510E+02  0.00000000000E+00 0.  1.
         11    1    4    4    0    0 -0.29943367312E+01 -0.27562644934E+01 -0.13671521553E+02  0.14264415455E+02  0.51100000000E-03 0. -1.
        -11    1    4    4    0    0 -0.42972544117E+01  0.96214517068E+00 -0.25081191928E+01  0.50678181651E+01  0.51100000000E-03 0.  1.
        -12    1    4    4    0    0  0.31593619455E+02 -0.13491011572E+02 -0.68758434091E+01  0.35034859870E+02  0.00000000000E+00 0.  1.
</event>
<event>
 8    1  0.2484572E-006  0.9118800E+02  0.7816164E-02  0.1184000E+00
        -11   -1    0    0    0    0  0.00000000000E+00  0.00000000000E+00  0.45593999997E+02  0.45594000000E+02  0.51100000000E-03 0.  1.
         11   -1    0    0    0    0 -0.00000000000E+00 -0.00000000000E+00 -0.45593999997E+02  0.45594000000E+02  0.51100000000E-03 0. -1.
         23    2    1    2    0    0  0.00000000000E+00  0.17763568394E-14  0.17763568394E-14  0.91188000000E+02  0.91188000000E+02 0.  0.
    9900012    2    3    3    0    0  0.34935115412E+02  0.87776385086E+01  0.76335277853E+01  0.54367082397E+02  0.39999995942E+02 0.  0.
         12    1    3    3    0    0 -0.34935115412E+02 -0.87776385086E+01 -0.76335277853E+01  0.36820917603E+02  0.00000000000E+00 0. -1.
         11    1    4    4    0    0  0.15139679864E+02  0.80490019517E+01 -0.10518490579E+02  0.20115540836E+02  0.51100000000E-03 0. -1.
        -11    1    4    4    0    0  0.12474365374E+02 -0.94648469162E+01  0.59604637650E+01  0.16754708209E+02  0.51100000000E-03 0.  1.
        -12    1    4    4    0    0  0.73210701744E+01  0.10193483473E+02  0.12191554599E+02  0.17496833352E+02  0.00000000000E+00 0.  1.
</event>
<event>
 8    1  0.2484572E-006  0.9118800E+02  0.7816164E-02  0.1184000E+00
        -11   -1    0    0    0    0  0.00000000000E+00  0.00000000000E+00  0.45593999997E+02  0.45594000000E+02  0.51100000000E-03 0.  1.
         11   -1    0    0    0    0 -0.00000000000E+00 -0.00000000000E+00 -0.45593999997E+02  0.45594000000E+02  0.51100000000E-03 0. -1.
         23    2    1    2    0    0  0.11102230246E-14  0.71054273576E-14  0.35527136788E-14  0.91188000000E+02  0.91188000000E+02 0.  0.
    9900012    2    3    3    0    0  0.16431458574E+01 -0.23550036459E+02  0.28257455723E+02  0.54366974085E+02  0.39999749020E+02 0.  0.
         12    1    3    3    0    0 -0.16431458574E+01  0.23550036459E+02 -0.28257455723E+02  0.36821025915E+02  0.00000000000E+00 0. -1.
         11    1    4    4    0    0  0.14563374363E+02  0.17654142069E+01  0.74022676135E+01  0.16431741424E+02  0.51100000000E-03 0. -1.
        -11    1    4    4    0    0 -0.12301346175E+02 -0.26968832836E+02  0.18321240099E+02  0.34846935321E+02  0.51100000000E-03 0.  1.
         12    1    4    4    0    0 -0.61888233005E+00  0.16533821699E+01  0.25339480106E+01  0.30882973397E+01  0.00000000000E+00 0. -1.
</event>
<event>
 8    1  0.2484572E-006  0.9118800E+02  0.7816164E-02  0.1184000E+00
        -11   -1    0    0    0    0  0.00000000000E+00  0.00000000000E+00  0.45593999997E+02  0.45594000000E+02  0.51100000000E-03 0.  1.
         11   -1    0    0    0    0 -0.00000000000E+00 -0.00000000000E+00 -0.45593999997E+02  0.45594000000E+02  0.51100000000E-03 0. -1.
         23    2    1    2    0    0 -0.39968028887E-14  0.35527136788E-14  0.00000000000E+00  0.91188000000E+02  0.91188000000E+02 0.  0.
    9900012    2    3    3    0    0  0.39354118954E+01 -0.30354129328E+02 -0.20467504443E+02  0.54367090558E+02  0.40000014544E+02 0.  0.
        -12    1    3    3    0    0 -0.39354118954E+01  0.30354129328E+02  0.20467504443E+02  0.36820909442E+02  0.00000000000E+00 0.  1.
         11    1    4    4    0    0 -0.64105824065E+01  0.66331624232E+01 -0.63886651420E+01  0.11220938155E+02  0.51100000000E-03 0. -1.
        -11    1    4    4    0    0 -0.39248814873E-01  0.40832222135E-01 -0.31719664978E+01  0.31724721376E+01  0.51100000000E-03 0.  1.
         12    1    4    4    0    0  0.10385243117E+02 -0.37028123973E+02 -0.10906872804E+02  0.39973680265E+02  0.00000000000E+00 0. -1.
</event>
<event>
 8    1  0.2484572E-006  0.9118800E+02  0.7816164E-02  0.1184000E+00
        -11   -1    0    0    0    0  0.00000000000E+00  0.00000000000E+00  0.45593999997E+02  0.45594000000E+02  0.51100000000E-03 0. -1.
         11   -1    0    0    0    0 -0.00000000000E+00 -0.00000000000E+00 -0.45593999997E+02  0.45594000000E+02  0.51100000000E-03 0.  1.
         23    2    1    2    0    0  0.35527136788E-14  0.00000000000E+00  0.35527136788E-14  0.91188000000E+02  0.91188000000E+02 0.  0.
    9900012    2    3    3    0    0 -0.19137040273E+02  0.22221935059E+02 -0.22265207526E+02  0.54367079664E+02  0.39999989710E+02 0.  0.
         12    1    3    3    0    0  0.19137040273E+02 -0.22221935059E+02  0.22265207526E+02  0.36820920336E+02  0.00000000000E+00 0. -1.
         11    1    4    4    0    0 -0.41079060304E+01  0.50743533761E+01  0.10538674816E+02  0.12397081160E+02  0.51100000000E-03 0. -1.
        -11    1    4    4    0    0 -0.34762546003E+00  0.92590143225E+01 -0.14571490980E+02  0.17267846980E+02  0.51100000000E-03 0.  1.
         12    1    4    4    0    0 -0.14681508783E+02  0.78885673609E+01 -0.18232391362E+02  0.24702151524E+02  0.00000000000E+00 0. -1.
</event>
<event>
 8    1  0.2484572E-006  0.9118800E+02  0.7816164E-02  0.1184000E+00
        -11   -1    0    0    0    0  0.00000000000E+00  0.00000000000E+00  0.45593999997E+02  0.45594000000E+02  0.51100000000E-03 0.  1.
         11   -1    0    0    0    0 -0.00000000000E+00 -0.00000000000E+00 -0.45593999997E+02  0.45594000000E+02  0.51100000000E-03 0. -1.
         23    2    1    2    0    0  0.00000000000E+00  0.00000000000E+00  0.00000000000E+00  0.91188000000E+02  0.91188000000E+02 0.  0.
    9900012    2    3    3    0    0 -0.38902615060E+01 -0.22888562085E+02 -0.28578997710E+02  0.54367088563E+02  0.40000009998E+02 0.  0.
        -12    1    3    3    0    0  0.38902615060E+01  0.22888562085E+02  0.28578997710E+02  0.36820911437E+02  0.00000000000E+00 0.  1.
         11    1    4    4    0    0 -0.96035235176E+01 -0.25400307315E+02 -0.35234735410E+01  0.27382807411E+02  0.51100000000E-03 0. -1.
        -11    1    4    4    0    0  0.94418644881E+00 -0.26273556430E+01 -0.98911875574E+01  0.10277649404E+02  0.51100000000E-03 0.  1.
         12    1    4    4    0    0  0.47690755628E+01  0.51391008726E+01 -0.15164336612E+02  0.16706631748E+02  0.00000000000E+00 0. -1.
</event>
<event>
 8    1  0.2484572E-006  0.9118800E+02  0.7816164E-02  0.1184000E+00
        -11   -1    0    0    0    0  0.00000000000E+00  0.00000000000E+00  0.45593999997E+02  0.45594000000E+02  0.51100000000E-03 0.  1.
         11   -1    0    0    0    0 -0.00000000000E+00 -0.00000000000E+00 -0.45593999997E+02  0.45594000000E+02  0.51100000000E-03 0. -1.
         23    2    1    2    0    0 -0.71054273576E-14  0.00000000000E+00  0.00000000000E+00  0.91188000000E+02  0.91188000000E+02 0.  0.
    9900012    2    3    3    0    0  0.32268644859E+02  0.17701846958E+02  0.10763850611E+01  0.54367089752E+02  0.40000012707E+02 0.  0.
         12    1    3    3    0    0 -0.32268644859E+02 -0.17701846958E+02 -0.10763850611E+01  0.36820910248E+02  0.00000000000E+00 0. -1.
         11    1    4    4    0    0  0.14949949795E+01 -0.33336151487E+01 -0.11475714580E+02  0.12043256426E+02  0.51100000000E-03 0. -1.
        -11    1    4    4    0    0  0.16587682162E+02  0.20834447290E+01  0.59792335384E+01  0.17755088719E+02  0.51100000000E-03 0.  1.
        -12    1    4    4    0    0  0.14185967717E+02  0.18952017378E+02  0.65728661031E+01  0.24568744607E+02  0.00000000000E+00 0.  1.
</event>
<event>
 8    1  0.2484572E-006  0.9118800E+02  0.7816164E-02  0.1184000E+00
        -11   -1    0    0    0    0  0.00000000000E+00  0.00000000000E+00  0.45593999997E+02  0.45594000000E+02  0.51100000000E-03 0. -1.
         11   -1    0    0    0    0 -0.00000000000E+00 -0.00000000000E+00 -0.45593999997E+02  0.45594000000E+02  0.51100000000E-03 0.  1.
         23    2    1    2    0    0  0.00000000000E+00 -0.17763568394E-14  0.00000000000E+00  0.91188000000E+02  0.91188000000E+02 0.  0.
    9900012    2    3    3    0    0 -0.21351314395E+02  0.13459924923E+02 -0.26809194377E+02  0.54367066980E+02  0.39999960793E+02 0.  0.
         12    1    3    3    0    0  0.21351314395E+02 -0.13459924923E+02  0.26809194377E+02  0.36820933020E+02  0.00000000000E+00 0. -1.
         11    1    4    4    0    0  0.11895822296E+01  0.19861861540E+01 -0.14750551220E+02  0.14931135352E+02  0.51100000000E-03 0. -1.
        -11    1    4    4    0    0 -0.56727000638E+01 -0.83745454047E+01  0.12382164804E+01  0.10190471876E+02  0.51100000000E-03 0.  1.
        -12    1    4    4    0    0 -0.16868196561E+02  0.19848284174E+02 -0.13296859637E+02  0.29245459752E+02  0.00000000000E+00 0.  1.
</event>
<event>
 8    1  0.2484572E-006  0.9118800E+02  0.7816164E-02  0.1184000E+00
        -11   -1    0    0    0    0  0.00000000000E+00  0.00000000000E+00  0.45593999997E+02  0.45594000000E+02  0.51100000000E-03 0.  1.
         11   -1    0    0    0    0 -0.00000000000E+00 -0.00000000000E+00 -0.45593999997E+02  0.45594000000E+02  0.51100000000E-03 0. -1.
         23    2    1    2    0    0  0.35527136788E-14  0.00000000000E+00  0.35527136788E-14  0.91188000000E+02  0.91188000000E+02 0.  0.
    9900012    2    3    3    0    0  0.31365661661E+02 -0.59215211783E+01  0.18354797157E+02  0.54367248743E+02  0.40000375157E+02 0.  0.
         12    1    3    3    0    0 -0.31365661661E+02  0.59215211783E+01 -0.18354797157E+02  0.36820751257E+02  0.00000000000E+00 0. -1.
         11    1    4    4    0    0  0.17866244662E+02 -0.33618694881E+01 -0.43820641244E+01  0.18700463925E+02  0.51100000000E-03 0. -1.
        -11    1    4    4    0    0  0.83995317653E+01  0.10148162749E+02  0.14905586563E+02  0.19892557706E+02  0.51100000000E-03 0.  1.
        -12    1    4    4    0    0  0.50998852337E+01 -0.12707814439E+02  0.78312747186E+01  0.15774227111E+02  0.00000000000E+00 0.  1.
</event>
<event>
 8    1  0.2484572E-006  0.9118800E+02  0.7816164E-02  0.1184000E+00
        -11   -1    0    0    0    0  0.00000000000E+00  0.00000000000E+00  0.45593999997E+02  0.45594000000E+02  0.51100000000E-03 0.  1.
         11   -1    0    0    0    0 -0.00000000000E+00 -0.00000000000E+00 -0.45593999997E+02  0.45594000000E+02  0.51100000000E-03 0. -1.
         23    2    1    2    0    0 -0.17763568394E-14  0.00000000000E+00  0.00000000000E+00  0.91188000000E+02  0.91188000000E+02 0.  0.
    9900012    2    3    3    0    0  0.13712560262E+02 -0.33149262484E+02 -0.82987138037E+01  0.54367128705E+02  0.40000101508E+02 0.  0.
        -12    1    3    3    0    0 -0.13712560262E+02  0.33149262484E+02  0.82987138037E+01  0.36820871295E+02  0.00000000000E+00 0.  1.
         11    1    4    4    0    0  0.87875740335E+01 -0.24981876116E+01 -0.96420264998E+01  0.13282735939E+02  0.51100000000E-03 0. -1.
        -11    1    4    4    0    0  0.52504656749E+01 -0.85773114570E+01  0.12747276961E+02  0.16236709390E+02  0.51100000000E-03 0.  1.
         12    1    4    4    0    0 -0.32547944675E+00 -0.22073763415E+02 -0.11403964265E+02  0.24847683376E+02  0.00000000000E+00 0. -1.
</event>
<event>
 8    1  0.2484572E-006  0.9118800E+02  0.7816164E-02  0.1184000E+00
        -11   -1    0    0    0    0  0.00000000000E+00  0.00000000000E+00  0.45593999997E+02  0.45594000000E+02  0.51100000000E-03 0. -1.
         11   -1    0    0    0    0 -0.00000000000E+00 -0.00000000000E+00 -0.45593999997E+02  0.45594000000E+02  0.51100000000E-03 0.  1.
         23    2    1    2    0    0 -0.10547118734E-14  0.00000000000E+00 -0.35527136788E-14  0.91188000000E+02  0.91188000000E+02 0.  0.
    9900012    2    3    3    0    0  0.32468627035E+00  0.21588625529E+02 -0.29826242239E+02  0.54367096976E+02  0.40000029177E+02 0.  0.
         12    1    3    3    0    0 -0.32468627035E+00 -0.21588625529E+02  0.29826242239E+02  0.36820903024E+02  0.00000000000E+00 0. -1.
         11    1    4    4    0    0  0.81942935380E+01  0.19467899970E+02 -0.14229876371E+02  0.25468312815E+02  0.51100000000E-03 0. -1.
        -11    1    4    4    0    0 -0.22420897268E+01  0.52078266716E+01 -0.20212429557E+02  0.20992635229E+02  0.51100000000E-03 0.  1.
         12    1    4    4    0    0 -0.56275175408E+01 -0.30871011126E+01  0.46160636900E+01  0.79061489324E+01  0.00000000000E+00 0. -1.
</event>
<event>
 8    1  0.2484572E-006  0.9118800E+02  0.7816164E-02  0.1184000E+00
        -11   -1    0    0    0    0  0.00000000000E+00  0.00000000000E+00  0.45593999997E+02  0.45594000000E+02  0.51100000000E-03 0.  1.
         11   -1    0    0    0    0 -0.00000000000E+00 -0.00000000000E+00 -0.45593999997E+02  0.45594000000E+02  0.51100000000E-03 0. -1.
         23    2    1    2    0    0  0.44408920985E-15  0.00000000000E+00  0.00000000000E+00  0.91188000000E+02  0.91188000000E+02 0.  0.
    9900012    2    3    3    0    0 -0.20141993286E+01 -0.13915123796E+02 -0.34030771393E+02  0.54367067491E+02  0.39999961960E+02 0.  0.
        -12    1    3    3    0    0  0.20141993286E+01  0.13915123796E+02  0.34030771393E+02  0.36820932509E+02  0.00000000000E+00 0.  1.
         11    1    4    4    0    0 -0.21873905691E+01 -0.32412827054E+01  0.45480685410E+00  0.39366788812E+01  0.51100000000E-03 0. -1.
        -11    1    4    4    0    0  0.16997990455E+02 -0.14839734556E+01 -0.11884413874E+02  0.20793584350E+02  0.51100000000E-03 0.  1.
        -12    1    4    4    0    0 -0.16824799214E+02 -0.91898676352E+01 -0.22601164373E+02  0.29636804261E+02  0.00000000000E+00 0.  1.
</event>
<event>
 8    1  0.2484572E-006  0.9118800E+02  0.7816164E-02  0.1184000E+00
        -11   -1    0    0    0    0  0.00000000000E+00  0.00000000000E+00  0.45593999997E+02  0.45594000000E+02  0.51100000000E-03 0.  1.
         11   -1    0    0    0    0 -0.00000000000E+00 -0.00000000000E+00 -0.45593999997E+02  0.45594000000E+02  0.51100000000E-03 0. -1.
         23    2    1    2    0    0 -0.35527136788E-14  0.35527136788E-14  0.00000000000E+00  0.91188000000E+02  0.91188000000E+02 0.  0.
    9900012    2    3    3    0    0 -0.29798328285E+02 -0.20764158656E+02  0.60572925246E+01  0.54367062396E+02  0.39999950344E+02 0.  0.
         12    1    3    3    0    0  0.29798328285E+02  0.20764158656E+02 -0.60572925246E+01  0.36820937604E+02  0.00000000000E+00 0. -1.
         11    1    4    4    0    0 -0.19811399063E+02 -0.59064042986E+01 -0.15645682515E+02  0.25926135968E+02  0.51100000000E-03 0. -1.
        -11    1    4    4    0    0 -0.64957761148E+00 -0.51510482461E+00  0.28972183447E+01  0.30134960514E+01  0.51100000000E-03 0.  1.
         12    1    4    4    0    0 -0.93373516103E+01 -0.14342649533E+02  0.18805756695E+02  0.25427430377E+02  0.00000000000E+00 0. -1.
</event>
<event>
 8    1  0.2484572E-006  0.9118800E+02  0.7816164E-02  0.1184000E+00
        -11   -1    0    0    0    0  0.00000000000E+00  0.00000000000E+00  0.45593999997E+02  0.45594000000E+02  0.51100000000E-03 0.  1.
         11   -1    0    0    0    0 -0.00000000000E+00 -0.00000000000E+00 -0.45593999997E+02  0.45594000000E+02  0.51100000000E-03 0. -1.
         23    2    1    2    0    0  0.35527136788E-14  0.00000000000E+00  0.71054273576E-14  0.91188000000E+02  0.91188000000E+02 0.  0.
    9900012    2    3    3    0    0  0.24568203369E+02  0.62495372607E+01  0.26704422226E+02  0.54367088833E+02  0.40000010613E+02 0.  0.
         12    1    3    3    0    0 -0.24568203369E+02 -0.62495372607E+01 -0.26704422226E+02  0.36820911167E+02  0.00000000000E+00 0. -1.
         11    1    4    4    0    0  0.11915802450E+01  0.29066578217E+01 -0.81763517457E+01  0.87590668056E+01  0.51100000000E-03 0. -1.
        -11    1    4    4    0    0  0.86039849079E+01 -0.73772482829E+00  0.13495757990E+01  0.87403746667E+01  0.51100000000E-03 0.  1.
        -12    1    4    4    0    0  0.14772638216E+02  0.40806042672E+01  0.33531198172E+02  0.36867647361E+02  0.00000000000E+00 0.  1.
</event>
<event>
 8    1  0.2484572E-006  0.9118800E+02  0.7816164E-02  0.1184000E+00
        -11   -1    0    0    0    0  0.00000000000E+00  0.00000000000E+00  0.45593999997E+02  0.45594000000E+02  0.51100000000E-03 0. -1.
         11   -1    0    0    0    0 -0.00000000000E+00 -0.00000000000E+00 -0.45593999997E+02  0.45594000000E+02  0.51100000000E-03 0.  1.
         23    2    1    2    0    0  0.00000000000E+00  0.00000000000E+00 -0.71054273576E-14  0.91188000000E+02  0.91188000000E+02 0.  0.
    9900012    2    3    3    0    0 -0.58038616079E+01 -0.15070510868E+02 -0.33090411780E+02  0.54367075797E+02  0.39999980895E+02 0.  0.
         12    1    3    3    0    0  0.58038616079E+01  0.15070510868E+02  0.33090411780E+02  0.36820924203E+02  0.00000000000E+00 0. -1.
         11    1    4    4    0    0 -0.39078949079E+01 -0.15553822637E+02 -0.38736302429E+02  0.41924863356E+02  0.51100000000E-03 0. -1.
        -11    1    4    4    0    0  0.35737464717E+01  0.66933172159E+00 -0.10592892146E+01  0.37870519799E+01  0.51100000000E-03 0.  1.
         12    1    4    4    0    0 -0.54697131718E+01 -0.18601995207E+00  0.67051798639E+01  0.86551604613E+01  0.00000000000E+00 0. -1.
</event>
<event>
 8    1  0.2484572E-006  0.9118800E+02  0.7816164E-02  0.1184000E+00
        -11   -1    0    0    0    0  0.00000000000E+00  0.00000000000E+00  0.45593999997E+02  0.45594000000E+02  0.51100000000E-03 0. -1.
         11   -1    0    0    0    0 -0.00000000000E+00 -0.00000000000E+00 -0.45593999997E+02  0.45594000000E+02  0.51100000000E-03 0.  1.
         23    2    1    2    0    0  0.00000000000E+00 -0.35527136788E-14 -0.17763568394E-14  0.91188000000E+02  0.91188000000E+02 0.  0.
    9900012    2    3    3    0    0 -0.26816269213E+02  0.23605596032E+02 -0.89130904302E+01  0.54367086927E+02  0.40000006267E+02 0.  0.
        -12    1    3    3    0    0  0.26816269213E+02 -0.23605596032E+02  0.89130904302E+01  0.36820913073E+02  0.00000000000E+00 0.  1.
         11    1    4    4    0    0 -0.96664034957E+00  0.10353177653E+02  0.64218463803E+01  0.12221407132E+02  0.51100000000E-03 0. -1.
        -11    1    4    4    0    0  0.32500852364E+01  0.30280372294E+01 -0.98673964862E+01  0.10821163393E+02  0.51100000000E-03 0.  1.
        -12    1    4    4    0    0 -0.29099714100E+02  0.10224381149E+02 -0.54675403243E+01  0.31324516401E+02  0.00000000000E+00 0.  1.
</event>
<event>
 8    1  0.2484572E-006  0.9118800E+02  0.7816164E-02  0.1184000E+00
        -11   -1    0    0    0    0  0.00000000000E+00  0.00000000000E+00  0.45593999997E+02  0.45594000000E+02  0.51100000000E-03 0. -1.
         11   -1    0    0    0    0 -0.00000000000E+00 -0.00000000000E+00 -0.45593999997E+02  0.45594000000E+02  0.51100000000E-03 0.  1.
         23    2    1    2    0    0  0.35527136788E-14  0.00000000000E+00  0.00000000000E+00  0.91188000000E+02  0.91188000000E+02 0.  0.
    9900012    2    3    3    0    0 -0.20326869373E+02  0.26340226674E+02 -0.15773103306E+02  0.54367082743E+02  0.39999996729E+02 0.  0.
        -12    1    3    3    0    0  0.20326869373E+02 -0.26340226674E+02  0.15773103306E+02  0.36820917257E+02  0.00000000000E+00 0.  1.
         11    1    4    4    0    0 -0.10629480952E+02  0.24102611771E+02  0.45666120991E+01  0.26735289522E+02  0.51100000000E-03 0. -1.
        -11    1    4    4    0    0 -0.35202241249E+01 -0.68042574325E+01 -0.97362393931E+01  0.12388876256E+02  0.51100000000E-03 0.  1.
        -12    1    4    4    0    0 -0.61771642961E+01  0.90418723360E+01 -0.10603476012E+02  0.15242916965E+02  0.00000000000E+00 0.  1.
</event>
<event>
 8    1  0.2484572E-006  0.9118800E+02  0.7816164E-02  0.1184000E+00
        -11   -1    0    0    0    0  0.00000000000E+00  0.00000000000E+00  0.45593999997E+02  0.45594000000E+02  0.51100000000E-03 0.  1.
         11   -1    0    0    0    0 -0.00000000000E+00 -0.00000000000E+00 -0.45593999997E+02  0.45594000000E+02  0.51100000000E-03 0. -1.
         23    2    1    2    0    0  0.00000000000E+00  0.00000000000E+00  0.00000000000E+00  0.91188000000E+02  0.91188000000E+02 0.  0.
    9900012    2    3    3    0    0 -0.25343207431E+02 -0.87947735957E+01  0.25221910031E+02  0.54367204909E+02  0.40000275231E+02 0.  0.
         12    1    3    3    0    0  0.25343207431E+02  0.87947735957E+01 -0.25221910031E+02  0.36820795091E+02  0.00000000000E+00 0. -1.
         11    1    4    4    0    0 -0.77193058388E+01  0.13691272338E+02  0.17017251836E+02  0.23165178203E+02  0.51100000000E-03 0. -1.
        -11    1    4    4    0    0 -0.39122310392E+01 -0.89055575567E+01 -0.10786553011E+01  0.97866237600E+01  0.51100000000E-03 0.  1.
         12    1    4    4    0    0 -0.13711670553E+02 -0.13580488377E+02  0.92833134960E+01  0.21415402947E+02  0.00000000000E+00 0. -1.
</event>
<event>
 8    1  0.2484572E-006  0.9118800E+02  0.7816164E-02  0.1184000E+00
        -11   -1    0    0    0    0  0.00000000000E+00  0.00000000000E+00  0.45593999997E+02  0.45594000000E+02  0.51100000000E-03 0. -1.
         11   -1    0    0    0    0 -0.00000000000E+00 -0.00000000000E+00 -0.45593999997E+02  0.45594000000E+02  0.51100000000E-03 0.  1.
         23    2    1    2    0    0  0.17763568394E-14  0.71054273576E-14  0.00000000000E+00  0.91188000000E+02  0.91188000000E+02 0.  0.
    9900012    2    3    3    0    0 -0.11343002337E+02  0.32904805109E+02  0.12016238951E+02  0.54367083392E+02  0.39999998209E+02 0.  0.
        -12    1    3    3    0    0  0.11343002337E+02 -0.32904805109E+02 -0.12016238951E+02  0.36820916608E+02  0.00000000000E+00 0.  1.
         11    1    4    4    0    0 -0.16856387144E+02  0.21085716277E+02  0.17025127932E+02  0.31915516600E+02  0.51100000000E-03 0. -1.
        -11    1    4    4    0    0  0.72773873326E+01  0.11854646202E+02  0.30173664657E+01  0.14233674986E+02  0.51100000000E-03 0.  1.
        -12    1    4    4    0    0 -0.17640025258E+01 -0.35557369030E-01 -0.80262554471E+01  0.82178918063E+01  0.00000000000E+00 0.  1.
</event>
<event>
 8    1  0.2484572E-006  0.9118800E+02  0.7816164E-02  0.1184000E+00
        -11   -1    0    0    0    0  0.00000000000E+00  0.00000000000E+00  0.45593999997E+02  0.45594000000E+02  0.51100000000E-03 0.  1.
         11   -1    0    0    0    0 -0.00000000000E+00 -0.00000000000E+00 -0.45593999997E+02  0.45594000000E+02  0.51100000000E-03 0. -1.
         23    2    1    2    0    0  0.00000000000E+00  0.00000000000E+00 -0.35527136788E-14  0.91188000000E+02  0.91188000000E+02 0.  0.
    9900012    2    3    3    0    0 -0.22275128561E+02 -0.16842483667E+01  0.29270512686E+02  0.54367069025E+02  0.39999965456E+02 0.  0.
         12    1    3    3    0    0  0.22275128561E+02  0.16842483667E+01 -0.29270512686E+02  0.36820930975E+02  0.00000000000E+00 0. -1.
         11    1    4    4    0    0  0.37888120641E+00  0.34194305676E+01 -0.37169695422E+00  0.34603779075E+01  0.51100000000E-03 0. -1.
        -11    1    4    4    0    0  0.50307845765E+01  0.71484317875E+01  0.14801925861E+02  0.17190284464E+02  0.51100000000E-03 0.  1.
         12    1    4    4    0    0 -0.27684794344E+02 -0.12252110722E+02  0.14840283779E+02  0.33716406654E+02  0.00000000000E+00 0. -1.
</event>
<event>
 8    1  0.2484572E-006  0.9118800E+02  0.7816164E-02  0.1184000E+00
        -11   -1    0    0    0    0  0.00000000000E+00  0.00000000000E+00  0.45593999997E+02  0.45594000000E+02  0.51100000000E-03 0.  1.
         11   -1    0    0    0    0 -0.00000000000E+00 -0.00000000000E+00 -0.45593999997E+02  0.45594000000E+02  0.51100000000E-03 0. -1.
         23    2    1    2    0    0  0.00000000000E+00  0.00000000000E+00  0.17763568394E-14  0.91188000000E+02  0.91188000000E+02 0.  0.
    9900012    2    3    3    0    0  0.23554431178E+02 -0.24615043579E+02 -0.13966721496E+02  0.54367069704E+02  0.39999967004E+02 0.  0.
        -12    1    3    3    0    0 -0.23554431178E+02  0.24615043579E+02  0.13966721496E+02  0.36820930296E+02  0.00000000000E+00 0.  1.
         11    1    4    4    0    0 -0.14143027424E+01 -0.95315835457E+01 -0.15313794637E+01  0.97568673486E+01  0.51100000000E-03 0. -1.
        -11    1    4    4    0    0  0.27082795278E+02 -0.18041337989E+02 -0.18578578563E+02  0.37471739461E+02  0.51100000000E-03 0.  1.
        -12    1    4    4    0    0 -0.21140613580E+01  0.29578779552E+01  0.61432365309E+01  0.71384628946E+01  0.00000000000E+00 0.  1.
</event>
<event>
 8    1  0.2484572E-006  0.9118800E+02  0.7816164E-02  0.1184000E+00
        -11   -1    0    0    0    0  0.00000000000E+00  0.00000000000E+00  0.45593999997E+02  0.45594000000E+02  0.51100000000E-03 0. -1.
         11   -1    0    0    0    0 -0.00000000000E+00 -0.00000000000E+00 -0.45593999997E+02  0.45594000000E+02  0.51100000000E-03 0.  1.
         23    2    1    2    0    0 -0.35527136788E-14 -0.17763568394E-14  0.35527136788E-14  0.91188000000E+02  0.91188000000E+02 0.  0.
    9900012    2    3    3    0    0 -0.26218962047E+02 -0.92242038162E+01 -0.24150779489E+02  0.54367081261E+02  0.39999993351E+02 0.  0.
         12    1    3    3    0    0  0.26218962047E+02  0.92242038162E+01  0.24150779489E+02  0.36820918739E+02  0.00000000000E+00 0. -1.
         11    1    4    4    0    0  0.72153170170E+01 -0.54643330430E+01 -0.71478182941E+01  0.11533041311E+02  0.51100000000E-03 0. -1.
        -11    1    4    4    0    0 -0.15585437454E+01  0.46329146930E+01  0.13974184255E+01  0.50838701474E+01  0.51100000000E-03 0.  1.
        -12    1    4    4    0    0 -0.31875735318E+02 -0.83927854662E+01 -0.18400379620E+02  0.37750169803E+02  0.00000000000E+00 0.  1.
</event>
<event>
 8    1  0.2484572E-006  0.9118800E+02  0.7816164E-02  0.1184000E+00
        -11   -1    0    0    0    0  0.00000000000E+00  0.00000000000E+00  0.45593999997E+02  0.45594000000E+02  0.51100000000E-03 0. -1.
         11   -1    0    0    0    0 -0.00000000000E+00 -0.00000000000E+00 -0.45593999997E+02  0.45594000000E+02  0.51100000000E-03 0.  1.
         23    2    1    2    0    0 -0.17763568394E-14  0.35527136788E-14  0.35527136788E-14  0.91188000000E+02  0.91188000000E+02 0.  0.
    9900012    2    3    3    0    0  0.87562936633E+01  0.30436371984E+02  0.18781161216E+02  0.54367116864E+02  0.40000074515E+02 0.  0.
        -12    1    3    3    0    0 -0.87562936633E+01 -0.30436371984E+02 -0.18781161216E+02  0.36820883136E+02  0.00000000000E+00 0.  1.
         11    1    4    4    0    0 -0.13066605448E+02  0.20688029771E+02  0.56804217569E+01  0.25119672477E+02  0.51100000000E-03 0. -1.
        -11    1    4    4    0    0 -0.49797448337E+00  0.19076792036E+01 -0.39509036728E+00  0.20107996393E+01  0.51100000000E-03 0.  1.
        -12    1    4    4    0    0  0.22320873594E+02  0.78406630091E+01  0.13495829827E+02  0.27236644748E+02  0.00000000000E+00 0.  1.
</event>
<event>
 8    1  0.2484572E-006  0.9118800E+02  0.7816164E-02  0.1184000E+00
        -11   -1    0    0    0    0  0.00000000000E+00  0.00000000000E+00  0.45593999997E+02  0.45594000000E+02  0.51100000000E-03 0. -1.
         11   -1    0    0    0    0 -0.00000000000E+00 -0.00000000000E+00 -0.45593999997E+02  0.45594000000E+02  0.51100000000E-03 0.  1.
         23    2    1    2    0    0  0.00000000000E+00  0.00000000000E+00  0.00000000000E+00  0.91188000000E+02  0.91188000000E+02 0.  0.
    9900012    2    3    3    0    0 -0.23214383699E+02  0.22947055908E+02 -0.17038366931E+02  0.54367069362E+02  0.39999966225E+02 0.  0.
         12    1    3    3    0    0  0.23214383699E+02 -0.22947055908E+02  0.17038366931E+02  0.36820930638E+02  0.00000000000E+00 0. -1.
         11    1    4    4    0    0 -0.21764205659E+02  0.15447839668E+02 -0.22352820280E+02  0.34813287307E+02  0.51100000000E-03 0. -1.
        -11    1    4    4    0    0  0.68115582999E+01  0.22568359227E+01 -0.18693229893E+01  0.74151873580E+01  0.51100000000E-03 0.  1.
         12    1    4    4    0    0 -0.82617363397E+01  0.52423803180E+01  0.71837763386E+01  0.12138594697E+02  0.00000000000E+00 0. -1.
</event>
<event>
 8    1  0.2484572E-006  0.9118800E+02  0.7816164E-02  0.1184000E+00
        -11   -1    0    0    0    0  0.00000000000E+00  0.00000000000E+00  0.45593999997E+02  0.45594000000E+02  0.51100000000E-03 0. -1.
         11   -1    0    0    0    0 -0.00000000000E+00 -0.00000000000E+00 -0.45593999997E+02  0.45594000000E+02  0.51100000000E-03 0.  1.
         23    2    1    2    0    0 -0.17763568394E-14  0.35527136788E-14  0.00000000000E+00  0.91188000000E+02  0.91188000000E+02 0.  0.
    9900012    2    3    3    0    0 -0.13206495913E+02  0.20439476177E+02  0.27633171068E+02  0.54367138197E+02  0.40000123147E+02 0.  0.
        -12    1    3    3    0    0  0.13206495913E+02 -0.20439476177E+02 -0.27633171068E+02  0.36820861803E+02  0.00000000000E+00 0.  1.
         11    1    4    4    0    0 -0.63675849681E+00  0.21573707469E+02  0.18479714227E+02  0.28413555806E+02  0.51100000000E-03 0. -1.
        -11    1    4    4    0    0 -0.13706765196E+02  0.52961362591E+01 -0.18629502385E-01  0.14694380515E+02  0.51100000000E-03 0.  1.
         12    1    4    4    0    0  0.11370277793E+01 -0.64303675511E+01  0.91720863425E+01  0.11259201876E+02  0.00000000000E+00 0. -1.
</event>
<event>
 8    1  0.2484572E-006  0.9118800E+02  0.7816164E-02  0.1184000E+00
        -11   -1    0    0    0    0  0.00000000000E+00  0.00000000000E+00  0.45593999997E+02  0.45594000000E+02  0.51100000000E-03 0.  1.
         11   -1    0    0    0    0 -0.00000000000E+00 -0.00000000000E+00 -0.45593999997E+02  0.45594000000E+02  0.51100000000E-03 0. -1.
         23    2    1    2    0    0  0.35527136788E-14  0.00000000000E+00 -0.16653345369E-15  0.91188000000E+02  0.91188000000E+02 0.  0.
    9900012    2    3    3    0    0 -0.16475083246E+02 -0.32926447666E+02 -0.44828441472E+00  0.54367078193E+02  0.39999986356E+02 0.  0.
        -12    1    3    3    0    0  0.16475083246E+02  0.32926447666E+02  0.44828441472E+00  0.36820921807E+02  0.00000000000E+00 0.  1.
         11    1    4    4    0    0 -0.54727846858E+01  0.65308284628E+00  0.85956791992E+01  0.10210954440E+02  0.51100000000E-03 0.  1.
        -11    1    4    4    0    0 -0.11175447490E+01 -0.23585453679E+02  0.51636900747E+01  0.24169944704E+02  0.51100000000E-03 0. -1.
         12    1    4    4    0    0 -0.98847538108E+01 -0.99940768327E+01 -0.14207653689E+02  0.19986179049E+02  0.00000000000E+00 0. -1.
</event>
<event>
 8    1  0.2484572E-006  0.9118800E+02  0.7816164E-02  0.1184000E+00
        -11   -1    0    0    0    0  0.00000000000E+00  0.00000000000E+00  0.45593999997E+02  0.45594000000E+02  0.51100000000E-03 0.  1.
         11   -1    0    0    0    0 -0.00000000000E+00 -0.00000000000E+00 -0.45593999997E+02  0.45594000000E+02  0.51100000000E-03 0. -1.
         23    2    1    2    0    0  0.00000000000E+00  0.35527136788E-14  0.35527136788E-14  0.91188000000E+02  0.91188000000E+02 0.  0.
    9900012    2    3    3    0    0 -0.18956327476E+02 -0.29309492240E+02 -0.11721376512E+02  0.54367090803E+02  0.40000015104E+02 0.  0.
        -12    1    3    3    0    0  0.18956327476E+02  0.29309492240E+02  0.11721376512E+02  0.36820909197E+02  0.00000000000E+00 0.  1.
         11    1    4    4    0    0  0.68548447462E+01 -0.41035155015E+01 -0.87174268645E+01  0.11824604322E+02  0.51100000000E-03 0. -1.
        -11    1    4    4    0    0 -0.75958181763E+01  0.15601855696E+01  0.49549108841E+01  0.92022700954E+01  0.51100000000E-03 0.  1.
        -12    1    4    4    0    0 -0.18215354045E+02 -0.26766162308E+02 -0.79588605315E+01  0.33340216386E+02  0.00000000000E+00 0.  1.
</event>
<event>
 8    1  0.2484572E-006  0.9118800E+02  0.7816164E-02  0.1184000E+00
        -11   -1    0    0    0    0  0.00000000000E+00  0.00000000000E+00  0.45593999997E+02  0.45594000000E+02  0.51100000000E-03 0.  1.
         11   -1    0    0    0    0 -0.00000000000E+00 -0.00000000000E+00 -0.45593999997E+02  0.45594000000E+02  0.51100000000E-03 0. -1.
         23    2    1    2    0    0  0.00000000000E+00  0.00000000000E+00 -0.35527136788E-14  0.91188000000E+02  0.91188000000E+02 0.  0.
    9900012    2    3    3    0    0 -0.32937016523E+01 -0.18051654517E+02 -0.31922846889E+02  0.54367097582E+02  0.40000030557E+02 0.  0.
        -12    1    3    3    0    0  0.32937016523E+01  0.18051654517E+02  0.31922846889E+02  0.36820902418E+02  0.00000000000E+00 0.  1.
         11    1    4    4    0    0  0.18068723067E+01  0.11221922567E+01 -0.33954658770E+02  0.34021213315E+02  0.51100000000E-03 0. -1.
        -11    1    4    4    0    0 -0.38239261912E+01 -0.72745453677E+01  0.70610129770E-01  0.82186621706E+01  0.51100000000E-03 0.  1.
         12    1    4    4    0    0 -0.12766477678E+01 -0.11899301406E+02  0.19612017507E+01  0.12127222096E+02  0.00000000000E+00 0. -1.
</event>
<event>
 8    1  0.2484572E-006  0.9118800E+02  0.7816164E-02  0.1184000E+00
        -11   -1    0    0    0    0  0.00000000000E+00  0.00000000000E+00  0.45593999997E+02  0.45594000000E+02  0.51100000000E-03 0.  1.
         11   -1    0    0    0    0 -0.00000000000E+00 -0.00000000000E+00 -0.45593999997E+02  0.45594000000E+02  0.51100000000E-03 0. -1.
         23    2    1    2    0    0  0.00000000000E+00  0.00000000000E+00 -0.44408920985E-15  0.91188000000E+02  0.91188000000E+02 0.  0.
    9900012    2    3    3    0    0  0.32580868855E+02  0.17138972989E+02 -0.72292397113E+00  0.54367081631E+02  0.39999994195E+02 0.  0.
         12    1    3    3    0    0 -0.32580868855E+02 -0.17138972989E+02  0.72292397113E+00  0.36820918369E+02  0.00000000000E+00 0. -1.
         11    1    4    4    0    0  0.25178094029E+02  0.26250467331E+02  0.46135868391E+01  0.36664814712E+02  0.51100000000E-03 0. -1.
        -11    1    4    4    0    0 -0.38653592188E+00 -0.38244387065E+01  0.31942744731E+01  0.49979126752E+01  0.51100000000E-03 0.  1.
         12    1    4    4    0    0  0.77893107473E+01 -0.52870556359E+01 -0.85307852834E+01  0.12704354244E+02  0.00000000000E+00 0. -1.
</event>
<event>
 8    1  0.2484572E-006  0.9118800E+02  0.7816164E-02  0.1184000E+00
        -11   -1    0    0    0    0  0.00000000000E+00  0.00000000000E+00  0.45593999997E+02  0.45594000000E+02  0.51100000000E-03 0.  1.
         11   -1    0    0    0    0 -0.00000000000E+00 -0.00000000000E+00 -0.45593999997E+02  0.45594000000E+02  0.51100000000E-03 0. -1.
         23    2    1    2    0    0  0.00000000000E+00  0.00000000000E+00  0.35527136788E-14  0.91188000000E+02  0.91188000000E+02 0.  0.
    9900012    2    3    3    0    0 -0.13278999290E+02 -0.23251835624E+02  0.25274562087E+02  0.54367038976E+02  0.39999896954E+02 0.  0.
         12    1    3    3    0    0  0.13278999290E+02  0.23251835624E+02 -0.25274562087E+02  0.36820961024E+02  0.00000000000E+00 0. -1.
         11    1    4    4    0    0 -0.20688851738E+02 -0.13343394609E+02  0.55610871354E+01  0.25238867968E+02  0.51100000000E-03 0. -1.
        -11    1    4    4    0    0  0.55474813297E+01 -0.74764402012E+00  0.18937916972E+02  0.19747866218E+02  0.51100000000E-03 0.  1.
         12    1    4    4    0    0  0.18623711186E+01 -0.91607969947E+01  0.77555797973E+00  0.93803047894E+01  0.00000000000E+00 0. -1.
</event>
<event>
 8    1  0.2484572E-006  0.9118800E+02  0.7816164E-02  0.1184000E+00
        -11   -1    0    0    0    0  0.00000000000E+00  0.00000000000E+00  0.45593999997E+02  0.45594000000E+02  0.51100000000E-03 0. -1.
         11   -1    0    0    0    0 -0.00000000000E+00 -0.00000000000E+00 -0.45593999997E+02  0.45594000000E+02  0.51100000000E-03 0.  1.
         23    2    1    2    0    0  0.00000000000E+00 -0.35527136788E-14  0.00000000000E+00  0.91188000000E+02  0.91188000000E+02 0.  0.
    9900012    2    3    3    0    0  0.10656265641E+02 -0.28539337598E+02  0.20681645139E+02  0.54367078861E+02  0.39999987878E+02 0.  0.
        -12    1    3    3    0    0 -0.10656265641E+02  0.28539337598E+02 -0.20681645139E+02  0.36820921139E+02  0.00000000000E+00 0.  1.
         11    1    4    4    0    0  0.70156113986E+01 -0.63762477476E+01  0.84576331514E+01  0.12704601427E+02  0.51100000000E-03 0. -1.
        -11    1    4    4    0    0  0.17167362285E+02 -0.52631597079E+01  0.77557962745E+01  0.19559436445E+02  0.51100000000E-03 0.  1.
        -12    1    4    4    0    0 -0.13526708043E+02 -0.16899930142E+02  0.44682157128E+01  0.22103040989E+02  0.00000000000E+00 0.  1.
</event>
<event>
 8    1  0.2484572E-006  0.9118800E+02  0.7816164E-02  0.1184000E+00
        -11   -1    0    0    0    0  0.00000000000E+00  0.00000000000E+00  0.45593999997E+02  0.45594000000E+02  0.51100000000E-03 0.  1.
         11   -1    0    0    0    0 -0.00000000000E+00 -0.00000000000E+00 -0.45593999997E+02  0.45594000000E+02  0.51100000000E-03 0. -1.
         23    2    1    2    0    0  0.35527136788E-14  0.35527136788E-14 -0.17763568394E-14  0.91188000000E+02  0.91188000000E+02 0.  0.
    9900012    2    3    3    0    0  0.28885705768E+02  0.17831522037E+02 -0.14262967067E+02  0.54367090106E+02  0.40000013515E+02 0.  0.
        -12    1    3    3    0    0 -0.28885705768E+02 -0.17831522037E+02  0.14262967067E+02  0.36820909894E+02  0.00000000000E+00 0.  1.
         11    1    4    4    0    0  0.25684919733E+01 -0.10454002784E+01 -0.23016017516E+01  0.36038012769E+01  0.51100000000E-03 0. -1.
        -11    1    4    4    0    0  0.16015497109E+02 -0.69272209741E+01  0.50739564935E+01  0.18172164781E+02  0.51100000000E-03 0.  1.
         12    1    4    4    0    0  0.10301716685E+02  0.25804143289E+02 -0.17035321809E+02  0.32591124048E+02  0.00000000000E+00 0. -1.
</event>
<event>
 8    1  0.2484572E-006  0.9118800E+02  0.7816164E-02  0.1184000E+00
        -11   -1    0    0    0    0  0.00000000000E+00  0.00000000000E+00  0.45593999997E+02  0.45594000000E+02  0.51100000000E-03 0.  1.
         11   -1    0    0    0    0 -0.00000000000E+00 -0.00000000000E+00 -0.45593999997E+02  0.45594000000E+02  0.51100000000E-03 0. -1.
         23    2    1    2    0    0  0.00000000000E+00  0.00000000000E+00  0.00000000000E+00  0.91188000000E+02  0.91188000000E+02 0.  0.
    9900012    2    3    3    0    0 -0.50661678778E+01 -0.35851662252E+02 -0.66911738060E+01  0.54367088141E+02  0.40000009035E+02 0.  0.
        -12    1    3    3    0    0  0.50661678778E+01  0.35851662252E+02  0.66911738060E+01  0.36820911859E+02  0.00000000000E+00 0.  1.
         11    1    4    4    0    0 -0.18205466435E+01  0.17325871224E+01  0.33063220464E+01  0.41530728327E+01  0.51100000000E-03 0. -1.
        -11    1    4    4    0    0 -0.15505415268E+02 -0.88851226388E+01 -0.54024882398E+01  0.18669498825E+02  0.51100000000E-03 0.  1.
         12    1    4    4    0    0  0.12259794034E+02 -0.28699126736E+02 -0.45950076126E+01  0.31544516483E+02  0.00000000000E+00 0. -1.
</event>
<event>
 8    1  0.2484572E-006  0.9118800E+02  0.7816164E-02  0.1184000E+00
        -11   -1    0    0    0    0  0.00000000000E+00  0.00000000000E+00  0.45593999997E+02  0.45594000000E+02  0.51100000000E-03 0.  1.
         11   -1    0    0    0    0 -0.00000000000E+00 -0.00000000000E+00 -0.45593999997E+02  0.45594000000E+02  0.51100000000E-03 0. -1.
         23    2    1    2    0    0 -0.71054273576E-14  0.00000000000E+00  0.00000000000E+00  0.91188000000E+02  0.91188000000E+02 0.  0.
    9900012    2    3    3    0    0  0.34501549058E+02  0.10356200411E+02  0.76270695389E+01  0.54367082520E+02  0.39999996220E+02 0.  0.
         12    1    3    3    0    0 -0.34501549058E+02 -0.10356200411E+02 -0.76270695389E+01  0.36820917480E+02  0.00000000000E+00 0. -1.
         11    1    4    4    0    0  0.41108367021E+01  0.17321621546E+02 -0.34505910070E+01  0.18134059941E+02  0.51100000000E-03 0. -1.
        -11    1    4    4    0    0  0.11708968075E+02 -0.93435884322E+01  0.13614893425E+01  0.15041816103E+02  0.51100000000E-03 0.  1.
         12    1    4    4    0    0  0.18681744280E+02  0.23781672966E+01  0.97161712034E+01  0.21191206476E+02  0.00000000000E+00 0. -1.
</event>
<event>
 8    1  0.2484572E-006  0.9118800E+02  0.7816164E-02  0.1184000E+00
        -11   -1    0    0    0    0  0.00000000000E+00  0.00000000000E+00  0.45593999997E+02  0.45594000000E+02  0.51100000000E-03 0.  1.
         11   -1    0    0    0    0 -0.00000000000E+00 -0.00000000000E+00 -0.45593999997E+02  0.45594000000E+02  0.51100000000E-03 0. -1.
         23    2    1    2    0    0  0.00000000000E+00  0.17763568394E-14  0.00000000000E+00  0.91188000000E+02  0.91188000000E+02 0.  0.
    9900012    2    3    3    0    0 -0.26144371103E+02  0.99814178025E+01  0.23929569281E+02  0.54367066719E+02  0.39999960199E+02 0.  0.
        -12    1    3    3    0    0  0.26144371103E+02 -0.99814178025E+01 -0.23929569281E+02  0.36820933281E+02  0.00000000000E+00 0.  1.
         11    1    4    4    0    0  0.42083657706E+01  0.43676181667E+01 -0.39851380667E+01  0.72572554441E+01  0.51100000000E-03 0. -1.
        -11    1    4    4    0    0 -0.24363546839E+02  0.13593783065E+02  0.19259396054E+02  0.33901293326E+02  0.51100000000E-03 0.  1.
        -12    1    4    4    0    0 -0.59891900350E+01 -0.79799834290E+01  0.86553112936E+01  0.13208517948E+02  0.00000000000E+00 0.  1.
</event>
<event>
 8    1  0.2484572E-006  0.9118800E+02  0.7816164E-02  0.1184000E+00
        -11   -1    0    0    0    0  0.00000000000E+00  0.00000000000E+00  0.45593999997E+02  0.45594000000E+02  0.51100000000E-03 0. -1.
         11   -1    0    0    0    0 -0.00000000000E+00 -0.00000000000E+00 -0.45593999997E+02  0.45594000000E+02  0.51100000000E-03 0.  1.
         23    2    1    2    0    0 -0.35527136788E-14  0.00000000000E+00  0.00000000000E+00  0.91188000000E+02  0.91188000000E+02 0.  0.
    9900012    2    3    3    0    0 -0.87275287427E+01 -0.21026442170E+02 -0.28939561319E+02  0.54367092385E+02  0.40000018709E+02 0.  0.
         12    1    3    3    0    0  0.87275287427E+01  0.21026442170E+02  0.28939561319E+02  0.36820907615E+02  0.00000000000E+00 0. -1.
         11    1    4    4    0    0 -0.16576902941E+01 -0.36888835802E+01 -0.34220716381E+00  0.40586826906E+01  0.51100000000E-03 0. -1.
        -11    1    4    4    0    0 -0.19489827698E+02  0.68522932754E+00 -0.13387897747E+02  0.23654993750E+02  0.51100000000E-03 0.  1.
        -12    1    4    4    0    0  0.12419989250E+02 -0.18022787917E+02 -0.15209456408E+02  0.26653415944E+02  0.00000000000E+00 0.  1.
</event>
<event>
 8    1  0.2484572E-006  0.9118800E+02  0.7816164E-02  0.1184000E+00
        -11   -1    0    0    0    0  0.00000000000E+00  0.00000000000E+00  0.45593999997E+02  0.45594000000E+02  0.51100000000E-03 0.  1.
         11   -1    0    0    0    0 -0.00000000000E+00 -0.00000000000E+00 -0.45593999997E+02  0.45594000000E+02  0.51100000000E-03 0. -1.
         23    2    1    2    0    0  0.35527136788E-14 -0.35527136788E-14  0.00000000000E+00  0.91188000000E+02  0.91188000000E+02 0.  0.
    9900012    2    3    3    0    0  0.27347022684E+02  0.22752957496E+02 -0.94985978705E+01  0.54367080864E+02  0.39999992446E+02 0.  0.
         12    1    3    3    0    0 -0.27347022684E+02 -0.22752957496E+02  0.94985978705E+01  0.36820919136E+02  0.00000000000E+00 0. -1.
         11    1    4    4    0    0 -0.14348999967E+01  0.16913414825E+02 -0.10703640517E+02  0.20067148767E+02  0.51100000000E-03 0. -1.
        -11    1    4    4    0    0 -0.24489970180E+01  0.10128078324E+01 -0.26959518939E+00  0.26638408223E+01  0.51100000000E-03 0.  1.
        -12    1    4    4    0    0  0.31230919699E+02  0.48267348379E+01  0.14746378356E+01  0.31636091275E+02  0.00000000000E+00 0.  1.
</event>
<event>
 8    1  0.2484572E-006  0.9118800E+02  0.7816164E-02  0.1184000E+00
        -11   -1    0    0    0    0  0.00000000000E+00  0.00000000000E+00  0.45593999997E+02  0.45594000000E+02  0.51100000000E-03 0. -1.
         11   -1    0    0    0    0 -0.00000000000E+00 -0.00000000000E+00 -0.45593999997E+02  0.45594000000E+02  0.51100000000E-03 0.  1.
         23    2    1    2    0    0  0.88817841970E-15  0.00000000000E+00  0.00000000000E+00  0.91188000000E+02  0.91188000000E+02 0.  0.
    9900012    2    3    3    0    0  0.30694304096E+01 -0.36326532199E+02 -0.51711620446E+01  0.54367092060E+02  0.40000017970E+02 0.  0.
        -12    1    3    3    0    0 -0.30694304096E+01  0.36326532199E+02  0.51711620446E+01  0.36820907940E+02  0.00000000000E+00 0.  1.
         11    1    4    4    0    0  0.62213791043E+01 -0.28277466679E+02  0.11652325047E+01  0.28977205642E+02  0.51100000000E-03 0. -1.
        -11    1    4    4    0    0  0.60648437217E+01  0.54968024119E+01 -0.16648690150E+01  0.83527812866E+01  0.51100000000E-03 0.  1.
        -12    1    4    4    0    0 -0.92167924165E+01 -0.13545867931E+02 -0.46715255343E+01  0.17037105132E+02  0.00000000000E+00 0.  1.
</event>
<event>
 8    1  0.2484572E-006  0.9118800E+02  0.7816164E-02  0.1184000E+00
        -11   -1    0    0    0    0  0.00000000000E+00  0.00000000000E+00  0.45593999997E+02  0.45594000000E+02  0.51100000000E-03 0.  1.
         11   -1    0    0    0    0 -0.00000000000E+00 -0.00000000000E+00 -0.45593999997E+02  0.45594000000E+02  0.51100000000E-03 0. -1.
         23    2    1    2    0    0  0.66613381478E-15  0.71054273576E-14 -0.66613381478E-15  0.91188000000E+02  0.91188000000E+02 0.  0.
    9900012    2    3    3    0    0 -0.10016607324E+01 -0.36803654397E+02 -0.51928217107E+00  0.54367055483E+02  0.39999934584E+02 0.  0.
         12    1    3    3    0    0  0.10016607324E+01  0.36803654397E+02  0.51928217107E+00  0.36820944517E+02  0.00000000000E+00 0. -1.
         11    1    4    4    0    0  0.87230328373E+01 -0.16970966912E+02 -0.74389947706E+01  0.20480323808E+02  0.51100000000E-03 0. -1.
        -11    1    4    4    0    0 -0.40660861374E+01  0.11971907292E+01 -0.68972436698E+01  0.80955724085E+01  0.51100000000E-03 0.  1.
        -12    1    4    4    0    0 -0.56586074323E+01 -0.21029878214E+02  0.13816956269E+02  0.25791159266E+02  0.00000000000E+00 0.  1.
</event>
<event>
 8    1  0.2484572E-006  0.9118800E+02  0.7816164E-02  0.1184000E+00
        -11   -1    0    0    0    0  0.00000000000E+00  0.00000000000E+00  0.45593999997E+02  0.45594000000E+02  0.51100000000E-03 0.  1.
         11   -1    0    0    0    0 -0.00000000000E+00 -0.00000000000E+00 -0.45593999997E+02  0.45594000000E+02  0.51100000000E-03 0. -1.
         23    2    1    2    0    0  0.00000000000E+00  0.00000000000E+00  0.00000000000E+00  0.91188000000E+02  0.91188000000E+02 0.  0.
    9900012    2    3    3    0    0  0.30232093909E+02 -0.17262100176E+02 -0.11992475093E+02  0.54367094750E+02  0.40000024101E+02 0.  0.
        -12    1    3    3    0    0 -0.30232093909E+02  0.17262100176E+02  0.11992475093E+02  0.36820905250E+02  0.00000000000E+00 0.  1.
         11    1    4    4    0    0  0.92964260829E+01 -0.18337378407E+02 -0.78680590394E+00  0.20574305542E+02  0.51100000000E-03 0. -1.
        -11    1    4    4    0    0  0.15243963084E+01  0.73672448578E+00  0.69854701048E+01  0.71877214692E+01  0.51100000000E-03 0.  1.
         12    1    4    4    0    0  0.19411271518E+02  0.33855374521E+00 -0.18191139293E+02  0.26605067738E+02  0.00000000000E+00 0. -1.
</event>
<event>
 8    1  0.2484572E-006  0.9118800E+02  0.7816164E-02  0.1184000E+00
        -11   -1    0    0    0    0  0.00000000000E+00  0.00000000000E+00  0.45593999997E+02  0.45594000000E+02  0.51100000000E-03 0. -1.
         11   -1    0    0    0    0 -0.00000000000E+00 -0.00000000000E+00 -0.45593999997E+02  0.45594000000E+02  0.51100000000E-03 0.  1.
         23    2    1    2    0    0 -0.35527136788E-14 -0.17763568394E-14  0.35527136788E-14  0.91188000000E+02  0.91188000000E+02 0.  0.
    9900012    2    3    3    0    0 -0.16286036987E+02  0.15664638276E+02  0.29071774782E+02  0.54367027959E+02  0.39999871839E+02 0.  0.
        -12    1    3    3    0    0  0.16286036987E+02 -0.15664638276E+02 -0.29071774782E+02  0.36820972041E+02  0.00000000000E+00 0.  1.
         11    1    4    4    0    0 -0.81623479513E+01 -0.82452951183E+01  0.21207317497E+02  0.24173521286E+02  0.51100000000E-03 0. -1.
        -11    1    4    4    0    0  0.13186047205E+01  0.23505426636E+01  0.60069709249E+01  0.65838794928E+01  0.51100000000E-03 0.  1.
        -12    1    4    4    0    0 -0.94422937563E+01  0.21559390730E+02  0.18574863600E+01  0.23609627181E+02  0.00000000000E+00 0.  1.
</event>
<event>
 8    1  0.2484572E-006  0.9118800E+02  0.7816164E-02  0.1184000E+00
        -11   -1    0    0    0    0  0.00000000000E+00  0.00000000000E+00  0.45593999997E+02  0.45594000000E+02  0.51100000000E-03 0.  1.
         11   -1    0    0    0    0 -0.00000000000E+00 -0.00000000000E+00 -0.45593999997E+02  0.45594000000E+02  0.51100000000E-03 0. -1.
         23    2    1    2    0    0  0.26645352591E-14  0.00000000000E+00  0.88817841970E-15  0.91188000000E+02  0.91188000000E+02 0.  0.
    9900012    2    3    3    0    0 -0.59200601504E+01  0.35899849004E+02  0.56522732859E+01  0.54366885623E+02  0.39999547352E+02 0.  0.
        -12    1    3    3    0    0  0.59200601504E+01 -0.35899849004E+02 -0.56522732859E+01  0.36821114377E+02  0.00000000000E+00 0.  1.
         11    1    4    4    0    0  0.12702932104E+02  0.87544340004E+01 -0.35434406640E+01  0.15829105177E+02  0.51100000000E-03 0. -1.
        -11    1    4    4    0    0 -0.20276949332E+02  0.18105071299E+02  0.10721579216E+02  0.29221576653E+02  0.51100000000E-03 0.  1.
         12    1    4    4    0    0  0.16539570778E+01  0.90403437043E+01 -0.15258652658E+01  0.93162037932E+01  0.00000000000E+00 0. -1.
</event>
<event>
 8    1  0.2484572E-006  0.9118800E+02  0.7816164E-02  0.1184000E+00
        -11   -1    0    0    0    0  0.00000000000E+00  0.00000000000E+00  0.45593999997E+02  0.45594000000E+02  0.51100000000E-03 0. -1.
         11   -1    0    0    0    0 -0.00000000000E+00 -0.00000000000E+00 -0.45593999997E+02  0.45594000000E+02  0.51100000000E-03 0.  1.
         23    2    1    2    0    0  0.17763568394E-14 -0.17763568394E-14  0.00000000000E+00  0.91188000000E+02  0.91188000000E+02 0.  0.
    9900012    2    3    3    0    0  0.10970040698E+02  0.97903103162E+01  0.33757817550E+02  0.54367051957E+02  0.39999926547E+02 0.  0.
        -12    1    3    3    0    0 -0.10970040698E+02 -0.97903103162E+01 -0.33757817550E+02  0.36820948043E+02  0.00000000000E+00 0.  1.
         11    1    4    4    0    0  0.12385737856E+01  0.16082883978E+02  0.26608007020E+02  0.31115579054E+02  0.51100000000E-03 0. -1.
        -11    1    4    4    0    0 -0.31059909845E+01 -0.38958189760E+00  0.84994386972E+01  0.90575610668E+01  0.51100000000E-03 0.  1.
        -12    1    4    4    0    0  0.12837457897E+02 -0.59029917639E+01 -0.13496281665E+01  0.14193911836E+02  0.00000000000E+00 0.  1.
</event>
<event>
 8    1  0.2484572E-006  0.9118800E+02  0.7816164E-02  0.1184000E+00
        -11   -1    0    0    0    0  0.00000000000E+00  0.00000000000E+00  0.45593999997E+02  0.45594000000E+02  0.51100000000E-03 0. -1.
         11   -1    0    0    0    0 -0.00000000000E+00 -0.00000000000E+00 -0.45593999997E+02  0.45594000000E+02  0.51100000000E-03 0.  1.
         23    2    1    2    0    0 -0.35527136788E-14  0.00000000000E+00  0.44408920985E-15  0.91188000000E+02  0.91188000000E+02 0.  0.
    9900012    2    3    3    0    0 -0.31162544502E+02  0.19342834695E+02 -0.32450355276E+01  0.54367086250E+02  0.40000004723E+02 0.  0.
        -12    1    3    3    0    0  0.31162544502E+02 -0.19342834695E+02  0.32450355276E+01  0.36820913750E+02  0.00000000000E+00 0.  1.
         11    1    4    4    0    0 -0.16844634001E+02  0.61000150994E+01  0.15234774475E+02  0.23517020058E+02  0.51100000000E-03 0. -1.
        -11    1    4    4    0    0 -0.29729737575E+01  0.14992193055E+01 -0.13313825281E+02  0.13723854246E+02  0.51100000000E-03 0.  1.
         12    1    4    4    0    0 -0.11344936743E+02  0.11743600290E+02 -0.51659847213E+01  0.17126211946E+02  0.00000000000E+00 0. -1.
</event>
<event>
 8    1  0.2484572E-006  0.9118800E+02  0.7816164E-02  0.1184000E+00
        -11   -1    0    0    0    0  0.00000000000E+00  0.00000000000E+00  0.45593999997E+02  0.45594000000E+02  0.51100000000E-03 0.  1.
         11   -1    0    0    0    0 -0.00000000000E+00 -0.00000000000E+00 -0.45593999997E+02  0.45594000000E+02  0.51100000000E-03 0. -1.
         23    2    1    2    0    0  0.71054273576E-14  0.17763568394E-14  0.00000000000E+00  0.91188000000E+02  0.91188000000E+02 0.  0.
    9900012    2    3    3    0    0 -0.35578423758E+02 -0.72239523120E+01 -0.61457000505E+01  0.54367090815E+02  0.40000015131E+02 0.  0.
        -12    1    3    3    0    0  0.35578423758E+02  0.72239523120E+01  0.61457000505E+01  0.36820909185E+02  0.00000000000E+00 0.  1.
         11    1    4    4    0    0 -0.27638379275E+02 -0.52685043724E+01  0.50360878073E+01  0.28583200099E+02  0.51100000000E-03 0. -1.
        -11    1    4    4    0    0 -0.13429820568E+02  0.50289672933E+01 -0.72502742602E+01  0.16069134066E+02  0.51100000000E-03 0.  1.
        -12    1    4    4    0    0  0.54897760843E+01 -0.69844152329E+01 -0.39315135976E+01  0.97147566500E+01  0.00000000000E+00 0.  1.
</event>
<event>
 8    1  0.2484572E-006  0.9118800E+02  0.7816164E-02  0.1184000E+00
        -11   -1    0    0    0    0  0.00000000000E+00  0.00000000000E+00  0.45593999997E+02  0.45594000000E+02  0.51100000000E-03 0.  1.
         11   -1    0    0    0    0 -0.00000000000E+00 -0.00000000000E+00 -0.45593999997E+02  0.45594000000E+02  0.51100000000E-03 0. -1.
         23    2    1    2    0    0  0.71054273576E-14  0.00000000000E+00  0.00000000000E+00  0.91188000000E+02  0.91188000000E+02 0.  0.
    9900012    2    3    3    0    0 -0.25618729699E+02  0.25868005047E+02 -0.55051860415E+01  0.54367081084E+02  0.39999992947E+02 0.  0.
         12    1    3    3    0    0  0.25618729699E+02 -0.25868005047E+02  0.55051860415E+01  0.36820918916E+02  0.00000000000E+00 0. -1.
         11    1    4    4    0    0  0.46454861238E+01  0.44422461515E+01 -0.26710366399E+01  0.69604977688E+01  0.51100000000E-03 0. -1.
        -11    1    4    4    0    0  0.84718123506E+00  0.15615411263E+02 -0.17845727115E+01  0.15739869281E+02  0.51100000000E-03 0.  1.
         12    1    4    4    0    0 -0.31111397058E+02  0.58103476317E+01 -0.10495766900E+01  0.31666714034E+02  0.00000000000E+00 0. -1.
</event>
<event>
 8    1  0.2484572E-006  0.9118800E+02  0.7816164E-02  0.1184000E+00
        -11   -1    0    0    0    0  0.00000000000E+00  0.00000000000E+00  0.45593999997E+02  0.45594000000E+02  0.51100000000E-03 0. -1.
         11   -1    0    0    0    0 -0.00000000000E+00 -0.00000000000E+00 -0.45593999997E+02  0.45594000000E+02  0.51100000000E-03 0.  1.
         23    2    1    2    0    0 -0.35527136788E-14 -0.35527136788E-14  0.00000000000E+00  0.91188000000E+02  0.91188000000E+02 0.  0.
    9900012    2    3    3    0    0  0.25931904902E+02  0.24386550549E+02  0.94134456988E+01  0.54367075250E+02  0.39999979647E+02 0.  0.
        -12    1    3    3    0    0 -0.25931904902E+02 -0.24386550549E+02 -0.94134456988E+01  0.36820924750E+02  0.00000000000E+00 0.  1.
         11    1    4    4    0    0  0.13041257116E+02  0.17683144425E+02 -0.75940021918E+00  0.21985101157E+02  0.51100000000E-03 0. -1.
        -11    1    4    4    0    0  0.62875522060E+01 -0.47336616870E+01 -0.71268857853E+01  0.10617597043E+02  0.51100000000E-03 0.  1.
        -12    1    4    4    0    0  0.66030955797E+01  0.11437067811E+02  0.17299731703E+02  0.21764377049E+02  0.00000000000E+00 0.  1.
</event>
<event>
 8    1  0.2484572E-006  0.9118800E+02  0.7816164E-02  0.1184000E+00
        -11   -1    0    0    0    0  0.00000000000E+00  0.00000000000E+00  0.45593999997E+02  0.45594000000E+02  0.51100000000E-03 0.  1.
         11   -1    0    0    0    0 -0.00000000000E+00 -0.00000000000E+00 -0.45593999997E+02  0.45594000000E+02  0.51100000000E-03 0. -1.
         23    2    1    2    0    0 -0.35527136788E-14  0.00000000000E+00  0.00000000000E+00  0.91188000000E+02  0.91188000000E+02 0.  0.
    9900012    2    3    3    0    0 -0.29576238149E+02  0.12641613881E+02 -0.17922498315E+02  0.54367079175E+02  0.39999988596E+02 0.  0.
        -12    1    3    3    0    0  0.29576238149E+02 -0.12641613881E+02  0.17922498315E+02  0.36820920825E+02  0.00000000000E+00 0.  1.
         11    1    4    4    0    0 -0.22235508234E+02  0.91109626329E+01  0.63493588446E+01  0.24854412576E+02  0.51100000000E-03 0. -1.
        -11    1    4    4    0    0 -0.26425603687E+01 -0.50663486334E+01 -0.39317777571E+01  0.69361293507E+01  0.51100000000E-03 0.  1.
         12    1    4    4    0    0 -0.46981695464E+01  0.85969998814E+01 -0.20340079402E+02  0.22576537249E+02  0.00000000000E+00 0. -1.
</event>
<event>
 8    1  0.2484572E-006  0.9118800E+02  0.7816164E-02  0.1184000E+00
        -11   -1    0    0    0    0  0.00000000000E+00  0.00000000000E+00  0.45593999997E+02  0.45594000000E+02  0.51100000000E-03 0.  1.
         11   -1    0    0    0    0 -0.00000000000E+00 -0.00000000000E+00 -0.45593999997E+02  0.45594000000E+02  0.51100000000E-03 0. -1.
         23    2    1    2    0    0  0.00000000000E+00 -0.44408920985E-15  0.00000000000E+00  0.91188000000E+02  0.91188000000E+02 0.  0.
    9900012    2    3    3    0    0  0.23499877690E+02  0.82214324814E+00  0.28334801460E+02  0.54367066488E+02  0.39999959672E+02 0.  0.
         12    1    3    3    0    0 -0.23499877690E+02 -0.82214324814E+00 -0.28334801460E+02  0.36820933512E+02  0.00000000000E+00 0. -1.
         11    1    4    4    0    0 -0.77779812234E+01  0.64353396788E+01  0.63249816202E+01  0.11912849426E+02  0.51100000000E-03 0. -1.
        -11    1    4    4    0    0  0.34091627907E+01 -0.55419746715E+01 -0.64555399368E+00  0.65385483414E+01  0.51100000000E-03 0.  1.
        -12    1    4    4    0    0  0.27868696122E+02 -0.71221759127E-01  0.22655373833E+02  0.35915668720E+02  0.00000000000E+00 0.  1.
</event>
<event>
 8    1  0.2484572E-006  0.9118800E+02  0.7816164E-02  0.1184000E+00
        -11   -1    0    0    0    0  0.00000000000E+00  0.00000000000E+00  0.45593999997E+02  0.45594000000E+02  0.51100000000E-03 0. -1.
         11   -1    0    0    0    0 -0.00000000000E+00 -0.00000000000E+00 -0.45593999997E+02  0.45594000000E+02  0.51100000000E-03 0.  1.
         23    2    1    2    0    0 -0.35527136788E-14 -0.44408920985E-15  0.00000000000E+00  0.91188000000E+02  0.91188000000E+02 0.  0.
    9900012    2    3    3    0    0  0.26906783594E+02 -0.10339419421E+01  0.25114481488E+02  0.54367065469E+02  0.39999957349E+02 0.  0.
        -12    1    3    3    0    0 -0.26906783594E+02  0.10339419421E+01 -0.25114481488E+02  0.36820934531E+02  0.00000000000E+00 0.  1.
         11    1    4    4    0    0 -0.10678387765E+01  0.10819318028E+01  0.22581941741E+02  0.22633049930E+02  0.51100000000E-03 0. -1.
        -11    1    4    4    0    0  0.91770595138E+01  0.61857301001E+01  0.13767625914E+01  0.11152450569E+02  0.51100000000E-03 0.  1.
         12    1    4    4    0    0  0.18797562857E+02 -0.83016038450E+01  0.11557771557E+01  0.20581564970E+02  0.00000000000E+00 0. -1.
</event>
<event>
 8    1  0.2484572E-006  0.9118800E+02  0.7816164E-02  0.1184000E+00
        -11   -1    0    0    0    0  0.00000000000E+00  0.00000000000E+00  0.45593999997E+02  0.45594000000E+02  0.51100000000E-03 0.  1.
         11   -1    0    0    0    0 -0.00000000000E+00 -0.00000000000E+00 -0.45593999997E+02  0.45594000000E+02  0.51100000000E-03 0. -1.
         23    2    1    2    0    0  0.00000000000E+00  0.00000000000E+00  0.35527136788E-14  0.91188000000E+02  0.91188000000E+02 0.  0.
    9900012    2    3    3    0    0 -0.79335233940E+01  0.19442767709E+02  0.30245950220E+02  0.54367088627E+02  0.40000010143E+02 0.  0.
         12    1    3    3    0    0  0.79335233940E+01 -0.19442767709E+02 -0.30245950220E+02  0.36820911373E+02  0.00000000000E+00 0. -1.
         11    1    4    4    0    0  0.29310540411E+01  0.16719577767E+02  0.44753919476E+01  0.17554614546E+02  0.51100000000E-03 0. -1.
        -11    1    4    4    0    0 -0.10739016145E+02 -0.82883975266E+01  0.75566277075E+01  0.15528252441E+02  0.51100000000E-03 0.  1.
        -12    1    4    4    0    0 -0.12556129049E+00  0.11011587469E+02  0.18213930565E+02  0.21284221640E+02  0.00000000000E+00 0.  1.
</event>
<event>
 8    1  0.2484572E-006  0.9118800E+02  0.7816164E-02  0.1184000E+00
        -11   -1    0    0    0    0  0.00000000000E+00  0.00000000000E+00  0.45593999997E+02  0.45594000000E+02  0.51100000000E-03 0.  1.
         11   -1    0    0    0    0 -0.00000000000E+00 -0.00000000000E+00 -0.45593999997E+02  0.45594000000E+02  0.51100000000E-03 0. -1.
         23    2    1    2    0    0  0.00000000000E+00  0.00000000000E+00  0.88817841970E-15  0.91188000000E+02  0.91188000000E+02 0.  0.
    9900012    2    3    3    0    0 -0.36011471346E+02  0.70632107446E+01  0.30107481026E+01  0.54367087211E+02  0.40000006914E+02 0.  0.
         12    1    3    3    0    0  0.36011471346E+02 -0.70632107446E+01 -0.30107481026E+01  0.36820912789E+02  0.00000000000E+00 0. -1.
         11    1    4    4    0    0  0.30467680602E+00  0.71415598383E+01 -0.11107859723E+02  0.13209059496E+02  0.51100000000E-03 0. -1.
        -11    1    4    4    0    0 -0.22781934561E+02  0.39907263471E+01  0.13978194195E+02  0.27024661928E+02  0.51100000000E-03 0.  1.
         12    1    4    4    0    0 -0.13534213591E+02 -0.40690754408E+01  0.14041363097E+00  0.14133365786E+02  0.00000000000E+00 0. -1.
</event>
<event>
 8    1  0.2484572E-006  0.9118800E+02  0.7816164E-02  0.1184000E+00
        -11   -1    0    0    0    0  0.00000000000E+00  0.00000000000E+00  0.45593999997E+02  0.45594000000E+02  0.51100000000E-03 0.  1.
         11   -1    0    0    0    0 -0.00000000000E+00 -0.00000000000E+00 -0.45593999997E+02  0.45594000000E+02  0.51100000000E-03 0. -1.
         23    2    1    2    0    0 -0.88817841970E-15 -0.71054273576E-14  0.17763568394E-14  0.91188000000E+02  0.91188000000E+02 0.  0.
    9900012    2    3    3    0    0 -0.54940147615E+01 -0.32970906718E+02  0.15443936614E+02  0.54367081134E+02  0.39999993060E+02 0.  0.
         12    1    3    3    0    0  0.54940147615E+01  0.32970906718E+02 -0.15443936614E+02  0.36820918866E+02  0.00000000000E+00 0. -1.
         11    1    4    4    0    0  0.88826330323E+00  0.77626932604E+00 -0.94138706696E+01  0.94874952968E+01  0.51100000000E-03 0. -1.
        -11    1    4    4    0    0  0.11283101654E+01 -0.43196224006E+00 -0.13644156573E+01  0.18224449383E+01  0.51100000000E-03 0.  1.
        -12    1    4    4    0    0 -0.75105882301E+01 -0.33315213804E+02  0.26222222941E+02  0.43057140899E+02  0.00000000000E+00 0.  1.
</event>
<event>
 8    1  0.2484572E-006  0.9118800E+02  0.7816164E-02  0.1184000E+00
        -11   -1    0    0    0    0  0.00000000000E+00  0.00000000000E+00  0.45593999997E+02  0.45594000000E+02  0.51100000000E-03 0. -1.
         11   -1    0    0    0    0 -0.00000000000E+00 -0.00000000000E+00 -0.45593999997E+02  0.45594000000E+02  0.51100000000E-03 0.  1.
         23    2    1    2    0    0  0.44408920985E-15  0.00000000000E+00  0.00000000000E+00  0.91188000000E+02  0.91188000000E+02 0.  0.
    9900012    2    3    3    0    0  0.26456431707E+01 -0.16816611982E+02 -0.32649364641E+02  0.54367097271E+02  0.40000029848E+02 0.  0.
         12    1    3    3    0    0 -0.26456431707E+01  0.16816611982E+02  0.32649364641E+02  0.36820902729E+02  0.00000000000E+00 0. -1.
         11    1    4    4    0    0  0.17912678928E+01 -0.99919405919E+00 -0.60460696798E+01  0.63845115918E+01  0.51100000000E-03 0. -1.
        -11    1    4    4    0    0  0.17360690402E+02 -0.15236179228E+02 -0.18454433979E+02  0.29565196811E+02  0.51100000000E-03 0.  1.
         12    1    4    4    0    0 -0.16506315124E+02 -0.58123869404E+00 -0.81488609818E+01  0.18417388868E+02  0.00000000000E+00 0. -1.
</event>
<event>
 8    1  0.2484572E-006  0.9118800E+02  0.7816164E-02  0.1184000E+00
        -11   -1    0    0    0    0  0.00000000000E+00  0.00000000000E+00  0.45593999997E+02  0.45594000000E+02  0.51100000000E-03 0.  1.
         11   -1    0    0    0    0 -0.00000000000E+00 -0.00000000000E+00 -0.45593999997E+02  0.45594000000E+02  0.51100000000E-03 0. -1.
         23    2    1    2    0    0  0.44408920985E-15  0.00000000000E+00 -0.35527136788E-14  0.91188000000E+02  0.91188000000E+02 0.  0.
    9900012    2    3    3    0    0  0.22100579331E+01  0.32975004181E+02 -0.16234083749E+02  0.54367072092E+02  0.39999972448E+02 0.  0.
        -12    1    3    3    0    0 -0.22100579331E+01 -0.32975004181E+02  0.16234083749E+02  0.36820927908E+02  0.00000000000E+00 0.  1.
         11    1    4    4    0    0  0.23212413150E+00  0.26858365305E+02  0.18124518017E+01  0.26920450410E+02  0.51100000000E-03 0. -1.
        -11    1    4    4    0    0  0.16338485568E+01  0.99504073880E+01 -0.11870118176E+01  0.10153278565E+02  0.51100000000E-03 0.  1.
        -12    1    4    4    0    0  0.34408524485E+00 -0.38337685116E+01 -0.16859523734E+02  0.17293343118E+02  0.00000000000E+00 0.  1.
</event>
<event>
 8    1  0.2484572E-006  0.9118800E+02  0.7816164E-02  0.1184000E+00
        -11   -1    0    0    0    0  0.00000000000E+00  0.00000000000E+00  0.45593999997E+02  0.45594000000E+02  0.51100000000E-03 0. -1.
         11   -1    0    0    0    0 -0.00000000000E+00 -0.00000000000E+00 -0.45593999997E+02  0.45594000000E+02  0.51100000000E-03 0.  1.
         23    2    1    2    0    0 -0.22204460493E-14  0.00000000000E+00 -0.88817841970E-15  0.91188000000E+02  0.91188000000E+02 0.  0.
    9900012    2    3    3    0    0  0.22803161979E+01  0.36100339646E+02 -0.68807726347E+01  0.54367090226E+02  0.40000013788E+02 0.  0.
         12    1    3    3    0    0 -0.22803161979E+01 -0.36100339646E+02  0.68807726347E+01  0.36820909774E+02  0.00000000000E+00 0. -1.
         11    1    4    4    0    0  0.14785087529E+02  0.72971108179E+01  0.15463936299E+01  0.16560132036E+02  0.51100000000E-03 0. -1.
        -11    1    4    4    0    0 -0.56153390872E+01 -0.83006503948E+00 -0.42647127515E+01  0.70999166297E+01  0.51100000000E-03 0.  1.
         12    1    4    4    0    0 -0.68894322442E+01  0.29633293868E+02 -0.41624535130E+01  0.30707041560E+02  0.00000000000E+00 0. -1.
</event>
<event>
 8    1  0.2484572E-006  0.9118800E+02  0.7816164E-02  0.1184000E+00
        -11   -1    0    0    0    0  0.00000000000E+00  0.00000000000E+00  0.45593999997E+02  0.45594000000E+02  0.51100000000E-03 0.  1.
         11   -1    0    0    0    0 -0.00000000000E+00 -0.00000000000E+00 -0.45593999997E+02  0.45594000000E+02  0.51100000000E-03 0. -1.
         23    2    1    2    0    0  0.17763568394E-14  0.00000000000E+00 -0.26645352591E-14  0.91188000000E+02  0.91188000000E+02 0.  0.
    9900012    2    3    3    0    0  0.73981028474E+01 -0.35658352505E+02 -0.54341218934E+01  0.54367085972E+02  0.40000004091E+02 0.  0.
        -12    1    3    3    0    0 -0.73981028474E+01  0.35658352505E+02  0.54341218934E+01  0.36820914028E+02  0.00000000000E+00 0.  1.
         11    1    4    4    0    0  0.18474487709E+02 -0.13894916110E+02 -0.15311185787E+02  0.27727383582E+02  0.51100000000E-03 0. -1.
        -11    1    4    4    0    0 -0.97574716835E+01 -0.17924002318E+02  0.66830805502E+01  0.21474209616E+02  0.51100000000E-03 0.  1.
         12    1    4    4    0    0 -0.13189131782E+01 -0.38394340773E+01  0.31939833432E+01  0.51654927744E+01  0.00000000000E+00 0. -1.
</event>
<event>
 8    1  0.2484572E-006  0.9118800E+02  0.7816164E-02  0.1184000E+00
        -11   -1    0    0    0    0  0.00000000000E+00  0.00000000000E+00  0.45593999997E+02  0.45594000000E+02  0.51100000000E-03 0. -1.
         11   -1    0    0    0    0 -0.00000000000E+00 -0.00000000000E+00 -0.45593999997E+02  0.45594000000E+02  0.51100000000E-03 0.  1.
         23    2    1    2    0    0  0.00000000000E+00  0.00000000000E+00 -0.33306690739E-15  0.91188000000E+02  0.91188000000E+02 0.  0.
    9900012    2    3    3    0    0 -0.21473510315E+02 -0.29904625765E+02  0.61762597343E+00  0.54367085438E+02  0.40000002872E+02 0.  0.
        -12    1    3    3    0    0  0.21473510315E+02  0.29904625765E+02 -0.61762597343E+00  0.36820914562E+02  0.00000000000E+00 0.  1.
         11    1    4    4    0    0  0.24179956100E+01  0.14974955881E+01 -0.43694522525E+01  0.52135697036E+01  0.51100000000E-03 0. -1.
        -11    1    4    4    0    0 -0.81775867324E+01 -0.11719207764E+02 -0.12094375479E+02  0.18721289322E+02  0.51100000000E-03 0.  1.
         12    1    4    4    0    0 -0.15713919192E+02 -0.19682913589E+02  0.17081453705E+02  0.30432226412E+02  0.00000000000E+00 0. -1.
</event>
<event>
 8    1  0.2484572E-006  0.9118800E+02  0.7816164E-02  0.1184000E+00
        -11   -1    0    0    0    0  0.00000000000E+00  0.00000000000E+00  0.45593999997E+02  0.45594000000E+02  0.51100000000E-03 0.  1.
         11   -1    0    0    0    0 -0.00000000000E+00 -0.00000000000E+00 -0.45593999997E+02  0.45594000000E+02  0.51100000000E-03 0. -1.
         23    2    1    2    0    0  0.00000000000E+00 -0.71054273576E-14  0.17763568394E-14  0.91188000000E+02  0.91188000000E+02 0.  0.
    9900012    2    3    3    0    0 -0.95836204049E+01 -0.33977144334E+02 -0.10463584273E+02  0.54367099508E+02  0.40000034949E+02 0.  0.
        -12    1    3    3    0    0  0.95836204049E+01  0.33977144334E+02  0.10463584273E+02  0.36820900492E+02  0.00000000000E+00 0.  1.
         11    1    4    4    0    0 -0.10279317399E+00  0.90941420191E+00  0.27395022631E+01  0.28883340419E+01  0.51100000000E-03 0. -1.
        -11    1    4    4    0    0 -0.63876972639E+01  0.19403568320E+01  0.67382674169E+01  0.94853523400E+01  0.51100000000E-03 0.  1.
         12    1    4    4    0    0 -0.30931299670E+01 -0.36826915368E+02 -0.19941353953E+02  0.41993413126E+02  0.00000000000E+00 0. -1.
</event>
<event>
 8    1  0.2484572E-006  0.9118800E+02  0.7816164E-02  0.1184000E+00
        -11   -1    0    0    0    0  0.00000000000E+00  0.00000000000E+00  0.45593999997E+02  0.45594000000E+02  0.51100000000E-03 0.  1.
         11   -1    0    0    0    0 -0.00000000000E+00 -0.00000000000E+00 -0.45593999997E+02  0.45594000000E+02  0.51100000000E-03 0. -1.
         23    2    1    2    0    0  0.35527136788E-14 -0.35527136788E-14  0.17763568394E-14  0.91188000000E+02  0.91188000000E+02 0.  0.
    9900012    2    3    3    0    0 -0.19332867680E+02  0.27681394712E+02 -0.14688772629E+02  0.54367089809E+02  0.40000012837E+02 0.  0.
        -12    1    3    3    0    0  0.19332867680E+02 -0.27681394712E+02  0.14688772629E+02  0.36820910191E+02  0.00000000000E+00 0.  1.
         11    1    4    4    0    0 -0.10251724439E+02  0.28580812830E+02 -0.12267711410E+02  0.32748396288E+02  0.51100000000E-03 0. -1.
        -11    1    4    4    0    0 -0.40930928332E+01  0.87231181962E+01  0.21219499404E+01  0.98665531882E+01  0.51100000000E-03 0.  1.
         12    1    4    4    0    0 -0.49880504086E+01 -0.96225363136E+01 -0.45430111603E+01  0.11752140332E+02  0.00000000000E+00 0. -1.
</event>
<event>
 8    1  0.2484572E-006  0.9118800E+02  0.7816164E-02  0.1184000E+00
        -11   -1    0    0    0    0  0.00000000000E+00  0.00000000000E+00  0.45593999997E+02  0.45594000000E+02  0.51100000000E-03 0. -1.
         11   -1    0    0    0    0 -0.00000000000E+00 -0.00000000000E+00 -0.45593999997E+02  0.45594000000E+02  0.51100000000E-03 0.  1.
         23    2    1    2    0    0  0.00000000000E+00 -0.35527136788E-14  0.35527136788E-14  0.91188000000E+02  0.91188000000E+02 0.  0.
    9900012    2    3    3    0    0  0.31305684476E+01  0.25551163132E+02  0.26327125285E+02  0.54367083092E+02  0.39999997524E+02 0.  0.
         12    1    3    3    0    0 -0.31305684476E+01 -0.25551163132E+02 -0.26327125285E+02  0.36820916908E+02  0.00000000000E+00 0. -1.
         11    1    4    4    0    0 -0.67607902361E+01 -0.44620577259E+01  0.53552891988E+01  0.97106831083E+01  0.51100000000E-03 0. -1.
        -11    1    4    4    0    0  0.13853740143E+01  0.18843154054E+00  0.12401418263E+02  0.12479981683E+02  0.51100000000E-03 0.  1.
        -12    1    4    4    0    0  0.85059846694E+01  0.29824789317E+02  0.85704178231E+01  0.32176418301E+02  0.00000000000E+00 0.  1.
</event>
<event>
 8    1  0.2484572E-006  0.9118800E+02  0.7816164E-02  0.1184000E+00
        -11   -1    0    0    0    0  0.00000000000E+00  0.00000000000E+00  0.45593999997E+02  0.45594000000E+02  0.51100000000E-03 0.  1.
         11   -1    0    0    0    0 -0.00000000000E+00 -0.00000000000E+00 -0.45593999997E+02  0.45594000000E+02  0.51100000000E-03 0. -1.
         23    2    1    2    0    0  0.71054273576E-14  0.00000000000E+00  0.17763568394E-14  0.91188000000E+02  0.91188000000E+02 0.  0.
    9900012    2    3    3    0    0  0.32280403092E+02  0.16241315635E+02  0.70693076057E+01  0.54367083834E+02  0.39999999216E+02 0.  0.
        -12    1    3    3    0    0 -0.32280403092E+02 -0.16241315635E+02 -0.70693076057E+01  0.36820916166E+02  0.00000000000E+00 0.  1.
         11    1    4    4    0    0 -0.84354576093E+00  0.28464714168E+01 -0.34153635772E+01  0.45253372916E+01  0.51100000000E-03 0. -1.
        -11    1    4    4    0    0  0.23622992747E+02 -0.81160577196E+01  0.78294514118E+01  0.26176640138E+02  0.51100000000E-03 0.  1.
         12    1    4    4    0    0  0.95009561054E+01  0.21510901938E+02  0.26552197711E+01  0.23665106404E+02  0.00000000000E+00 0. -1.
</event>
<event>
 8    1  0.2484572E-006  0.9118800E+02  0.7816164E-02  0.1184000E+00
        -11   -1    0    0    0    0  0.00000000000E+00  0.00000000000E+00  0.45593999997E+02  0.45594000000E+02  0.51100000000E-03 0.  1.
         11   -1    0    0    0    0 -0.00000000000E+00 -0.00000000000E+00 -0.45593999997E+02  0.45594000000E+02  0.51100000000E-03 0. -1.
         23    2    1    2    0    0  0.35527136788E-14  0.35527136788E-14 -0.88817841970E-15  0.91188000000E+02  0.91188000000E+02 0.  0.
    9900012    2    3    3    0    0  0.25294796561E+02  0.26415368752E+02 -0.42638391839E+01  0.54367098817E+02  0.40000033372E+02 0.  0.
        -12    1    3    3    0    0 -0.25294796561E+02 -0.26415368752E+02  0.42638391839E+01  0.36820901183E+02  0.00000000000E+00 0.  1.
         11    1    4    4    0    0  0.21330314787E+02  0.12612734501E+02 -0.97132822362E+00  0.24799332234E+02  0.51100000000E-03 0. -1.
        -11    1    4    4    0    0  0.10358161891E+02 -0.21908921640E+01 -0.59423368822E+01  0.12140959357E+02  0.51100000000E-03 0.  1.
         12    1    4    4    0    0 -0.63936801167E+01  0.15993526416E+02  0.26498259218E+01  0.17426807225E+02  0.00000000000E+00 0. -1.
</event>
<event>
 8    1  0.2484572E-006  0.9118800E+02  0.7816164E-02  0.1184000E+00
        -11   -1    0    0    0    0  0.00000000000E+00  0.00000000000E+00  0.45593999997E+02  0.45594000000E+02  0.51100000000E-03 0. -1.
         11   -1    0    0    0    0 -0.00000000000E+00 -0.00000000000E+00 -0.45593999997E+02  0.45594000000E+02  0.51100000000E-03 0.  1.
         23    2    1    2    0    0 -0.17763568394E-14  0.00000000000E+00 -0.35527136788E-14  0.91188000000E+02  0.91188000000E+02 0.  0.
    9900012    2    3    3    0    0 -0.93231141159E+01  0.15879140534E+02 -0.31885923830E+02  0.54367086114E+02  0.40000004415E+02 0.  0.
         12    1    3    3    0    0  0.93231141159E+01 -0.15879140534E+02  0.31885923830E+02  0.36820913886E+02  0.00000000000E+00 0. -1.
         11    1    4    4    0    0 -0.19407163066E+02  0.21466610032E+01 -0.21339350042E+02  0.28924280323E+02  0.51100000000E-03 0. -1.
        -11    1    4    4    0    0  0.34523502500E+01 -0.32013403553E+01 -0.37829597015E+01  0.60397091555E+01  0.51100000000E-03 0.  1.
         12    1    4    4    0    0  0.66316986998E+01  0.16933819886E+02 -0.67636140864E+01  0.19403096636E+02  0.00000000000E+00 0. -1.
</event>
<event>
 8    1  0.2484572E-006  0.9118800E+02  0.7816164E-02  0.1184000E+00
        -11   -1    0    0    0    0  0.00000000000E+00  0.00000000000E+00  0.45593999997E+02  0.45594000000E+02  0.51100000000E-03 0.  1.
         11   -1    0    0    0    0 -0.00000000000E+00 -0.00000000000E+00 -0.45593999997E+02  0.45594000000E+02  0.51100000000E-03 0. -1.
         23    2    1    2    0    0  0.00000000000E+00  0.00000000000E+00  0.00000000000E+00  0.91188000000E+02  0.91188000000E+02 0.  0.
    9900012    2    3    3    0    0 -0.13043850721E+02 -0.18967304829E+02  0.28738262770E+02  0.54366967408E+02  0.39999733799E+02 0.  0.
         12    1    3    3    0    0  0.13043850721E+02  0.18967304829E+02 -0.28738262770E+02  0.36821032592E+02  0.00000000000E+00 0. -1.
         11    1    4    4    0    0 -0.38374596843E+01 -0.18262737982E+01 -0.14102492298E+01  0.44777422844E+01  0.51100000000E-03 0. -1.
        -11    1    4    4    0    0  0.22465221267E+01 -0.41552936543E+01  0.32117432398E+02  0.32462944893E+02  0.51100000000E-03 0.  1.
         12    1    4    4    0    0 -0.11452913163E+02 -0.12985737376E+02 -0.19689203980E+01  0.17426280230E+02  0.00000000000E+00 0. -1.
</event>
<event>
 8    1  0.2484572E-006  0.9118800E+02  0.7816164E-02  0.1184000E+00
        -11   -1    0    0    0    0  0.00000000000E+00  0.00000000000E+00  0.45593999997E+02  0.45594000000E+02  0.51100000000E-03 0.  1.
         11   -1    0    0    0    0 -0.00000000000E+00 -0.00000000000E+00 -0.45593999997E+02  0.45594000000E+02  0.51100000000E-03 0. -1.
         23    2    1    2    0    0 -0.17763568394E-14  0.00000000000E+00  0.00000000000E+00  0.91188000000E+02  0.91188000000E+02 0.  0.
    9900012    2    3    3    0    0  0.86372990206E+01  0.14875504913E+02 -0.32555997397E+02  0.54367128918E+02  0.40000101993E+02 0.  0.
        -12    1    3    3    0    0 -0.86372990206E+01 -0.14875504913E+02  0.32555997397E+02  0.36820871082E+02  0.00000000000E+00 0.  1.
         11    1    4    4    0    0 -0.25720255024E+01  0.75712929047E+01 -0.49024245801E+01  0.93794220749E+01  0.51100000000E-03 0. -1.
        -11    1    4    4    0    0  0.19849322121E+02 -0.43307547539E+01 -0.20364717110E+02  0.28765825708E+02  0.51100000000E-03 0.  1.
        -12    1    4    4    0    0 -0.86399975983E+01  0.11634966762E+02 -0.72888557066E+01  0.16221881135E+02  0.00000000000E+00 0.  1.
</event>
<event>
 8    1  0.2484572E-006  0.9118800E+02  0.7816164E-02  0.1184000E+00
        -11   -1    0    0    0    0  0.00000000000E+00  0.00000000000E+00  0.45593999997E+02  0.45594000000E+02  0.51100000000E-03 0. -1.
         11   -1    0    0    0    0 -0.00000000000E+00 -0.00000000000E+00 -0.45593999997E+02  0.45594000000E+02  0.51100000000E-03 0.  1.
         23    2    1    2    0    0 -0.71054273576E-14  0.00000000000E+00  0.00000000000E+00  0.91188000000E+02  0.91188000000E+02 0.  0.
    9900012    2    3    3    0    0  0.36510131622E+02  0.22390040915E+01 -0.42173877614E+01  0.54366956969E+02  0.39999710001E+02 0.  0.
         12    1    3    3    0    0 -0.36510131622E+02 -0.22390040915E+01  0.42173877614E+01  0.36821043031E+02  0.00000000000E+00 0. -1.
         11    1    4    4    0    0  0.22773367508E+01  0.45394788593E+01  0.60434786673E+01  0.78940968865E+01  0.51100000000E-03 0. -1.
        -11    1    4    4    0    0  0.15611317545E+02 -0.18241145667E+01  0.10251068211E+02  0.18764994782E+02  0.51100000000E-03 0.  1.
         12    1    4    4    0    0  0.18621477326E+02 -0.47636020110E+00 -0.20511934640E+02  0.27707865301E+02  0.00000000000E+00 0. -1.
</event>
<event>
 8    1  0.2484572E-006  0.9118800E+02  0.7816164E-02  0.1184000E+00
        -11   -1    0    0    0    0  0.00000000000E+00  0.00000000000E+00  0.45593999997E+02  0.45594000000E+02  0.51100000000E-03 0. -1.
         11   -1    0    0    0    0 -0.00000000000E+00 -0.00000000000E+00 -0.45593999997E+02  0.45594000000E+02  0.51100000000E-03 0.  1.
         23    2    1    2    0    0 -0.17763568394E-14  0.00000000000E+00  0.35527136788E-14  0.91188000000E+02  0.91188000000E+02 0.  0.
    9900012    2    3    3    0    0  0.10358583448E+02 -0.24636720174E+02 -0.25328052592E+02  0.54367102671E+02  0.40000042160E+02 0.  0.
         12    1    3    3    0    0 -0.10358583448E+02  0.24636720174E+02  0.25328052592E+02  0.36820897329E+02  0.00000000000E+00 0. -1.
         11    1    4    4    0    0  0.58200013345E+01 -0.12994936143E+02 -0.95201980664E+01  0.17128191743E+02  0.51100000000E-03 0. -1.
        -11    1    4    4    0    0  0.13048641186E+02 -0.17780706400E+02 -0.15085945694E+02  0.26720896590E+02  0.51100000000E-03 0.  1.
         12    1    4    4    0    0 -0.85100590720E+01  0.61389223684E+01 -0.72190883128E+00  0.10518014338E+02  0.00000000000E+00 0. -1.
</event>
<event>
 8    1  0.2484572E-006  0.9118800E+02  0.7816164E-02  0.1184000E+00
        -11   -1    0    0    0    0  0.00000000000E+00  0.00000000000E+00  0.45593999997E+02  0.45594000000E+02  0.51100000000E-03 0. -1.
         11   -1    0    0    0    0 -0.00000000000E+00 -0.00000000000E+00 -0.45593999997E+02  0.45594000000E+02  0.51100000000E-03 0.  1.
         23    2    1    2    0    0  0.00000000000E+00  0.00000000000E+00  0.00000000000E+00  0.91188000000E+02  0.91188000000E+02 0.  0.
    9900012    2    3    3    0    0 -0.92787753781E+01  0.17363060780E+02 -0.31116024370E+02  0.54367102065E+02  0.40000040777E+02 0.  0.
         12    1    3    3    0    0  0.92787753781E+01 -0.17363060780E+02  0.31116024370E+02  0.36820897935E+02  0.00000000000E+00 0. -1.
         11    1    4    4    0    0 -0.55521426646E+01  0.10289501119E+02 -0.18655365435E+02  0.22016420717E+02  0.51100000000E-03 0.  1.
        -11    1    4    4    0    0  0.30192001797E+01 -0.99883762517E+01 -0.87819955851E+01  0.13638426470E+02  0.51100000000E-03 0. -1.
        -12    1    4    4    0    0 -0.67458328932E+01  0.17061935913E+02 -0.36786633498E+01  0.18712254877E+02  0.00000000000E+00 0.  1.
</event>
<event>
 8    1  0.2484572E-006  0.9118800E+02  0.7816164E-02  0.1184000E+00
        -11   -1    0    0    0    0  0.00000000000E+00  0.00000000000E+00  0.45593999997E+02  0.45594000000E+02  0.51100000000E-03 0. -1.
         11   -1    0    0    0    0 -0.00000000000E+00 -0.00000000000E+00 -0.45593999997E+02  0.45594000000E+02  0.51100000000E-03 0.  1.
         23    2    1    2    0    0 -0.17763568394E-14  0.00000000000E+00  0.00000000000E+00  0.91188000000E+02  0.91188000000E+02 0.  0.
    9900012    2    3    3    0    0 -0.11308243789E+02 -0.26058365834E+02  0.23427865678E+02  0.54367086136E+02  0.40000004464E+02 0.  0.
        -12    1    3    3    0    0  0.11308243789E+02  0.26058365834E+02 -0.23427865678E+02  0.36820913864E+02  0.00000000000E+00 0.  1.
         11    1    4    4    0    0  0.40400072612E+01  0.43731632203E+01  0.50018960927E+01  0.77759359569E+01  0.51100000000E-03 0. -1.
        -11    1    4    4    0    0 -0.11164396696E+02 -0.10977327191E+02 -0.44444413897E+01  0.16275703529E+02  0.51100000000E-03 0.  1.
         12    1    4    4    0    0 -0.41838543542E+01 -0.19454201864E+02  0.22870410975E+02  0.30315446650E+02  0.00000000000E+00 0. -1.
</event>
<event>
 8    1  0.2484572E-006  0.9118800E+02  0.7816164E-02  0.1184000E+00
        -11   -1    0    0    0    0  0.00000000000E+00  0.00000000000E+00  0.45593999997E+02  0.45594000000E+02  0.51100000000E-03 0.  1.
         11   -1    0    0    0    0 -0.00000000000E+00 -0.00000000000E+00 -0.45593999997E+02  0.45594000000E+02  0.51100000000E-03 0. -1.
         23    2    1    2    0    0  0.00000000000E+00  0.00000000000E+00  0.00000000000E+00  0.91188000000E+02  0.91188000000E+02 0.  0.
    9900012    2    3    3    0    0 -0.58512085363E+01  0.35193477250E+02  0.91084076825E+01  0.54367074254E+02  0.39999977378E+02 0.  0.
        -12    1    3    3    0    0  0.58512085363E+01 -0.35193477250E+02 -0.91084076825E+01  0.36820925746E+02  0.00000000000E+00 0.  1.
         11    1    4    4    0    0 -0.58125628988E+01  0.32598293651E+02 -0.62454705974E+01  0.33696298605E+02  0.51100000000E-03 0. -1.
        -11    1    4    4    0    0 -0.56828853365E+01  0.15191367759E+01  0.21363729185E+01  0.62583585548E+01  0.51100000000E-03 0.  1.
         12    1    4    4    0    0  0.56442396990E+01  0.10760468228E+01  0.13217505361E+02  0.14412417095E+02  0.00000000000E+00 0. -1.
</event>
<event>
 8    1  0.2484572E-006  0.9118800E+02  0.7816164E-02  0.1184000E+00
        -11   -1    0    0    0    0  0.00000000000E+00  0.00000000000E+00  0.45593999997E+02  0.45594000000E+02  0.51100000000E-03 0.  1.
         11   -1    0    0    0    0 -0.00000000000E+00 -0.00000000000E+00 -0.45593999997E+02  0.45594000000E+02  0.51100000000E-03 0. -1.
         23    2    1    2    0    0 -0.35527136788E-14 -0.44408920985E-14  0.00000000000E+00  0.91188000000E+02  0.91188000000E+02 0.  0.
    9900012    2    3    3    0    0 -0.18286969023E+02 -0.45077010359E+01 -0.31639292585E+02  0.54367116796E+02  0.40000074359E+02 0.  0.
        -12    1    3    3    0    0  0.18286969023E+02  0.45077010359E+01  0.31639292585E+02  0.36820883204E+02  0.00000000000E+00 0.  1.
         11    1    4    4    0    0 -0.40284530003E+01  0.32530859893E+01 -0.18438939873E+01  0.54964486104E+01  0.51100000000E-03 0. -1.
        -11    1    4    4    0    0 -0.11029266688E+02  0.11547173348E+02 -0.23296932656E+02  0.28244096860E+02  0.51100000000E-03 0.  1.
        -12    1    4    4    0    0 -0.32292493348E+01 -0.19307960373E+02 -0.64984659409E+01  0.20626571325E+02  0.00000000000E+00 0.  1.
</event>
<event>
 8    1  0.2484572E-006  0.9118800E+02  0.7816164E-02  0.1184000E+00
        -11   -1    0    0    0    0  0.00000000000E+00  0.00000000000E+00  0.45593999997E+02  0.45594000000E+02  0.51100000000E-03 0.  1.
         11   -1    0    0    0    0 -0.00000000000E+00 -0.00000000000E+00 -0.45593999997E+02  0.45594000000E+02  0.51100000000E-03 0. -1.
         23    2    1    2    0    0  0.00000000000E+00  0.00000000000E+00  0.71054273576E-14  0.91188000000E+02  0.91188000000E+02 0.  0.
    9900012    2    3    3    0    0 -0.23741370373E+02 -0.19848777288E+02 -0.19953823327E+02  0.54367059051E+02  0.39999942718E+02 0.  0.
        -12    1    3    3    0    0  0.23741370373E+02  0.19848777288E+02  0.19953823327E+02  0.36820940949E+02  0.00000000000E+00 0.  1.
         11    1    4    4    0    0  0.81671499862E+01 -0.56034297555E+01  0.47285289527E+00  0.99158637568E+01  0.51100000000E-03 0. -1.
        -11    1    4    4    0    0  0.18341071138E+01 -0.30477764727E+01 -0.23387466281E+00  0.35647703925E+01  0.51100000000E-03 0.  1.
         12    1    4    4    0    0 -0.33742627473E+02 -0.11197571060E+02 -0.20192801560E+02  0.40886424902E+02  0.00000000000E+00 0. -1.
</event>
<event>
 8    1  0.2484572E-006  0.9118800E+02  0.7816164E-02  0.1184000E+00
        -11   -1    0    0    0    0  0.00000000000E+00  0.00000000000E+00  0.45593999997E+02  0.45594000000E+02  0.51100000000E-03 0. -1.
         11   -1    0    0    0    0 -0.00000000000E+00 -0.00000000000E+00 -0.45593999997E+02  0.45594000000E+02  0.51100000000E-03 0.  1.
         23    2    1    2    0    0  0.17763568394E-14  0.17763568394E-14  0.00000000000E+00  0.91188000000E+02  0.91188000000E+02 0.  0.
    9900012    2    3    3    0    0 -0.10457085010E+02 -0.11880346825E+02  0.33245842018E+02  0.54367091821E+02  0.40000017425E+02 0.  0.
        -12    1    3    3    0    0  0.10457085010E+02  0.11880346825E+02 -0.33245842018E+02  0.36820908179E+02  0.00000000000E+00 0.  1.
         11    1    4    4    0    0 -0.13583155337E+02 -0.70436261715E+01  0.20381609690E+02  0.25485776275E+02  0.51100000000E-03 0. -1.
        -11    1    4    4    0    0 -0.66125989129E+01 -0.99376489325E+01 -0.29939642869E-01  0.11936675724E+02  0.51100000000E-03 0.  1.
         12    1    4    4    0    0  0.97386692403E+01  0.51009282789E+01  0.12894171972E+02  0.16944639822E+02  0.00000000000E+00 0. -1.
</event>
<event>
 8    1  0.2484572E-006  0.9118800E+02  0.7816164E-02  0.1184000E+00
        -11   -1    0    0    0    0  0.00000000000E+00  0.00000000000E+00  0.45593999997E+02  0.45594000000E+02  0.51100000000E-03 0. -1.
         11   -1    0    0    0    0 -0.00000000000E+00 -0.00000000000E+00 -0.45593999997E+02  0.45594000000E+02  0.51100000000E-03 0.  1.
         23    2    1    2    0    0  0.00000000000E+00  0.00000000000E+00  0.35527136788E-14  0.91188000000E+02  0.91188000000E+02 0.  0.
    9900012    2    3    3    0    0 -0.18028915076E+02  0.11623534603E+02  0.29927115324E+02  0.54367074331E+02  0.39999977553E+02 0.  0.
        -12    1    3    3    0    0  0.18028915076E+02 -0.11623534603E+02 -0.29927115324E+02  0.36820925669E+02  0.00000000000E+00 0.  1.
         11    1    4    4    0    0 -0.32996206257E+00  0.89971626573E+01  0.13592118923E+02  0.16303481466E+02  0.51100000000E-03 0. -1.
        -11    1    4    4    0    0  0.63833739631E+01  0.67551410299E+01  0.13257764925E+01  0.93881349083E+01  0.51100000000E-03 0.  1.
         12    1    4    4    0    0 -0.24082326977E+02 -0.41287690843E+01  0.15009219908E+02  0.28675457957E+02  0.00000000000E+00 0. -1.
</event>
<event>
 8    1  0.2484572E-006  0.9118800E+02  0.7816164E-02  0.1184000E+00
        -11   -1    0    0    0    0  0.00000000000E+00  0.00000000000E+00  0.45593999997E+02  0.45594000000E+02  0.51100000000E-03 0.  1.
         11   -1    0    0    0    0 -0.00000000000E+00 -0.00000000000E+00 -0.45593999997E+02  0.45594000000E+02  0.51100000000E-03 0. -1.
         23    2    1    2    0    0  0.00000000000E+00  0.55511151231E-16 -0.71054273576E-14  0.91188000000E+02  0.91188000000E+02 0.  0.
    9900012    2    3    3    0    0 -0.16054721184E+02  0.94848777519E-01  0.33136313959E+02  0.54367104148E+02  0.40000045526E+02 0.  0.
         12    1    3    3    0    0  0.16054721184E+02 -0.94848777519E-01 -0.33136313959E+02  0.36820895852E+02  0.00000000000E+00 0. -1.
         11    1    4    4    0    0  0.10933144315E+02 -0.27957303580E+01  0.35991200701E+01  0.11844974394E+02  0.51100000000E-03 0. -1.
        -11    1    4    4    0    0 -0.19895828608E+01 -0.10149729286E+01  0.10824638327E+02  0.11052665071E+02  0.51100000000E-03 0.  1.
         12    1    4    4    0    0 -0.24998282638E+02  0.39055520642E+01  0.18712555562E+02  0.31469464683E+02  0.00000000000E+00 0. -1.
</event>
<event>
 8    1  0.2484572E-006  0.9118800E+02  0.7816164E-02  0.1184000E+00
        -11   -1    0    0    0    0  0.00000000000E+00  0.00000000000E+00  0.45593999997E+02  0.45594000000E+02  0.51100000000E-03 0.  1.
         11   -1    0    0    0    0 -0.00000000000E+00 -0.00000000000E+00 -0.45593999997E+02  0.45594000000E+02  0.51100000000E-03 0. -1.
         23    2    1    2    0    0  0.00000000000E+00  0.00000000000E+00  0.00000000000E+00  0.91188000000E+02  0.91188000000E+02 0.  0.
    9900012    2    3    3    0    0  0.11410109380E+02  0.33886535716E+02 -0.87914955470E+01  0.54367105214E+02  0.40000047956E+02 0.  0.
         12    1    3    3    0    0 -0.11410109380E+02 -0.33886535716E+02  0.87914955470E+01  0.36820894786E+02  0.00000000000E+00 0. -1.
         11    1    4    4    0    0 -0.10978187133E+02  0.14890995161E+02 -0.51882263224E+01  0.19214057933E+02  0.51100000000E-03 0. -1.
        -11    1    4    4    0    0  0.13159729853E+01  0.17621686644E+01  0.59184847073E+01  0.63139120038E+01  0.51100000000E-03 0.  1.
        -12    1    4    4    0    0  0.21072323528E+02  0.17233371891E+02 -0.95217539320E+01  0.28839135277E+02  0.00000000000E+00 0.  1.
</event>
<event>
 8    1  0.2484572E-006  0.9118800E+02  0.7816164E-02  0.1184000E+00
        -11   -1    0    0    0    0  0.00000000000E+00  0.00000000000E+00  0.45593999997E+02  0.45594000000E+02  0.51100000000E-03 0. -1.
         11   -1    0    0    0    0 -0.00000000000E+00 -0.00000000000E+00 -0.45593999997E+02  0.45594000000E+02  0.51100000000E-03 0.  1.
         23    2    1    2    0    0  0.44408920985E-15 -0.22204460493E-15  0.00000000000E+00  0.91188000000E+02  0.91188000000E+02 0.  0.
    9900012    2    3    3    0    0  0.29251262757E+01  0.13677554413E+01  0.36679045656E+02  0.54367088700E+02  0.40000010311E+02 0.  0.
        -12    1    3    3    0    0 -0.29251262757E+01 -0.13677554413E+01 -0.36679045656E+02  0.36820911300E+02  0.00000000000E+00 0.  1.
         11    1    4    4    0    0 -0.10647471336E+02  0.42461709247E+01  0.22866547178E+02  0.25578850511E+02  0.51100000000E-03 0.  1.
        -11    1    4    4    0    0  0.13057383406E+02 -0.16330366762E+01  0.19176639771E+02  0.23257376967E+02  0.51100000000E-03 0. -1.
        -12    1    4    4    0    0  0.51521420585E+00 -0.12453788072E+01 -0.53641412930E+01  0.55308612225E+01  0.00000000000E+00 0.  1.
</event>
<event>
 8    1  0.2484572E-006  0.9118800E+02  0.7816164E-02  0.1184000E+00
        -11   -1    0    0    0    0  0.00000000000E+00  0.00000000000E+00  0.45593999997E+02  0.45594000000E+02  0.51100000000E-03 0.  1.
         11   -1    0    0    0    0 -0.00000000000E+00 -0.00000000000E+00 -0.45593999997E+02  0.45594000000E+02  0.51100000000E-03 0. -1.
         23    2    1    2    0    0 -0.88817841970E-15 -0.35527136788E-14  0.00000000000E+00  0.91188000000E+02  0.91188000000E+02 0.  0.
    9900012    2    3    3    0    0 -0.44079692395E+01 -0.24329738321E+02 -0.27283871877E+02  0.54367136021E+02  0.40000118186E+02 0.  0.
        -12    1    3    3    0    0  0.44079692395E+01  0.24329738321E+02  0.27283871877E+02  0.36820863979E+02  0.00000000000E+00 0.  1.
         11    1    4    4    0    0  0.80839600091E+01 -0.10493624261E+02  0.23013207406E+01  0.13444799625E+02  0.51100000000E-03 0.  1.
        -11    1    4    4    0    0 -0.22795553225E+01  0.40234660957E+01 -0.15018402651E+02  0.15714231458E+02  0.51100000000E-03 0. -1.
        -12    1    4    4    0    0 -0.10212373926E+02 -0.17859580156E+02 -0.14566789967E+02  0.25208104937E+02  0.00000000000E+00 0.  1.
</event>
<event>
 8    1  0.2484572E-006  0.9118800E+02  0.7816164E-02  0.1184000E+00
        -11   -1    0    0    0    0  0.00000000000E+00  0.00000000000E+00  0.45593999997E+02  0.45594000000E+02  0.51100000000E-03 0.  1.
         11   -1    0    0    0    0 -0.00000000000E+00 -0.00000000000E+00 -0.45593999997E+02  0.45594000000E+02  0.51100000000E-03 0. -1.
         23    2    1    2    0    0  0.35527136788E-14  0.35527136788E-14  0.00000000000E+00  0.91188000000E+02  0.91188000000E+02 0.  0.
    9900012    2    3    3    0    0 -0.16315003676E+02 -0.20955872664E+02  0.25503730532E+02  0.54367242062E+02  0.40000359928E+02 0.  0.
         12    1    3    3    0    0  0.16315003676E+02  0.20955872664E+02 -0.25503730532E+02  0.36820757938E+02  0.00000000000E+00 0. -1.
         11    1    4    4    0    0  0.39496262085E+01 -0.70213102269E+00 -0.77433381112E+01  0.87207694916E+01  0.51100000000E-03 0. -1.
        -11    1    4    4    0    0 -0.88184737263E+01 -0.16841865920E+02  0.17159012435E+02  0.25609483293E+02  0.51100000000E-03 0.  1.
         12    1    4    4    0    0 -0.11446156159E+02 -0.34118757207E+01  0.16088056208E+02  0.20036989278E+02  0.00000000000E+00 0. -1.
</event>
<event>
 8    1  0.2484572E-006  0.9118800E+02  0.7816164E-02  0.1184000E+00
        -11   -1    0    0    0    0  0.00000000000E+00  0.00000000000E+00  0.45593999997E+02  0.45594000000E+02  0.51100000000E-03 0.  1.
         11   -1    0    0    0    0 -0.00000000000E+00 -0.00000000000E+00 -0.45593999997E+02  0.45594000000E+02  0.51100000000E-03 0. -1.
         23    2    1    2    0    0  0.00000000000E+00  0.35527136788E-14  0.00000000000E+00  0.91188000000E+02  0.91188000000E+02 0.  0.
    9900012    2    3    3    0    0  0.77606942071E+01 -0.17171463867E+02  0.31633709365E+02  0.54367094062E+02  0.40000022532E+02 0.  0.
         12    1    3    3    0    0 -0.77606942071E+01  0.17171463867E+02 -0.31633709365E+02  0.36820905938E+02  0.00000000000E+00 0. -1.
         11    1    4    4    0    0  0.14419023466E+02 -0.10870326912E+02  0.11589181587E+02  0.21456499598E+02  0.51100000000E-03 0.  1.
        -11    1    4    4    0    0 -0.31767551948E+01 -0.13389681522E+02  0.29414450459E+01  0.14072222427E+02  0.51100000000E-03 0. -1.
         12    1    4    4    0    0 -0.34815740639E+01  0.70885445664E+01  0.17103082732E+02  0.18838372036E+02  0.00000000000E+00 0. -1.
</event>
<event>
 8    1  0.2484572E-006  0.9118800E+02  0.7816164E-02  0.1184000E+00
        -11   -1    0    0    0    0  0.00000000000E+00  0.00000000000E+00  0.45593999997E+02  0.45594000000E+02  0.51100000000E-03 0.  1.
         11   -1    0    0    0    0 -0.00000000000E+00 -0.00000000000E+00 -0.45593999997E+02  0.45594000000E+02  0.51100000000E-03 0. -1.
         23    2    1    2    0    0  0.00000000000E+00  0.26645352591E-14  0.17763568394E-14  0.91188000000E+02  0.91188000000E+02 0.  0.
    9900012    2    3    3    0    0  0.34202789421E+02 -0.69969442534E+01 -0.11704296005E+02  0.54367101342E+02  0.40000039129E+02 0.  0.
        -12    1    3    3    0    0 -0.34202789421E+02  0.69969442534E+01  0.11704296005E+02  0.36820898658E+02  0.00000000000E+00 0.  1.
         11    1    4    4    0    0  0.15798832818E+02  0.34076214878E+01 -0.19901864726E+01  0.16284220739E+02  0.51100000000E-03 0. -1.
        -11    1    4    4    0    0  0.41812867413E+01  0.10241654134E+02 -0.64366772819E+01  0.12798650433E+02  0.51100000000E-03 0.  1.
        -12    1    4    4    0    0  0.14222669861E+02 -0.20646219875E+02 -0.32774322505E+01  0.25284230170E+02  0.00000000000E+00 0.  1.
</event>
<event>
 8    1  0.2484572E-006  0.9118800E+02  0.7816164E-02  0.1184000E+00
        -11   -1    0    0    0    0  0.00000000000E+00  0.00000000000E+00  0.45593999997E+02  0.45594000000E+02  0.51100000000E-03 0.  1.
         11   -1    0    0    0    0 -0.00000000000E+00 -0.00000000000E+00 -0.45593999997E+02  0.45594000000E+02  0.51100000000E-03 0. -1.
         23    2    1    2    0    0  0.00000000000E+00  0.00000000000E+00  0.00000000000E+00  0.91188000000E+02  0.91188000000E+02 0.  0.
    9900012    2    3    3    0    0  0.88972326373E+01  0.78080797966E+01 -0.34866232354E+02  0.54367068218E+02  0.39999963616E+02 0.  0.
        -12    1    3    3    0    0 -0.88972326373E+01 -0.78080797966E+01  0.34866232354E+02  0.36820931782E+02  0.00000000000E+00 0.  1.
         11    1    4    4    0    0  0.87770762428E+01  0.10367713548E+02 -0.15559103239E+02  0.20654593810E+02  0.51100000000E-03 0. -1.
        -11    1    4    4    0    0  0.50675772800E+01  0.11373208473E+02 -0.60026376268E+01  0.13822513129E+02  0.51100000000E-03 0.  1.
         12    1    4    4    0    0 -0.49474208855E+01 -0.13932842225E+02 -0.13304491489E+02  0.19889961279E+02  0.00000000000E+00 0. -1.
</event>
<event>
 8    1  0.2484572E-006  0.9118800E+02  0.7816164E-02  0.1184000E+00
        -11   -1    0    0    0    0  0.00000000000E+00  0.00000000000E+00  0.45593999997E+02  0.45594000000E+02  0.51100000000E-03 0.  1.
         11   -1    0    0    0    0 -0.00000000000E+00 -0.00000000000E+00 -0.45593999997E+02  0.45594000000E+02  0.51100000000E-03 0. -1.
         23    2    1    2    0    0 -0.17763568394E-14  0.44408920985E-15 -0.71054273576E-14  0.91188000000E+02  0.91188000000E+02 0.  0.
    9900012    2    3    3    0    0  0.13144599190E+02 -0.36420794921E+01  0.34201420915E+02  0.54367049122E+02  0.39999920084E+02 0.  0.
         12    1    3    3    0    0 -0.13144599190E+02  0.36420794921E+01 -0.34201420915E+02  0.36820950878E+02  0.00000000000E+00 0. -1.
         11    1    4    4    0    0 -0.78434761049E-01  0.10322402038E+02  0.31376637499E+01  0.10789025438E+02  0.51100000000E-03 0. -1.
        -11    1    4    4    0    0 -0.11750805412E+01 -0.17994494225E+01  0.22960394804E+02  0.23060758060E+02  0.51100000000E-03 0.  1.
        -12    1    4    4    0    0  0.14398114493E+02 -0.12165032107E+02  0.81033623617E+01  0.20517265624E+02  0.00000000000E+00 0.  1.
</event>
<event>
 8    1  0.2484572E-006  0.9118800E+02  0.7816164E-02  0.1184000E+00
        -11   -1    0    0    0    0  0.00000000000E+00  0.00000000000E+00  0.45593999997E+02  0.45594000000E+02  0.51100000000E-03 0.  1.
         11   -1    0    0    0    0 -0.00000000000E+00 -0.00000000000E+00 -0.45593999997E+02  0.45594000000E+02  0.51100000000E-03 0. -1.
         23    2    1    2    0    0  0.00000000000E+00  0.35527136788E-14  0.00000000000E+00  0.91188000000E+02  0.91188000000E+02 0.  0.
    9900012    2    3    3    0    0 -0.38389815633E+01 -0.29576803004E+02  0.21592876203E+02  0.54367117908E+02  0.40000076894E+02 0.  0.
         12    1    3    3    0    0  0.38389815633E+01  0.29576803004E+02 -0.21592876203E+02  0.36820882092E+02  0.00000000000E+00 0. -1.
         11    1    4    4    0    0 -0.12640073390E+02 -0.34810427599E+01  0.16019500915E+02  0.20700568201E+02  0.51100000000E-03 0. -1.
        -11    1    4    4    0    0 -0.46992072087E+01 -0.13997717458E+02  0.47853150992E+01  0.15521529670E+02  0.51100000000E-03 0.  1.
         12    1    4    4    0    0  0.13500299036E+02 -0.12098042786E+02  0.78806018871E+00  0.18145020037E+02  0.00000000000E+00 0. -1.
</event>
<event>
 8    1  0.2484572E-006  0.9118800E+02  0.7816164E-02  0.1184000E+00
        -11   -1    0    0    0    0  0.00000000000E+00  0.00000000000E+00  0.45593999997E+02  0.45594000000E+02  0.51100000000E-03 0.  1.
         11   -1    0    0    0    0 -0.00000000000E+00 -0.00000000000E+00 -0.45593999997E+02  0.45594000000E+02  0.51100000000E-03 0. -1.
         23    2    1    2    0    0  0.00000000000E+00  0.00000000000E+00  0.35527136788E-14  0.91188000000E+02  0.91188000000E+02 0.  0.
    9900012    2    3    3    0    0  0.23966849305E+02  0.18750255929E+02  0.20731428654E+02  0.54367162190E+02  0.40000177843E+02 0.  0.
        -12    1    3    3    0    0 -0.23966849305E+02 -0.18750255929E+02 -0.20731428654E+02  0.36820837810E+02  0.00000000000E+00 0.  1.
         11    1    4    4    0    0  0.69049167812E+01 -0.29482484694E+01 -0.43644989271E+01  0.86844053302E+01  0.51100000000E-03 0. -1.
        -11    1    4    4    0    0 -0.68564142561E+01  0.21792433722E+01  0.34547182135E+01  0.79808894443E+01  0.51100000000E-03 0.  1.
         12    1    4    4    0    0  0.23918346780E+02  0.19519261026E+02  0.21641209368E+02  0.37701867415E+02  0.00000000000E+00 0. -1.
</event>
<event>
 8    1  0.2484572E-006  0.9118800E+02  0.7816164E-02  0.1184000E+00
        -11   -1    0    0    0    0  0.00000000000E+00  0.00000000000E+00  0.45593999997E+02  0.45594000000E+02  0.51100000000E-03 0. -1.
         11   -1    0    0    0    0 -0.00000000000E+00 -0.00000000000E+00 -0.45593999997E+02  0.45594000000E+02  0.51100000000E-03 0.  1.
         23    2    1    2    0    0  0.00000000000E+00  0.00000000000E+00  0.00000000000E+00  0.91188000000E+02  0.91188000000E+02 0.  0.
    9900012    2    3    3    0    0  0.55462932160E+01 -0.34085399505E+02 -0.12775174654E+02  0.54367069603E+02  0.39999966773E+02 0.  0.
        -12    1    3    3    0    0 -0.55462932160E+01  0.34085399505E+02  0.12775174654E+02  0.36820930397E+02  0.00000000000E+00 0.  1.
         11    1    4    4    0    0 -0.10334963212E+01 -0.15459396899E+02 -0.54652860654E+00  0.15503540270E+02  0.51100000000E-03 0. -1.
        -11    1    4    4    0    0  0.18240243890E+02 -0.16824905253E+02 -0.60366208987E+01  0.25538690766E+02  0.51100000000E-03 0.  1.
        -12    1    4    4    0    0 -0.11660454352E+02 -0.18010973541E+01 -0.61920251488E+01  0.13324838567E+02  0.00000000000E+00 0.  1.
</event>
<event>
 8    1  0.2484572E-006  0.9118800E+02  0.7816164E-02  0.1184000E+00
        -11   -1    0    0    0    0  0.00000000000E+00  0.00000000000E+00  0.45593999997E+02  0.45594000000E+02  0.51100000000E-03 0.  1.
         11   -1    0    0    0    0 -0.00000000000E+00 -0.00000000000E+00 -0.45593999997E+02  0.45594000000E+02  0.51100000000E-03 0. -1.
         23    2    1    2    0    0 -0.17763568394E-14 -0.12212453271E-14  0.00000000000E+00  0.91188000000E+02  0.91188000000E+02 0.  0.
    9900012    2    3    3    0    0  0.55538099522E+01 -0.27190996366E+00 -0.36398645238E+02  0.54367080468E+02  0.39999991543E+02 0.  0.
        -12    1    3    3    0    0 -0.55538099522E+01  0.27190996366E+00  0.36398645238E+02  0.36820919532E+02  0.00000000000E+00 0.  1.
         11    1    4    4    0    0 -0.13358433842E+02 -0.83150055182E+01 -0.22298274716E+02  0.27291026493E+02  0.51100000000E-03 0. -1.
        -11    1    4    4    0    0  0.13647024708E+02  0.30394861194E+01 -0.38295753447E+01  0.14496392891E+02  0.51100000000E-03 0.  1.
         12    1    4    4    0    0  0.52652190862E+01  0.50036094351E+01 -0.10270795177E+02  0.12579661084E+02  0.00000000000E+00 0. -1.
</event>
<event>
 8    1  0.2484572E-006  0.9118800E+02  0.7816164E-02  0.1184000E+00
        -11   -1    0    0    0    0  0.00000000000E+00  0.00000000000E+00  0.45593999997E+02  0.45594000000E+02  0.51100000000E-03 0.  1.
         11   -1    0    0    0    0 -0.00000000000E+00 -0.00000000000E+00 -0.45593999997E+02  0.45594000000E+02  0.51100000000E-03 0. -1.
         23    2    1    2    0    0  0.00000000000E+00  0.00000000000E+00  0.00000000000E+00  0.91188000000E+02  0.91188000000E+02 0.  0.
    9900012    2    3    3    0    0 -0.18480945000E+02 -0.24449749092E+02  0.20406958149E+02  0.54367088826E+02  0.40000010597E+02 0.  0.
         12    1    3    3    0    0  0.18480945000E+02  0.24449749092E+02 -0.20406958149E+02  0.36820911174E+02  0.00000000000E+00 0. -1.
         11    1    4    4    0    0  0.89062163109E+01 -0.20426550906E+02  0.78336765188E+01  0.23620566440E+02  0.51100000000E-03 0. -1.
        -11    1    4    4    0    0 -0.47052675971E+01 -0.77024178438E+00  0.41893479231E+01  0.63469245976E+01  0.51100000000E-03 0.  1.
         12    1    4    4    0    0 -0.22681893714E+02 -0.32529564013E+01  0.83839337072E+01  0.24399597788E+02  0.00000000000E+00 0. -1.
</event>
<event>
 8    1  0.2484572E-006  0.9118800E+02  0.7816164E-02  0.1184000E+00
        -11   -1    0    0    0    0  0.00000000000E+00  0.00000000000E+00  0.45593999997E+02  0.45594000000E+02  0.51100000000E-03 0.  1.
         11   -1    0    0    0    0 -0.00000000000E+00 -0.00000000000E+00 -0.45593999997E+02  0.45594000000E+02  0.51100000000E-03 0. -1.
         23    2    1    2    0    0 -0.55511151231E-15  0.35527136788E-14  0.00000000000E+00  0.91188000000E+02  0.91188000000E+02 0.  0.
    9900012    2    3    3    0    0  0.60758683173E+00 -0.29408047898E+02  0.22148960634E+02  0.54367096968E+02  0.40000029157E+02 0.  0.
         12    1    3    3    0    0 -0.60758683173E+00  0.29408047898E+02 -0.22148960634E+02  0.36820903032E+02  0.00000000000E+00 0. -1.
         11    1    4    4    0    0  0.89112299363E+01  0.29298511329E+01  0.49443777290E+01  0.10603816201E+02  0.51100000000E-03 0. -1.
        -11    1    4    4    0    0  0.19644116396E+01 -0.28430971609E+02  0.16073334339E+02  0.32718972122E+02  0.51100000000E-03 0.  1.
        -12    1    4    4    0    0 -0.10268054744E+02 -0.39069274225E+01  0.11312485665E+01  0.11044308644E+02  0.00000000000E+00 0.  1.
</event>
<event>
 8    1  0.2484572E-006  0.9118800E+02  0.7816164E-02  0.1184000E+00
        -11   -1    0    0    0    0  0.00000000000E+00  0.00000000000E+00  0.45593999997E+02  0.45594000000E+02  0.51100000000E-03 0.  1.
         11   -1    0    0    0    0 -0.00000000000E+00 -0.00000000000E+00 -0.45593999997E+02  0.45594000000E+02  0.51100000000E-03 0. -1.
         23    2    1    2    0    0  0.35527136788E-14 -0.35527136788E-14  0.17763568394E-14  0.91188000000E+02  0.91188000000E+02 0.  0.
    9900012    2    3    3    0    0 -0.25969686386E+02  0.22551067480E+02 -0.13145495475E+02  0.54367091446E+02  0.40000016569E+02 0.  0.
        -12    1    3    3    0    0  0.25969686386E+02 -0.22551067480E+02  0.13145495475E+02  0.36820908554E+02  0.00000000000E+00 0.  1.
         11    1    4    4    0    0 -0.13475037794E+02  0.17475594747E+02 -0.20881930550E+02  0.30381377175E+02  0.51100000000E-03 0. -1.
        -11    1    4    4    0    0 -0.56662301142E+01  0.99032747351E+01 -0.15206704527E+01  0.11510580049E+02  0.51100000000E-03 0.  1.
        -12    1    4    4    0    0 -0.68284184774E+01 -0.48278020016E+01  0.92571055286E+01  0.12475134221E+02  0.00000000000E+00 0.  1.
</event>
<event>
 8    1  0.2484572E-006  0.9118800E+02  0.7816164E-02  0.1184000E+00
        -11   -1    0    0    0    0  0.00000000000E+00  0.00000000000E+00  0.45593999997E+02  0.45594000000E+02  0.51100000000E-03 0.  1.
         11   -1    0    0    0    0 -0.00000000000E+00 -0.00000000000E+00 -0.45593999997E+02  0.45594000000E+02  0.51100000000E-03 0. -1.
         23    2    1    2    0    0  0.00000000000E+00  0.88817841970E-15  0.71054273576E-14  0.91188000000E+02  0.91188000000E+02 0.  0.
    9900012    2    3    3    0    0 -0.13646275357E+02 -0.61868029626E+01 -0.33634552956E+02  0.54367075045E+02  0.39999979179E+02 0.  0.
        -12    1    3    3    0    0  0.13646275357E+02  0.61868029626E+01  0.33634552956E+02  0.36820924955E+02  0.00000000000E+00 0.  1.
         11    1    4    4    0    0 -0.10562954750E+02 -0.35287963061E+01  0.10763902986E+01  0.11188701120E+02  0.51100000000E-03 0.  1.
        -11    1    4    4    0    0 -0.14147357816E+02 -0.34336084142E+01 -0.20761532005E+02  0.25357022920E+02  0.51100000000E-03 0. -1.
        -12    1    4    4    0    0  0.11064037208E+02  0.77560175779E+00 -0.13949411249E+02  0.17821351005E+02  0.00000000000E+00 0.  1.
</event>
<event>
 8    1  0.2484572E-006  0.9118800E+02  0.7816164E-02  0.1184000E+00
        -11   -1    0    0    0    0  0.00000000000E+00  0.00000000000E+00  0.45593999997E+02  0.45594000000E+02  0.51100000000E-03 0.  1.
         11   -1    0    0    0    0 -0.00000000000E+00 -0.00000000000E+00 -0.45593999997E+02  0.45594000000E+02  0.51100000000E-03 0. -1.
         23    2    1    2    0    0  0.00000000000E+00 -0.88817841970E-15  0.00000000000E+00  0.91188000000E+02  0.91188000000E+02 0.  0.
    9900012    2    3    3    0    0  0.31105536198E+02  0.73046115775E+00 -0.19689891481E+02  0.54367084990E+02  0.40000001851E+02 0.  0.
        -12    1    3    3    0    0 -0.31105536198E+02 -0.73046115775E+00  0.19689891481E+02  0.36820915010E+02  0.00000000000E+00 0.  1.
         11    1    4    4    0    0  0.28801905147E+02  0.69006221156E+01 -0.40613441309E+01  0.29894194120E+02  0.51100000000E-03 0. -1.
        -11    1    4    4    0    0 -0.62582456953E+01 -0.18260698284E+01 -0.12961201686E+02  0.14508374120E+02  0.51100000000E-03 0.  1.
         12    1    4    4    0    0  0.85618767461E+01 -0.43440911294E+01 -0.26673456634E+01  0.99645167492E+01  0.00000000000E+00 0. -1.
</event>
<event>
 8    1  0.2484572E-006  0.9118800E+02  0.7816164E-02  0.1184000E+00
        -11   -1    0    0    0    0  0.00000000000E+00  0.00000000000E+00  0.45593999997E+02  0.45594000000E+02  0.51100000000E-03 0.  1.
         11   -1    0    0    0    0 -0.00000000000E+00 -0.00000000000E+00 -0.45593999997E+02  0.45594000000E+02  0.51100000000E-03 0. -1.
         23    2    1    2    0    0  0.00000000000E+00  0.00000000000E+00 -0.17763568394E-14  0.91188000000E+02  0.91188000000E+02 0.  0.
    9900012    2    3    3    0    0  0.84412912736E+01  0.32704905074E+02 -0.14659962648E+02  0.54367072267E+02  0.39999972847E+02 0.  0.
        -12    1    3    3    0    0 -0.84412912736E+01 -0.32704905074E+02  0.14659962648E+02  0.36820927733E+02  0.00000000000E+00 0.  1.
         11    1    4    4    0    0 -0.10644887713E+02  0.21091634343E+02 -0.14823373811E+02  0.27890914024E+02  0.51100000000E-03 0. -1.
        -11    1    4    4    0    0  0.18773119506E+02  0.52236555835E+01 -0.22987129979E+01  0.19621434079E+02  0.51100000000E-03 0.  1.
        -12    1    4    4    0    0  0.31305948059E+00  0.63896151476E+01  0.24621241616E+01  0.68547241636E+01  0.00000000000E+00 0.  1.
</event>
<event>
 8    1  0.2484572E-006  0.9118800E+02  0.7816164E-02  0.1184000E+00
        -11   -1    0    0    0    0  0.00000000000E+00  0.00000000000E+00  0.45593999997E+02  0.45594000000E+02  0.51100000000E-03 0. -1.
         11   -1    0    0    0    0 -0.00000000000E+00 -0.00000000000E+00 -0.45593999997E+02  0.45594000000E+02  0.51100000000E-03 0.  1.
         23    2    1    2    0    0  0.17763568394E-14  0.17763568394E-14  0.00000000000E+00  0.91188000000E+02  0.91188000000E+02 0.  0.
    9900012    2    3    3    0    0 -0.84242621275E+01 -0.11847359251E+02 -0.33829722731E+02  0.54367105746E+02  0.40000049169E+02 0.  0.
         12    1    3    3    0    0  0.84242621275E+01  0.11847359251E+02  0.33829722731E+02  0.36820894254E+02  0.00000000000E+00 0. -1.
         11    1    4    4    0    0 -0.18023042692E+01  0.73657696455E+01  0.25754342779E+01  0.80084783280E+01  0.51100000000E-03 0. -1.
        -11    1    4    4    0    0 -0.10943175017E+02 -0.21228854791E+02 -0.29283685647E+02  0.37788246857E+02  0.51100000000E-03 0.  1.
        -12    1    4    4    0    0  0.43212171585E+01  0.20157258940E+01 -0.71214713612E+01  0.85703805609E+01  0.00000000000E+00 0.  1.
</event>
<event>
 8    1  0.2484572E-006  0.9118800E+02  0.7816164E-02  0.1184000E+00
        -11   -1    0    0    0    0  0.00000000000E+00  0.00000000000E+00  0.45593999997E+02  0.45594000000E+02  0.51100000000E-03 0. -1.
         11   -1    0    0    0    0 -0.00000000000E+00 -0.00000000000E+00 -0.45593999997E+02  0.45594000000E+02  0.51100000000E-03 0.  1.
         23    2    1    2    0    0  0.00000000000E+00 -0.35527136788E-14  0.00000000000E+00  0.91188000000E+02  0.91188000000E+02 0.  0.
    9900012    2    3    3    0    0 -0.23973157781E+02 -0.22816804507E+02 -0.16138827211E+02  0.54367073808E+02  0.39999976361E+02 0.  0.
         12    1    3    3    0    0  0.23973157781E+02  0.22816804507E+02  0.16138827211E+02  0.36820926192E+02  0.00000000000E+00 0. -1.
         11    1    4    4    0    0 -0.18241053436E+02 -0.13314048340E+02  0.14261398735E+01  0.22628163621E+02  0.51100000000E-03 0. -1.
        -11    1    4    4    0    0 -0.25369928144E+01 -0.74359062062E+01 -0.23449760054E+02  0.24730957937E+02  0.51100000000E-03 0.  1.
        -12    1    4    4    0    0 -0.31951115299E+01 -0.20668499610E+01  0.58847929694E+01  0.70079522503E+01  0.00000000000E+00 0.  1.
</event>
<event>
 8    1  0.2484572E-006  0.9118800E+02  0.7816164E-02  0.1184000E+00
        -11   -1    0    0    0    0  0.00000000000E+00  0.00000000000E+00  0.45593999997E+02  0.45594000000E+02  0.51100000000E-03 0. -1.
         11   -1    0    0    0    0 -0.00000000000E+00 -0.00000000000E+00 -0.45593999997E+02  0.45594000000E+02  0.51100000000E-03 0.  1.
         23    2    1    2    0    0  0.88817841970E-15  0.00000000000E+00  0.00000000000E+00  0.91188000000E+02  0.91188000000E+02 0.  0.
    9900012    2    3    3    0    0  0.41972264799E+01 -0.34066108771E+02 -0.13328938371E+02  0.54367121751E+02  0.40000085655E+02 0.  0.
         12    1    3    3    0    0 -0.41972264799E+01  0.34066108771E+02  0.13328938371E+02  0.36820878249E+02  0.00000000000E+00 0. -1.
         11    1    4    4    0    0  0.61140704168E+00 -0.23290669774E+02  0.11216400607E+02  0.25858011523E+02  0.51100000000E-03 0. -1.
        -11    1    4    4    0    0  0.37419883009E+01 -0.11490684480E+02 -0.16614663731E+02  0.20544716046E+02  0.51100000000E-03 0.  1.
         12    1    4    4    0    0 -0.15616886267E+00  0.71524548230E+00 -0.79306752465E+01  0.79643941815E+01  0.00000000000E+00 0. -1.
</event>
<event>
 8    1  0.2484572E-006  0.9118800E+02  0.7816164E-02  0.1184000E+00
        -11   -1    0    0    0    0  0.00000000000E+00  0.00000000000E+00  0.45593999997E+02  0.45594000000E+02  0.51100000000E-03 0.  1.
         11   -1    0    0    0    0 -0.00000000000E+00 -0.00000000000E+00 -0.45593999997E+02  0.45594000000E+02  0.51100000000E-03 0. -1.
         23    2    1    2    0    0  0.00000000000E+00 -0.17763568394E-14  0.00000000000E+00  0.91188000000E+02  0.91188000000E+02 0.  0.
    9900012    2    3    3    0    0  0.12239752957E+02  0.11772753701E+02  0.32670610606E+02  0.54367108111E+02  0.40000054561E+02 0.  0.
         12    1    3    3    0    0 -0.12239752957E+02 -0.11772753701E+02 -0.32670610606E+02  0.36820891889E+02  0.00000000000E+00 0. -1.
         11    1    4    4    0    0 -0.35320262214E+01  0.13549953743E+02  0.67893649210E+00  0.14019180100E+02  0.51100000000E-03 0. -1.
        -11    1    4    4    0    0  0.11375893194E+02 -0.91913309814E+01  0.13315132491E+02  0.19778378717E+02  0.51100000000E-03 0.  1.
        -12    1    4    4    0    0  0.43958859838E+01  0.74141309393E+01  0.18676541623E+02  0.20569549294E+02  0.00000000000E+00 0.  1.
</event>
<event>
 8    1  0.2484572E-006  0.9118800E+02  0.7816164E-02  0.1184000E+00
        -11   -1    0    0    0    0  0.00000000000E+00  0.00000000000E+00  0.45593999997E+02  0.45594000000E+02  0.51100000000E-03 0.  1.
         11   -1    0    0    0    0 -0.00000000000E+00 -0.00000000000E+00 -0.45593999997E+02  0.45594000000E+02  0.51100000000E-03 0. -1.
         23    2    1    2    0    0  0.00000000000E+00  0.00000000000E+00  0.44408920985E-15  0.91188000000E+02  0.91188000000E+02 0.  0.
    9900012    2    3    3    0    0 -0.20577108921E+02  0.30436100915E+02 -0.24491640394E+01  0.54367189920E+02  0.40000241060E+02 0.  0.
        -12    1    3    3    0    0  0.20577108921E+02 -0.30436100915E+02  0.24491640394E+01  0.36820810080E+02  0.00000000000E+00 0.  1.
         11    1    4    4    0    0 -0.20277351211E+02  0.13616075236E+02 -0.68414563329E+01  0.25364818194E+02  0.51100000000E-03 0. -1.
        -11    1    4    4    0    0 -0.81743259015E+01  0.12201738117E+02  0.10468786253E+02  0.18036005736E+02  0.51100000000E-03 0.  1.
         12    1    4    4    0    0  0.78745681916E+01  0.46182875616E+01 -0.60764939591E+01  0.10966365991E+02  0.00000000000E+00 0. -1.
</event>
<event>
 8    1  0.2484572E-006  0.9118800E+02  0.7816164E-02  0.1184000E+00
        -11   -1    0    0    0    0  0.00000000000E+00  0.00000000000E+00  0.45593999997E+02  0.45594000000E+02  0.51100000000E-03 0.  1.
         11   -1    0    0    0    0 -0.00000000000E+00 -0.00000000000E+00 -0.45593999997E+02  0.45594000000E+02  0.51100000000E-03 0. -1.
         23    2    1    2    0    0 -0.17763568394E-14  0.35527136788E-14  0.35527136788E-14  0.91188000000E+02  0.91188000000E+02 0.  0.
    9900012    2    3    3    0    0 -0.90729759462E+01 -0.27881518239E+02 -0.22272732555E+02  0.54367182962E+02  0.40000225199E+02 0.  0.
        -12    1    3    3    0    0  0.90729759462E+01  0.27881518239E+02  0.22272732555E+02  0.36820817038E+02  0.00000000000E+00 0.  1.
         11    1    4    4    0    0 -0.61185105262E+01 -0.19601885670E+01 -0.18339813735E+01  0.66814667713E+01  0.51100000000E-03 0. -1.
        -11    1    4    4    0    0 -0.16884296872E+02 -0.20441022170E+02 -0.66502091491E+01  0.27333864531E+02  0.51100000000E-03 0.  1.
        -12    1    4    4    0    0  0.13929831452E+02 -0.54803075020E+01 -0.13788542033E+02  0.20351851660E+02  0.00000000000E+00 0.  1.
</event>
<event>
 8    1  0.2484572E-006  0.9118800E+02  0.7816164E-02  0.1184000E+00
        -11   -1    0    0    0    0  0.00000000000E+00  0.00000000000E+00  0.45593999997E+02  0.45594000000E+02  0.51100000000E-03 0. -1.
         11   -1    0    0    0    0 -0.00000000000E+00 -0.00000000000E+00 -0.45593999997E+02  0.45594000000E+02  0.51100000000E-03 0.  1.
         23    2    1    2    0    0  0.71054273576E-14  0.00000000000E+00  0.00000000000E+00  0.91188000000E+02  0.91188000000E+02 0.  0.
    9900012    2    3    3    0    0 -0.35386411976E+02  0.86788154662E+01 -0.53161840242E+01  0.54367057549E+02  0.39999939293E+02 0.  0.
        -12    1    3    3    0    0  0.35386411976E+02 -0.86788154662E+01  0.53161840242E+01  0.36820942451E+02  0.00000000000E+00 0.  1.
         11    1    4    4    0    0 -0.23122178611E+02 -0.80903263508E+01  0.54920629914E+00  0.24502860078E+02  0.51100000000E-03 0. -1.
        -11    1    4    4    0    0 -0.11080248679E+01  0.38548933771E+01 -0.11270517276E+02  0.11962962927E+02  0.51100000000E-03 0.  1.
        -12    1    4    4    0    0 -0.11156208497E+02  0.12914248440E+02  0.54051269531E+01  0.17901234543E+02  0.00000000000E+00 0.  1.
</event>
<event>
 8    1  0.2484572E-006  0.9118800E+02  0.7816164E-02  0.1184000E+00
        -11   -1    0    0    0    0  0.00000000000E+00  0.00000000000E+00  0.45593999997E+02  0.45594000000E+02  0.51100000000E-03 0. -1.
         11   -1    0    0    0    0 -0.00000000000E+00 -0.00000000000E+00 -0.45593999997E+02  0.45594000000E+02  0.51100000000E-03 0.  1.
         23    2    1    2    0    0  0.00000000000E+00  0.35527136788E-14  0.00000000000E+00  0.91188000000E+02  0.91188000000E+02 0.  0.
    9900012    2    3    3    0    0  0.22496674801E+02 -0.26578684737E+02 -0.11968790707E+02  0.54367098186E+02  0.40000031934E+02 0.  0.
         12    1    3    3    0    0 -0.22496674801E+02  0.26578684737E+02  0.11968790707E+02  0.36820901814E+02  0.00000000000E+00 0. -1.
         11    1    4    4    0    0 -0.24067546051E+01 -0.15608920039E+02 -0.15445205677E+02  0.22090387755E+02  0.51100000000E-03 0. -1.
        -11    1    4    4    0    0  0.16860132069E+02 -0.94789290012E+00 -0.40754343668E+01  0.17371577933E+02  0.51100000000E-03 0.  1.
        -12    1    4    4    0    0  0.80432973366E+01 -0.10021871798E+02  0.75518493365E+01  0.14905132498E+02  0.00000000000E+00 0.  1.
</event>
<event>
 8    1  0.2484572E-006  0.9118800E+02  0.7816164E-02  0.1184000E+00
        -11   -1    0    0    0    0  0.00000000000E+00  0.00000000000E+00  0.45593999997E+02  0.45594000000E+02  0.51100000000E-03 0. -1.
         11   -1    0    0    0    0 -0.00000000000E+00 -0.00000000000E+00 -0.45593999997E+02  0.45594000000E+02  0.51100000000E-03 0.  1.
         23    2    1    2    0    0  0.00000000000E+00 -0.35527136788E-14  0.00000000000E+00  0.91188000000E+02  0.91188000000E+02 0.  0.
    9900012    2    3    3    0    0  0.17651190087E+02 -0.31878474152E+02 -0.52894768341E+01  0.54367079440E+02  0.39999989199E+02 0.  0.
         12    1    3    3    0    0 -0.17651190087E+02  0.31878474152E+02  0.52894768341E+01  0.36820920560E+02  0.00000000000E+00 0. -1.
         11    1    4    4    0    0  0.21558370676E+01 -0.65765222684E+01  0.41262023107E+01  0.80575321519E+01  0.51100000000E-03 0. -1.
        -11    1    4    4    0    0  0.25715208345E+02 -0.12884446092E+02 -0.27259233383E+01  0.28891375004E+02  0.51100000000E-03 0.  1.
        -12    1    4    4    0    0 -0.10219855325E+02 -0.12417505791E+02 -0.66897558065E+01  0.17418172284E+02  0.00000000000E+00 0.  1.
</event>
<event>
 8    1  0.2484572E-006  0.9118800E+02  0.7816164E-02  0.1184000E+00
        -11   -1    0    0    0    0  0.00000000000E+00  0.00000000000E+00  0.45593999997E+02  0.45594000000E+02  0.51100000000E-03 0. -1.
         11   -1    0    0    0    0 -0.00000000000E+00 -0.00000000000E+00 -0.45593999997E+02  0.45594000000E+02  0.51100000000E-03 0.  1.
         23    2    1    2    0    0  0.35527136788E-14 -0.35527136788E-14  0.26645352591E-14  0.91188000000E+02  0.91188000000E+02 0.  0.
    9900012    2    3    3    0    0  0.22629798513E+02  0.28345678290E+02  0.63400860132E+01  0.54367055564E+02  0.39999934770E+02 0.  0.
        -12    1    3    3    0    0 -0.22629798513E+02 -0.28345678290E+02 -0.63400860132E+01  0.36820944436E+02  0.00000000000E+00 0.  1.
         11    1    4    4    0    0  0.14090060862E+02  0.16477430019E+02 -0.11006921096E+02  0.24314354349E+02  0.51100000000E-03 0. -1.
        -11    1    4    4    0    0 -0.32321425436E+01 -0.37558763174E+01  0.29919133849E+01  0.57883415844E+01  0.51100000000E-03 0.  1.
        -12    1    4    4    0    0  0.11771880194E+02  0.15624124589E+02  0.14355093724E+02  0.24264359631E+02  0.00000000000E+00 0.  1.
</event>
<event>
 8    1  0.2484572E-006  0.9118800E+02  0.7816164E-02  0.1184000E+00
        -11   -1    0    0    0    0  0.00000000000E+00  0.00000000000E+00  0.45593999997E+02  0.45594000000E+02  0.51100000000E-03 0.  1.
         11   -1    0    0    0    0 -0.00000000000E+00 -0.00000000000E+00 -0.45593999997E+02  0.45594000000E+02  0.51100000000E-03 0. -1.
         23    2    1    2    0    0 -0.23314683517E-14  0.00000000000E+00  0.00000000000E+00  0.91188000000E+02  0.91188000000E+02 0.  0.
    9900012    2    3    3    0    0 -0.75250363067E+00 -0.23061859865E+02 -0.28694302122E+02  0.54367100820E+02  0.40000037940E+02 0.  0.
        -12    1    3    3    0    0  0.75250363067E+00  0.23061859865E+02  0.28694302122E+02  0.36820899180E+02  0.00000000000E+00 0.  1.
         11    1    4    4    0    0 -0.38936571202E+01 -0.84339211994E+01 -0.26406472848E+02  0.27992738364E+02  0.51100000000E-03 0. -1.
        -11    1    4    4    0    0  0.73142528053E+01 -0.66778696548E+00 -0.78757922186E+01  0.10769045309E+02  0.51100000000E-03 0.  1.
        -12    1    4    4    0    0 -0.41730993157E+01 -0.13960151700E+02  0.55879629453E+01  0.15605317147E+02  0.00000000000E+00 0.  1.
</event>
<event>
 8    1  0.2484572E-006  0.9118800E+02  0.7816164E-02  0.1184000E+00
        -11   -1    0    0    0    0  0.00000000000E+00  0.00000000000E+00  0.45593999997E+02  0.45594000000E+02  0.51100000000E-03 0. -1.
         11   -1    0    0    0    0 -0.00000000000E+00 -0.00000000000E+00 -0.45593999997E+02  0.45594000000E+02  0.51100000000E-03 0.  1.
         23    2    1    2    0    0  0.88817841970E-15  0.31086244690E-14  0.00000000000E+00  0.91188000000E+02  0.91188000000E+02 0.  0.
    9900012    2    3    3    0    0 -0.65063952183E+01 -0.16022760210E+01 -0.36206068801E+02  0.54367083591E+02  0.39999998663E+02 0.  0.
         12    1    3    3    0    0  0.65063952183E+01  0.16022760210E+01  0.36206068801E+02  0.36820916409E+02  0.00000000000E+00 0. -1.
         11    1    4    4    0    0  0.81906464097E+00  0.52802742577E+01 -0.10984065296E+02  0.12214821071E+02  0.51100000000E-03 0. -1.
        -11    1    4    4    0    0  0.32593431753E+01  0.11260265500E+02 -0.42470926327E+01  0.12468147142E+02  0.51100000000E-03 0.  1.
        -12    1    4    4    0    0 -0.10584803035E+02 -0.18142815779E+02 -0.20974910872E+02  0.29684115378E+02  0.00000000000E+00 0.  1.
</event>
<event>
 8    1  0.2484572E-006  0.9118800E+02  0.7816164E-02  0.1184000E+00
        -11   -1    0    0    0    0  0.00000000000E+00  0.00000000000E+00  0.45593999997E+02  0.45594000000E+02  0.51100000000E-03 0.  1.
         11   -1    0    0    0    0 -0.00000000000E+00 -0.00000000000E+00 -0.45593999997E+02  0.45594000000E+02  0.51100000000E-03 0. -1.
         23    2    1    2    0    0 -0.35527136788E-14  0.00000000000E+00  0.35527136788E-14  0.91188000000E+02  0.91188000000E+02 0.  0.
    9900012    2    3    3    0    0  0.22443535789E+02 -0.20281920536E+02  0.20993128691E+02  0.54367081332E+02  0.39999993511E+02 0.  0.
         12    1    3    3    0    0 -0.22443535789E+02  0.20281920536E+02 -0.20993128691E+02  0.36820918668E+02  0.00000000000E+00 0. -1.
         11    1    4    4    0    0  0.93495940038E+01 -0.76661230152E+01 -0.85950960370E+01  0.14834420321E+02  0.51100000000E-03 0. -1.
        -11    1    4    4    0    0  0.21936979980E+01 -0.64903937858E+00  0.21159244969E+02  0.21282556494E+02  0.51100000000E-03 0.  1.
        -12    1    4    4    0    0  0.10900243788E+02 -0.11966758142E+02  0.84289797590E+01  0.18250104516E+02  0.00000000000E+00 0.  1.
</event>
<event>
 8    1  0.2484572E-006  0.9118800E+02  0.7816164E-02  0.1184000E+00
        -11   -1    0    0    0    0  0.00000000000E+00  0.00000000000E+00  0.45593999997E+02  0.45594000000E+02  0.51100000000E-03 0.  1.
         11   -1    0    0    0    0 -0.00000000000E+00 -0.00000000000E+00 -0.45593999997E+02  0.45594000000E+02  0.51100000000E-03 0. -1.
         23    2    1    2    0    0  0.00000000000E+00  0.00000000000E+00 -0.88817841970E-15  0.91188000000E+02  0.91188000000E+02 0.  0.
    9900012    2    3    3    0    0 -0.24816234442E+02 -0.26646562256E+02  0.54676009173E+01  0.54367089749E+02  0.40000012700E+02 0.  0.
         12    1    3    3    0    0  0.24816234442E+02  0.26646562256E+02 -0.54676009173E+01  0.36820910251E+02  0.00000000000E+00 0. -1.
         11    1    4    4    0    0 -0.65695131860E+01  0.13817308585E+01  0.50200239363E+01  0.83826203689E+01  0.51100000000E-03 0. -1.
        -11    1    4    4    0    0  0.72882199343E+00 -0.20330628475E+02  0.10806756891E+02  0.23035877028E+02  0.51100000000E-03 0.  1.
         12    1    4    4    0    0 -0.18975543250E+02 -0.76976646398E+01 -0.10359179910E+02  0.22948592352E+02  0.00000000000E+00 0. -1.
</event>
<event>
 8    1  0.2484572E-006  0.9118800E+02  0.7816164E-02  0.1184000E+00
        -11   -1    0    0    0    0  0.00000000000E+00  0.00000000000E+00  0.45593999997E+02  0.45594000000E+02  0.51100000000E-03 0.  1.
         11   -1    0    0    0    0 -0.00000000000E+00 -0.00000000000E+00 -0.45593999997E+02  0.45594000000E+02  0.51100000000E-03 0. -1.
         23    2    1    2    0    0  0.00000000000E+00 -0.35527136788E-14 -0.88817841970E-15  0.91188000000E+02  0.91188000000E+02 0.  0.
    9900012    2    3    3    0    0  0.27170880439E+02  0.24151167306E+02  0.58517842081E+01  0.54367095551E+02  0.40000025927E+02 0.  0.
        -12    1    3    3    0    0 -0.27170880439E+02 -0.24151167306E+02 -0.58517842081E+01  0.36820904449E+02  0.00000000000E+00 0.  1.
         11    1    4    4    0    0  0.11402540633E+02 -0.55724620577E+01 -0.99008192198E+00  0.12729906863E+02  0.51100000000E-03 0.  1.
        -11    1    4    4    0    0 -0.87858216447E+00 -0.20533695777E+01 -0.36340508842E+01  0.42655080978E+01  0.51100000000E-03 0. -1.
        -12    1    4    4    0    0  0.16646921970E+02  0.31776998941E+02  0.10475917014E+02  0.37371680589E+02  0.00000000000E+00 0.  1.
</event>
<event>
 8    1  0.2484572E-006  0.9118800E+02  0.7816164E-02  0.1184000E+00
        -11   -1    0    0    0    0  0.00000000000E+00  0.00000000000E+00  0.45593999997E+02  0.45594000000E+02  0.51100000000E-03 0.  1.
         11   -1    0    0    0    0 -0.00000000000E+00 -0.00000000000E+00 -0.45593999997E+02  0.45594000000E+02  0.51100000000E-03 0. -1.
         23    2    1    2    0    0  0.00000000000E+00  0.71054273576E-14  0.00000000000E+00  0.91188000000E+02  0.91188000000E+02 0.  0.
    9900012    2    3    3    0    0  0.12983342397E+02 -0.31267428057E+02 -0.14476222045E+02  0.54367078749E+02  0.39999987624E+02 0.  0.
        -12    1    3    3    0    0 -0.12983342397E+02  0.31267428057E+02  0.14476222045E+02  0.36820921251E+02  0.00000000000E+00 0.  1.
         11    1    4    4    0    0  0.60055234790E+01 -0.55635564545E+00  0.75443462971E+00  0.60782411710E+01  0.51100000000E-03 0. -1.
        -11    1    4    4    0    0  0.27331527187E-01  0.25256646827E+01 -0.14089343978E+02  0.14313956234E+02  0.51100000000E-03 0.  1.
         12    1    4    4    0    0  0.69504873907E+01 -0.33236737094E+02 -0.11413126974E+01  0.33974881343E+02  0.00000000000E+00 0. -1.
</event>
<event>
 8    1  0.2484572E-006  0.9118800E+02  0.7816164E-02  0.1184000E+00
        -11   -1    0    0    0    0  0.00000000000E+00  0.00000000000E+00  0.45593999997E+02  0.45594000000E+02  0.51100000000E-03 0. -1.
         11   -1    0    0    0    0 -0.00000000000E+00 -0.00000000000E+00 -0.45593999997E+02  0.45594000000E+02  0.51100000000E-03 0.  1.
         23    2    1    2    0    0  0.00000000000E+00  0.00000000000E+00  0.00000000000E+00  0.91188000000E+02  0.91188000000E+02 0.  0.
    9900012    2    3    3    0    0 -0.78101159625E+01 -0.34458839032E+02 -0.10361953756E+02  0.54367087675E+02  0.40000007973E+02 0.  0.
         12    1    3    3    0    0  0.78101159625E+01  0.34458839032E+02  0.10361953756E+02  0.36820912325E+02  0.00000000000E+00 0. -1.
         11    1    4    4    0    0 -0.15492627089E+02 -0.10790419198E+02 -0.13788927048E+01  0.18930292812E+02  0.51100000000E-03 0. -1.
        -11    1    4    4    0    0 -0.27714851357E+00  0.16478176134E+00 -0.10271494035E+02  0.10276553620E+02  0.51100000000E-03 0.  1.
         12    1    4    4    0    0  0.79596596402E+01 -0.23833201595E+02  0.12884329840E+01  0.25160241243E+02  0.00000000000E+00 0. -1.
</event>
<event>
 8    1  0.2484572E-006  0.9118800E+02  0.7816164E-02  0.1184000E+00
        -11   -1    0    0    0    0  0.00000000000E+00  0.00000000000E+00  0.45593999997E+02  0.45594000000E+02  0.51100000000E-03 0.  1.
         11   -1    0    0    0    0 -0.00000000000E+00 -0.00000000000E+00 -0.45593999997E+02  0.45594000000E+02  0.51100000000E-03 0. -1.
         23    2    1    2    0    0 -0.17763568394E-14  0.00000000000E+00 -0.35527136788E-14  0.91188000000E+02  0.91188000000E+02 0.  0.
    9900012    2    3    3    0    0 -0.10437584184E+02 -0.21207238213E+02  0.28232783738E+02  0.54367079400E+02  0.39999989109E+02 0.  0.
         12    1    3    3    0    0  0.10437584184E+02  0.21207238213E+02 -0.28232783738E+02  0.36820920600E+02  0.00000000000E+00 0. -1.
         11    1    4    4    0    0 -0.15396382489E+02 -0.56427990883E+01  0.21562245268E+02  0.27089115832E+02  0.51100000000E-03 0. -1.
        -11    1    4    4    0    0  0.15919731766E+01 -0.68431506033E+01  0.13823658111E+02  0.15506663491E+02  0.51100000000E-03 0.  1.
        -12    1    4    4    0    0  0.33668251281E+01 -0.87212885210E+01 -0.71531196416E+01  0.11771300078E+02  0.00000000000E+00 0.  1.
</event>
<event>
 8    1  0.2484572E-006  0.9118800E+02  0.7816164E-02  0.1184000E+00
        -11   -1    0    0    0    0  0.00000000000E+00  0.00000000000E+00  0.45593999997E+02  0.45594000000E+02  0.51100000000E-03 0.  1.
         11   -1    0    0    0    0 -0.00000000000E+00 -0.00000000000E+00 -0.45593999997E+02  0.45594000000E+02  0.51100000000E-03 0. -1.
         23    2    1    2    0    0  0.00000000000E+00  0.00000000000E+00  0.71054273576E-14  0.91188000000E+02  0.91188000000E+02 0.  0.
    9900012    2    3    3    0    0  0.25764910377E+02 -0.29114070767E+01  0.26143329846E+02  0.54367073975E+02  0.39999976741E+02 0.  0.
         12    1    3    3    0    0 -0.25764910377E+02  0.29114070767E+01 -0.26143329846E+02  0.36820926025E+02  0.00000000000E+00 0. -1.
         11    1    4    4    0    0 -0.38104185408E+01  0.58081888936E+01  0.38566678751E+01  0.79453278749E+01  0.51100000000E-03 0. -1.
        -11    1    4    4    0    0  0.10103325441E+02 -0.29839443917E+01 -0.55989920742E+01  0.11930206268E+02  0.51100000000E-03 0.  1.
        -12    1    4    4    0    0  0.19472003477E+02 -0.57356515786E+01  0.27885654045E+02  0.34491539832E+02  0.00000000000E+00 0.  1.
</event>
<event>
 8    1  0.2484572E-006  0.9118800E+02  0.7816164E-02  0.1184000E+00
        -11   -1    0    0    0    0  0.00000000000E+00  0.00000000000E+00  0.45593999997E+02  0.45594000000E+02  0.51100000000E-03 0. -1.
         11   -1    0    0    0    0 -0.00000000000E+00 -0.00000000000E+00 -0.45593999997E+02  0.45594000000E+02  0.51100000000E-03 0.  1.
         23    2    1    2    0    0  0.88817841970E-15  0.00000000000E+00  0.00000000000E+00  0.91188000000E+02  0.91188000000E+02 0.  0.
    9900012    2    3    3    0    0  0.67344615230E+01  0.13277448678E+02 -0.33676986010E+02  0.54367041265E+02  0.39999902172E+02 0.  0.
         12    1    3    3    0    0 -0.67344615230E+01 -0.13277448678E+02  0.33676986010E+02  0.36820958735E+02  0.00000000000E+00 0. -1.
         11    1    4    4    0    0 -0.80641005022E+01  0.20073449994E+01 -0.16420466463E+02  0.18403555906E+02  0.51100000000E-03 0. -1.
        -11    1    4    4    0    0  0.29634110098E+01  0.17045097135E+02 -0.50885357810E+01  0.18033589155E+02  0.51100000000E-03 0.  1.
         12    1    4    4    0    0  0.11835151015E+02 -0.57749934560E+01 -0.12167983766E+02  0.17929896205E+02  0.00000000000E+00 0. -1.
</event>
<event>
 8    1  0.2484572E-006  0.9118800E+02  0.7816164E-02  0.1184000E+00
        -11   -1    0    0    0    0  0.00000000000E+00  0.00000000000E+00  0.45593999997E+02  0.45594000000E+02  0.51100000000E-03 0. -1.
         11   -1    0    0    0    0 -0.00000000000E+00 -0.00000000000E+00 -0.45593999997E+02  0.45594000000E+02  0.51100000000E-03 0.  1.
         23    2    1    2    0    0  0.17763568394E-14  0.00000000000E+00  0.71054273576E-14  0.91188000000E+02  0.91188000000E+02 0.  0.
    9900012    2    3    3    0    0  0.63746446857E+01 -0.92633195226E+01 -0.35061887412E+02  0.54367066656E+02  0.39999960056E+02 0.  0.
         12    1    3    3    0    0 -0.63746446857E+01  0.92633195226E+01  0.35061887412E+02  0.36820933344E+02  0.00000000000E+00 0. -1.
         11    1    4    4    0    0  0.16719639147E+02 -0.38799245427E+01 -0.54198625274E+01  0.17999307146E+02  0.51100000000E-03 0. -1.
        -11    1    4    4    0    0  0.16680724169E+01 -0.83894534587E+01 -0.10135877739E+02  0.13262782993E+02  0.51100000000E-03 0.  1.
         12    1    4    4    0    0 -0.12013066878E+02  0.30060584789E+01 -0.19506147146E+02  0.23104976517E+02  0.00000000000E+00 0. -1.
</event>
<event>
 8    1  0.2484572E-006  0.9118800E+02  0.7816164E-02  0.1184000E+00
        -11   -1    0    0    0    0  0.00000000000E+00  0.00000000000E+00  0.45593999997E+02  0.45594000000E+02  0.51100000000E-03 0.  1.
         11   -1    0    0    0    0 -0.00000000000E+00 -0.00000000000E+00 -0.45593999997E+02  0.45594000000E+02  0.51100000000E-03 0. -1.
         23    2    1    2    0    0 -0.35527136788E-14  0.83266726847E-15  0.35527136788E-14  0.91188000000E+02  0.91188000000E+02 0.  0.
    9900012    2    3    3    0    0  0.25168372549E+02 -0.44539699709E+00 -0.26872562912E+02  0.54367082131E+02  0.39999995335E+02 0.  0.
        -12    1    3    3    0    0 -0.25168372549E+02  0.44539699709E+00  0.26872562912E+02  0.36820917869E+02  0.00000000000E+00 0.  1.
         11    1    4    4    0    0  0.95918883127E+01 -0.12969662368E+02 -0.96418089764E+01  0.18793108948E+02  0.51100000000E-03 0. -1.
        -11    1    4    4    0    0  0.14831023655E+02  0.86012176665E+01  0.74417085641E+00  0.17160827443E+02  0.51100000000E-03 0.  1.
         12    1    4    4    0    0  0.74546058087E+00  0.39230477047E+01 -0.17974924792E+02  0.18413145740E+02  0.00000000000E+00 0. -1.
</event>
<event>
 8    1  0.2484572E-006  0.9118800E+02  0.7816164E-02  0.1184000E+00
        -11   -1    0    0    0    0  0.00000000000E+00  0.00000000000E+00  0.45593999997E+02  0.45594000000E+02  0.51100000000E-03 0. -1.
         11   -1    0    0    0    0 -0.00000000000E+00 -0.00000000000E+00 -0.45593999997E+02  0.45594000000E+02  0.51100000000E-03 0.  1.
         23    2    1    2    0    0  0.35527136788E-14 -0.88817841970E-15  0.00000000000E+00  0.91188000000E+02  0.91188000000E+02 0.  0.
    9900012    2    3    3    0    0 -0.19420850361E+02  0.74143648528E+01 -0.30391440892E+02  0.54367056036E+02  0.39999935846E+02 0.  0.
         12    1    3    3    0    0  0.19420850361E+02 -0.74143648528E+01  0.30391440892E+02  0.36820943964E+02  0.00000000000E+00 0. -1.
         11    1    4    4    0    0  0.42927940345E+01  0.26178928534E+01 -0.29236297735E+02  0.29665511105E+02  0.51100000000E-03 0.  1.
        -11    1    4    4    0    0 -0.21398563457E+02  0.33134425727E+01  0.15922400115E+00  0.21654162931E+02  0.51100000000E-03 0. -1.
         12    1    4    4    0    0 -0.23150809385E+01  0.14830294266E+01 -0.13143671582E+01  0.30473820008E+01  0.00000000000E+00 0. -1.
</event>
<event>
 8    1  0.2484572E-006  0.9118800E+02  0.7816164E-02  0.1184000E+00
        -11   -1    0    0    0    0  0.00000000000E+00  0.00000000000E+00  0.45593999997E+02  0.45594000000E+02  0.51100000000E-03 0.  1.
         11   -1    0    0    0    0 -0.00000000000E+00 -0.00000000000E+00 -0.45593999997E+02  0.45594000000E+02  0.51100000000E-03 0. -1.
         23    2    1    2    0    0  0.00000000000E+00  0.35527136788E-14  0.00000000000E+00  0.91188000000E+02  0.91188000000E+02 0.  0.
    9900012    2    3    3    0    0 -0.23731592734E+02 -0.22992845051E+02  0.16245592492E+02  0.54367099785E+02  0.40000035579E+02 0.  0.
        -12    1    3    3    0    0  0.23731592734E+02  0.22992845051E+02 -0.16245592492E+02  0.36820900215E+02  0.00000000000E+00 0.  1.
         11    1    4    4    0    0 -0.15650373463E+02  0.20085152072E+01  0.10852132600E+02  0.19150381331E+02  0.51100000000E-03 0. -1.
        -11    1    4    4    0    0  0.78356450402E+01 -0.88011592653E+01  0.40709303900E+01  0.12467165360E+02  0.51100000000E-03 0.  1.
         12    1    4    4    0    0 -0.15916864311E+02 -0.16200200993E+02  0.13225295020E+01  0.22749553094E+02  0.00000000000E+00 0. -1.
</event>
<event>
 8    1  0.2484572E-006  0.9118800E+02  0.7816164E-02  0.1184000E+00
        -11   -1    0    0    0    0  0.00000000000E+00  0.00000000000E+00  0.45593999997E+02  0.45594000000E+02  0.51100000000E-03 0. -1.
         11   -1    0    0    0    0 -0.00000000000E+00 -0.00000000000E+00 -0.45593999997E+02  0.45594000000E+02  0.51100000000E-03 0.  1.
         23    2    1    2    0    0  0.00000000000E+00  0.35527136788E-14  0.00000000000E+00  0.91188000000E+02  0.91188000000E+02 0.  0.
    9900012    2    3    3    0    0  0.99278089528E+01 -0.18326905174E+02  0.30353660625E+02  0.54367060887E+02  0.39999946903E+02 0.  0.
        -12    1    3    3    0    0 -0.99278089528E+01  0.18326905174E+02 -0.30353660625E+02  0.36820939113E+02  0.00000000000E+00 0.  1.
         11    1    4    4    0    0  0.72966968738E+01  0.52533005710E+00  0.32115140717E+02  0.32937820518E+02  0.51100000000E-03 0. -1.
        -11    1    4    4    0    0  0.36616040090E+00  0.28219086244E+00 -0.21080193326E+01  0.21581128075E+01  0.51100000000E-03 0.  1.
         12    1    4    4    0    0  0.22649516781E+01 -0.19134426093E+02  0.34653924056E+00  0.19271127561E+02  0.00000000000E+00 0. -1.
</event>
<event>
 8    1  0.2484572E-006  0.9118800E+02  0.7816164E-02  0.1184000E+00
        -11   -1    0    0    0    0  0.00000000000E+00  0.00000000000E+00  0.45593999997E+02  0.45594000000E+02  0.51100000000E-03 0.  1.
         11   -1    0    0    0    0 -0.00000000000E+00 -0.00000000000E+00 -0.45593999997E+02  0.45594000000E+02  0.51100000000E-03 0. -1.
         23    2    1    2    0    0 -0.22204460493E-14  0.71054273576E-14  0.00000000000E+00  0.91188000000E+02  0.91188000000E+02 0.  0.
    9900012    2    3    3    0    0 -0.54837863796E+00 -0.36263686647E+02 -0.63581068497E+01  0.54367065587E+02  0.39999957618E+02 0.  0.
        -12    1    3    3    0    0  0.54837863796E+00  0.36263686647E+02  0.63581068497E+01  0.36820934413E+02  0.00000000000E+00 0.  1.
         11    1    4    4    0    0 -0.10136650030E+02 -0.20899383759E+02  0.61218198158E+01  0.24021086434E+02  0.51100000000E-03 0. -1.
        -11    1    4    4    0    0  0.80025414828E+01 -0.18056631616E+02 -0.25238622450E+01  0.19911114895E+02  0.51100000000E-03 0.  1.
         12    1    4    4    0    0  0.15857299088E+01  0.26923287280E+01 -0.99560644206E+01  0.10434864257E+02  0.00000000000E+00 0. -1.
</event>
<event>
 8    1  0.2484572E-006  0.9118800E+02  0.7816164E-02  0.1184000E+00
        -11   -1    0    0    0    0  0.00000000000E+00  0.00000000000E+00  0.45593999997E+02  0.45594000000E+02  0.51100000000E-03 0. -1.
         11   -1    0    0    0    0 -0.00000000000E+00 -0.00000000000E+00 -0.45593999997E+02  0.45594000000E+02  0.51100000000E-03 0.  1.
         23    2    1    2    0    0 -0.35527136788E-14  0.35527136788E-14  0.17763568394E-14  0.91188000000E+02  0.91188000000E+02 0.  0.
    9900012    2    3    3    0    0 -0.30045109985E+02  0.17721105353E+02 -0.11791258287E+02  0.54367082291E+02  0.39999995699E+02 0.  0.
         12    1    3    3    0    0  0.30045109985E+02 -0.17721105353E+02  0.11791258287E+02  0.36820917709E+02  0.00000000000E+00 0. -1.
         11    1    4    4    0    0 -0.14075985549E+02  0.29637278920E+01 -0.23782016014E+01  0.14579879812E+02  0.51100000000E-03 0. -1.
        -11    1    4    4    0    0 -0.14858657755E+02 -0.44893536817E+01 -0.12915767504E+02  0.20192846685E+02  0.51100000000E-03 0.  1.
         12    1    4    4    0    0 -0.11104666809E+01  0.19246731143E+02  0.35027108189E+01  0.19594355795E+02  0.00000000000E+00 0. -1.
</event>
<event>
 8    1  0.2484572E-006  0.9118800E+02  0.7816164E-02  0.1184000E+00
        -11   -1    0    0    0    0  0.00000000000E+00  0.00000000000E+00  0.45593999997E+02  0.45594000000E+02  0.51100000000E-03 0. -1.
         11   -1    0    0    0    0 -0.00000000000E+00 -0.00000000000E+00 -0.45593999997E+02  0.45594000000E+02  0.51100000000E-03 0.  1.
         23    2    1    2    0    0  0.00000000000E+00 -0.35527136788E-14  0.17763568394E-14  0.91188000000E+02  0.91188000000E+02 0.  0.
    9900012    2    3    3    0    0  0.30096618506E+02  0.20874629803E+02  0.37716485480E+01  0.54367055584E+02  0.39999934816E+02 0.  0.
        -12    1    3    3    0    0 -0.30096618506E+02 -0.20874629803E+02 -0.37716485480E+01  0.36820944416E+02  0.00000000000E+00 0.  1.
         11    1    4    4    0    0  0.26869868411E+02  0.15002509829E+02  0.64552478466E+01  0.31444162489E+02  0.51100000000E-03 0. -1.
        -11    1    4    4    0    0  0.25394120322E+01  0.36072786701E+00 -0.11894024420E+02  0.12167438318E+02  0.51100000000E-03 0.  1.
        -12    1    4    4    0    0  0.68733806225E+00  0.55113921073E+01  0.92104251210E+01  0.10755454778E+02  0.00000000000E+00 0.  1.
</event>
<event>
 8    1  0.2484572E-006  0.9118800E+02  0.7816164E-02  0.1184000E+00
        -11   -1    0    0    0    0  0.00000000000E+00  0.00000000000E+00  0.45593999997E+02  0.45594000000E+02  0.51100000000E-03 0. -1.
         11   -1    0    0    0    0 -0.00000000000E+00 -0.00000000000E+00 -0.45593999997E+02  0.45594000000E+02  0.51100000000E-03 0.  1.
         23    2    1    2    0    0  0.77715611724E-15  0.00000000000E+00  0.00000000000E+00  0.91188000000E+02  0.91188000000E+02 0.  0.
    9900012    2    3    3    0    0  0.25980274054E+00 -0.36198690534E+02 -0.67355331219E+01  0.54367080671E+02  0.39999992005E+02 0.  0.
        -12    1    3    3    0    0 -0.25980274054E+00  0.36198690534E+02  0.67355331219E+01  0.36820919329E+02  0.00000000000E+00 0.  1.
         11    1    4    4    0    0  0.79527452838E+00 -0.42759902387E+00  0.75735111542E+01  0.76271471708E+01  0.51100000000E-03 0. -1.
        -11    1    4    4    0    0 -0.13156010389E+02 -0.13203870613E+02 -0.59972630164E+01  0.19580346587E+02  0.51100000000E-03 0.  1.
        -12    1    4    4    0    0  0.12620538601E+02 -0.22567220897E+02 -0.83117812597E+01  0.27159586913E+02  0.00000000000E+00 0.  1.
</event>
<event>
 8    1  0.2484572E-006  0.9118800E+02  0.7816164E-02  0.1184000E+00
        -11   -1    0    0    0    0  0.00000000000E+00  0.00000000000E+00  0.45593999997E+02  0.45594000000E+02  0.51100000000E-03 0. -1.
         11   -1    0    0    0    0 -0.00000000000E+00 -0.00000000000E+00 -0.45593999997E+02  0.45594000000E+02  0.51100000000E-03 0.  1.
         23    2    1    2    0    0 -0.77715611724E-15 -0.35527136788E-14  0.00000000000E+00  0.91188000000E+02  0.91188000000E+02 0.  0.
    9900012    2    3    3    0    0  0.65055645247E+00 -0.28422423072E+02  0.23399207235E+02  0.54367078553E+02  0.39999987177E+02 0.  0.
        -12    1    3    3    0    0 -0.65055645247E+00  0.28422423072E+02 -0.23399207235E+02  0.36820921447E+02  0.00000000000E+00 0.  1.
         11    1    4    4    0    0  0.10518332335E+02 -0.14576371114E+02  0.30592499468E+02  0.35482487707E+02  0.51100000000E-03 0. -1.
        -11    1    4    4    0    0 -0.24549627892E+01 -0.11001404084E+01 -0.74482677029E+00  0.27914007941E+01  0.51100000000E-03 0.  1.
         12    1    4    4    0    0 -0.74128130936E+01 -0.12745911550E+02 -0.64484654628E+01  0.16093190051E+02  0.00000000000E+00 0. -1.
</event>
<event>
 8    1  0.2484572E-006  0.9118800E+02  0.7816164E-02  0.1184000E+00
        -11   -1    0    0    0    0  0.00000000000E+00  0.00000000000E+00  0.45593999997E+02  0.45594000000E+02  0.51100000000E-03 0.  1.
         11   -1    0    0    0    0 -0.00000000000E+00 -0.00000000000E+00 -0.45593999997E+02  0.45594000000E+02  0.51100000000E-03 0. -1.
         23    2    1    2    0    0  0.00000000000E+00  0.00000000000E+00 -0.88817841970E-15  0.91188000000E+02  0.91188000000E+02 0.  0.
    9900012    2    3    3    0    0  0.19211894604E+02 -0.30937306212E+02  0.54375156427E+01  0.54367076787E+02  0.39999983151E+02 0.  0.
        -12    1    3    3    0    0 -0.19211894604E+02  0.30937306212E+02 -0.54375156427E+01  0.36820923213E+02  0.00000000000E+00 0.  1.
         11    1    4    4    0    0  0.10995580471E+02 -0.18134302497E+01  0.46047384131E+01  0.12057982222E+02  0.51100000000E-03 0.  1.
        -11    1    4    4    0    0  0.18335479292E+02 -0.10581709007E+02  0.81202886175E+00  0.21185413791E+02  0.51100000000E-03 0. -1.
        -12    1    4    4    0    0 -0.10119165159E+02 -0.18542166955E+02  0.20748367847E-01  0.21123680773E+02  0.00000000000E+00 0.  1.
</event>
<event>
 8    1  0.2484572E-006  0.9118800E+02  0.7816164E-02  0.1184000E+00
        -11   -1    0    0    0    0  0.00000000000E+00  0.00000000000E+00  0.45593999997E+02  0.45594000000E+02  0.51100000000E-03 0. -1.
         11   -1    0    0    0    0 -0.00000000000E+00 -0.00000000000E+00 -0.45593999997E+02  0.45594000000E+02  0.51100000000E-03 0.  1.
         23    2    1    2    0    0 -0.18873791419E-14 -0.35527136788E-14  0.00000000000E+00  0.91188000000E+02  0.91188000000E+02 0.  0.
    9900012    2    3    3    0    0 -0.89416725383E+00 -0.16382975085E+02  0.32963314875E+02  0.54367061184E+02  0.39999947581E+02 0.  0.
        -12    1    3    3    0    0  0.89416725383E+00  0.16382975085E+02 -0.32963314875E+02  0.36820938816E+02  0.00000000000E+00 0.  1.
         11    1    4    4    0    0 -0.11888305498E+02 -0.33064121333E+01  0.54916415656E+01  0.13506379832E+02  0.51100000000E-03 0. -1.
        -11    1    4    4    0    0  0.92776487147E+01 -0.87683038391E+01  0.31954888744E+02  0.34410359382E+02  0.51100000000E-03 0.  1.
        -12    1    4    4    0    0  0.17164895296E+01 -0.43082591130E+01 -0.44832154343E+01  0.64503219703E+01  0.00000000000E+00 0.  1.
</event>
<event>
 8    1  0.2484572E-006  0.9118800E+02  0.7816164E-02  0.1184000E+00
        -11   -1    0    0    0    0  0.00000000000E+00  0.00000000000E+00  0.45593999997E+02  0.45594000000E+02  0.51100000000E-03 0.  1.
         11   -1    0    0    0    0 -0.00000000000E+00 -0.00000000000E+00 -0.45593999997E+02  0.45594000000E+02  0.51100000000E-03 0. -1.
         23    2    1    2    0    0  0.00000000000E+00  0.17763568394E-14  0.88817841970E-15  0.91188000000E+02  0.91188000000E+02 0.  0.
    9900012    2    3    3    0    0  0.34264330626E+02 -0.12746046285E+02  0.43903853293E+01  0.54367061222E+02  0.39999947668E+02 0.  0.
         12    1    3    3    0    0 -0.34264330626E+02  0.12746046285E+02 -0.43903853293E+01  0.36820938778E+02  0.00000000000E+00 0. -1.
         11    1    4    4    0    0 -0.56242540660E+01  0.53247670430E+01 -0.28192086469E+01  0.82421669188E+01  0.51100000000E-03 0. -1.
        -11    1    4    4    0    0  0.14214778681E+02 -0.12193426358E+02 -0.32343202058E+00  0.18730835215E+02  0.51100000000E-03 0.  1.
         12    1    4    4    0    0  0.25673806011E+02 -0.58773869696E+01  0.75330259969E+01  0.27394059089E+02  0.00000000000E+00 0. -1.
</event>
<event>
 8    1  0.2484572E-006  0.9118800E+02  0.7816164E-02  0.1184000E+00
        -11   -1    0    0    0    0  0.00000000000E+00  0.00000000000E+00  0.45593999997E+02  0.45594000000E+02  0.51100000000E-03 0. -1.
         11   -1    0    0    0    0 -0.00000000000E+00 -0.00000000000E+00 -0.45593999997E+02  0.45594000000E+02  0.51100000000E-03 0.  1.
         23    2    1    2    0    0  0.00000000000E+00  0.88817841970E-15 -0.35527136788E-14  0.91188000000E+02  0.91188000000E+02 0.  0.
    9900012    2    3    3    0    0 -0.28923105098E+02 -0.70061984140E+01  0.21682880274E+02  0.54367080379E+02  0.39999991340E+02 0.  0.
        -12    1    3    3    0    0  0.28923105098E+02  0.70061984140E+01 -0.21682880274E+02  0.36820919621E+02  0.00000000000E+00 0.  1.
         11    1    4    4    0    0  0.40741521415E+01 -0.90130605517E+01 -0.19530030100E+01  0.10082073061E+02  0.51100000000E-03 0.  1.
        -11    1    4    4    0    0 -0.10991930303E+02 -0.21731676423E+01 -0.67951229289E+00  0.11225280692E+02  0.51100000000E-03 0. -1.
         12    1    4    4    0    0 -0.22005326937E+02  0.41800297800E+01  0.24315395577E+02  0.33059726627E+02  0.00000000000E+00 0. -1.
</event>
<event>
 8    1  0.2484572E-006  0.9118800E+02  0.7816164E-02  0.1184000E+00
        -11   -1    0    0    0    0  0.00000000000E+00  0.00000000000E+00  0.45593999997E+02  0.45594000000E+02  0.51100000000E-03 0. -1.
         11   -1    0    0    0    0 -0.00000000000E+00 -0.00000000000E+00 -0.45593999997E+02  0.45594000000E+02  0.51100000000E-03 0.  1.
         23    2    1    2    0    0 -0.55511151231E-15  0.00000000000E+00 -0.88817841970E-15  0.91188000000E+02  0.91188000000E+02 0.  0.
    9900012    2    3    3    0    0  0.49142492956E+00 -0.36541830712E+02 -0.44979499457E+01  0.54367103162E+02  0.40000043278E+02 0.  0.
        -12    1    3    3    0    0 -0.49142492956E+00  0.36541830712E+02  0.44979499457E+01  0.36820896838E+02  0.00000000000E+00 0.  1.
         11    1    4    4    0    0  0.12011679666E+02 -0.10977224075E+02  0.55488642321E+01  0.17192143302E+02  0.51100000000E-03 0. -1.
        -11    1    4    4    0    0 -0.13439859461E+01  0.22085471535E+01  0.37354339754E+01  0.45428455838E+01  0.51100000000E-03 0.  1.
         12    1    4    4    0    0 -0.10176268790E+02 -0.27773153791E+02 -0.13782248153E+02  0.32632114276E+02  0.00000000000E+00 0. -1.
</event>
<event>
 8    1  0.2484572E-006  0.9118800E+02  0.7816164E-02  0.1184000E+00
        -11   -1    0    0    0    0  0.00000000000E+00  0.00000000000E+00  0.45593999997E+02  0.45594000000E+02  0.51100000000E-03 0. -1.
         11   -1    0    0    0    0 -0.00000000000E+00 -0.00000000000E+00 -0.45593999997E+02  0.45594000000E+02  0.51100000000E-03 0.  1.
         23    2    1    2    0    0 -0.17763568394E-14  0.35527136788E-14 -0.71054273576E-14  0.91188000000E+02  0.91188000000E+02 0.  0.
    9900012    2    3    3    0    0 -0.11446716127E+02  0.21190963727E+02 -0.27851278285E+02  0.54367109789E+02  0.40000058387E+02 0.  0.
         12    1    3    3    0    0  0.11446716127E+02 -0.21190963727E+02  0.27851278285E+02  0.36820890211E+02  0.00000000000E+00 0. -1.
         11    1    4    4    0    0  0.33370902272E+01  0.10123339782E+01  0.39525065714E+01  0.52709865989E+01  0.51100000000E-03 0. -1.
        -11    1    4    4    0    0 -0.29383433763E+01  0.15744458026E+02 -0.12939830334E+01  0.16068485078E+02  0.51100000000E-03 0.  1.
        -12    1    4    4    0    0 -0.11845462978E+02  0.44341717230E+01 -0.30509801823E+02  0.33027638113E+02  0.00000000000E+00 0.  1.
</event>
<event>
 8    1  0.2484572E-006  0.9118800E+02  0.7816164E-02  0.1184000E+00
        -11   -1    0    0    0    0  0.00000000000E+00  0.00000000000E+00  0.45593999997E+02  0.45594000000E+02  0.51100000000E-03 0.  1.
         11   -1    0    0    0    0 -0.00000000000E+00 -0.00000000000E+00 -0.45593999997E+02  0.45594000000E+02  0.51100000000E-03 0. -1.
         23    2    1    2    0    0 -0.14210854715E-13 -0.62450045135E-15  0.44408920985E-15  0.91188000000E+02  0.91188000000E+02 0.  0.
    9900012    2    3    3    0    0  0.36622969349E+02 -0.10038362950E+00  0.38110044017E+01  0.54367140214E+02  0.40000127746E+02 0.  0.
        -12    1    3    3    0    0 -0.36622969349E+02  0.10038362950E+00 -0.38110044017E+01  0.36820859786E+02  0.00000000000E+00 0.  1.
         11    1    4    4    0    0  0.11074088296E+02 -0.15586977784E+02  0.21872560733E+01  0.19245087617E+02  0.51100000000E-03 0. -1.
        -11    1    4    4    0    0  0.10291443396E+01 -0.11942075851E+01 -0.45631166229E+01  0.48277638098E+01  0.51100000000E-03 0.  1.
        -12    1    4    4    0    0  0.24519736714E+02  0.16680801739E+02  0.61868649513E+01  0.30294288787E+02  0.00000000000E+00 0.  1.
</event>
<event>
 8    1  0.2484572E-006  0.9118800E+02  0.7816164E-02  0.1184000E+00
        -11   -1    0    0    0    0  0.00000000000E+00  0.00000000000E+00  0.45593999997E+02  0.45594000000E+02  0.51100000000E-03 0. -1.
         11   -1    0    0    0    0 -0.00000000000E+00 -0.00000000000E+00 -0.45593999997E+02  0.45594000000E+02  0.51100000000E-03 0.  1.
         23    2    1    2    0    0  0.00000000000E+00  0.00000000000E+00 -0.71054273576E-14  0.91188000000E+02  0.91188000000E+02 0.  0.
    9900012    2    3    3    0    0  0.79827679967E+01  0.22712355977E+02 -0.27860446205E+02  0.54367079837E+02  0.39999990104E+02 0.  0.
         12    1    3    3    0    0 -0.79827679967E+01 -0.22712355977E+02  0.27860446205E+02  0.36820920163E+02  0.00000000000E+00 0. -1.
         11    1    4    4    0    0  0.13221637619E+02  0.10580278314E+02  0.54142651286E+01  0.17778308627E+02  0.51100000000E-03 0. -1.
        -11    1    4    4    0    0 -0.60341218321E+01  0.47655206683E+01 -0.14669091602E+02  0.16562097157E+02  0.51100000000E-03 0.  1.
         12    1    4    4    0    0  0.79525221023E+00  0.73665569948E+01 -0.18605619731E+02  0.20026674053E+02  0.00000000000E+00 0. -1.
</event>
<event>
 8    1  0.2484572E-006  0.9118800E+02  0.7816164E-02  0.1184000E+00
        -11   -1    0    0    0    0  0.00000000000E+00  0.00000000000E+00  0.45593999997E+02  0.45594000000E+02  0.51100000000E-03 0.  1.
         11   -1    0    0    0    0 -0.00000000000E+00 -0.00000000000E+00 -0.45593999997E+02  0.45594000000E+02  0.51100000000E-03 0. -1.
         23    2    1    2    0    0  0.00000000000E+00  0.17763568394E-14  0.35527136788E-14  0.91188000000E+02  0.91188000000E+02 0.  0.
    9900012    2    3    3    0    0  0.16193847258E+02  0.14427883593E+02  0.29755363776E+02  0.54366998012E+02  0.39999803566E+02 0.  0.
         12    1    3    3    0    0 -0.16193847258E+02 -0.14427883593E+02 -0.29755363776E+02  0.36821001988E+02  0.00000000000E+00 0. -1.
         11    1    4    4    0    0  0.13316847602E+02  0.15566583803E+02  0.27604947045E+02  0.34375719090E+02  0.51100000000E-03 0. -1.
        -11    1    4    4    0    0  0.44851284079E+01  0.87574900324E+01  0.13833647149E+01  0.99359804095E+01  0.51100000000E-03 0.  1.
         12    1    4    4    0    0 -0.16081287519E+01 -0.98961902415E+01  0.76705201644E+00  0.10055298512E+02  0.00000000000E+00 0. -1.
</event>
<event>
 8    1  0.2484572E-006  0.9118800E+02  0.7816164E-02  0.1184000E+00
        -11   -1    0    0    0    0  0.00000000000E+00  0.00000000000E+00  0.45593999997E+02  0.45594000000E+02  0.51100000000E-03 0. -1.
         11   -1    0    0    0    0 -0.00000000000E+00 -0.00000000000E+00 -0.45593999997E+02  0.45594000000E+02  0.51100000000E-03 0.  1.
         23    2    1    2    0    0  0.00000000000E+00  0.00000000000E+00  0.00000000000E+00  0.91188000000E+02  0.91188000000E+02 0.  0.
    9900012    2    3    3    0    0 -0.10656279516E+02 -0.71792893318E+01 -0.34506243920E+02  0.54367090751E+02  0.40000014985E+02 0.  0.
         12    1    3    3    0    0  0.10656279516E+02  0.71792893318E+01  0.34506243920E+02  0.36820909249E+02  0.00000000000E+00 0. -1.
         11    1    4    4    0    0 -0.14369561927E+02 -0.92496877820E+01 -0.21699300464E+02  0.27620656671E+02  0.51100000000E-03 0. -1.
        -11    1    4    4    0    0 -0.71059363363E+01 -0.71745473903E+00  0.26986380955E+01  0.76349014629E+01  0.51100000000E-03 0.  1.
        -12    1    4    4    0    0  0.10819218748E+02  0.27878531892E+01 -0.15505581552E+02  0.19111532617E+02  0.00000000000E+00 0.  1.
</event>
<event>
 8    1  0.2484572E-006  0.9118800E+02  0.7816164E-02  0.1184000E+00
        -11   -1    0    0    0    0  0.00000000000E+00  0.00000000000E+00  0.45593999997E+02  0.45594000000E+02  0.51100000000E-03 0.  1.
         11   -1    0    0    0    0 -0.00000000000E+00 -0.00000000000E+00 -0.45593999997E+02  0.45594000000E+02  0.51100000000E-03 0. -1.
         23    2    1    2    0    0 -0.17763568394E-14  0.00000000000E+00  0.35527136788E-14  0.91188000000E+02  0.91188000000E+02 0.  0.
    9900012    2    3    3    0    0  0.89928192536E+01  0.27117983483E+02 -0.23227689940E+02  0.54367062936E+02  0.39999951575E+02 0.  0.
        -12    1    3    3    0    0 -0.89928192536E+01 -0.27117983483E+02  0.23227689940E+02  0.36820937064E+02  0.00000000000E+00 0.  1.
         11    1    4    4    0    0 -0.97810321323E+01  0.15989984529E+02  0.21036986319E+01  0.18861965513E+02  0.51100000000E-03 0.  1.
        -11    1    4    4    0    0  0.10982821455E+02  0.56357576826E+01 -0.22323877960E+02  0.25509599354E+02  0.51100000000E-03 0. -1.
         12    1    4    4    0    0  0.77910299312E+01  0.54922412714E+01 -0.30075106120E+01  0.99954980692E+01  0.00000000000E+00 0. -1.
</event>
<event>
 8    1  0.2484572E-006  0.9118800E+02  0.7816164E-02  0.1184000E+00
        -11   -1    0    0    0    0  0.00000000000E+00  0.00000000000E+00  0.45593999997E+02  0.45594000000E+02  0.51100000000E-03 0.  1.
         11   -1    0    0    0    0 -0.00000000000E+00 -0.00000000000E+00 -0.45593999997E+02  0.45594000000E+02  0.51100000000E-03 0. -1.
         23    2    1    2    0    0  0.17763568394E-14  0.00000000000E+00  0.00000000000E+00  0.91188000000E+02  0.91188000000E+02 0.  0.
    9900012    2    3    3    0    0 -0.15856229896E+02 -0.12108562671E+02  0.30947468825E+02  0.54367039351E+02  0.39999897808E+02 0.  0.
         12    1    3    3    0    0  0.15856229896E+02  0.12108562671E+02 -0.30947468825E+02  0.36820960649E+02  0.00000000000E+00 0. -1.
         11    1    4    4    0    0 -0.14172531996E+02  0.49545843582E+01  0.26125369499E+01  0.15239223042E+02  0.51100000000E-03 0. -1.
        -11    1    4    4    0    0  0.11529762835E+01 -0.67096062891E+01 -0.18797836950E+01  0.70627018814E+01  0.51100000000E-03 0.  1.
        -12    1    4    4    0    0 -0.28366741837E+01 -0.10353540740E+02  0.30214715570E+02  0.32065114427E+02  0.00000000000E+00 0.  1.
</event>
<event>
 8    1  0.2484572E-006  0.9118800E+02  0.7816164E-02  0.1184000E+00
        -11   -1    0    0    0    0  0.00000000000E+00  0.00000000000E+00  0.45593999997E+02  0.45594000000E+02  0.51100000000E-03 0.  1.
         11   -1    0    0    0    0 -0.00000000000E+00 -0.00000000000E+00 -0.45593999997E+02  0.45594000000E+02  0.51100000000E-03 0. -1.
         23    2    1    2    0    0  0.00000000000E+00  0.00000000000E+00  0.00000000000E+00  0.91188000000E+02  0.91188000000E+02 0.  0.
    9900012    2    3    3    0    0  0.33182219813E+02 -0.15294143735E+02 -0.45614704092E+01  0.54367115212E+02  0.40000070748E+02 0.  0.
         12    1    3    3    0    0 -0.33182219813E+02  0.15294143735E+02  0.45614704092E+01  0.36820884788E+02  0.00000000000E+00 0. -1.
         11    1    4    4    0    0  0.25414490861E+02 -0.10572440030E+02  0.33553872934E+01  0.27729613377E+02  0.51100000000E-03 0. -1.
        -11    1    4    4    0    0  0.15548013822E+02  0.95949622148E+00 -0.31662060908E+01  0.15896107325E+02  0.51100000000E-03 0.  1.
         12    1    4    4    0    0 -0.77802848704E+01 -0.56811999267E+01 -0.47506516118E+01  0.10741394510E+02  0.00000000000E+00 0. -1.
</event>
<event>
 8    1  0.2484572E-006  0.9118800E+02  0.7816164E-02  0.1184000E+00
        -11   -1    0    0    0    0  0.00000000000E+00  0.00000000000E+00  0.45593999997E+02  0.45594000000E+02  0.51100000000E-03 0. -1.
         11   -1    0    0    0    0 -0.00000000000E+00 -0.00000000000E+00 -0.45593999997E+02  0.45594000000E+02  0.51100000000E-03 0.  1.
         23    2    1    2    0    0  0.35527136788E-14  0.35527136788E-14  0.00000000000E+00  0.91188000000E+02  0.91188000000E+02 0.  0.
    9900012    2    3    3    0    0  0.17923692274E+02  0.26581780338E+02  0.18108839466E+02  0.54367083968E+02  0.39999999521E+02 0.  0.
        -12    1    3    3    0    0 -0.17923692274E+02 -0.26581780338E+02 -0.18108839466E+02  0.36820916032E+02  0.00000000000E+00 0.  1.
         11    1    4    4    0    0 -0.14225527773E+01  0.71659867627E+01  0.10163713497E+02  0.12517032196E+02  0.51100000000E-03 0. -1.
        -11    1    4    4    0    0 -0.69949875403E+01  0.12102872221E+01 -0.34106433303E+01  0.78757306986E+01  0.51100000000E-03 0.  1.
        -12    1    4    4    0    0  0.26341232591E+02  0.18205506353E+02  0.11355769299E+02  0.33974321073E+02  0.00000000000E+00 0.  1.
</event>
<event>
 8    1  0.2484572E-006  0.9118800E+02  0.7816164E-02  0.1184000E+00
        -11   -1    0    0    0    0  0.00000000000E+00  0.00000000000E+00  0.45593999997E+02  0.45594000000E+02  0.51100000000E-03 0.  1.
         11   -1    0    0    0    0 -0.00000000000E+00 -0.00000000000E+00 -0.45593999997E+02  0.45594000000E+02  0.51100000000E-03 0. -1.
         23    2    1    2    0    0  0.00000000000E+00  0.00000000000E+00  0.00000000000E+00  0.91188000000E+02  0.91188000000E+02 0.  0.
    9900012    2    3    3    0    0  0.16410542900E+02 -0.31251835616E+02 -0.10478443804E+02  0.54367069373E+02  0.39999966250E+02 0.  0.
        -12    1    3    3    0    0 -0.16410542900E+02  0.31251835616E+02  0.10478443804E+02  0.36820930627E+02  0.00000000000E+00 0.  1.
         11    1    4    4    0    0  0.19041813856E+02 -0.34492063689E+02 -0.42943762459E+01  0.39632496768E+02  0.51100000000E-03 0. -1.
        -11    1    4    4    0    0  0.27723397961E+01  0.52555621568E+01  0.43211629965E+00  0.59576443572E+01  0.51100000000E-03 0.  1.
         12    1    4    4    0    0 -0.54036107523E+01 -0.20153340846E+01 -0.66161838578E+01  0.87769282482E+01  0.00000000000E+00 0. -1.
</event>
<event>
 8    1  0.2484572E-006  0.9118800E+02  0.7816164E-02  0.1184000E+00
        -11   -1    0    0    0    0  0.00000000000E+00  0.00000000000E+00  0.45593999997E+02  0.45594000000E+02  0.51100000000E-03 0.  1.
         11   -1    0    0    0    0 -0.00000000000E+00 -0.00000000000E+00 -0.45593999997E+02  0.45594000000E+02  0.51100000000E-03 0. -1.
         23    2    1    2    0    0  0.35527136788E-14  0.00000000000E+00  0.00000000000E+00  0.91188000000E+02  0.91188000000E+02 0.  0.
    9900012    2    3    3    0    0  0.23340793929E+02  0.15407508949E+02  0.23949841901E+02  0.54367096693E+02  0.40000028531E+02 0.  0.
         12    1    3    3    0    0 -0.23340793929E+02 -0.15407508949E+02 -0.23949841901E+02  0.36820903307E+02  0.00000000000E+00 0. -1.
         11    1    4    4    0    0 -0.16157516450E+01 -0.14224800641E+01  0.13730496313E+02  0.13898224065E+02  0.51100000000E-03 0. -1.
        -11    1    4    4    0    0  0.26879354535E+02  0.12644023017E+02  0.15463653681E+02  0.33488738461E+02  0.51100000000E-03 0.  1.
        -12    1    4    4    0    0 -0.19228089608E+01  0.41859659962E+01 -0.52443080926E+01  0.69801341671E+01  0.00000000000E+00 0.  1.
</event>
<event>
 8    1  0.2484572E-006  0.9118800E+02  0.7816164E-02  0.1184000E+00
        -11   -1    0    0    0    0  0.00000000000E+00  0.00000000000E+00  0.45593999997E+02  0.45594000000E+02  0.51100000000E-03 0.  1.
         11   -1    0    0    0    0 -0.00000000000E+00 -0.00000000000E+00 -0.45593999997E+02  0.45594000000E+02  0.51100000000E-03 0. -1.
         23    2    1    2    0    0  0.35527136788E-14 -0.13322676296E-14  0.00000000000E+00  0.91188000000E+02  0.91188000000E+02 0.  0.
    9900012    2    3    3    0    0 -0.21991491876E+02  0.31737341252E+01  0.29361219862E+02  0.54367088346E+02  0.40000009503E+02 0.  0.
         12    1    3    3    0    0  0.21991491876E+02 -0.31737341252E+01 -0.29361219862E+02  0.36820911654E+02  0.00000000000E+00 0. -1.
         11    1    4    4    0    0 -0.24732946391E+02 -0.91653576997E+01  0.18124375057E+02  0.32003365298E+02  0.51100000000E-03 0. -1.
        -11    1    4    4    0    0 -0.13954797402E+01 -0.30437979555E+01  0.26297447863E+01  0.42576551764E+01  0.51100000000E-03 0.  1.
        -12    1    4    4    0    0  0.41369342557E+01  0.15382889780E+02  0.86071000190E+01  0.18106067872E+02  0.00000000000E+00 0.  1.
</event>
<event>
 8    1  0.2484572E-006  0.9118800E+02  0.7816164E-02  0.1184000E+00
        -11   -1    0    0    0    0  0.00000000000E+00  0.00000000000E+00  0.45593999997E+02  0.45594000000E+02  0.51100000000E-03 0.  1.
         11   -1    0    0    0    0 -0.00000000000E+00 -0.00000000000E+00 -0.45593999997E+02  0.45594000000E+02  0.51100000000E-03 0. -1.
         23    2    1    2    0    0  0.35527136788E-14  0.00000000000E+00 -0.88817841970E-15  0.91188000000E+02  0.91188000000E+02 0.  0.
    9900012    2    3    3    0    0 -0.27262886727E+02 -0.24228435796E+02  0.50494386464E+01  0.54367096637E+02  0.40000028404E+02 0.  0.
         12    1    3    3    0    0  0.27262886727E+02  0.24228435796E+02 -0.50494386464E+01  0.36820903363E+02  0.00000000000E+00 0. -1.
         11    1    4    4    0    0 -0.29531539762E+02 -0.98604150893E+01 -0.30364559795E+01  0.31281938745E+02  0.51100000000E-03 0. -1.
        -11    1    4    4    0    0 -0.14657014887E+00 -0.12250921529E+02 -0.20772063287E+01  0.12426638625E+02  0.51100000000E-03 0.  1.
         12    1    4    4    0    0  0.24152231843E+01 -0.21170991778E+01  0.10163100955E+02  0.10658519267E+02  0.00000000000E+00 0. -1.
</event>
<event>
 8    1  0.2484572E-006  0.9118800E+02  0.7816164E-02  0.1184000E+00
        -11   -1    0    0    0    0  0.00000000000E+00  0.00000000000E+00  0.45593999997E+02  0.45594000000E+02  0.51100000000E-03 0. -1.
         11   -1    0    0    0    0 -0.00000000000E+00 -0.00000000000E+00 -0.45593999997E+02  0.45594000000E+02  0.51100000000E-03 0.  1.
         23    2    1    2    0    0  0.00000000000E+00  0.35527136788E-14  0.00000000000E+00  0.91188000000E+02  0.91188000000E+02 0.  0.
    9900012    2    3    3    0    0  0.91977291189E+01  0.27053328803E+02 -0.23222776592E+02  0.54367106843E+02  0.40000051669E+02 0.  0.
         12    1    3    3    0    0 -0.91977291189E+01 -0.27053328803E+02  0.23222776592E+02  0.36820893157E+02  0.00000000000E+00 0. -1.
         11    1    4    4    0    0  0.11324357385E+02  0.29120031215E+00  0.22746764470E+01  0.11554220917E+02  0.51100000000E-03 0. -1.
        -11    1    4    4    0    0 -0.10778761289E+02  0.13441906490E+02 -0.74505778755E+01  0.18771724906E+02  0.51100000000E-03 0.  1.
        -12    1    4    4    0    0  0.86521330228E+01  0.13320222001E+02 -0.18046875163E+02  0.24041161019E+02  0.00000000000E+00 0.  1.
</event>
<event>
 8    1  0.2484572E-006  0.9118800E+02  0.7816164E-02  0.1184000E+00
        -11   -1    0    0    0    0  0.00000000000E+00  0.00000000000E+00  0.45593999997E+02  0.45594000000E+02  0.51100000000E-03 0.  1.
         11   -1    0    0    0    0 -0.00000000000E+00 -0.00000000000E+00 -0.45593999997E+02  0.45594000000E+02  0.51100000000E-03 0. -1.
         23    2    1    2    0    0  0.00000000000E+00  0.88817841970E-15  0.00000000000E+00  0.91188000000E+02  0.91188000000E+02 0.  0.
    9900012    2    3    3    0    0  0.14931338349E+02  0.53633205808E+01  0.33227548840E+02  0.54367081021E+02  0.39999992805E+02 0.  0.
         12    1    3    3    0    0 -0.14931338349E+02 -0.53633205808E+01 -0.33227548840E+02  0.36820918979E+02  0.00000000000E+00 0. -1.
         11    1    4    4    0    0 -0.26126420037E+01 -0.21409064966E+00 -0.36117522285E+01  0.44627892026E+01  0.51100000000E-03 0. -1.
        -11    1    4    4    0    0  0.21930581569E+02  0.15227338248E+01  0.13466311068E+02  0.25780043838E+02  0.51100000000E-03 0.  1.
         12    1    4    4    0    0 -0.43866012163E+01  0.40546774057E+01  0.23372990000E+02  0.24124247981E+02  0.00000000000E+00 0. -1.
</event>
<event>
 8    1  0.2484572E-006  0.9118800E+02  0.7816164E-02  0.1184000E+00
        -11   -1    0    0    0    0  0.00000000000E+00  0.00000000000E+00  0.45593999997E+02  0.45594000000E+02  0.51100000000E-03 0. -1.
         11   -1    0    0    0    0 -0.00000000000E+00 -0.00000000000E+00 -0.45593999997E+02  0.45594000000E+02  0.51100000000E-03 0.  1.
         23    2    1    2    0    0 -0.44408920985E-15 -0.17763568394E-14  0.00000000000E+00  0.91188000000E+02  0.91188000000E+02 0.  0.
    9900012    2    3    3    0    0 -0.37418687911E+01  0.11498054404E+02 -0.34778930684E+02  0.54367070399E+02  0.39999968589E+02 0.  0.
         12    1    3    3    0    0  0.37418687911E+01 -0.11498054404E+02  0.34778930684E+02  0.36820929601E+02  0.00000000000E+00 0. -1.
         11    1    4    4    0    0 -0.54245912012E+00 -0.25842174655E+01  0.56716278315E+00  0.27007620572E+01  0.51100000000E-03 0. -1.
        -11    1    4    4    0    0  0.98158757810E+01  0.21537393547E+00 -0.30498772722E+02  0.32040176983E+02  0.51100000000E-03 0.  1.
         12    1    4    4    0    0 -0.13015285452E+02  0.13866897934E+02 -0.48473207451E+01  0.19626131359E+02  0.00000000000E+00 0. -1.
</event>
<event>
 8    1  0.2484572E-006  0.9118800E+02  0.7816164E-02  0.1184000E+00
        -11   -1    0    0    0    0  0.00000000000E+00  0.00000000000E+00  0.45593999997E+02  0.45594000000E+02  0.51100000000E-03 0. -1.
         11   -1    0    0    0    0 -0.00000000000E+00 -0.00000000000E+00 -0.45593999997E+02  0.45594000000E+02  0.51100000000E-03 0.  1.
         23    2    1    2    0    0  0.00000000000E+00  0.00000000000E+00  0.00000000000E+00  0.91188000000E+02  0.91188000000E+02 0.  0.
    9900012    2    3    3    0    0  0.32286855042E+02  0.15211162746E+02  0.90528364249E+01  0.54367159055E+02  0.40000170697E+02 0.  0.
        -12    1    3    3    0    0 -0.32286855042E+02 -0.15211162746E+02 -0.90528364249E+01  0.36820840945E+02  0.00000000000E+00 0.  1.
         11    1    4    4    0    0  0.20787374792E+02  0.15284158807E+02 -0.58261453879E+01  0.26451170703E+02  0.51100000000E-03 0.  1.
        -11    1    4    4    0    0  0.14474256845E+02  0.24482748406E+01  0.17779058470E+02  0.23056302419E+02  0.51100000000E-03 0. -1.
        -12    1    4    4    0    0 -0.29747765956E+01 -0.25212709015E+01 -0.29000766569E+01  0.48596859331E+01  0.00000000000E+00 0.  1.
</event>
<event>
 8    1  0.2484572E-006  0.9118800E+02  0.7816164E-02  0.1184000E+00
        -11   -1    0    0    0    0  0.00000000000E+00  0.00000000000E+00  0.45593999997E+02  0.45594000000E+02  0.51100000000E-03 0. -1.
         11   -1    0    0    0    0 -0.00000000000E+00 -0.00000000000E+00 -0.45593999997E+02  0.45594000000E+02  0.51100000000E-03 0.  1.
         23    2    1    2    0    0 -0.35527136788E-14  0.00000000000E+00 -0.35527136788E-14  0.91188000000E+02  0.91188000000E+02 0.  0.
    9900012    2    3    3    0    0 -0.30223007115E+02 -0.94079639727E+01  0.18810652427E+02  0.54367074022E+02  0.39999976848E+02 0.  0.
         12    1    3    3    0    0  0.30223007115E+02  0.94079639727E+01 -0.18810652427E+02  0.36820925978E+02  0.00000000000E+00 0. -1.
         11    1    4    4    0    0 -0.10143260917E+02  0.34480895686E+01  0.85644904977E+01  0.13715887191E+02  0.51100000000E-03 0. -1.
        -11    1    4    4    0    0 -0.28248523676E+02 -0.74466134535E+01  0.53536751702E+01  0.29700050167E+02  0.51100000000E-03 0.  1.
         12    1    4    4    0    0  0.81687774783E+01 -0.54094400879E+01  0.48924867586E+01  0.10951136664E+02  0.00000000000E+00 0. -1.
</event>
<event>
 8    1  0.2484572E-006  0.9118800E+02  0.7816164E-02  0.1184000E+00
        -11   -1    0    0    0    0  0.00000000000E+00  0.00000000000E+00  0.45593999997E+02  0.45594000000E+02  0.51100000000E-03 0. -1.
         11   -1    0    0    0    0 -0.00000000000E+00 -0.00000000000E+00 -0.45593999997E+02  0.45594000000E+02  0.51100000000E-03 0.  1.
         23    2    1    2    0    0  0.35527136788E-14  0.00000000000E+00  0.00000000000E+00  0.91188000000E+02  0.91188000000E+02 0.  0.
    9900012    2    3    3    0    0  0.12966267959E+02 -0.31090059722E+02  0.14868141141E+02  0.54367115446E+02  0.40000071283E+02 0.  0.
        -12    1    3    3    0    0 -0.12966267959E+02  0.31090059722E+02 -0.14868141141E+02  0.36820884554E+02  0.00000000000E+00 0.  1.
         11    1    4    4    0    0 -0.56967456163E+01 -0.10710766733E+02  0.10014317518E+02  0.15730861077E+02  0.51100000000E-03 0. -1.
        -11    1    4    4    0    0 -0.32501591122E+01  0.42270985901E+01  0.13549984639E+01  0.55016286537E+01  0.51100000000E-03 0.  1.
         12    1    4    4    0    0  0.21913172688E+02 -0.24606391580E+02  0.34988251594E+01  0.33134625716E+02  0.00000000000E+00 0. -1.
</event>
<event>
 8    1  0.2484572E-006  0.9118800E+02  0.7816164E-02  0.1184000E+00
        -11   -1    0    0    0    0  0.00000000000E+00  0.00000000000E+00  0.45593999997E+02  0.45594000000E+02  0.51100000000E-03 0.  1.
         11   -1    0    0    0    0 -0.00000000000E+00 -0.00000000000E+00 -0.45593999997E+02  0.45594000000E+02  0.51100000000E-03 0. -1.
         23    2    1    2    0    0  0.00000000000E+00  0.00000000000E+00  0.35527136788E-14  0.91188000000E+02  0.91188000000E+02 0.  0.
    9900012    2    3    3    0    0 -0.84476890879E+00 -0.18385076712E+02 -0.31891285063E+02  0.54367099098E+02  0.40000034014E+02 0.  0.
        -12    1    3    3    0    0  0.84476890879E+00  0.18385076712E+02  0.31891285063E+02  0.36820900902E+02  0.00000000000E+00 0.  1.
         11    1    4    4    0    0 -0.32552321974E+01 -0.12527107698E+02 -0.28164920849E+02  0.30996576111E+02  0.51100000000E-03 0. -1.
        -11    1    4    4    0    0  0.15254828798E+00 -0.11243890432E+02  0.54479357187E+01  0.12495132928E+02  0.51100000000E-03 0.  1.
        -12    1    4    4    0    0  0.22579150006E+01  0.53859214183E+01 -0.91742999335E+01  0.10875390059E+02  0.00000000000E+00 0.  1.
</event>
<event>
 8    1  0.2484572E-006  0.9118800E+02  0.7816164E-02  0.1184000E+00
        -11   -1    0    0    0    0  0.00000000000E+00  0.00000000000E+00  0.45593999997E+02  0.45594000000E+02  0.51100000000E-03 0.  1.
         11   -1    0    0    0    0 -0.00000000000E+00 -0.00000000000E+00 -0.45593999997E+02  0.45594000000E+02  0.51100000000E-03 0. -1.
         23    2    1    2    0    0  0.00000000000E+00 -0.35527136788E-14  0.00000000000E+00  0.91188000000E+02  0.91188000000E+02 0.  0.
    9900012    2    3    3    0    0  0.27982172197E+02  0.23794822186E+02  0.25656331893E+01  0.54367109226E+02  0.40000057103E+02 0.  0.
        -12    1    3    3    0    0 -0.27982172197E+02 -0.23794822186E+02 -0.25656331893E+01  0.36820890774E+02  0.00000000000E+00 0.  1.
         11    1    4    4    0    0  0.40011661064E+01  0.19345940664E+02 -0.48713692507E+01  0.20347112548E+02  0.51100000000E-03 0. -1.
        -11    1    4    4    0    0  0.14919527239E+02 -0.22937855865E+01 -0.61951091011E+01  0.16316651690E+02  0.51100000000E-03 0.  1.
        -12    1    4    4    0    0  0.90614788518E+01  0.67426671082E+01  0.13632111541E+02  0.17703344988E+02  0.00000000000E+00 0.  1.
</event>
<event>
 8    1  0.2484572E-006  0.9118800E+02  0.7816164E-02  0.1184000E+00
        -11   -1    0    0    0    0  0.00000000000E+00  0.00000000000E+00  0.45593999997E+02  0.45594000000E+02  0.51100000000E-03 0. -1.
         11   -1    0    0    0    0 -0.00000000000E+00 -0.00000000000E+00 -0.45593999997E+02  0.45594000000E+02  0.51100000000E-03 0.  1.
         23    2    1    2    0    0 -0.88817841970E-15  0.00000000000E+00  0.00000000000E+00  0.91188000000E+02  0.91188000000E+02 0.  0.
    9900012    2    3    3    0    0 -0.42228995711E+01 -0.12706349208E+02 -0.34300086249E+02  0.54367080570E+02  0.39999991775E+02 0.  0.
         12    1    3    3    0    0  0.42228995711E+01  0.12706349208E+02  0.34300086249E+02  0.36820919430E+02  0.00000000000E+00 0. -1.
         11    1    4    4    0    0 -0.10533223142E+02 -0.10717305749E+02 -0.20891418165E+01  0.15171484637E+02  0.51100000000E-03 0. -1.
        -11    1    4    4    0    0  0.11972319652E+02 -0.45350668067E+01 -0.29979444118E+02  0.32598624798E+02  0.51100000000E-03 0.  1.
        -12    1    4    4    0    0 -0.56619960807E+01  0.25460233483E+01 -0.22315003145E+01  0.65969711354E+01  0.00000000000E+00 0.  1.
</event>
<event>
 8    1  0.2484572E-006  0.9118800E+02  0.7816164E-02  0.1184000E+00
        -11   -1    0    0    0    0  0.00000000000E+00  0.00000000000E+00  0.45593999997E+02  0.45594000000E+02  0.51100000000E-03 0. -1.
         11   -1    0    0    0    0 -0.00000000000E+00 -0.00000000000E+00 -0.45593999997E+02  0.45594000000E+02  0.51100000000E-03 0.  1.
         23    2    1    2    0    0 -0.35527136788E-14 -0.17763568394E-14  0.35527136788E-14  0.91188000000E+02  0.91188000000E+02 0.  0.
    9900012    2    3    3    0    0  0.21822288525E+02  0.92414477549E+01 -0.28180908717E+02  0.54367078649E+02  0.39999987396E+02 0.  0.
         12    1    3    3    0    0 -0.21822288525E+02 -0.92414477549E+01  0.28180908717E+02  0.36820921351E+02  0.00000000000E+00 0. -1.
         11    1    4    4    0    0 -0.13496399394E+01  0.10195666466E+02  0.32443183909E+01  0.10784189573E+02  0.51100000000E-03 0. -1.
        -11    1    4    4    0    0 -0.25989538523E+01  0.23333668933E+01 -0.11240843951E+01  0.36691590554E+01  0.51100000000E-03 0.  1.
        -12    1    4    4    0    0  0.25770882316E+02 -0.32875856048E+01 -0.30301142713E+02  0.39913730021E+02  0.00000000000E+00 0.  1.
</event>
<event>
 8    1  0.2484572E-006  0.9118800E+02  0.7816164E-02  0.1184000E+00
        -11   -1    0    0    0    0  0.00000000000E+00  0.00000000000E+00  0.45593999997E+02  0.45594000000E+02  0.51100000000E-03 0.  1.
         11   -1    0    0    0    0 -0.00000000000E+00 -0.00000000000E+00 -0.45593999997E+02  0.45594000000E+02  0.51100000000E-03 0. -1.
         23    2    1    2    0    0  0.00000000000E+00 -0.44408920985E-15  0.00000000000E+00  0.91188000000E+02  0.91188000000E+02 0.  0.
    9900012    2    3    3    0    0 -0.33691632073E+02  0.33391124564E+01 -0.14474210542E+02  0.54367102203E+02  0.40000041093E+02 0.  0.
        -12    1    3    3    0    0  0.33691632073E+02 -0.33391124564E+01  0.14474210542E+02  0.36820897797E+02  0.00000000000E+00 0.  1.
         11    1    4    4    0    0 -0.38175855290E+02  0.33227342777E+00 -0.10307234005E+02  0.39544220890E+02  0.51100000000E-03 0. -1.
        -11    1    4    4    0    0  0.17620141192E+01  0.58758126764E+01 -0.74729117312E+01  0.96682096775E+01  0.51100000000E-03 0.  1.
         12    1    4    4    0    0  0.27222090980E+01 -0.28689736477E+01  0.33059351938E+01  0.51546716355E+01  0.00000000000E+00 0. -1.
</event>
<event>
 8    1  0.2484572E-006  0.9118800E+02  0.7816164E-02  0.1184000E+00
        -11   -1    0    0    0    0  0.00000000000E+00  0.00000000000E+00  0.45593999997E+02  0.45594000000E+02  0.51100000000E-03 0.  1.
         11   -1    0    0    0    0 -0.00000000000E+00 -0.00000000000E+00 -0.45593999997E+02  0.45594000000E+02  0.51100000000E-03 0. -1.
         23    2    1    2    0    0  0.00000000000E+00  0.38857805862E-15  0.44408920985E-15  0.91188000000E+02  0.91188000000E+02 0.  0.
    9900012    2    3    3    0    0 -0.36659293984E+02  0.14818244340E+00 -0.34429521017E+01  0.54367085935E+02  0.40000004006E+02 0.  0.
        -12    1    3    3    0    0  0.36659293984E+02 -0.14818244340E+00  0.34429521017E+01  0.36820914065E+02  0.00000000000E+00 0.  1.
         11    1    4    4    0    0 -0.31044845997E+02  0.26483921560E+01  0.11164905773E+01  0.31177604069E+02  0.51100000000E-03 0.  1.
        -11    1    4    4    0    0 -0.17247403908E+01  0.96489286310E+01 -0.54867046497E+00  0.98172090067E+01  0.51100000000E-03 0. -1.
         12    1    4    4    0    0 -0.38897075958E+01 -0.12149138344E+02 -0.40107722140E+01  0.13372272859E+02  0.00000000000E+00 0. -1.
</event>
<event>
 8    1  0.2484572E-006  0.9118800E+02  0.7816164E-02  0.1184000E+00
        -11   -1    0    0    0    0  0.00000000000E+00  0.00000000000E+00  0.45593999997E+02  0.45594000000E+02  0.51100000000E-03 0. -1.
         11   -1    0    0    0    0 -0.00000000000E+00 -0.00000000000E+00 -0.45593999997E+02  0.45594000000E+02  0.51100000000E-03 0.  1.
         23    2    1    2    0    0  0.00000000000E+00  0.00000000000E+00  0.35527136788E-14  0.91188000000E+02  0.91188000000E+02 0.  0.
    9900012    2    3    3    0    0 -0.23518706020E+02  0.17885523623E+02 -0.21971792382E+02  0.54367066435E+02  0.39999959552E+02 0.  0.
         12    1    3    3    0    0  0.23518706020E+02 -0.17885523623E+02  0.21971792382E+02  0.36820933565E+02  0.00000000000E+00 0. -1.
         11    1    4    4    0    0  0.15649025072E+01  0.14749594813E+02 -0.16121122247E+02  0.21906392898E+02  0.51100000000E-03 0. -1.
        -11    1    4    4    0    0 -0.19645281969E+02  0.79255780654E+01  0.25836016065E+01  0.21340733090E+02  0.51100000000E-03 0.  1.
         12    1    4    4    0    0 -0.54383265579E+01 -0.47896492559E+01 -0.84342717409E+01  0.11119940447E+02  0.00000000000E+00 0. -1.
</event>
<event>
 8    1  0.2484572E-006  0.9118800E+02  0.7816164E-02  0.1184000E+00
        -11   -1    0    0    0    0  0.00000000000E+00  0.00000000000E+00  0.45593999997E+02  0.45594000000E+02  0.51100000000E-03 0.  1.
         11   -1    0    0    0    0 -0.00000000000E+00 -0.00000000000E+00 -0.45593999997E+02  0.45594000000E+02  0.51100000000E-03 0. -1.
         23    2    1    2    0    0  0.00000000000E+00  0.00000000000E+00  0.00000000000E+00  0.91188000000E+02  0.91188000000E+02 0.  0.
    9900012    2    3    3    0    0  0.93041623473E+01  0.33171437563E+02 -0.12995031439E+02  0.54367047417E+02  0.39999916196E+02 0.  0.
        -12    1    3    3    0    0 -0.93041623473E+01 -0.33171437563E+02  0.12995031439E+02  0.36820952583E+02  0.00000000000E+00 0.  1.
         11    1    4    4    0    0  0.12537334808E+02  0.37413961168E+02 -0.20019319382E+02  0.44246608945E+02  0.51100000000E-03 0. -1.
        -11    1    4    4    0    0  0.36639784535E+00 -0.67967337210E+00  0.43015438991E+01  0.43702955793E+01  0.51100000000E-03 0.  1.
         12    1    4    4    0    0 -0.35995703057E+01 -0.35628502322E+01  0.27227440434E+01  0.57501428929E+01  0.00000000000E+00 0. -1.
</event>
<event>
 8    1  0.2484572E-006  0.9118800E+02  0.7816164E-02  0.1184000E+00
        -11   -1    0    0    0    0  0.00000000000E+00  0.00000000000E+00  0.45593999997E+02  0.45594000000E+02  0.51100000000E-03 0.  1.
         11   -1    0    0    0    0 -0.00000000000E+00 -0.00000000000E+00 -0.45593999997E+02  0.45594000000E+02  0.51100000000E-03 0. -1.
         23    2    1    2    0    0  0.17763568394E-14  0.00000000000E+00 -0.17763568394E-14  0.91188000000E+02  0.91188000000E+02 0.  0.
    9900012    2    3    3    0    0 -0.12094818218E+02  0.32463940289E+02  0.12473491243E+02  0.54367081617E+02  0.39999994162E+02 0.  0.
         12    1    3    3    0    0  0.12094818218E+02 -0.32463940289E+02 -0.12473491243E+02  0.36820918383E+02  0.00000000000E+00 0. -1.
         11    1    4    4    0    0  0.73968231826E+01  0.15842994432E+02  0.16105648912E+02  0.23771945501E+02  0.51100000000E-03 0. -1.
        -11    1    4    4    0    0 -0.19242426389E+01  0.88419160131E+00  0.50394832116E+01  0.54663420880E+01  0.51100000000E-03 0.  1.
        -12    1    4    4    0    0 -0.17567398761E+02  0.15736754256E+02 -0.86716408809E+01  0.25128794028E+02  0.00000000000E+00 0.  1.
</event>
<event>
 8    1  0.2484572E-006  0.9118800E+02  0.7816164E-02  0.1184000E+00
        -11   -1    0    0    0    0  0.00000000000E+00  0.00000000000E+00  0.45593999997E+02  0.45594000000E+02  0.51100000000E-03 0.  1.
         11   -1    0    0    0    0 -0.00000000000E+00 -0.00000000000E+00 -0.45593999997E+02  0.45594000000E+02  0.51100000000E-03 0. -1.
         23    2    1    2    0    0  0.00000000000E+00  0.00000000000E+00  0.00000000000E+00  0.91188000000E+02  0.91188000000E+02 0.  0.
    9900012    2    3    3    0    0  0.23375437359E+02 -0.10063488581E+02 -0.26610148148E+02  0.54367016056E+02  0.39999844702E+02 0.  0.
        -12    1    3    3    0    0 -0.23375437359E+02  0.10063488581E+02  0.26610148148E+02  0.36820983944E+02  0.00000000000E+00 0.  1.
         11    1    4    4    0    0 -0.23927386712E+01 -0.67032059223E+01 -0.55203861364E+01  0.90073764960E+01  0.51100000000E-03 0. -1.
        -11    1    4    4    0    0  0.83841372711E+01 -0.14588017308E+02 -0.17643107927E+02  0.24379976709E+02  0.51100000000E-03 0.  1.
        -12    1    4    4    0    0  0.17384038759E+02  0.11227734649E+02 -0.34466540848E+01  0.20979662851E+02  0.00000000000E+00 0.  1.
</event>
<event>
 8    1  0.2484572E-006  0.9118800E+02  0.7816164E-02  0.1184000E+00
        -11   -1    0    0    0    0  0.00000000000E+00  0.00000000000E+00  0.45593999997E+02  0.45594000000E+02  0.51100000000E-03 0. -1.
         11   -1    0    0    0    0 -0.00000000000E+00 -0.00000000000E+00 -0.45593999997E+02  0.45594000000E+02  0.51100000000E-03 0.  1.
         23    2    1    2    0    0  0.00000000000E+00  0.00000000000E+00  0.00000000000E+00  0.91188000000E+02  0.91188000000E+02 0.  0.
    9900012    2    3    3    0    0 -0.36261771538E+02 -0.51586713892E+01 -0.37748079971E+01  0.54367120856E+02  0.40000083614E+02 0.  0.
        -12    1    3    3    0    0  0.36261771538E+02  0.51586713892E+01  0.37748079971E+01  0.36820879144E+02  0.00000000000E+00 0.  1.
         11    1    4    4    0    0 -0.13537814692E+02 -0.30019443409E+01  0.11461156927E+02  0.17990058778E+02  0.51100000000E-03 0. -1.
        -11    1    4    4    0    0 -0.15380933191E+02  0.42780349813E+01 -0.19936527829E+02  0.25540944212E+02  0.51100000000E-03 0.  1.
        -12    1    4    4    0    0 -0.73430236547E+01 -0.64347620296E+01  0.47005629050E+01  0.10836117865E+02  0.00000000000E+00 0.  1.
</event>
<event>
 8    1  0.2484572E-006  0.9118800E+02  0.7816164E-02  0.1184000E+00
        -11   -1    0    0    0    0  0.00000000000E+00  0.00000000000E+00  0.45593999997E+02  0.45594000000E+02  0.51100000000E-03 0. -1.
         11   -1    0    0    0    0 -0.00000000000E+00 -0.00000000000E+00 -0.45593999997E+02  0.45594000000E+02  0.51100000000E-03 0.  1.
         23    2    1    2    0    0  0.00000000000E+00 -0.71054273576E-14  0.00000000000E+00  0.91188000000E+02  0.91188000000E+02 0.  0.
    9900012    2    3    3    0    0 -0.12949944102E+02  0.34341948997E+02 -0.29512378039E+01  0.54367077717E+02  0.39999985272E+02 0.  0.
         12    1    3    3    0    0  0.12949944102E+02 -0.34341948997E+02  0.29512378039E+01  0.36820922283E+02  0.00000000000E+00 0. -1.
         11    1    4    4    0    0 -0.99084785630E+01  0.87672821481E+01  0.59854547762E+01  0.14521324073E+02  0.51100000000E-03 0.  1.
        -11    1    4    4    0    0 -0.88345480777E+00 -0.61837735975E+01  0.13547148795E+01  0.63917760417E+01  0.51100000000E-03 0. -1.
        -12    1    4    4    0    0 -0.21580107308E+01  0.31758440447E+02 -0.10291407460E+02  0.33453977602E+02  0.00000000000E+00 0.  1.
</event>
<event>
 8    1  0.2484572E-006  0.9118800E+02  0.7816164E-02  0.1184000E+00
        -11   -1    0    0    0    0  0.00000000000E+00  0.00000000000E+00  0.45593999997E+02  0.45594000000E+02  0.51100000000E-03 0. -1.
         11   -1    0    0    0    0 -0.00000000000E+00 -0.00000000000E+00 -0.45593999997E+02  0.45594000000E+02  0.51100000000E-03 0.  1.
         23    2    1    2    0    0 -0.35527136788E-14  0.00000000000E+00  0.35527136788E-14  0.91188000000E+02  0.91188000000E+02 0.  0.
    9900012    2    3    3    0    0  0.20432540992E+02  0.19769973008E+02  0.23397397451E+02  0.54367098712E+02  0.40000033134E+02 0.  0.
        -12    1    3    3    0    0 -0.20432540992E+02 -0.19769973008E+02 -0.23397397451E+02  0.36820901288E+02  0.00000000000E+00 0.  1.
         11    1    4    4    0    0  0.49354649121E+01  0.18553792793E+02  0.77161017259E+01  0.20691550619E+02  0.51100000000E-03 0. -1.
        -11    1    4    4    0    0  0.86523974682E+01 -0.11589329453E+02  0.39064293604E+01  0.14981212559E+02  0.51100000000E-03 0.  1.
        -12    1    4    4    0    0  0.68446786122E+01  0.12805509668E+02  0.11774866365E+02  0.18694335535E+02  0.00000000000E+00 0.  1.
</event>
<event>
 8    1  0.2484572E-006  0.9118800E+02  0.7816164E-02  0.1184000E+00
        -11   -1    0    0    0    0  0.00000000000E+00  0.00000000000E+00  0.45593999997E+02  0.45594000000E+02  0.51100000000E-03 0. -1.
         11   -1    0    0    0    0 -0.00000000000E+00 -0.00000000000E+00 -0.45593999997E+02  0.45594000000E+02  0.51100000000E-03 0.  1.
         23    2    1    2    0    0  0.00000000000E+00  0.88817841970E-15  0.35527136788E-14  0.91188000000E+02  0.91188000000E+02 0.  0.
    9900012    2    3    3    0    0  0.19032603450E+02  0.49642860156E+01 -0.31127095210E+02  0.54367079507E+02  0.39999989353E+02 0.  0.
         12    1    3    3    0    0 -0.19032603450E+02 -0.49642860156E+01  0.31127095210E+02  0.36820920493E+02  0.00000000000E+00 0. -1.
         11    1    4    4    0    0 -0.17790468175E+00 -0.30235398083E+01 -0.11844812362E+02  0.12225916048E+02  0.51100000000E-03 0. -1.
        -11    1    4    4    0    0  0.20300868785E+02  0.16937897746E+02 -0.19918751194E+02  0.33102481823E+02  0.51100000000E-03 0.  1.
        -12    1    4    4    0    0 -0.10903606528E+01 -0.89500719224E+01  0.63646834652E+00  0.90386816364E+01  0.00000000000E+00 0.  1.
</event>
<event>
 8    1  0.2484572E-006  0.9118800E+02  0.7816164E-02  0.1184000E+00
        -11   -1    0    0    0    0  0.00000000000E+00  0.00000000000E+00  0.45593999997E+02  0.45594000000E+02  0.51100000000E-03 0. -1.
         11   -1    0    0    0    0 -0.00000000000E+00 -0.00000000000E+00 -0.45593999997E+02  0.45594000000E+02  0.51100000000E-03 0.  1.
         23    2    1    2    0    0 -0.71054273576E-14  0.17763568394E-14  0.00000000000E+00  0.91188000000E+02  0.91188000000E+02 0.  0.
    9900012    2    3    3    0    0 -0.24714656966E+02  0.75436469298E+01 -0.26230898720E+02  0.54367069463E+02  0.39999966455E+02 0.  0.
         12    1    3    3    0    0  0.24714656966E+02 -0.75436469298E+01  0.26230898720E+02  0.36820930537E+02  0.00000000000E+00 0. -1.
         11    1    4    4    0    0 -0.81511923499E+01 -0.73696434799E+01  0.28306269178E+01  0.11347512095E+02  0.51100000000E-03 0.  1.
        -11    1    4    4    0    0 -0.47447101340E+01 -0.18698248340E+01  0.22542188382E+01  0.55758427163E+01  0.51100000000E-03 0. -1.
        -12    1    4    4    0    0 -0.11818754482E+02  0.16783115244E+02 -0.31315744476E+02  0.37443714651E+02  0.00000000000E+00 0.  1.
</event>
<event>
 8    1  0.2484572E-006  0.9118800E+02  0.7816164E-02  0.1184000E+00
        -11   -1    0    0    0    0  0.00000000000E+00  0.00000000000E+00  0.45593999997E+02  0.45594000000E+02  0.51100000000E-03 0. -1.
         11   -1    0    0    0    0 -0.00000000000E+00 -0.00000000000E+00 -0.45593999997E+02  0.45594000000E+02  0.51100000000E-03 0.  1.
         23    2    1    2    0    0  0.35527136788E-14  0.00000000000E+00  0.00000000000E+00  0.91188000000E+02  0.91188000000E+02 0.  0.
    9900012    2    3    3    0    0 -0.28551178446E+02  0.21073385100E+02 -0.98245419419E+01  0.54367095956E+02  0.40000026851E+02 0.  0.
        -12    1    3    3    0    0  0.28551178446E+02 -0.21073385100E+02  0.98245419419E+01  0.36820904044E+02  0.00000000000E+00 0.  1.
         11    1    4    4    0    0 -0.32548961524E+02  0.26570796014E+02 -0.69166138858E+01  0.42582644880E+02  0.51100000000E-03 0. -1.
        -11    1    4    4    0    0  0.88370173214E+00 -0.28662151189E+01 -0.59731008304E+01  0.66838650234E+01  0.51100000000E-03 0.  1.
         12    1    4    4    0    0  0.31140813455E+01 -0.26311957956E+01  0.30651727743E+01  0.51005860524E+01  0.00000000000E+00 0. -1.
</event>
<event>
 8    1  0.2484572E-006  0.9118800E+02  0.7816164E-02  0.1184000E+00
        -11   -1    0    0    0    0  0.00000000000E+00  0.00000000000E+00  0.45593999997E+02  0.45594000000E+02  0.51100000000E-03 0.  1.
         11   -1    0    0    0    0 -0.00000000000E+00 -0.00000000000E+00 -0.45593999997E+02  0.45594000000E+02  0.51100000000E-03 0. -1.
         23    2    1    2    0    0  0.15265566589E-15  0.00000000000E+00  0.71054273576E-14  0.91188000000E+02  0.91188000000E+02 0.  0.
    9900012    2    3    3    0    0  0.67053200345E-01  0.46212036269E+00 -0.36817935947E+02  0.54367102961E+02  0.40000042820E+02 0.  0.
        -12    1    3    3    0    0 -0.67053200345E-01 -0.46212036269E+00  0.36817935947E+02  0.36820897039E+02  0.00000000000E+00 0.  1.
         11    1    4    4    0    0 -0.19576564072E+01 -0.18592679840E+01  0.76253382843E+01  0.80891952786E+01  0.51100000000E-03 0.  1.
        -11    1    4    4    0    0 -0.25451080786E+01  0.34782556844E+01 -0.52064119317E+01  0.67588877193E+01  0.51100000000E-03 0. -1.
         12    1    4    4    0    0  0.45698176862E+01 -0.11568673377E+01 -0.39236862300E+02  0.39519019963E+02  0.00000000000E+00 0. -1.
</event>
<event>
 8    1  0.2484572E-006  0.9118800E+02  0.7816164E-02  0.1184000E+00
        -11   -1    0    0    0    0  0.00000000000E+00  0.00000000000E+00  0.45593999997E+02  0.45594000000E+02  0.51100000000E-03 0.  1.
         11   -1    0    0    0    0 -0.00000000000E+00 -0.00000000000E+00 -0.45593999997E+02  0.45594000000E+02  0.51100000000E-03 0. -1.
         23    2    1    2    0    0  0.00000000000E+00 -0.88817841970E-15  0.00000000000E+00  0.91188000000E+02  0.91188000000E+02 0.  0.
    9900012    2    3    3    0    0  0.67277271215E+00 -0.36154154130E+01 -0.36636820387E+02  0.54367075789E+02  0.39999980876E+02 0.  0.
        -12    1    3    3    0    0 -0.67277271215E+00  0.36154154130E+01  0.36636820387E+02  0.36820924211E+02  0.00000000000E+00 0.  1.
         11    1    4    4    0    0  0.79198527880E+01  0.28562631947E+01 -0.61095625685E+01  0.10402358514E+02  0.51100000000E-03 0. -1.
        -11    1    4    4    0    0 -0.29051866211E+01 -0.86674291814E+01  0.33529875115E+01  0.97368867423E+01  0.51100000000E-03 0.  1.
         12    1    4    4    0    0 -0.43418934547E+01  0.21957505737E+01 -0.33880245330E+02  0.34227830532E+02  0.00000000000E+00 0. -1.
</event>
<event>
 8    1  0.2484572E-006  0.9118800E+02  0.7816164E-02  0.1184000E+00
        -11   -1    0    0    0    0  0.00000000000E+00  0.00000000000E+00  0.45593999997E+02  0.45594000000E+02  0.51100000000E-03 0. -1.
         11   -1    0    0    0    0 -0.00000000000E+00 -0.00000000000E+00 -0.45593999997E+02  0.45594000000E+02  0.51100000000E-03 0.  1.
         23    2    1    2    0    0  0.13322676296E-14  0.00000000000E+00 -0.17763568394E-14  0.91188000000E+02  0.91188000000E+02 0.  0.
    9900012    2    3    3    0    0 -0.34077421707E+01 -0.33227736230E+02 -0.15494665959E+02  0.54367084274E+02  0.40000000220E+02 0.  0.
         12    1    3    3    0    0  0.34077421707E+01  0.33227736230E+02  0.15494665959E+02  0.36820915726E+02  0.00000000000E+00 0. -1.
         11    1    4    4    0    0  0.24223152326E+01 -0.59269243657E+01 -0.14324446792E+02  0.15690309738E+02  0.51100000000E-03 0. -1.
        -11    1    4    4    0    0  0.11627765428E+01 -0.29468481462E+02 -0.57423527619E+01  0.30045266923E+02  0.51100000000E-03 0.  1.
         12    1    4    4    0    0 -0.69928339461E+01  0.21676695973E+01  0.45721335943E+01  0.86315076137E+01  0.00000000000E+00 0. -1.
</event>
<event>
 8    1  0.2484572E-006  0.9118800E+02  0.7816164E-02  0.1184000E+00
        -11   -1    0    0    0    0  0.00000000000E+00  0.00000000000E+00  0.45593999997E+02  0.45594000000E+02  0.51100000000E-03 0.  1.
         11   -1    0    0    0    0 -0.00000000000E+00 -0.00000000000E+00 -0.45593999997E+02  0.45594000000E+02  0.51100000000E-03 0. -1.
         23    2    1    2    0    0  0.00000000000E+00  0.00000000000E+00  0.35527136788E-14  0.91188000000E+02  0.91188000000E+02 0.  0.
    9900012    2    3    3    0    0 -0.25344281743E+02 -0.18374241261E+02  0.19386450295E+02  0.54367084557E+02  0.40000000864E+02 0.  0.
         12    1    3    3    0    0  0.25344281743E+02  0.18374241261E+02 -0.19386450295E+02  0.36820915443E+02  0.00000000000E+00 0. -1.
         11    1    4    4    0    0 -0.81679933068E+01 -0.13081505853E+02  0.87389469991E+00  0.15446863832E+02  0.51100000000E-03 0. -1.
        -11    1    4    4    0    0 -0.11346182409E+02 -0.17050469385E+02  0.75762790640E+01  0.21836995358E+02  0.51100000000E-03 0.  1.
         12    1    4    4    0    0 -0.58301060272E+01  0.11757733977E+02  0.10936276531E+02  0.17083225367E+02  0.00000000000E+00 0. -1.
</event>
<event>
 8    1  0.2484572E-006  0.9118800E+02  0.7816164E-02  0.1184000E+00
        -11   -1    0    0    0    0  0.00000000000E+00  0.00000000000E+00  0.45593999997E+02  0.45594000000E+02  0.51100000000E-03 0.  1.
         11   -1    0    0    0    0 -0.00000000000E+00 -0.00000000000E+00 -0.45593999997E+02  0.45594000000E+02  0.51100000000E-03 0. -1.
         23    2    1    2    0    0  0.33306690739E-15  0.35527136788E-14  0.00000000000E+00  0.91188000000E+02  0.91188000000E+02 0.  0.
    9900012    2    3    3    0    0  0.55404345515E+00 -0.26414331300E+02 -0.25646771836E+02  0.54367071606E+02  0.39999971340E+02 0.  0.
        -12    1    3    3    0    0 -0.55404345515E+00  0.26414331300E+02  0.25646771836E+02  0.36820928394E+02  0.00000000000E+00 0.  1.
         11    1    4    4    0    0  0.52398240313E+01 -0.29185246037E+02 -0.10875431975E+02  0.31583371622E+02  0.51100000000E-03 0. -1.
        -11    1    4    4    0    0 -0.82744787191E+01 -0.43614591903E+01 -0.83279285901E+01  0.12523726251E+02  0.51100000000E-03 0.  1.
        -12    1    4    4    0    0  0.35886981430E+01  0.71323739269E+01 -0.64434112707E+01  0.10259973733E+02  0.00000000000E+00 0.  1.
</event>
<event>
 8    1  0.2484572E-006  0.9118800E+02  0.7816164E-02  0.1184000E+00
        -11   -1    0    0    0    0  0.00000000000E+00  0.00000000000E+00  0.45593999997E+02  0.45594000000E+02  0.51100000000E-03 0. -1.
         11   -1    0    0    0    0 -0.00000000000E+00 -0.00000000000E+00 -0.45593999997E+02  0.45594000000E+02  0.51100000000E-03 0.  1.
         23    2    1    2    0    0 -0.17763568394E-14  0.44408920985E-15  0.00000000000E+00  0.91188000000E+02  0.91188000000E+02 0.  0.
    9900012    2    3    3    0    0 -0.11220074484E+02 -0.15008019170E+01 -0.35037657789E+02  0.54367082831E+02  0.39999996930E+02 0.  0.
         12    1    3    3    0    0  0.11220074484E+02  0.15008019170E+01  0.35037657789E+02  0.36820917169E+02  0.00000000000E+00 0. -1.
         11    1    4    4    0    0 -0.40685580611E+01  0.20827632732E+00  0.36144281298E+01  0.54461577917E+01  0.51100000000E-03 0. -1.
        -11    1    4    4    0    0  0.52294400137E+01  0.64124539501E+01 -0.31326542009E+02  0.32400908058E+02  0.51100000000E-03 0.  1.
         12    1    4    4    0    0 -0.12380956436E+02 -0.81215321945E+01 -0.73255439106E+01  0.16520016981E+02  0.00000000000E+00 0. -1.
</event>
<event>
 8    1  0.2484572E-006  0.9118800E+02  0.7816164E-02  0.1184000E+00
        -11   -1    0    0    0    0  0.00000000000E+00  0.00000000000E+00  0.45593999997E+02  0.45594000000E+02  0.51100000000E-03 0. -1.
         11   -1    0    0    0    0 -0.00000000000E+00 -0.00000000000E+00 -0.45593999997E+02  0.45594000000E+02  0.51100000000E-03 0.  1.
         23    2    1    2    0    0  0.00000000000E+00  0.17763568394E-14 -0.17763568394E-14  0.91188000000E+02  0.91188000000E+02 0.  0.
    9900012    2    3    3    0    0  0.33366070456E+02  0.10787261020E+02 -0.11230429585E+02  0.54367052068E+02  0.39999926799E+02 0.  0.
         12    1    3    3    0    0 -0.33366070456E+02 -0.10787261020E+02  0.11230429585E+02  0.36820947932E+02  0.00000000000E+00 0. -1.
         11    1    4    4    0    0 -0.21530565120E+01 -0.49194122943E+01 -0.39688432392E+01  0.66774236487E+01  0.51100000000E-03 0. -1.
        -11    1    4    4    0    0 -0.26356789771E+01 -0.13255146400E+01 -0.50484472469E+01  0.58472739458E+01  0.51100000000E-03 0.  1.
         12    1    4    4    0    0  0.38154805945E+02  0.17032187954E+02 -0.22131390986E+01  0.41842354473E+02  0.00000000000E+00 0. -1.
</event>
<event>
 8    1  0.2484572E-006  0.9118800E+02  0.7816164E-02  0.1184000E+00
        -11   -1    0    0    0    0  0.00000000000E+00  0.00000000000E+00  0.45593999997E+02  0.45594000000E+02  0.51100000000E-03 0.  1.
         11   -1    0    0    0    0 -0.00000000000E+00 -0.00000000000E+00 -0.45593999997E+02  0.45594000000E+02  0.51100000000E-03 0. -1.
         23    2    1    2    0    0 -0.35527136788E-14  0.00000000000E+00  0.17763568394E-14  0.91188000000E+02  0.91188000000E+02 0.  0.
    9900012    2    3    3    0    0  0.26652659527E+02  0.20944688486E+02  0.14378351870E+02  0.54367065219E+02  0.39999956781E+02 0.  0.
         12    1    3    3    0    0 -0.26652659527E+02 -0.20944688486E+02 -0.14378351870E+02  0.36820934781E+02  0.00000000000E+00 0. -1.
         11    1    4    4    0    0  0.16284595065E+02  0.28415879493E+01 -0.50904703769E+01  0.17296691806E+02  0.51100000000E-03 0. -1.
        -11    1    4    4    0    0  0.13255454196E+02  0.22564912284E+02  0.15288746659E+02  0.30308878352E+02  0.51100000000E-03 0.  1.
        -12    1    4    4    0    0 -0.28873897338E+01 -0.44618117473E+01  0.41800755881E+01  0.67614950614E+01  0.00000000000E+00 0.  1.
</event>
<event>
 8    1  0.2484572E-006  0.9118800E+02  0.7816164E-02  0.1184000E+00
        -11   -1    0    0    0    0  0.00000000000E+00  0.00000000000E+00  0.45593999997E+02  0.45594000000E+02  0.51100000000E-03 0.  1.
         11   -1    0    0    0    0 -0.00000000000E+00 -0.00000000000E+00 -0.45593999997E+02  0.45594000000E+02  0.51100000000E-03 0. -1.
         23    2    1    2    0    0  0.35527136788E-14  0.00000000000E+00  0.17763568394E-14  0.91188000000E+02  0.91188000000E+02 0.  0.
    9900012    2    3    3    0    0  0.19294428190E+02 -0.27918272276E+02  0.14285473556E+02  0.54367086910E+02  0.40000006228E+02 0.  0.
         12    1    3    3    0    0 -0.19294428190E+02  0.27918272276E+02 -0.14285473556E+02  0.36820913090E+02  0.00000000000E+00 0. -1.
         11    1    4    4    0    0  0.70873164229E+01 -0.10501737744E+02  0.82524772659E+00  0.12696361045E+02  0.51100000000E-03 0. -1.
        -11    1    4    4    0    0  0.14060687487E+02 -0.20097984538E+02 -0.31626563084E+01  0.24731241584E+02  0.51100000000E-03 0.  1.
        -12    1    4    4    0    0 -0.18535757206E+01  0.26814500059E+01  0.16622882138E+02  0.16939484280E+02  0.00000000000E+00 0.  1.
</event>
<event>
 8    1  0.2484572E-006  0.9118800E+02  0.7816164E-02  0.1184000E+00
        -11   -1    0    0    0    0  0.00000000000E+00  0.00000000000E+00  0.45593999997E+02  0.45594000000E+02  0.51100000000E-03 0. -1.
         11   -1    0    0    0    0 -0.00000000000E+00 -0.00000000000E+00 -0.45593999997E+02  0.45594000000E+02  0.51100000000E-03 0.  1.
         23    2    1    2    0    0  0.26645352591E-14  0.00000000000E+00  0.00000000000E+00  0.91188000000E+02  0.91188000000E+02 0.  0.
    9900012    2    3    3    0    0  0.32881037663E+01  0.20982338641E+02 -0.30078391925E+02  0.54367084449E+02  0.40000000619E+02 0.  0.
         12    1    3    3    0    0 -0.32881037663E+01 -0.20982338641E+02  0.30078391925E+02  0.36820915551E+02  0.00000000000E+00 0. -1.
         11    1    4    4    0    0  0.12719307322E+02 -0.39430507181E+01  0.64323958289E+00  0.13331998542E+02  0.51100000000E-03 0.  1.
        -11    1    4    4    0    0 -0.50457919786E+01  0.19299214039E+02 -0.24280890932E+02  0.31424215884E+02  0.51100000000E-03 0. -1.
        -12    1    4    4    0    0 -0.43854115769E+01  0.56261753203E+01 -0.64407405757E+01  0.96108700229E+01  0.00000000000E+00 0.  1.
</event>
<event>
 8    1  0.2484572E-006  0.9118800E+02  0.7816164E-02  0.1184000E+00
        -11   -1    0    0    0    0  0.00000000000E+00  0.00000000000E+00  0.45593999997E+02  0.45594000000E+02  0.51100000000E-03 0. -1.
         11   -1    0    0    0    0 -0.00000000000E+00 -0.00000000000E+00 -0.45593999997E+02  0.45594000000E+02  0.51100000000E-03 0.  1.
         23    2    1    2    0    0  0.00000000000E+00  0.35527136788E-14  0.35527136788E-14  0.91188000000E+02  0.91188000000E+02 0.  0.
    9900012    2    3    3    0    0  0.20555451933E+02  0.27849634001E+02  0.12555917626E+02  0.54367084944E+02  0.40000001746E+02 0.  0.
        -12    1    3    3    0    0 -0.20555451933E+02 -0.27849634001E+02 -0.12555917626E+02  0.36820915056E+02  0.00000000000E+00 0.  1.
         11    1    4    4    0    0  0.12056343353E+02  0.15639842586E+02 -0.24341969855E+01  0.19896869261E+02  0.51100000000E-03 0. -1.
        -11    1    4    4    0    0  0.12016813410E+02  0.35945508833E+01 -0.41303635676E+01  0.13205472504E+02  0.51100000000E-03 0.  1.
         12    1    4    4    0    0 -0.35177048304E+01  0.86152405316E+01  0.19120478179E+02  0.21264743179E+02  0.00000000000E+00 0. -1.
</event>
<event>
 8    1  0.2484572E-006  0.9118800E+02  0.7816164E-02  0.1184000E+00
        -11   -1    0    0    0    0  0.00000000000E+00  0.00000000000E+00  0.45593999997E+02  0.45594000000E+02  0.51100000000E-03 0.  1.
         11   -1    0    0    0    0 -0.00000000000E+00 -0.00000000000E+00 -0.45593999997E+02  0.45594000000E+02  0.51100000000E-03 0. -1.
         23    2    1    2    0    0  0.00000000000E+00  0.88817841970E-15  0.00000000000E+00  0.91188000000E+02  0.91188000000E+02 0.  0.
    9900012    2    3    3    0    0 -0.35683662420E+02 -0.53420233376E+01 -0.73430213920E+01  0.54367069265E+02  0.39999966004E+02 0.  0.
        -12    1    3    3    0    0  0.35683662420E+02  0.53420233376E+01  0.73430213920E+01  0.36820930735E+02  0.00000000000E+00 0.  1.
         11    1    4    4    0    0 -0.23952958847E+02 -0.53542174164E+01  0.67366695424E+01  0.25451809336E+02  0.51100000000E-03 0. -1.
        -11    1    4    4    0    0 -0.39681954853E+01 -0.77138926358E+01 -0.15608353343E+02  0.17856970890E+02  0.51100000000E-03 0.  1.
        -12    1    4    4    0    0 -0.77625080870E+01  0.77260867145E+01  0.15286624090E+01  0.11058289039E+02  0.00000000000E+00 0.  1.
</event>
<event>
 8    1  0.2484572E-006  0.9118800E+02  0.7816164E-02  0.1184000E+00
        -11   -1    0    0    0    0  0.00000000000E+00  0.00000000000E+00  0.45593999997E+02  0.45594000000E+02  0.51100000000E-03 0.  1.
         11   -1    0    0    0    0 -0.00000000000E+00 -0.00000000000E+00 -0.45593999997E+02  0.45594000000E+02  0.51100000000E-03 0. -1.
         23    2    1    2    0    0 -0.17763568394E-14  0.00000000000E+00  0.00000000000E+00  0.91188000000E+02  0.91188000000E+02 0.  0.
    9900012    2    3    3    0    0  0.10566661976E+02 -0.13371499105E+02  0.32639362936E+02  0.54367090906E+02  0.40000015339E+02 0.  0.
         12    1    3    3    0    0 -0.10566661976E+02  0.13371499105E+02 -0.32639362936E+02  0.36820909094E+02  0.00000000000E+00 0. -1.
         11    1    4    4    0    0  0.19249385658E+01 -0.17624257507E+02  0.21659850904E+02  0.27990515940E+02  0.51100000000E-03 0. -1.
        -11    1    4    4    0    0  0.42183977408E+00 -0.49109981635E+01 -0.44481784685E+01  0.66394385083E+01  0.51100000000E-03 0.  1.
         12    1    4    4    0    0  0.82198836365E+01  0.91637565654E+01  0.15427690501E+02  0.19737136458E+02  0.00000000000E+00 0. -1.
</event>
<event>
 8    1  0.2484572E-006  0.9118800E+02  0.7816164E-02  0.1184000E+00
        -11   -1    0    0    0    0  0.00000000000E+00  0.00000000000E+00  0.45593999997E+02  0.45594000000E+02  0.51100000000E-03 0. -1.
         11   -1    0    0    0    0 -0.00000000000E+00 -0.00000000000E+00 -0.45593999997E+02  0.45594000000E+02  0.51100000000E-03 0.  1.
         23    2    1    2    0    0  0.17763568394E-14  0.35527136788E-14  0.00000000000E+00  0.91188000000E+02  0.91188000000E+02 0.  0.
    9900012    2    3    3    0    0 -0.15605020464E+02 -0.31049041728E+02  0.12174411357E+02  0.54367137058E+02  0.40000120552E+02 0.  0.
        -12    1    3    3    0    0  0.15605020464E+02  0.31049041728E+02 -0.12174411357E+02  0.36820862942E+02  0.00000000000E+00 0.  1.
         11    1    4    4    0    0  0.43423521320E+01 -0.47826912606E+01  0.48213984540E+01  0.80607717401E+01  0.51100000000E-03 0. -1.
        -11    1    4    4    0    0 -0.26840396517E+02 -0.14109593499E+02  0.10298836148E+02  0.32024264865E+02  0.51100000000E-03 0.  1.
        -12    1    4    4    0    0  0.68930239213E+01 -0.12156756968E+02 -0.29458232446E+01  0.14282100453E+02  0.00000000000E+00 0.  1.
</event>
<event>
 8    1  0.2484572E-006  0.9118800E+02  0.7816164E-02  0.1184000E+00
        -11   -1    0    0    0    0  0.00000000000E+00  0.00000000000E+00  0.45593999997E+02  0.45594000000E+02  0.51100000000E-03 0. -1.
         11   -1    0    0    0    0 -0.00000000000E+00 -0.00000000000E+00 -0.45593999997E+02  0.45594000000E+02  0.51100000000E-03 0.  1.
         23    2    1    2    0    0  0.00000000000E+00  0.00000000000E+00 -0.44408920985E-15  0.91188000000E+02  0.91188000000E+02 0.  0.
    9900012    2    3    3    0    0 -0.34431521684E+02  0.12501434190E+02  0.37368548884E+01  0.54367087101E+02  0.40000006663E+02 0.  0.
        -12    1    3    3    0    0  0.34431521684E+02 -0.12501434190E+02 -0.37368548884E+01  0.36820912899E+02  0.00000000000E+00 0.  1.
         11    1    4    4    0    0  0.30880707707E+01  0.21521737872E+01  0.59503839571E+01  0.70409589257E+01  0.51100000000E-03 0. -1.
        -11    1    4    4    0    0 -0.33079454355E+02  0.13393425034E+02 -0.10716445680E+02  0.37262264328E+02  0.51100000000E-03 0.  1.
        -12    1    4    4    0    0 -0.44401380993E+01 -0.30441646309E+01  0.85029166108E+01  0.10063863847E+02  0.00000000000E+00 0.  1.
</event>
<event>
 8    1  0.2484572E-006  0.9118800E+02  0.7816164E-02  0.1184000E+00
        -11   -1    0    0    0    0  0.00000000000E+00  0.00000000000E+00  0.45593999997E+02  0.45594000000E+02  0.51100000000E-03 0. -1.
         11   -1    0    0    0    0 -0.00000000000E+00 -0.00000000000E+00 -0.45593999997E+02  0.45594000000E+02  0.51100000000E-03 0.  1.
         23    2    1    2    0    0  0.17763568394E-14  0.00000000000E+00  0.00000000000E+00  0.91188000000E+02  0.91188000000E+02 0.  0.
    9900012    2    3    3    0    0 -0.10473470974E+02  0.27767985277E+02  0.21795071035E+02  0.54367085807E+02  0.40000003714E+02 0.  0.
        -12    1    3    3    0    0  0.10473470974E+02 -0.27767985277E+02 -0.21795071035E+02  0.36820914193E+02  0.00000000000E+00 0.  1.
         11    1    4    4    0    0 -0.84091265271E+00  0.35953042089E+01  0.47769522068E+01  0.60376004416E+01  0.51100000000E-03 0. -1.
        -11    1    4    4    0    0 -0.36104974170E+01  0.28110292319E+02  0.24851038707E+02  0.37693478891E+02  0.51100000000E-03 0.  1.
        -12    1    4    4    0    0 -0.60220609039E+01 -0.39376112510E+01 -0.78329198781E+01  0.10636006474E+02  0.00000000000E+00 0.  1.
</event>
<event>
 8    1  0.2484572E-006  0.9118800E+02  0.7816164E-02  0.1184000E+00
        -11   -1    0    0    0    0  0.00000000000E+00  0.00000000000E+00  0.45593999997E+02  0.45594000000E+02  0.51100000000E-03 0.  1.
         11   -1    0    0    0    0 -0.00000000000E+00 -0.00000000000E+00 -0.45593999997E+02  0.45594000000E+02  0.51100000000E-03 0. -1.
         23    2    1    2    0    0 -0.35527136788E-14  0.00000000000E+00  0.35527136788E-14  0.91188000000E+02  0.91188000000E+02 0.  0.
    9900012    2    3    3    0    0  0.25716387644E+02 -0.22238216097E+02 -0.14138946344E+02  0.54367073174E+02  0.39999974914E+02 0.  0.
        -12    1    3    3    0    0 -0.25716387644E+02  0.22238216097E+02  0.14138946344E+02  0.36820926826E+02  0.00000000000E+00 0.  1.
         11    1    4    4    0    0  0.43400729548E+01  0.18687371343E+01 -0.69502319710E+01  0.84044117250E+01  0.51100000000E-03 0. -1.
        -11    1    4    4    0    0  0.16718394493E+02 -0.30351975418E+02  0.99165125409E+00  0.34665984750E+02  0.51100000000E-03 0.  1.
        -12    1    4    4    0    0  0.46579201961E+01  0.62450221865E+01 -0.81803656266E+01  0.11296676699E+02  0.00000000000E+00 0.  1.
</event>
<event>
 8    1  0.2484572E-006  0.9118800E+02  0.7816164E-02  0.1184000E+00
        -11   -1    0    0    0    0  0.00000000000E+00  0.00000000000E+00  0.45593999997E+02  0.45594000000E+02  0.51100000000E-03 0. -1.
         11   -1    0    0    0    0 -0.00000000000E+00 -0.00000000000E+00 -0.45593999997E+02  0.45594000000E+02  0.51100000000E-03 0.  1.
         23    2    1    2    0    0  0.00000000000E+00  0.17763568394E-14  0.00000000000E+00  0.91188000000E+02  0.91188000000E+02 0.  0.
    9900012    2    3    3    0    0 -0.17030741304E+02 -0.14255526896E+02 -0.29368612765E+02  0.54367060140E+02  0.39999945200E+02 0.  0.
         12    1    3    3    0    0  0.17030741304E+02  0.14255526896E+02  0.29368612765E+02  0.36820939860E+02  0.00000000000E+00 0. -1.
         11    1    4    4    0    0 -0.18075557811E+02 -0.13745213120E+02 -0.97500536759E+01  0.24712754214E+02  0.51100000000E-03 0. -1.
        -11    1    4    4    0    0 -0.43235146302E+01  0.96798056259E+01 -0.78834590686E+01  0.13211371725E+02  0.51100000000E-03 0.  1.
        -12    1    4    4    0    0  0.53683311372E+01 -0.10190119401E+02 -0.11735100021E+02  0.16442934200E+02  0.00000000000E+00 0.  1.
</event>
<event>
 8    1  0.2484572E-006  0.9118800E+02  0.7816164E-02  0.1184000E+00
        -11   -1    0    0    0    0  0.00000000000E+00  0.00000000000E+00  0.45593999997E+02  0.45594000000E+02  0.51100000000E-03 0. -1.
         11   -1    0    0    0    0 -0.00000000000E+00 -0.00000000000E+00 -0.45593999997E+02  0.45594000000E+02  0.51100000000E-03 0.  1.
         23    2    1    2    0    0  0.35527136788E-14  0.35527136788E-14 -0.35527136788E-14  0.91188000000E+02  0.91188000000E+02 0.  0.
    9900012    2    3    3    0    0 -0.19478493110E+02 -0.16939044497E+02  0.26257120993E+02  0.54367091196E+02  0.40000015999E+02 0.  0.
        -12    1    3    3    0    0  0.19478493110E+02  0.16939044497E+02 -0.26257120993E+02  0.36820908804E+02  0.00000000000E+00 0.  1.
         11    1    4    4    0    0 -0.15447764400E+01 -0.85405733911E+01  0.19187973997E+02  0.21059583911E+02  0.51100000000E-03 0. -1.
        -11    1    4    4    0    0 -0.18308611390E+02  0.15818005652E+01  0.12221272372E+02  0.22069590905E+02  0.51100000000E-03 0.  1.
         12    1    4    4    0    0  0.37489471988E+00 -0.99802716713E+01 -0.51521253760E+01  0.11237916380E+02  0.00000000000E+00 0. -1.
</event>
<event>
 8    1  0.2484572E-006  0.9118800E+02  0.7816164E-02  0.1184000E+00
        -11   -1    0    0    0    0  0.00000000000E+00  0.00000000000E+00  0.45593999997E+02  0.45594000000E+02  0.51100000000E-03 0.  1.
         11   -1    0    0    0    0 -0.00000000000E+00 -0.00000000000E+00 -0.45593999997E+02  0.45594000000E+02  0.51100000000E-03 0. -1.
         23    2    1    2    0    0 -0.17763568394E-14  0.35527136788E-14 -0.17763568394E-14  0.91188000000E+02  0.91188000000E+02 0.  0.
    9900012    2    3    3    0    0 -0.11100532511E+02 -0.31652669873E+02  0.15187771333E+02  0.54367058538E+02  0.39999941548E+02 0.  0.
         12    1    3    3    0    0  0.11100532511E+02  0.31652669873E+02 -0.15187771333E+02  0.36820941462E+02  0.00000000000E+00 0. -1.
         11    1    4    4    0    0 -0.19806665919E+01 -0.36598474793E+01 -0.38799342866E+01  0.56895882144E+01  0.51100000000E-03 0. -1.
        -11    1    4    4    0    0 -0.19957880128E+02 -0.24787958882E+02  0.79022314372E+01  0.32790320930E+02  0.51100000000E-03 0.  1.
         12    1    4    4    0    0  0.10838014209E+02 -0.32048635119E+01  0.11165474182E+02  0.15887149393E+02  0.00000000000E+00 0. -1.
</event>
<event>
 8    1  0.2484572E-006  0.9118800E+02  0.7816164E-02  0.1184000E+00
        -11   -1    0    0    0    0  0.00000000000E+00  0.00000000000E+00  0.45593999997E+02  0.45594000000E+02  0.51100000000E-03 0. -1.
         11   -1    0    0    0    0 -0.00000000000E+00 -0.00000000000E+00 -0.45593999997E+02  0.45594000000E+02  0.51100000000E-03 0.  1.
         23    2    1    2    0    0 -0.17763568394E-14  0.00000000000E+00  0.88817841970E-15  0.91188000000E+02  0.91188000000E+02 0.  0.
    9900012    2    3    3    0    0  0.11130775161E+02  0.34992869729E+02  0.27174989765E+01  0.54367083549E+02  0.39999998567E+02 0.  0.
        -12    1    3    3    0    0 -0.11130775161E+02 -0.34992869729E+02 -0.27174989765E+01  0.36820916451E+02  0.00000000000E+00 0.  1.
         11    1    4    4    0    0  0.32571595026E+01  0.34243480410E+02  0.11987091597E+02  0.36426850040E+02  0.51100000000E-03 0. -1.
        -11    1    4    4    0    0  0.69103897887E+01  0.62509127409E+01 -0.78334345535E+01  0.12173335381E+02  0.51100000000E-03 0.  1.
         12    1    4    4    0    0  0.96322587001E+00 -0.55015234214E+01 -0.14361580670E+01  0.57668981287E+01  0.00000000000E+00 0. -1.
</event>
<event>
 8    1  0.2484572E-006  0.9118800E+02  0.7816164E-02  0.1184000E+00
        -11   -1    0    0    0    0  0.00000000000E+00  0.00000000000E+00  0.45593999997E+02  0.45594000000E+02  0.51100000000E-03 0. -1.
         11   -1    0    0    0    0 -0.00000000000E+00 -0.00000000000E+00 -0.45593999997E+02  0.45594000000E+02  0.51100000000E-03 0.  1.
         23    2    1    2    0    0  0.00000000000E+00 -0.44408920985E-15  0.00000000000E+00  0.91188000000E+02  0.91188000000E+02 0.  0.
    9900012    2    3    3    0    0  0.17995331350E+02 -0.26370041581E+01  0.32015523811E+02  0.54367088737E+02  0.40000010394E+02 0.  0.
        -12    1    3    3    0    0 -0.17995331350E+02  0.26370041581E+01 -0.32015523811E+02  0.36820911263E+02  0.00000000000E+00 0.  1.
         11    1    4    4    0    0 -0.19763807586E+00 -0.62356998369E+01  0.46381965329E+01  0.77740517495E+01  0.51100000000E-03 0. -1.
        -11    1    4    4    0    0  0.25463153044E+02  0.93512219418E+01  0.25298178635E+02  0.37091985081E+02  0.51100000000E-03 0.  1.
        -12    1    4    4    0    0 -0.72701836180E+01 -0.57525262630E+01  0.20791486434E+01  0.95010519064E+01  0.00000000000E+00 0.  1.
</event>
<event>
 8    1  0.2484572E-006  0.9118800E+02  0.7816164E-02  0.1184000E+00
        -11   -1    0    0    0    0  0.00000000000E+00  0.00000000000E+00  0.45593999997E+02  0.45594000000E+02  0.51100000000E-03 0. -1.
         11   -1    0    0    0    0 -0.00000000000E+00 -0.00000000000E+00 -0.45593999997E+02  0.45594000000E+02  0.51100000000E-03 0.  1.
         23    2    1    2    0    0  0.00000000000E+00 -0.17763568394E-14  0.00000000000E+00  0.91188000000E+02  0.91188000000E+02 0.  0.
    9900012    2    3    3    0    0  0.31916302752E+02 -0.98242567670E+01  0.15511812356E+02  0.54367045029E+02  0.39999910753E+02 0.  0.
        -12    1    3    3    0    0 -0.31916302752E+02  0.98242567670E+01 -0.15511812356E+02  0.36820954971E+02  0.00000000000E+00 0.  1.
         11    1    4    4    0    0  0.12443878739E+02  0.56918747729E+01  0.20719794901E+02  0.24830575054E+02  0.51100000000E-03 0. -1.
        -11    1    4    4    0    0  0.62359783430E+01 -0.93090514923E+01 -0.90697342175E+01  0.14415475872E+02  0.51100000000E-03 0.  1.
         12    1    4    4    0    0  0.13236445670E+02 -0.62070800476E+01  0.38617516723E+01  0.15120994103E+02  0.00000000000E+00 0. -1.
</event>
<event>
 8    1  0.2484572E-006  0.9118800E+02  0.7816164E-02  0.1184000E+00
        -11   -1    0    0    0    0  0.00000000000E+00  0.00000000000E+00  0.45593999997E+02  0.45594000000E+02  0.51100000000E-03 0. -1.
         11   -1    0    0    0    0 -0.00000000000E+00 -0.00000000000E+00 -0.45593999997E+02  0.45594000000E+02  0.51100000000E-03 0.  1.
         23    2    1    2    0    0 -0.71054273576E-14  0.17763568394E-14  0.00000000000E+00  0.91188000000E+02  0.91188000000E+02 0.  0.
    9900012    2    3    3    0    0  0.35562874642E+02  0.70783502187E+01  0.63999209547E+01  0.54367080907E+02  0.39999992545E+02 0.  0.
        -12    1    3    3    0    0 -0.35562874642E+02 -0.70783502187E+01 -0.63999209547E+01  0.36820919093E+02  0.00000000000E+00 0.  1.
         11    1    4    4    0    0  0.70819290168E+01  0.34246084509E+01  0.16993714638E+02  0.18726131450E+02  0.51100000000E-03 0. -1.
        -11    1    4    4    0    0  0.18588594728E+02  0.10454355259E+02 -0.10173858226E+02  0.23629151261E+02  0.51100000000E-03 0.  1.
         12    1    4    4    0    0  0.98923508969E+01 -0.68006134917E+01 -0.41993545728E+00  0.12011798197E+02  0.00000000000E+00 0. -1.
</event>
<event>
 8    1  0.2484572E-006  0.9118800E+02  0.7816164E-02  0.1184000E+00
        -11   -1    0    0    0    0  0.00000000000E+00  0.00000000000E+00  0.45593999997E+02  0.45594000000E+02  0.51100000000E-03 0.  1.
         11   -1    0    0    0    0 -0.00000000000E+00 -0.00000000000E+00 -0.45593999997E+02  0.45594000000E+02  0.51100000000E-03 0. -1.
         23    2    1    2    0    0 -0.35527136788E-14 -0.13322676296E-14  0.35527136788E-14  0.91188000000E+02  0.91188000000E+02 0.  0.
    9900012    2    3    3    0    0 -0.28886097703E+02 -0.30573678195E+01  0.22627994695E+02  0.54367078197E+02  0.39999986367E+02 0.  0.
        -12    1    3    3    0    0  0.28886097703E+02  0.30573678195E+01 -0.22627994695E+02  0.36820921803E+02  0.00000000000E+00 0.  1.
         11    1    4    4    0    0 -0.25837577347E+02 -0.78407824600E+01  0.46166525654E+01  0.27392914301E+02  0.51100000000E-03 0. -1.
        -11    1    4    4    0    0 -0.82257971521E+01  0.61009462726E+00  0.52387140892E+00  0.82650103301E+01  0.51100000000E-03 0.  1.
        -12    1    4    4    0    0  0.51772767962E+01  0.41733200132E+01  0.17487470721E+02  0.18709153566E+02  0.00000000000E+00 0.  1.
</event>
<event>
 8    1  0.2484572E-006  0.9118800E+02  0.7816164E-02  0.1184000E+00
        -11   -1    0    0    0    0  0.00000000000E+00  0.00000000000E+00  0.45593999997E+02  0.45594000000E+02  0.51100000000E-03 0.  1.
         11   -1    0    0    0    0 -0.00000000000E+00 -0.00000000000E+00 -0.45593999997E+02  0.45594000000E+02  0.51100000000E-03 0. -1.
         23    2    1    2    0    0  0.88817841970E-15 -0.19984014443E-14  0.00000000000E+00  0.91188000000E+02  0.91188000000E+02 0.  0.
    9900012    2    3    3    0    0  0.59559984318E+01  0.14494963963E+01  0.36307088549E+02  0.54367086974E+02  0.40000006375E+02 0.  0.
         12    1    3    3    0    0 -0.59559984318E+01 -0.14494963963E+01 -0.36307088549E+02  0.36820913026E+02  0.00000000000E+00 0. -1.
         11    1    4    4    0    0  0.69864607567E+01 -0.14634775741E+02  0.11871885487E+02  0.20097983982E+02  0.51100000000E-03 0. -1.
        -11    1    4    4    0    0  0.52908504102E+01  0.13338820364E+02  0.23182564432E+02  0.27264418583E+02  0.51100000000E-03 0.  1.
        -12    1    4    4    0    0 -0.63213127350E+01  0.27454517729E+01  0.12526386307E+01  0.70046844091E+01  0.00000000000E+00 0.  1.
</event>
<event>
 8    1  0.2484572E-006  0.9118800E+02  0.7816164E-02  0.1184000E+00
        -11   -1    0    0    0    0  0.00000000000E+00  0.00000000000E+00  0.45593999997E+02  0.45594000000E+02  0.51100000000E-03 0. -1.
         11   -1    0    0    0    0 -0.00000000000E+00 -0.00000000000E+00 -0.45593999997E+02  0.45594000000E+02  0.51100000000E-03 0.  1.
         23    2    1    2    0    0 -0.35527136788E-14 -0.44408920985E-15 -0.35527136788E-14  0.91188000000E+02  0.91188000000E+02 0.  0.
    9900012    2    3    3    0    0  0.27276606511E+02  0.17443851120E+01  0.24672315458E+02  0.54367091644E+02  0.40000017020E+02 0.  0.
        -12    1    3    3    0    0 -0.27276606511E+02 -0.17443851120E+01 -0.24672315458E+02  0.36820908356E+02  0.00000000000E+00 0.  1.
         11    1    4    4    0    0  0.61073277761E+01 -0.26408004662E+01  0.25526275569E+02  0.26379234719E+02  0.51100000000E-03 0. -1.
        -11    1    4    4    0    0  0.37447944080E+01  0.26428973872E+01 -0.78828011801E+01  0.91184947477E+01  0.51100000000E-03 0.  1.
        -12    1    4    4    0    0  0.17424484327E+02  0.17422881910E+01  0.70288410682E+01  0.18869362177E+02  0.00000000000E+00 0.  1.
</event>
<event>
 8    1  0.2484572E-006  0.9118800E+02  0.7816164E-02  0.1184000E+00
        -11   -1    0    0    0    0  0.00000000000E+00  0.00000000000E+00  0.45593999997E+02  0.45594000000E+02  0.51100000000E-03 0. -1.
         11   -1    0    0    0    0 -0.00000000000E+00 -0.00000000000E+00 -0.45593999997E+02  0.45594000000E+02  0.51100000000E-03 0.  1.
         23    2    1    2    0    0 -0.35527136788E-14  0.00000000000E+00 -0.35527136788E-14  0.91188000000E+02  0.91188000000E+02 0.  0.
    9900012    2    3    3    0    0 -0.19347748286E+02  0.17478875066E+02 -0.25998696023E+02  0.54367100606E+02  0.40000037452E+02 0.  0.
         12    1    3    3    0    0  0.19347748286E+02 -0.17478875066E+02  0.25998696023E+02  0.36820899394E+02  0.00000000000E+00 0. -1.
         11    1    4    4    0    0 -0.16471485509E+02  0.51500037282E+01 -0.78851244625E+01  0.18973865218E+02  0.51100000000E-03 0. -1.
        -11    1    4    4    0    0 -0.30834146283E+01  0.15985902862E+02  0.63232459355E+00  0.16292831882E+02  0.51100000000E-03 0.  1.
         12    1    4    4    0    0  0.20715185156E+00 -0.36570315244E+01 -0.18745896154E+02  0.19100403505E+02  0.00000000000E+00 0. -1.
</event>
<event>
 8    1  0.2484572E-006  0.9118800E+02  0.7816164E-02  0.1184000E+00
        -11   -1    0    0    0    0  0.00000000000E+00  0.00000000000E+00  0.45593999997E+02  0.45594000000E+02  0.51100000000E-03 0. -1.
         11   -1    0    0    0    0 -0.00000000000E+00 -0.00000000000E+00 -0.45593999997E+02  0.45594000000E+02  0.51100000000E-03 0.  1.
         23    2    1    2    0    0 -0.17763568394E-14  0.00000000000E+00  0.00000000000E+00  0.91188000000E+02  0.91188000000E+02 0.  0.
    9900012    2    3    3    0    0 -0.13647212491E+02  0.29595459199E+02 -0.17135927133E+02  0.54367114450E+02  0.40000069012E+02 0.  0.
         12    1    3    3    0    0  0.13647212491E+02 -0.29595459199E+02  0.17135927133E+02  0.36820885550E+02  0.00000000000E+00 0. -1.
         11    1    4    4    0    0 -0.14737980250E+02  0.10075099940E+02  0.62210575982E+01  0.18905482236E+02  0.51100000000E-03 0. -1.
        -11    1    4    4    0    0  0.27646314994E+01  0.90862442488E+01  0.35215507449E+00  0.95040536264E+01  0.51100000000E-03 0.  1.
        -12    1    4    4    0    0 -0.16738637398E+01  0.10434115010E+02 -0.23709139805E+02  0.25957578588E+02  0.00000000000E+00 0.  1.
</event>
<event>
 8    1  0.2484572E-006  0.9118800E+02  0.7816164E-02  0.1184000E+00
        -11   -1    0    0    0    0  0.00000000000E+00  0.00000000000E+00  0.45593999997E+02  0.45594000000E+02  0.51100000000E-03 0.  1.
         11   -1    0    0    0    0 -0.00000000000E+00 -0.00000000000E+00 -0.45593999997E+02  0.45594000000E+02  0.51100000000E-03 0. -1.
         23    2    1    2    0    0 -0.35527136788E-14 -0.35527136788E-14  0.00000000000E+00  0.91188000000E+02  0.91188000000E+02 0.  0.
    9900012    2    3    3    0    0 -0.19592732320E+02  0.27050053672E+02 -0.15498360969E+02  0.54367085344E+02  0.40000002658E+02 0.  0.
        -12    1    3    3    0    0  0.19592732320E+02 -0.27050053672E+02  0.15498360969E+02  0.36820914656E+02  0.00000000000E+00 0.  1.
         11    1    4    4    0    0 -0.59817701911E+01 -0.31394120196E+01  0.33564977679E+00  0.67638852357E+01  0.51100000000E-03 0. -1.
        -11    1    4    4    0    0 -0.11793076269E+02  0.12228748738E+02  0.71032481309E+01  0.18413991361E+02  0.51100000000E-03 0.  1.
         12    1    4    4    0    0 -0.18178858592E+01  0.17960716954E+02 -0.22937258876E+02  0.29189208747E+02  0.00000000000E+00 0. -1.
</event>
<event>
 8    1  0.2484572E-006  0.9118800E+02  0.7816164E-02  0.1184000E+00
        -11   -1    0    0    0    0  0.00000000000E+00  0.00000000000E+00  0.45593999997E+02  0.45594000000E+02  0.51100000000E-03 0.  1.
         11   -1    0    0    0    0 -0.00000000000E+00 -0.00000000000E+00 -0.45593999997E+02  0.45594000000E+02  0.51100000000E-03 0. -1.
         23    2    1    2    0    0  0.00000000000E+00  0.00000000000E+00  0.00000000000E+00  0.91188000000E+02  0.91188000000E+02 0.  0.
    9900012    2    3    3    0    0 -0.22230006394E+02 -0.11616011835E+02  0.26956951152E+02  0.54367053099E+02  0.39999929151E+02 0.  0.
        -12    1    3    3    0    0  0.22230006394E+02  0.11616011835E+02 -0.26956951152E+02  0.36820946901E+02  0.00000000000E+00 0.  1.
         11    1    4    4    0    0 -0.18983464379E+02 -0.73553463660E+00  0.15450581068E+02  0.24487412820E+02  0.51100000000E-03 0. -1.
        -11    1    4    4    0    0 -0.46534847728E+00  0.11135388346E+01  0.16535788627E+02  0.16579771522E+02  0.51100000000E-03 0.  1.
         12    1    4    4    0    0 -0.27811935376E+01 -0.11994016033E+02 -0.50294185422E+01  0.13299868758E+02  0.00000000000E+00 0. -1.
</event>
<event>
 8    1  0.2484572E-006  0.9118800E+02  0.7816164E-02  0.1184000E+00
        -11   -1    0    0    0    0  0.00000000000E+00  0.00000000000E+00  0.45593999997E+02  0.45594000000E+02  0.51100000000E-03 0.  1.
         11   -1    0    0    0    0 -0.00000000000E+00 -0.00000000000E+00 -0.45593999997E+02  0.45594000000E+02  0.51100000000E-03 0. -1.
         23    2    1    2    0    0  0.00000000000E+00 -0.35527136788E-14  0.00000000000E+00  0.91188000000E+02  0.91188000000E+02 0.  0.
    9900012    2    3    3    0    0 -0.54635008497E+01 -0.19464121418E+02  0.30774553236E+02  0.54367150051E+02  0.40000150171E+02 0.  0.
         12    1    3    3    0    0  0.54635008497E+01  0.19464121418E+02 -0.30774553236E+02  0.36820849949E+02  0.00000000000E+00 0. -1.
         11    1    4    4    0    0 -0.34590655549E+01 -0.24061249859E+02  0.21056665839E+02  0.32160411313E+02  0.51100000000E-03 0. -1.
        -11    1    4    4    0    0 -0.96448291261E+01  0.55930871590E+01  0.92512022476E+01  0.14487584206E+02  0.51100000000E-03 0.  1.
        -12    1    4    4    0    0  0.76403938313E+01 -0.99595871760E+00  0.46668514971E+00  0.77191545323E+01  0.00000000000E+00 0.  1.
</event>
<event>
 8    1  0.2484572E-006  0.9118800E+02  0.7816164E-02  0.1184000E+00
        -11   -1    0    0    0    0  0.00000000000E+00  0.00000000000E+00  0.45593999997E+02  0.45594000000E+02  0.51100000000E-03 0.  1.
         11   -1    0    0    0    0 -0.00000000000E+00 -0.00000000000E+00 -0.45593999997E+02  0.45594000000E+02  0.51100000000E-03 0. -1.
         23    2    1    2    0    0 -0.88817841970E-15  0.00000000000E+00  0.00000000000E+00  0.91188000000E+02  0.91188000000E+02 0.  0.
    9900012    2    3    3    0    0  0.48582887156E+01  0.33765846868E+02 -0.13857985985E+02  0.54367093445E+02  0.40000021126E+02 0.  0.
        -12    1    3    3    0    0 -0.48582887156E+01 -0.33765846868E+02  0.13857985985E+02  0.36820906555E+02  0.00000000000E+00 0.  1.
         11    1    4    4    0    0  0.66130239650E+01  0.21876455119E+02 -0.18353208500E+02  0.29311288560E+02  0.51100000000E-03 0. -1.
        -11    1    4    4    0    0 -0.10914635153E+02  0.22124653098E+01  0.51144767533E+00  0.11148356034E+02  0.51100000000E-03 0.  1.
         12    1    4    4    0    0  0.91598999041E+01  0.96769264397E+01  0.39837748394E+01  0.13907448851E+02  0.00000000000E+00 0. -1.
</event>
<event>
 8    1  0.2484572E-006  0.9118800E+02  0.7816164E-02  0.1184000E+00
        -11   -1    0    0    0    0  0.00000000000E+00  0.00000000000E+00  0.45593999997E+02  0.45594000000E+02  0.51100000000E-03 0. -1.
         11   -1    0    0    0    0 -0.00000000000E+00 -0.00000000000E+00 -0.45593999997E+02  0.45594000000E+02  0.51100000000E-03 0.  1.
         23    2    1    2    0    0 -0.44408920985E-15  0.00000000000E+00 -0.17763568394E-14  0.91188000000E+02  0.91188000000E+02 0.  0.
    9900012    2    3    3    0    0  0.38256658506E+01 -0.35304378392E+02 -0.97337607570E+01  0.54367069114E+02  0.39999965658E+02 0.  0.
         12    1    3    3    0    0 -0.38256658506E+01  0.35304378392E+02  0.97337607570E+01  0.36820930886E+02  0.00000000000E+00 0. -1.
         11    1    4    4    0    0 -0.25626616879E+01 -0.75376813553E+01  0.10270834714E+02  0.12995149907E+02  0.51100000000E-03 0. -1.
        -11    1    4    4    0    0  0.40608091668E+01 -0.22456717158E+02 -0.25300939711E+01  0.22960742418E+02  0.51100000000E-03 0.  1.
         12    1    4    4    0    0  0.23275183718E+01 -0.53099798791E+01 -0.17474501499E+02  0.18411176789E+02  0.00000000000E+00 0. -1.
</event>
<event>
 8    1  0.2484572E-006  0.9118800E+02  0.7816164E-02  0.1184000E+00
        -11   -1    0    0    0    0  0.00000000000E+00  0.00000000000E+00  0.45593999997E+02  0.45594000000E+02  0.51100000000E-03 0.  1.
         11   -1    0    0    0    0 -0.00000000000E+00 -0.00000000000E+00 -0.45593999997E+02  0.45594000000E+02  0.51100000000E-03 0. -1.
         23    2    1    2    0    0  0.00000000000E+00  0.17763568394E-14  0.35527136788E-14  0.91188000000E+02  0.91188000000E+02 0.  0.
    9900012    2    3    3    0    0  0.25992211905E+02  0.25511747750E+01 -0.25955279526E+02  0.54367080570E+02  0.39999991775E+02 0.  0.
        -12    1    3    3    0    0 -0.25992211905E+02 -0.25511747750E+01  0.25955279526E+02  0.36820919430E+02  0.00000000000E+00 0.  1.
         11    1    4    4    0    0  0.16180529162E+02 -0.60270269251E+01 -0.12339422079E+02  0.21222533191E+02  0.51100000000E-03 0. -1.
        -11    1    4    4    0    0  0.18140398842E+02  0.80193682704E+01 -0.14754197841E+02  0.24719844089E+02  0.51100000000E-03 0.  1.
         12    1    4    4    0    0 -0.83287160996E+01  0.55883342973E+00  0.11383403941E+01  0.84247032899E+01  0.00000000000E+00 0. -1.
</event>
<event>
 8    1  0.2484572E-006  0.9118800E+02  0.7816164E-02  0.1184000E+00
        -11   -1    0    0    0    0  0.00000000000E+00  0.00000000000E+00  0.45593999997E+02  0.45594000000E+02  0.51100000000E-03 0.  1.
         11   -1    0    0    0    0 -0.00000000000E+00 -0.00000000000E+00 -0.45593999997E+02  0.45594000000E+02  0.51100000000E-03 0. -1.
         23    2    1    2    0    0 -0.35527136788E-14  0.35527136788E-14  0.35527136788E-14  0.91188000000E+02  0.91188000000E+02 0.  0.
    9900012    2    3    3    0    0 -0.77257388907E+01  0.26195353960E+02 -0.24696079913E+02  0.54367082390E+02  0.39999995925E+02 0.  0.
        -12    1    3    3    0    0  0.77257388907E+01 -0.26195353960E+02  0.24696079913E+02  0.36820917610E+02  0.00000000000E+00 0.  1.
         11    1    4    4    0    0 -0.19699626295E+00  0.46687074122E+01 -0.15232239042E+01  0.49148598914E+01  0.51100000000E-03 0. -1.
        -11    1    4    4    0    0 -0.17738928865E+02  0.17019238380E+02 -0.97010655748E+00  0.24602137698E+02  0.51100000000E-03 0.  1.
        -12    1    4    4    0    0  0.10210186238E+02  0.45074081686E+01 -0.22202749452E+02  0.24850084801E+02  0.00000000000E+00 0.  1.
</event>
<event>
 8    1  0.2484572E-006  0.9118800E+02  0.7816164E-02  0.1184000E+00
        -11   -1    0    0    0    0  0.00000000000E+00  0.00000000000E+00  0.45593999997E+02  0.45594000000E+02  0.51100000000E-03 0. -1.
         11   -1    0    0    0    0 -0.00000000000E+00 -0.00000000000E+00 -0.45593999997E+02  0.45594000000E+02  0.51100000000E-03 0.  1.
         23    2    1    2    0    0  0.00000000000E+00  0.35527136788E-14 -0.17763568394E-14  0.91188000000E+02  0.91188000000E+02 0.  0.
    9900012    2    3    3    0    0 -0.25053555638E+02  0.23496768162E+02 -0.13266826542E+02  0.54366980858E+02  0.39999764462E+02 0.  0.
         12    1    3    3    0    0  0.25053555638E+02 -0.23496768162E+02  0.13266826542E+02  0.36821019142E+02  0.00000000000E+00 0. -1.
         11    1    4    4    0    0 -0.91191411254E+00 -0.68242428830E+01  0.61180918141E+01  0.92104791396E+01  0.51100000000E-03 0. -1.
        -11    1    4    4    0    0 -0.24295493508E+02  0.31320797672E+02 -0.18257247494E+02  0.43641613833E+02  0.51100000000E-03 0.  1.
        -12    1    4    4    0    0  0.15385198193E+00 -0.99978662772E+00 -0.11276708624E+01  0.15148878860E+01  0.00000000000E+00 0.  1.
</event>
<event>
 8    1  0.2484572E-006  0.9118800E+02  0.7816164E-02  0.1184000E+00
        -11   -1    0    0    0    0  0.00000000000E+00  0.00000000000E+00  0.45593999997E+02  0.45594000000E+02  0.51100000000E-03 0. -1.
         11   -1    0    0    0    0 -0.00000000000E+00 -0.00000000000E+00 -0.45593999997E+02  0.45594000000E+02  0.51100000000E-03 0.  1.
         23    2    1    2    0    0  0.00000000000E+00  0.00000000000E+00  0.17763568394E-14  0.91188000000E+02  0.91188000000E+02 0.  0.
    9900012    2    3    3    0    0 -0.29614302798E+02 -0.16294076336E+02  0.14603966448E+02  0.54367086244E+02  0.40000004710E+02 0.  0.
        -12    1    3    3    0    0  0.29614302798E+02  0.16294076336E+02 -0.14603966448E+02  0.36820913756E+02  0.00000000000E+00 0.  1.
         11    1    4    4    0    0 -0.27599021469E+01 -0.21323964197E+01  0.49801253394E+01  0.60799525499E+01  0.51100000000E-03 0. -1.
        -11    1    4    4    0    0 -0.20739262948E+02 -0.15418735110E+02  0.22314709204E+02  0.34143823265E+02  0.51100000000E-03 0.  1.
        -12    1    4    4    0    0 -0.61151377028E+01  0.12570551939E+01 -0.12690868095E+02  0.14143310429E+02  0.00000000000E+00 0.  1.
</event>
<event>
 8    1  0.2484572E-006  0.9118800E+02  0.7816164E-02  0.1184000E+00
        -11   -1    0    0    0    0  0.00000000000E+00  0.00000000000E+00  0.45593999997E+02  0.45594000000E+02  0.51100000000E-03 0. -1.
         11   -1    0    0    0    0 -0.00000000000E+00 -0.00000000000E+00 -0.45593999997E+02  0.45594000000E+02  0.51100000000E-03 0.  1.
         23    2    1    2    0    0  0.00000000000E+00  0.00000000000E+00  0.00000000000E+00  0.91188000000E+02  0.91188000000E+02 0.  0.
    9900012    2    3    3    0    0  0.34021232059E+02 -0.82224540348E+01 -0.11433634179E+02  0.54367068837E+02  0.39999965028E+02 0.  0.
        -12    1    3    3    0    0 -0.34021232059E+02  0.82224540348E+01  0.11433634179E+02  0.36820931163E+02  0.00000000000E+00 0.  1.
         11    1    4    4    0    0 -0.21593249262E+01 -0.15604120128E+00  0.62740697092E+01  0.66370915295E+01  0.51100000000E-03 0. -1.
        -11    1    4    4    0    0  0.38413112736E+01 -0.79180406327E+01 -0.12014753122E+02  0.14893130383E+02  0.51100000000E-03 0.  1.
         12    1    4    4    0    0  0.32339245712E+02 -0.14837220074E+00 -0.56929507661E+01  0.32836846924E+02  0.00000000000E+00 0. -1.
</event>
<event>
 8    1  0.2484572E-006  0.9118800E+02  0.7816164E-02  0.1184000E+00
        -11   -1    0    0    0    0  0.00000000000E+00  0.00000000000E+00  0.45593999997E+02  0.45594000000E+02  0.51100000000E-03 0. -1.
         11   -1    0    0    0    0 -0.00000000000E+00 -0.00000000000E+00 -0.45593999997E+02  0.45594000000E+02  0.51100000000E-03 0.  1.
         23    2    1    2    0    0  0.00000000000E+00 -0.17763568394E-14  0.00000000000E+00  0.91188000000E+02  0.91188000000E+02 0.  0.
    9900012    2    3    3    0    0  0.25854227381E+02  0.95770936505E+01 -0.24405319322E+02  0.54367062919E+02  0.39999951537E+02 0.  0.
         12    1    3    3    0    0 -0.25854227381E+02 -0.95770936505E+01  0.24405319322E+02  0.36820937081E+02  0.00000000000E+00 0. -1.
         11    1    4    4    0    0  0.19512801225E+02 -0.63811149304E+01 -0.69607051251E+01  0.21677625689E+02  0.51100000000E-03 0. -1.
        -11    1    4    4    0    0  0.16550689189E+01 -0.62164208363E+00 -0.15213803503E+02  0.15316184554E+02  0.51100000000E-03 0.  1.
         12    1    4    4    0    0  0.46863572372E+01  0.16579850664E+02 -0.22308106943E+01  0.17373252677E+02  0.00000000000E+00 0. -1.
</event>
<event>
 8    1  0.2484572E-006  0.9118800E+02  0.7816164E-02  0.1184000E+00
        -11   -1    0    0    0    0  0.00000000000E+00  0.00000000000E+00  0.45593999997E+02  0.45594000000E+02  0.51100000000E-03 0.  1.
         11   -1    0    0    0    0 -0.00000000000E+00 -0.00000000000E+00 -0.45593999997E+02  0.45594000000E+02  0.51100000000E-03 0. -1.
         23    2    1    2    0    0  0.00000000000E+00  0.00000000000E+00  0.00000000000E+00  0.91188000000E+02  0.91188000000E+02 0.  0.
    9900012    2    3    3    0    0 -0.16880969237E+02  0.18152157596E+02 -0.27227054805E+02  0.54367075770E+02  0.39999980834E+02 0.  0.
        -12    1    3    3    0    0  0.16880969237E+02 -0.18152157596E+02  0.27227054805E+02  0.36820924230E+02  0.00000000000E+00 0.  1.
         11    1    4    4    0    0 -0.15630926021E+02  0.20082109347E+02 -0.56085061934E+01  0.26059015831E+02  0.51100000000E-03 0. -1.
        -11    1    4    4    0    0 -0.94561841893E+01 -0.21139808620E+01 -0.88150269820E+01  0.13099352483E+02  0.51100000000E-03 0.  1.
        -12    1    4    4    0    0  0.82061409731E+01  0.18402911071E+00 -0.12803521630E+02  0.15208707457E+02  0.00000000000E+00 0.  1.
</event>
<event>
 8    1  0.2484572E-006  0.9118800E+02  0.7816164E-02  0.1184000E+00
        -11   -1    0    0    0    0  0.00000000000E+00  0.00000000000E+00  0.45593999997E+02  0.45594000000E+02  0.51100000000E-03 0. -1.
         11   -1    0    0    0    0 -0.00000000000E+00 -0.00000000000E+00 -0.45593999997E+02  0.45594000000E+02  0.51100000000E-03 0.  1.
         23    2    1    2    0    0  0.00000000000E+00  0.00000000000E+00 -0.71054273576E-14  0.91188000000E+02  0.91188000000E+02 0.  0.
    9900012    2    3    3    0    0  0.16185588799E+02  0.21578884589E+02 -0.25063038602E+02  0.54367116675E+02  0.40000074083E+02 0.  0.
         12    1    3    3    0    0 -0.16185588799E+02 -0.21578884589E+02  0.25063038602E+02  0.36820883325E+02  0.00000000000E+00 0. -1.
         11    1    4    4    0    0  0.24524595134E+01  0.62397725453E+01  0.10295379301E+02  0.12285933188E+02  0.51100000000E-03 0. -1.
        -11    1    4    4    0    0  0.34656185316E+01  0.63610494985E+01 -0.50065665638E+01  0.88056329441E+01  0.51100000000E-03 0.  1.
         12    1    4    4    0    0  0.10267510754E+02  0.89780625457E+01 -0.30351851339E+02  0.33275550542E+02  0.00000000000E+00 0. -1.
</event>
<event>
 8    1  0.2484572E-006  0.9118800E+02  0.7816164E-02  0.1184000E+00
        -11   -1    0    0    0    0  0.00000000000E+00  0.00000000000E+00  0.45593999997E+02  0.45594000000E+02  0.51100000000E-03 0.  1.
         11   -1    0    0    0    0 -0.00000000000E+00 -0.00000000000E+00 -0.45593999997E+02  0.45594000000E+02  0.51100000000E-03 0. -1.
         23    2    1    2    0    0  0.17763568394E-14 -0.88817841970E-15  0.71054273576E-14  0.91188000000E+02  0.91188000000E+02 0.  0.
    9900012    2    3    3    0    0 -0.13303535479E+02  0.75341009160E+01 -0.33496706817E+02  0.54367134985E+02  0.40000115825E+02 0.  0.
        -12    1    3    3    0    0  0.13303535479E+02 -0.75341009160E+01  0.33496706817E+02  0.36820865015E+02  0.00000000000E+00 0.  1.
         11    1    4    4    0    0  0.36541184028E+01  0.10982961054E+02 -0.16027261062E+02  0.19769954785E+02  0.51100000000E-03 0. -1.
        -11    1    4    4    0    0  0.79561418476E+00  0.26295612939E+01  0.47664192428E+01  0.55014859073E+01  0.51100000000E-03 0.  1.
         12    1    4    4    0    0 -0.17753268066E+02 -0.60784214314E+01 -0.22235864998E+02  0.29095694293E+02  0.00000000000E+00 0. -1.
</event>
<event>
 8    1  0.2484572E-006  0.9118800E+02  0.7816164E-02  0.1184000E+00
        -11   -1    0    0    0    0  0.00000000000E+00  0.00000000000E+00  0.45593999997E+02  0.45594000000E+02  0.51100000000E-03 0.  1.
         11   -1    0    0    0    0 -0.00000000000E+00 -0.00000000000E+00 -0.45593999997E+02  0.45594000000E+02  0.51100000000E-03 0. -1.
         23    2    1    2    0    0 -0.71054273576E-14  0.88817841970E-15  0.00000000000E+00  0.91188000000E+02  0.91188000000E+02 0.  0.
    9900012    2    3    3    0    0 -0.29814618578E+02 -0.60674830624E+01 -0.20737764786E+02  0.54367072255E+02  0.39999972819E+02 0.  0.
        -12    1    3    3    0    0  0.29814618578E+02  0.60674830624E+01  0.20737764786E+02  0.36820927745E+02  0.00000000000E+00 0.  1.
         11    1    4    4    0    0 -0.85318256710E+01 -0.10510242264E+02 -0.66146965111E+01  0.15066899214E+02  0.51100000000E-03 0.  1.
        -11    1    4    4    0    0 -0.16595718258E+02 -0.94149617157E+00  0.62145400481E+01  0.17746120360E+02  0.51100000000E-03 0. -1.
         12    1    4    4    0    0 -0.46870746492E+01  0.53842553729E+01 -0.20337608323E+02  0.21554052682E+02  0.00000000000E+00 0. -1.
</event>
<event>
 8    1  0.2484572E-006  0.9118800E+02  0.7816164E-02  0.1184000E+00
        -11   -1    0    0    0    0  0.00000000000E+00  0.00000000000E+00  0.45593999997E+02  0.45594000000E+02  0.51100000000E-03 0.  1.
         11   -1    0    0    0    0 -0.00000000000E+00 -0.00000000000E+00 -0.45593999997E+02  0.45594000000E+02  0.51100000000E-03 0. -1.
         23    2    1    2    0    0  0.00000000000E+00  0.00000000000E+00  0.00000000000E+00  0.91188000000E+02  0.91188000000E+02 0.  0.
    9900012    2    3    3    0    0  0.64746465679E+01 -0.14331172417E+02 -0.33293782500E+02  0.54367088765E+02  0.40000010459E+02 0.  0.
        -12    1    3    3    0    0 -0.64746465679E+01  0.14331172417E+02  0.33293782500E+02  0.36820911235E+02  0.00000000000E+00 0.  1.
         11    1    4    4    0    0  0.10541199373E+02 -0.53607900524E+01  0.31793563077E+01  0.12245948758E+02  0.51100000000E-03 0. -1.
        -11    1    4    4    0    0 -0.90948862150E+01  0.50370138675E+00 -0.24000767787E+02  0.25671141871E+02  0.51100000000E-03 0.  1.
         12    1    4    4    0    0  0.50283334103E+01 -0.94740837510E+01 -0.12472371021E+02  0.16449998136E+02  0.00000000000E+00 0. -1.
</event>
<event>
 8    1  0.2484572E-006  0.9118800E+02  0.7816164E-02  0.1184000E+00
        -11   -1    0    0    0    0  0.00000000000E+00  0.00000000000E+00  0.45593999997E+02  0.45594000000E+02  0.51100000000E-03 0. -1.
         11   -1    0    0    0    0 -0.00000000000E+00 -0.00000000000E+00 -0.45593999997E+02  0.45594000000E+02  0.51100000000E-03 0.  1.
         23    2    1    2    0    0 -0.71054273576E-14  0.13322676296E-14  0.17763568394E-14  0.91188000000E+02  0.91188000000E+02 0.  0.
    9900012    2    3    3    0    0  0.33409207627E+02 -0.27461370138E+01  0.15233327145E+02  0.54367208609E+02  0.40000283666E+02 0.  0.
        -12    1    3    3    0    0 -0.33409207627E+02  0.27461370138E+01 -0.15233327145E+02  0.36820791391E+02  0.00000000000E+00 0.  1.
         11    1    4    4    0    0 -0.30354857287E+01 -0.11176472978E+02  0.68300437201E+01  0.13445341919E+02  0.51100000000E-03 0. -1.
        -11    1    4    4    0    0  0.25387598503E+02  0.57771980517E+01 -0.11623036410E+01  0.26062561752E+02  0.51100000000E-03 0.  1.
         12    1    4    4    0    0  0.11057094852E+02  0.26531379120E+01  0.95655870655E+01  0.14859304939E+02  0.00000000000E+00 0. -1.
</event>
<event>
 8    1  0.2484572E-006  0.9118800E+02  0.7816164E-02  0.1184000E+00
        -11   -1    0    0    0    0  0.00000000000E+00  0.00000000000E+00  0.45593999997E+02  0.45594000000E+02  0.51100000000E-03 0.  1.
         11   -1    0    0    0    0 -0.00000000000E+00 -0.00000000000E+00 -0.45593999997E+02  0.45594000000E+02  0.51100000000E-03 0. -1.
         23    2    1    2    0    0  0.00000000000E+00  0.00000000000E+00  0.00000000000E+00  0.91188000000E+02  0.91188000000E+02 0.  0.
    9900012    2    3    3    0    0  0.10997537195E+02  0.23656981378E+02 -0.25984288773E+02  0.54367056838E+02  0.39999937675E+02 0.  0.
        -12    1    3    3    0    0 -0.10997537195E+02 -0.23656981378E+02  0.25984288773E+02  0.36820943162E+02  0.00000000000E+00 0.  1.
         11    1    4    4    0    0 -0.79476762864E+01  0.55300309591E+01 -0.24025625092E+02  0.25903232657E+02  0.51100000000E-03 0. -1.
        -11    1    4    4    0    0  0.11440491788E+02  0.11453670638E+02  0.41463427181E+01  0.16711181336E+02  0.51100000000E-03 0.  1.
         12    1    4    4    0    0  0.75047216929E+01  0.66732797817E+01 -0.61050063987E+01  0.11752642846E+02  0.00000000000E+00 0. -1.
</event>
<event>
 8    1  0.2484572E-006  0.9118800E+02  0.7816164E-02  0.1184000E+00
        -11   -1    0    0    0    0  0.00000000000E+00  0.00000000000E+00  0.45593999997E+02  0.45594000000E+02  0.51100000000E-03 0.  1.
         11   -1    0    0    0    0 -0.00000000000E+00 -0.00000000000E+00 -0.45593999997E+02  0.45594000000E+02  0.51100000000E-03 0. -1.
         23    2    1    2    0    0  0.71054273576E-14  0.17763568394E-14  0.88817841970E-15  0.91188000000E+02  0.91188000000E+02 0.  0.
    9900012    2    3    3    0    0 -0.34174958454E+02 -0.12687646085E+02 -0.51840795654E+01  0.54367097928E+02  0.40000031345E+02 0.  0.
         12    1    3    3    0    0  0.34174958454E+02  0.12687646085E+02  0.51840795654E+01  0.36820902072E+02  0.00000000000E+00 0. -1.
         11    1    4    4    0    0 -0.64985104598E+01 -0.15500802848E+02 -0.88301528741E+01  0.18986235203E+02  0.51100000000E-03 0. -1.
        -11    1    4    4    0    0 -0.15125794229E+02 -0.32731036134E+01  0.11584635779E+02  0.19331493597E+02  0.51100000000E-03 0.  1.
        -12    1    4    4    0    0 -0.12550653765E+02  0.60862603766E+01 -0.79385624701E+01  0.16049369128E+02  0.00000000000E+00 0.  1.
</event>
<event>
 8    1  0.2484572E-006  0.9118800E+02  0.7816164E-02  0.1184000E+00
        -11   -1    0    0    0    0  0.00000000000E+00  0.00000000000E+00  0.45593999997E+02  0.45594000000E+02  0.51100000000E-03 0.  1.
         11   -1    0    0    0    0 -0.00000000000E+00 -0.00000000000E+00 -0.45593999997E+02  0.45594000000E+02  0.51100000000E-03 0. -1.
         23    2    1    2    0    0 -0.35527136788E-14  0.00000000000E+00  0.00000000000E+00  0.91188000000E+02  0.91188000000E+02 0.  0.
    9900012    2    3    3    0    0 -0.26393145858E+02  0.22978928831E+02 -0.11452223409E+02  0.54367044831E+02  0.39999910302E+02 0.  0.
        -12    1    3    3    0    0  0.26393145858E+02 -0.22978928831E+02  0.11452223409E+02  0.36820955169E+02  0.00000000000E+00 0.  1.
         11    1    4    4    0    0  0.34144338438E+00  0.17600768846E+02  0.63003804566E+00  0.17615351139E+02  0.51100000000E-03 0. -1.
        -11    1    4    4    0    0  0.23250019081E+01 -0.30443749661E+01 -0.37709813790E+01  0.53753282344E+01  0.51100000000E-03 0.  1.
         12    1    4    4    0    0 -0.29059591151E+02  0.84225349517E+01 -0.83112800756E+01  0.31376365458E+02  0.00000000000E+00 0. -1.
</event>
<event>
 8    1  0.2484572E-006  0.9118800E+02  0.7816164E-02  0.1184000E+00
        -11   -1    0    0    0    0  0.00000000000E+00  0.00000000000E+00  0.45593999997E+02  0.45594000000E+02  0.51100000000E-03 0. -1.
         11   -1    0    0    0    0 -0.00000000000E+00 -0.00000000000E+00 -0.45593999997E+02  0.45594000000E+02  0.51100000000E-03 0.  1.
         23    2    1    2    0    0 -0.35527136788E-14  0.00000000000E+00  0.00000000000E+00  0.91188000000E+02  0.91188000000E+02 0.  0.
    9900012    2    3    3    0    0 -0.16835153903E+02 -0.17655920304E+02  0.27579430164E+02  0.54367097012E+02  0.40000029257E+02 0.  0.
        -12    1    3    3    0    0  0.16835153903E+02  0.17655920304E+02 -0.27579430164E+02  0.36820902988E+02  0.00000000000E+00 0.  1.
         11    1    4    4    0    0 -0.71977309513E+01 -0.20697468235E+02  0.17659514060E+02  0.28143399924E+02  0.51100000000E-03 0. -1.
        -11    1    4    4    0    0  0.32120179525E+01  0.66770248806E+01 -0.26650431520E+01  0.78741460392E+01  0.51100000000E-03 0.  1.
         12    1    4    4    0    0 -0.12849440905E+02 -0.36354769494E+01  0.12584959256E+02  0.18349551048E+02  0.00000000000E+00 0. -1.
</event>
<event>
 8    1  0.2484572E-006  0.9118800E+02  0.7816164E-02  0.1184000E+00
        -11   -1    0    0    0    0  0.00000000000E+00  0.00000000000E+00  0.45593999997E+02  0.45594000000E+02  0.51100000000E-03 0. -1.
         11   -1    0    0    0    0 -0.00000000000E+00 -0.00000000000E+00 -0.45593999997E+02  0.45594000000E+02  0.51100000000E-03 0.  1.
         23    2    1    2    0    0  0.00000000000E+00 -0.17763568394E-14  0.17763568394E-14  0.91188000000E+02  0.91188000000E+02 0.  0.
    9900012    2    3    3    0    0 -0.31676467010E+02 -0.10471002292E+02 -0.15580103793E+02  0.54367080872E+02  0.39999992463E+02 0.  0.
         12    1    3    3    0    0  0.31676467010E+02  0.10471002292E+02  0.15580103793E+02  0.36820919128E+02  0.00000000000E+00 0. -1.
         11    1    4    4    0    0 -0.22928944853E+01 -0.93871617472E+01  0.34041718379E+01  0.10245221176E+02  0.51100000000E-03 0.  1.
        -11    1    4    4    0    0 -0.16173192564E+02 -0.75076827821E+01  0.25936761352E+01  0.18018452059E+02  0.51100000000E-03 0. -1.
        -12    1    4    4    0    0 -0.13210379962E+02  0.64238422372E+01 -0.21577951766E+02  0.26103407636E+02  0.00000000000E+00 0.  1.
</event>
<event>
 8    1  0.2484572E-006  0.9118800E+02  0.7816164E-02  0.1184000E+00
        -11   -1    0    0    0    0  0.00000000000E+00  0.00000000000E+00  0.45593999997E+02  0.45594000000E+02  0.51100000000E-03 0. -1.
         11   -1    0    0    0    0 -0.00000000000E+00 -0.00000000000E+00 -0.45593999997E+02  0.45594000000E+02  0.51100000000E-03 0.  1.
         23    2    1    2    0    0  0.17763568394E-14 -0.71054273576E-14 -0.35527136788E-14  0.91188000000E+02  0.91188000000E+02 0.  0.
    9900012    2    3    3    0    0 -0.69652730334E+01  0.26362278742E+02  0.24744527604E+02  0.54367130711E+02  0.40000106081E+02 0.  0.
        -12    1    3    3    0    0  0.69652730334E+01 -0.26362278742E+02 -0.24744527604E+02  0.36820869289E+02  0.00000000000E+00 0.  1.
         11    1    4    4    0    0 -0.36164945524E+00  0.26570560027E+02  0.26501867404E+02  0.37529647302E+02  0.51100000000E-03 0. -1.
        -11    1    4    4    0    0 -0.34714399566E+01  0.75788110086E+01 -0.50670405523E+00  0.83514083206E+01  0.51100000000E-03 0.  1.
        -12    1    4    4    0    0 -0.31321836215E+01 -0.77870922935E+01 -0.12506357451E+01  0.84860750877E+01  0.00000000000E+00 0.  1.
</event>
<event>
 8    1  0.2484572E-006  0.9118800E+02  0.7816164E-02  0.1184000E+00
        -11   -1    0    0    0    0  0.00000000000E+00  0.00000000000E+00  0.45593999997E+02  0.45594000000E+02  0.51100000000E-03 0. -1.
         11   -1    0    0    0    0 -0.00000000000E+00 -0.00000000000E+00 -0.45593999997E+02  0.45594000000E+02  0.51100000000E-03 0.  1.
         23    2    1    2    0    0 -0.71054273576E-14 -0.12490009027E-15  0.35527136788E-14  0.91188000000E+02  0.91188000000E+02 0.  0.
    9900012    2    3    3    0    0 -0.26238353788E+02 -0.51237698854E-01 -0.25832659933E+02  0.54367079940E+02  0.39999990340E+02 0.  0.
         12    1    3    3    0    0  0.26238353788E+02  0.51237698854E-01  0.25832659933E+02  0.36820920060E+02  0.00000000000E+00 0. -1.
         11    1    4    4    0    0  0.93395786892E+01  0.24188672990E+01  0.32019443782E+00  0.96530396167E+01  0.51100000000E-03 0. -1.
        -11    1    4    4    0    0 -0.29858704203E+02 -0.26547746142E+00 -0.19474471711E+02  0.35649232020E+02  0.51100000000E-03 0.  1.
         12    1    4    4    0    0 -0.57192282745E+01 -0.22046275364E+01 -0.66783826596E+01  0.90648083034E+01  0.00000000000E+00 0. -1.
</event>
<event>
 8    1  0.2484572E-006  0.9118800E+02  0.7816164E-02  0.1184000E+00
        -11   -1    0    0    0    0  0.00000000000E+00  0.00000000000E+00  0.45593999997E+02  0.45594000000E+02  0.51100000000E-03 0.  1.
         11   -1    0    0    0    0 -0.00000000000E+00 -0.00000000000E+00 -0.45593999997E+02  0.45594000000E+02  0.51100000000E-03 0. -1.
         23    2    1    2    0    0  0.00000000000E+00  0.00000000000E+00 -0.17763568394E-14  0.91188000000E+02  0.91188000000E+02 0.  0.
    9900012    2    3    3    0    0  0.16503624913E+02 -0.31496776275E+02 -0.95584695603E+01  0.54367069929E+02  0.39999967517E+02 0.  0.
        -12    1    3    3    0    0 -0.16503624913E+02  0.31496776275E+02  0.95584695603E+01  0.36820930071E+02  0.00000000000E+00 0.  1.
         11    1    4    4    0    0  0.81428007728E+01 -0.46287699234E+01 -0.15240260437E+02  0.17888439112E+02  0.51100000000E-03 0. -1.
        -11    1    4    4    0    0  0.10888379637E+02 -0.69155843181E+01  0.94843074482E+01  0.16010440519E+02  0.51100000000E-03 0.  1.
        -12    1    4    4    0    0 -0.25275554971E+01 -0.19952422033E+02 -0.38025165718E+01  0.20468190298E+02  0.00000000000E+00 0.  1.
</event>
<event>
 8    1  0.2484572E-006  0.9118800E+02  0.7816164E-02  0.1184000E+00
        -11   -1    0    0    0    0  0.00000000000E+00  0.00000000000E+00  0.45593999997E+02  0.45594000000E+02  0.51100000000E-03 0.  1.
         11   -1    0    0    0    0 -0.00000000000E+00 -0.00000000000E+00 -0.45593999997E+02  0.45594000000E+02  0.51100000000E-03 0. -1.
         23    2    1    2    0    0  0.35527136788E-14  0.00000000000E+00  0.00000000000E+00  0.91188000000E+02  0.91188000000E+02 0.  0.
    9900012    2    3    3    0    0 -0.23646983244E+02  0.22290981707E+02  0.17312223446E+02  0.54367071676E+02  0.39999971500E+02 0.  0.
        -12    1    3    3    0    0  0.23646983244E+02 -0.22290981707E+02 -0.17312223446E+02  0.36820928324E+02  0.00000000000E+00 0.  1.
         11    1    4    4    0    0 -0.11711282492E+02 -0.34971396395E+01  0.37234615605E+01  0.12776865403E+02  0.51100000000E-03 0. -1.
        -11    1    4    4    0    0  0.55870163287E+01 -0.11139175452E+01 -0.18170745918E+01  0.59797428112E+01  0.51100000000E-03 0.  1.
         12    1    4    4    0    0 -0.17522717081E+02  0.26902038891E+02  0.15405836477E+02  0.35610463462E+02  0.00000000000E+00 0. -1.
</event>
<event>
 8    1  0.2484572E-006  0.9118800E+02  0.7816164E-02  0.1184000E+00
        -11   -1    0    0    0    0  0.00000000000E+00  0.00000000000E+00  0.45593999997E+02  0.45594000000E+02  0.51100000000E-03 0.  1.
         11   -1    0    0    0    0 -0.00000000000E+00 -0.00000000000E+00 -0.45593999997E+02  0.45594000000E+02  0.51100000000E-03 0. -1.
         23    2    1    2    0    0  0.00000000000E+00  0.11102230246E-14 -0.71054273576E-14  0.91188000000E+02  0.91188000000E+02 0.  0.
    9900012    2    3    3    0    0  0.16833989000E+01  0.57813114779E+00 -0.36777874480E+02  0.54367080419E+02  0.39999991432E+02 0.  0.
        -12    1    3    3    0    0 -0.16833989000E+01 -0.57813114779E+00  0.36777874480E+02  0.36820919581E+02  0.00000000000E+00 0.  1.
         11    1    4    4    0    0  0.10460512406E+01 -0.12547791178E+02 -0.29890472628E+01  0.12941239911E+02  0.51100000000E-03 0. -1.
        -11    1    4    4    0    0  0.48278199528E+01  0.10333291041E+02 -0.54457183914E+01  0.12638852728E+02  0.51100000000E-03 0.  1.
        -12    1    4    4    0    0 -0.41904722934E+01  0.27926312847E+01 -0.28343108826E+02  0.28786987780E+02  0.00000000000E+00 0.  1.
</event>
<event>
 8    1  0.2484572E-006  0.9118800E+02  0.7816164E-02  0.1184000E+00
        -11   -1    0    0    0    0  0.00000000000E+00  0.00000000000E+00  0.45593999997E+02  0.45594000000E+02  0.51100000000E-03 0.  1.
         11   -1    0    0    0    0 -0.00000000000E+00 -0.00000000000E+00 -0.45593999997E+02  0.45594000000E+02  0.51100000000E-03 0. -1.
         23    2    1    2    0    0 -0.11102230246E-15  0.00000000000E+00 -0.71054273576E-14  0.91188000000E+02  0.91188000000E+02 0.  0.
    9900012    2    3    3    0    0 -0.92297930236E+00 -0.13315535727E+02 -0.34316522673E+02  0.54367094106E+02  0.40000022634E+02 0.  0.
        -12    1    3    3    0    0  0.92297930236E+00  0.13315535727E+02  0.34316522673E+02  0.36820905894E+02  0.00000000000E+00 0.  1.
         11    1    4    4    0    0  0.52832443242E+00 -0.19784361178E+02 -0.17288412257E+02  0.26279065290E+02  0.51100000000E-03 0. -1.
        -11    1    4    4    0    0  0.77930813217E+00  0.11286513339E+02 -0.19253572804E+02  0.22331430104E+02  0.51100000000E-03 0.  1.
        -12    1    4    4    0    0 -0.22306118670E+01 -0.48176878881E+01  0.22254623879E+01  0.57565987118E+01  0.00000000000E+00 0.  1.
</event>
<event>
 8    1  0.2484572E-006  0.9118800E+02  0.7816164E-02  0.1184000E+00
        -11   -1    0    0    0    0  0.00000000000E+00  0.00000000000E+00  0.45593999997E+02  0.45594000000E+02  0.51100000000E-03 0.  1.
         11   -1    0    0    0    0 -0.00000000000E+00 -0.00000000000E+00 -0.45593999997E+02  0.45594000000E+02  0.51100000000E-03 0. -1.
         23    2    1    2    0    0  0.00000000000E+00  0.00000000000E+00  0.17763568394E-14  0.91188000000E+02  0.91188000000E+02 0.  0.
    9900012    2    3    3    0    0  0.31285062968E+02  0.16714183815E+02 -0.98823243312E+01  0.54367089641E+02  0.40000012454E+02 0.  0.
         12    1    3    3    0    0 -0.31285062968E+02 -0.16714183815E+02  0.98823243312E+01  0.36820910359E+02  0.00000000000E+00 0. -1.
         11    1    4    4    0    0  0.50526868973E+01  0.12794856439E+02  0.11232986583E+01  0.13802166363E+02  0.51100000000E-03 0. -1.
        -11    1    4    4    0    0 -0.56071870289E+00  0.10926994505E+02 -0.58069352362E+01  0.12386852363E+02  0.51100000000E-03 0.  1.
         12    1    4    4    0    0  0.26793094773E+02 -0.70076671283E+01 -0.51986877533E+01  0.28178070915E+02  0.00000000000E+00 0. -1.
</event>
<event>
 8    1  0.2484572E-006  0.9118800E+02  0.7816164E-02  0.1184000E+00
        -11   -1    0    0    0    0  0.00000000000E+00  0.00000000000E+00  0.45593999997E+02  0.45594000000E+02  0.51100000000E-03 0. -1.
         11   -1    0    0    0    0 -0.00000000000E+00 -0.00000000000E+00 -0.45593999997E+02  0.45594000000E+02  0.51100000000E-03 0.  1.
         23    2    1    2    0    0  0.35527136788E-14  0.17763568394E-14 -0.35527136788E-14  0.91188000000E+02  0.91188000000E+02 0.  0.
    9900012    2    3    3    0    0 -0.23589050208E+02 -0.59284948482E+01  0.27643961735E+02  0.54367096137E+02  0.40000027263E+02 0.  0.
        -12    1    3    3    0    0  0.23589050208E+02  0.59284948482E+01 -0.27643961735E+02  0.36820903863E+02  0.00000000000E+00 0.  1.
         11    1    4    4    0    0  0.84388641926E+00 -0.87053512405E+01  0.11612772940E+02  0.14537942775E+02  0.51100000000E-03 0. -1.
        -11    1    4    4    0    0 -0.70330739096E+01 -0.11703499974E+02  0.79072807254E+01  0.15778502115E+02  0.51100000000E-03 0.  1.
         12    1    4    4    0    0 -0.17399862718E+02  0.14480356366E+02  0.81239080694E+01  0.24050651247E+02  0.00000000000E+00 0. -1.
</event>
<event>
 8    1  0.2484572E-006  0.9118800E+02  0.7816164E-02  0.1184000E+00
        -11   -1    0    0    0    0  0.00000000000E+00  0.00000000000E+00  0.45593999997E+02  0.45594000000E+02  0.51100000000E-03 0. -1.
         11   -1    0    0    0    0 -0.00000000000E+00 -0.00000000000E+00 -0.45593999997E+02  0.45594000000E+02  0.51100000000E-03 0.  1.
         23    2    1    2    0    0 -0.35527136788E-14  0.00000000000E+00  0.00000000000E+00  0.91188000000E+02  0.91188000000E+02 0.  0.
    9900012    2    3    3    0    0  0.22469822798E+02 -0.28243395057E+02  0.72937306906E+01  0.54367071056E+02  0.39999970086E+02 0.  0.
        -12    1    3    3    0    0 -0.22469822798E+02  0.28243395057E+02 -0.72937306906E+01  0.36820928944E+02  0.00000000000E+00 0.  1.
         11    1    4    4    0    0  0.27285363083E+02 -0.14679699296E+02  0.47739902135E+01  0.31349251871E+02  0.51100000000E-03 0.  1.
        -11    1    4    4    0    0 -0.91381278095E+01 -0.59795301661E+01 -0.45045073836E+01  0.11813159946E+02  0.51100000000E-03 0. -1.
         12    1    4    4    0    0  0.43225875243E+01 -0.75841655945E+01  0.70242478607E+01  0.11204659240E+02  0.00000000000E+00 0. -1.
</event>
<event>
 8    1  0.2484572E-006  0.9118800E+02  0.7816164E-02  0.1184000E+00
        -11   -1    0    0    0    0  0.00000000000E+00  0.00000000000E+00  0.45593999997E+02  0.45594000000E+02  0.51100000000E-03 0. -1.
         11   -1    0    0    0    0 -0.00000000000E+00 -0.00000000000E+00 -0.45593999997E+02  0.45594000000E+02  0.51100000000E-03 0.  1.
         23    2    1    2    0    0  0.26645352591E-14  0.00000000000E+00  0.00000000000E+00  0.91188000000E+02  0.91188000000E+02 0.  0.
    9900012    2    3    3    0    0  0.46971363739E+01 -0.16743772935E+02  0.32455536762E+02  0.54367097123E+02  0.40000029510E+02 0.  0.
        -12    1    3    3    0    0 -0.46971363739E+01  0.16743772935E+02 -0.32455536762E+02  0.36820902877E+02  0.00000000000E+00 0.  1.
         11    1    4    4    0    0  0.14189109096E+02 -0.82891913081E+01  0.12250731648E+02  0.20496876241E+02  0.51100000000E-03 0. -1.
        -11    1    4    4    0    0  0.79675202310E+01 -0.48071802657E+01  0.78301141854E+01  0.12161457526E+02  0.51100000000E-03 0.  1.
         12    1    4    4    0    0 -0.17459492953E+02 -0.36474013612E+01  0.12374690928E+02  0.21708763355E+02  0.00000000000E+00 0. -1.
</event>
<event>
 8    1  0.2484572E-006  0.9118800E+02  0.7816164E-02  0.1184000E+00
        -11   -1    0    0    0    0  0.00000000000E+00  0.00000000000E+00  0.45593999997E+02  0.45594000000E+02  0.51100000000E-03 0.  1.
         11   -1    0    0    0    0 -0.00000000000E+00 -0.00000000000E+00 -0.45593999997E+02  0.45594000000E+02  0.51100000000E-03 0. -1.
         23    2    1    2    0    0  0.00000000000E+00  0.00000000000E+00  0.35527136788E-14  0.91188000000E+02  0.91188000000E+02 0.  0.
    9900012    2    3    3    0    0  0.25329881082E+02 -0.17709410171E+02 -0.20013834754E+02  0.54367086571E+02  0.40000005455E+02 0.  0.
        -12    1    3    3    0    0 -0.25329881082E+02  0.17709410171E+02  0.20013834754E+02  0.36820913429E+02  0.00000000000E+00 0.  1.
         11    1    4    4    0    0  0.25413340099E+02  0.11114782668E+01 -0.13883813969E+02  0.28979881462E+02  0.51100000000E-03 0. -1.
        -11    1    4    4    0    0  0.66857927792E+01 -0.57012397099E+01  0.12622754592E+01  0.88767842664E+01  0.51100000000E-03 0.  1.
        -12    1    4    4    0    0 -0.67692517970E+01 -0.13119648728E+02 -0.73922962440E+01  0.16510420843E+02  0.00000000000E+00 0.  1.
</event>
<event>
 8    1  0.2484572E-006  0.9118800E+02  0.7816164E-02  0.1184000E+00
        -11   -1    0    0    0    0  0.00000000000E+00  0.00000000000E+00  0.45593999997E+02  0.45594000000E+02  0.51100000000E-03 0.  1.
         11   -1    0    0    0    0 -0.00000000000E+00 -0.00000000000E+00 -0.45593999997E+02  0.45594000000E+02  0.51100000000E-03 0. -1.
         23    2    1    2    0    0  0.00000000000E+00  0.00000000000E+00 -0.88817841970E-15  0.91188000000E+02  0.91188000000E+02 0.  0.
    9900012    2    3    3    0    0 -0.35932504702E+01  0.36378259820E+02 -0.44148249068E+01  0.54367083180E+02  0.39999997726E+02 0.  0.
        -12    1    3    3    0    0  0.35932504702E+01 -0.36378259820E+02  0.44148249068E+01  0.36820916820E+02  0.00000000000E+00 0.  1.
         11    1    4    4    0    0 -0.14964013303E+01  0.63521097871E+01  0.10608283299E+02  0.12454886210E+02  0.51100000000E-03 0.  1.
        -11    1    4    4    0    0 -0.86841965657E+00  0.21016846302E+02  0.34563755259E+01  0.21316859835E+02  0.51100000000E-03 0. -1.
         12    1    4    4    0    0 -0.12284294833E+01  0.90093037309E+01 -0.18479483732E+02  0.20595337135E+02  0.00000000000E+00 0. -1.
</event>
<event>
 8    1  0.2484572E-006  0.9118800E+02  0.7816164E-02  0.1184000E+00
        -11   -1    0    0    0    0  0.00000000000E+00  0.00000000000E+00  0.45593999997E+02  0.45594000000E+02  0.51100000000E-03 0.  1.
         11   -1    0    0    0    0 -0.00000000000E+00 -0.00000000000E+00 -0.45593999997E+02  0.45594000000E+02  0.51100000000E-03 0. -1.
         23    2    1    2    0    0  0.00000000000E+00  0.00000000000E+00 -0.90899510141E-15  0.91188000000E+02  0.91188000000E+02 0.  0.
    9900012    2    3    3    0    0 -0.16392491984E+02  0.32970667989E+02  0.21267032574E-01  0.54367092985E+02  0.40000020078E+02 0.  0.
        -12    1    3    3    0    0  0.16392491984E+02 -0.32970667989E+02 -0.21267032574E-01  0.36820907015E+02  0.00000000000E+00 0.  1.
         11    1    4    4    0    0 -0.42571111792E+01 -0.94143670278E+00 -0.36657923492E+01  0.56962560042E+01  0.51100000000E-03 0. -1.
        -11    1    4    4    0    0 -0.12066386517E+02  0.68091074912E+00  0.89322270667E+01  0.15028173663E+02  0.51100000000E-03 0.  1.
        -12    1    4    4    0    0 -0.68994288342E-01  0.33231193943E+02 -0.52451676849E+01  0.33642663318E+02  0.00000000000E+00 0.  1.
</event>
<event>
 8    1  0.2484572E-006  0.9118800E+02  0.7816164E-02  0.1184000E+00
        -11   -1    0    0    0    0  0.00000000000E+00  0.00000000000E+00  0.45593999997E+02  0.45594000000E+02  0.51100000000E-03 0.  1.
         11   -1    0    0    0    0 -0.00000000000E+00 -0.00000000000E+00 -0.45593999997E+02  0.45594000000E+02  0.51100000000E-03 0. -1.
         23    2    1    2    0    0 -0.35527136788E-14  0.00000000000E+00 -0.17763568394E-14  0.91188000000E+02  0.91188000000E+02 0.  0.
    9900012    2    3    3    0    0  0.28696268992E+02 -0.16711626381E+02 -0.15906813171E+02  0.54367068241E+02  0.39999963669E+02 0.  0.
        -12    1    3    3    0    0 -0.28696268992E+02  0.16711626381E+02  0.15906813171E+02  0.36820931759E+02  0.00000000000E+00 0.  1.
         11    1    4    4    0    0  0.23105236230E+02  0.76848989318E-01 -0.44723412346E+01  0.23534223662E+02  0.51100000000E-03 0. -1.
        -11    1    4    4    0    0  0.29061804294E+01  0.54792969354E+01 -0.22986025607E+01  0.66145410716E+01  0.51100000000E-03 0.  1.
         12    1    4    4    0    0  0.26848523326E+01 -0.22267772305E+02 -0.91358693760E+01  0.24218303507E+02  0.00000000000E+00 0. -1.
</event>
<event>
 8    1  0.2484572E-006  0.9118800E+02  0.7816164E-02  0.1184000E+00
        -11   -1    0    0    0    0  0.00000000000E+00  0.00000000000E+00  0.45593999997E+02  0.45594000000E+02  0.51100000000E-03 0. -1.
         11   -1    0    0    0    0 -0.00000000000E+00 -0.00000000000E+00 -0.45593999997E+02  0.45594000000E+02  0.51100000000E-03 0.  1.
         23    2    1    2    0    0 -0.35527136788E-14  0.35527136788E-14  0.35527136788E-14  0.91188000000E+02  0.91188000000E+02 0.  0.
    9900012    2    3    3    0    0 -0.19458471804E+02 -0.20712812717E+02  0.23412127811E+02  0.54367075728E+02  0.39999980737E+02 0.  0.
        -12    1    3    3    0    0  0.19458471804E+02  0.20712812717E+02 -0.23412127811E+02  0.36820924272E+02  0.00000000000E+00 0.  1.
         11    1    4    4    0    0  0.21380157172E+01 -0.13090592840E+02 -0.31697344839E+01  0.13637519902E+02  0.51100000000E-03 0. -1.
        -11    1    4    4    0    0 -0.50505435325E+01 -0.12573401482E+02  0.12702132940E+02  0.18572630300E+02  0.51100000000E-03 0.  1.
        -12    1    4    4    0    0 -0.16545943989E+02  0.49511816052E+01  0.13879729356E+02  0.22156925526E+02  0.00000000000E+00 0.  1.
</event>
<event>
 8    1  0.2484572E-006  0.9118800E+02  0.7816164E-02  0.1184000E+00
        -11   -1    0    0    0    0  0.00000000000E+00  0.00000000000E+00  0.45593999997E+02  0.45594000000E+02  0.51100000000E-03 0.  1.
         11   -1    0    0    0    0 -0.00000000000E+00 -0.00000000000E+00 -0.45593999997E+02  0.45594000000E+02  0.51100000000E-03 0. -1.
         23    2    1    2    0    0  0.00000000000E+00 -0.35527136788E-14  0.00000000000E+00  0.91188000000E+02  0.91188000000E+02 0.  0.
    9900012    2    3    3    0    0  0.53516148413E+01 -0.23440851264E+02 -0.27886669770E+02  0.54367086917E+02  0.40000006244E+02 0.  0.
        -12    1    3    3    0    0 -0.53516148413E+01  0.23440851264E+02  0.27886669770E+02  0.36820913083E+02  0.00000000000E+00 0.  1.
         11    1    4    4    0    0  0.13548219145E+02  0.13958904777E+00 -0.66768640979E+00  0.13565379925E+02  0.51100000000E-03 0. -1.
        -11    1    4    4    0    0 -0.21007590964E+01 -0.19117616266E+02 -0.93164468746E+01  0.21370367875E+02  0.51100000000E-03 0.  1.
         12    1    4    4    0    0 -0.60958452074E+01 -0.44628240461E+01 -0.17902536486E+02  0.19431339117E+02  0.00000000000E+00 0. -1.
</event>
<event>
 8    1  0.2484572E-006  0.9118800E+02  0.7816164E-02  0.1184000E+00
        -11   -1    0    0    0    0  0.00000000000E+00  0.00000000000E+00  0.45593999997E+02  0.45594000000E+02  0.51100000000E-03 0.  1.
         11   -1    0    0    0    0 -0.00000000000E+00 -0.00000000000E+00 -0.45593999997E+02  0.45594000000E+02  0.51100000000E-03 0. -1.
         23    2    1    2    0    0  0.00000000000E+00  0.71054273576E-14  0.66613381478E-15  0.91188000000E+02  0.91188000000E+02 0.  0.
    9900012    2    3    3    0    0  0.58954430534E+01 -0.36341915020E+02 -0.53681636572E+00  0.54367092788E+02  0.40000019629E+02 0.  0.
        -12    1    3    3    0    0 -0.58954430534E+01  0.36341915020E+02  0.53681636572E+00  0.36820907212E+02  0.00000000000E+00 0.  1.
         11    1    4    4    0    0  0.17158133559E+02 -0.16131138708E+02 -0.55613984949E+01  0.24198023405E+02  0.51100000000E-03 0. -1.
        -11    1    4    4    0    0 -0.39852830584E+01 -0.12173409088E+02  0.11773270218E+02  0.17397823478E+02  0.51100000000E-03 0.  1.
        -12    1    4    4    0    0 -0.72774074467E+01 -0.80373672236E+01 -0.67486880892E+01  0.12771245905E+02  0.00000000000E+00 0.  1.
</event>
<event>
 8    1  0.2484572E-006  0.9118800E+02  0.7816164E-02  0.1184000E+00
        -11   -1    0    0    0    0  0.00000000000E+00  0.00000000000E+00  0.45593999997E+02  0.45594000000E+02  0.51100000000E-03 0.  1.
         11   -1    0    0    0    0 -0.00000000000E+00 -0.00000000000E+00 -0.45593999997E+02  0.45594000000E+02  0.51100000000E-03 0. -1.
         23    2    1    2    0    0  0.49960036108E-15  0.17763568394E-14  0.71054273576E-14  0.91188000000E+02  0.91188000000E+02 0.  0.
    9900012    2    3    3    0    0 -0.47076889461E+00 -0.49156365491E+01  0.36488262964E+02  0.54367103214E+02  0.40000043396E+02 0.  0.
         12    1    3    3    0    0  0.47076889461E+00  0.49156365491E+01 -0.36488262964E+02  0.36820896786E+02  0.00000000000E+00 0. -1.
         11    1    4    4    0    0  0.11084918803E+01  0.94611876633E+01  0.25019390796E+01  0.98489860224E+01  0.51100000000E-03 0. -1.
        -11    1    4    4    0    0 -0.52114472931E+01 -0.15187960394E+02  0.74135398162E+01  0.17685980230E+02  0.51100000000E-03 0.  1.
         12    1    4    4    0    0  0.36321865183E+01  0.81113618157E+00  0.26572784068E+02  0.26832136962E+02  0.00000000000E+00 0. -1.
</event>
<event>
 8    1  0.2484572E-006  0.9118800E+02  0.7816164E-02  0.1184000E+00
        -11   -1    0    0    0    0  0.00000000000E+00  0.00000000000E+00  0.45593999997E+02  0.45594000000E+02  0.51100000000E-03 0.  1.
         11   -1    0    0    0    0 -0.00000000000E+00 -0.00000000000E+00 -0.45593999997E+02  0.45594000000E+02  0.51100000000E-03 0. -1.
         23    2    1    2    0    0  0.00000000000E+00  0.00000000000E+00  0.00000000000E+00  0.91188000000E+02  0.91188000000E+02 0.  0.
    9900012    2    3    3    0    0 -0.28283510559E+02 -0.69688847406E+01 -0.22522013436E+02  0.54367307268E+02  0.40000508576E+02 0.  0.
        -12    1    3    3    0    0  0.28283510559E+02  0.69688847406E+01  0.22522013436E+02  0.36820692732E+02  0.00000000000E+00 0.  1.
         11    1    4    4    0    0 -0.10253705907E+01 -0.18269355284E+01  0.28036837534E+01  0.34999601602E+01  0.51100000000E-03 0. -1.
        -11    1    4    4    0    0 -0.31428660338E+01  0.13330207153E+02 -0.89038798831E+01  0.16335577947E+02  0.51100000000E-03 0.  1.
         12    1    4    4    0    0 -0.24115273935E+02 -0.18472156365E+02 -0.16421817306E+02  0.34531769160E+02  0.00000000000E+00 0. -1.
</event>
<event>
 8    1  0.2484572E-006  0.9118800E+02  0.7816164E-02  0.1184000E+00
        -11   -1    0    0    0    0  0.00000000000E+00  0.00000000000E+00  0.45593999997E+02  0.45594000000E+02  0.51100000000E-03 0.  1.
         11   -1    0    0    0    0 -0.00000000000E+00 -0.00000000000E+00 -0.45593999997E+02  0.45594000000E+02  0.51100000000E-03 0. -1.
         23    2    1    2    0    0  0.35527136788E-14  0.00000000000E+00  0.17763568394E-14  0.91188000000E+02  0.91188000000E+02 0.  0.
    9900012    2    3    3    0    0 -0.31171170263E+02  0.14901385439E+02 -0.12731236772E+02  0.54367115528E+02  0.40000071469E+02 0.  0.
        -12    1    3    3    0    0  0.31171170263E+02 -0.14901385439E+02  0.12731236772E+02  0.36820884472E+02  0.00000000000E+00 0.  1.
         11    1    4    4    0    0 -0.19121949912E+02  0.69932057614E+01 -0.13518361272E+02  0.24439721500E+02  0.51100000000E-03 0. -1.
        -11    1    4    4    0    0 -0.14571129367E+02  0.15864697079E+02 -0.30351079995E-01  0.21540829740E+02  0.51100000000E-03 0.  1.
        -12    1    4    4    0    0  0.25219090155E+01 -0.79565174012E+01  0.81747557952E+00  0.83865642883E+01  0.00000000000E+00 0.  1.
</event>
<event>
 8    1  0.2484572E-006  0.9118800E+02  0.7816164E-02  0.1184000E+00
        -11   -1    0    0    0    0  0.00000000000E+00  0.00000000000E+00  0.45593999997E+02  0.45594000000E+02  0.51100000000E-03 0.  1.
         11   -1    0    0    0    0 -0.00000000000E+00 -0.00000000000E+00 -0.45593999997E+02  0.45594000000E+02  0.51100000000E-03 0. -1.
         23    2    1    2    0    0 -0.88817841970E-15  0.00000000000E+00  0.35527136788E-14  0.91188000000E+02  0.91188000000E+02 0.  0.
    9900012    2    3    3    0    0 -0.68800096802E+01 -0.32072582366E+02 -0.16727073446E+02  0.54367081232E+02  0.39999993285E+02 0.  0.
        -12    1    3    3    0    0  0.68800096802E+01  0.32072582366E+02  0.16727073446E+02  0.36820918768E+02  0.00000000000E+00 0.  1.
         11    1    4    4    0    0 -0.53278214568E+01 -0.20195375684E+01 -0.20267093568E+02  0.21052774056E+02  0.51100000000E-03 0. -1.
        -11    1    4    4    0    0  0.49211767575E+00 -0.64956986995E-01  0.32168082108E+01  0.32548816481E+01  0.51100000000E-03 0.  1.
         12    1    4    4    0    0 -0.20443058991E+01 -0.29988087811E+02  0.32321191172E+00  0.30059425529E+02  0.00000000000E+00 0. -1.
</event>
<event>
 8    1  0.2484572E-006  0.9118800E+02  0.7816164E-02  0.1184000E+00
        -11   -1    0    0    0    0  0.00000000000E+00  0.00000000000E+00  0.45593999997E+02  0.45594000000E+02  0.51100000000E-03 0.  1.
         11   -1    0    0    0    0 -0.00000000000E+00 -0.00000000000E+00 -0.45593999997E+02  0.45594000000E+02  0.51100000000E-03 0. -1.
         23    2    1    2    0    0  0.35527136788E-14  0.17763568394E-14  0.35527136788E-14  0.91188000000E+02  0.91188000000E+02 0.  0.
    9900012    2    3    3    0    0 -0.23326036747E+02  0.89282541558E+01 -0.27054830574E+02  0.54367060713E+02  0.39999946508E+02 0.  0.
        -12    1    3    3    0    0  0.23326036747E+02 -0.89282541558E+01  0.27054830574E+02  0.36820939287E+02  0.00000000000E+00 0.  1.
         11    1    4    4    0    0 -0.39999562439E+01 -0.14262440957E+02 -0.16166135924E+02  0.21926258755E+02  0.51100000000E-03 0. -1.
        -11    1    4    4    0    0 -0.14289720489E+02  0.15039369016E+02 -0.55629729373E+01  0.21478486916E+02  0.51100000000E-03 0.  1.
         12    1    4    4    0    0 -0.50363600138E+01  0.81513260971E+01 -0.53257217128E+01  0.10962315043E+02  0.00000000000E+00 0. -1.
</event>
<event>
 8    1  0.2484572E-006  0.9118800E+02  0.7816164E-02  0.1184000E+00
        -11   -1    0    0    0    0  0.00000000000E+00  0.00000000000E+00  0.45593999997E+02  0.45594000000E+02  0.51100000000E-03 0.  1.
         11   -1    0    0    0    0 -0.00000000000E+00 -0.00000000000E+00 -0.45593999997E+02  0.45594000000E+02  0.51100000000E-03 0. -1.
         23    2    1    2    0    0  0.00000000000E+00  0.00000000000E+00  0.00000000000E+00  0.91188000000E+02  0.91188000000E+02 0.  0.
    9900012    2    3    3    0    0 -0.11089456758E+02  0.60638839642E+01  0.34583709612E+02  0.54367085964E+02  0.40000004072E+02 0.  0.
         12    1    3    3    0    0  0.11089456758E+02 -0.60638839642E+01 -0.34583709612E+02  0.36820914036E+02  0.00000000000E+00 0. -1.
         11    1    4    4    0    0  0.95793884972E+01 -0.37812388301E+01  0.17014896058E+02  0.19888920010E+02  0.51100000000E-03 0. -1.
        -11    1    4    4    0    0 -0.96754675439E+01  0.66182643375E+01 -0.19125852531E+01  0.11877460909E+02  0.51100000000E-03 0.  1.
        -12    1    4    4    0    0 -0.10993377711E+02  0.32268584567E+01  0.19481398808E+02  0.22600705044E+02  0.00000000000E+00 0.  1.
</event>
<event>
 8    1  0.2484572E-006  0.9118800E+02  0.7816164E-02  0.1184000E+00
        -11   -1    0    0    0    0  0.00000000000E+00  0.00000000000E+00  0.45593999997E+02  0.45594000000E+02  0.51100000000E-03 0.  1.
         11   -1    0    0    0    0 -0.00000000000E+00 -0.00000000000E+00 -0.45593999997E+02  0.45594000000E+02  0.51100000000E-03 0. -1.
         23    2    1    2    0    0 -0.17763568394E-14 -0.35527136788E-14  0.35527136788E-14  0.91188000000E+02  0.91188000000E+02 0.  0.
    9900012    2    3    3    0    0 -0.86374302238E+01 -0.25003832247E+02 -0.25612130429E+02  0.54367108470E+02  0.40000055380E+02 0.  0.
        -12    1    3    3    0    0  0.86374302238E+01  0.25003832247E+02  0.25612130429E+02  0.36820891530E+02  0.00000000000E+00 0.  1.
         11    1    4    4    0    0 -0.13153692887E+02 -0.20391456280E+01  0.48638673931E+01  0.14171625092E+02  0.51100000000E-03 0.  1.
        -11    1    4    4    0    0  0.10469291202E+01 -0.16575444453E+02 -0.12444670442E+02  0.20753583837E+02  0.51100000000E-03 0. -1.
        -12    1    4    4    0    0  0.34693335433E+01 -0.63892421656E+01 -0.18031327381E+02  0.19441899542E+02  0.00000000000E+00 0.  1.
</event>
<event>
 8    1  0.2484572E-006  0.9118800E+02  0.7816164E-02  0.1184000E+00
        -11   -1    0    0    0    0  0.00000000000E+00  0.00000000000E+00  0.45593999997E+02  0.45594000000E+02  0.51100000000E-03 0. -1.
         11   -1    0    0    0    0 -0.00000000000E+00 -0.00000000000E+00 -0.45593999997E+02  0.45594000000E+02  0.51100000000E-03 0.  1.
         23    2    1    2    0    0  0.35527136788E-14  0.00000000000E+00  0.00000000000E+00  0.91188000000E+02  0.91188000000E+02 0.  0.
    9900012    2    3    3    0    0 -0.30859328878E+02  0.14718239617E+02 -0.13669474405E+02  0.54367091718E+02  0.40000017190E+02 0.  0.
        -12    1    3    3    0    0  0.30859328878E+02 -0.14718239617E+02  0.13669474405E+02  0.36820908282E+02  0.00000000000E+00 0.  1.
         11    1    4    4    0    0 -0.34894219080E+00  0.24476829191E+00  0.58125012451E+01  0.58281080253E+01  0.51100000000E-03 0. -1.
        -11    1    4    4    0    0 -0.18484572189E+02  0.23042278375E+02 -0.11081408632E+02  0.31550334693E+02  0.51100000000E-03 0.  1.
         12    1    4    4    0    0 -0.12025814498E+02 -0.85688070500E+01 -0.84005670185E+01  0.16988648999E+02  0.00000000000E+00 0. -1.
</event>
<event>
 8    1  0.2484572E-006  0.9118800E+02  0.7816164E-02  0.1184000E+00
        -11   -1    0    0    0    0  0.00000000000E+00  0.00000000000E+00  0.45593999997E+02  0.45594000000E+02  0.51100000000E-03 0. -1.
         11   -1    0    0    0    0 -0.00000000000E+00 -0.00000000000E+00 -0.45593999997E+02  0.45594000000E+02  0.51100000000E-03 0.  1.
         23    2    1    2    0    0  0.17763568394E-14  0.00000000000E+00  0.00000000000E+00  0.91188000000E+02  0.91188000000E+02 0.  0.
    9900012    2    3    3    0    0 -0.12879764404E+02  0.32393337009E+02  0.11855917514E+02  0.54367090265E+02  0.40000013876E+02 0.  0.
        -12    1    3    3    0    0  0.12879764404E+02 -0.32393337009E+02 -0.11855917514E+02  0.36820909735E+02  0.00000000000E+00 0.  1.
         11    1    4    4    0    0  0.18289776638E+01  0.13919759091E+02  0.84178611703E+01  0.16369643838E+02  0.51100000000E-03 0. -1.
        -11    1    4    4    0    0 -0.97631812279E+01 -0.46658883937E+01 -0.61732010338E+01  0.12457874355E+02  0.51100000000E-03 0.  1.
         12    1    4    4    0    0 -0.49455608394E+01  0.23139466312E+02  0.96112573775E+01  0.25539572071E+02  0.00000000000E+00 0. -1.
</event>
<event>
 8    1  0.2484572E-006  0.9118800E+02  0.7816164E-02  0.1184000E+00
        -11   -1    0    0    0    0  0.00000000000E+00  0.00000000000E+00  0.45593999997E+02  0.45594000000E+02  0.51100000000E-03 0.  1.
         11   -1    0    0    0    0 -0.00000000000E+00 -0.00000000000E+00 -0.45593999997E+02  0.45594000000E+02  0.51100000000E-03 0. -1.
         23    2    1    2    0    0  0.00000000000E+00  0.00000000000E+00  0.35527136788E-14  0.91188000000E+02  0.91188000000E+02 0.  0.
    9900012    2    3    3    0    0  0.18929951536E+02 -0.27213471979E+02 -0.16026976282E+02  0.54367080795E+02  0.39999992289E+02 0.  0.
        -12    1    3    3    0    0 -0.18929951536E+02  0.27213471979E+02  0.16026976282E+02  0.36820919205E+02  0.00000000000E+00 0.  1.
         11    1    4    4    0    0  0.11329221020E+02 -0.30565198476E+01 -0.14745315305E+02  0.18844571796E+02  0.51100000000E-03 0. -1.
        -11    1    4    4    0    0 -0.47979949077E+01 -0.13051358060E+02 -0.96169490411E+01  0.16906933828E+02  0.51100000000E-03 0.  1.
        -12    1    4    4    0    0  0.12398725424E+02 -0.11105594071E+02  0.83352880634E+01  0.18615575170E+02  0.00000000000E+00 0.  1.
</event>
<event>
 8    1  0.2484572E-006  0.9118800E+02  0.7816164E-02  0.1184000E+00
        -11   -1    0    0    0    0  0.00000000000E+00  0.00000000000E+00  0.45593999997E+02  0.45594000000E+02  0.51100000000E-03 0.  1.
         11   -1    0    0    0    0 -0.00000000000E+00 -0.00000000000E+00 -0.45593999997E+02  0.45594000000E+02  0.51100000000E-03 0. -1.
         23    2    1    2    0    0 -0.35527136788E-14  0.35527136788E-14  0.00000000000E+00  0.91188000000E+02  0.91188000000E+02 0.  0.
    9900012    2    3    3    0    0  0.22328051133E+02 -0.23863276358E+02  0.16964170742E+02  0.54367069608E+02  0.39999966785E+02 0.  0.
         12    1    3    3    0    0 -0.22328051133E+02  0.23863276358E+02 -0.16964170742E+02  0.36820930392E+02  0.00000000000E+00 0. -1.
         11    1    4    4    0    0 -0.66360450715E+01 -0.13848418480E+00  0.12583224658E+02  0.14226518025E+02  0.51100000000E-03 0. -1.
        -11    1    4    4    0    0  0.19987034314E+02 -0.23183727973E+02  0.54245366594E+01  0.31086852231E+02  0.51100000000E-03 0.  1.
        -12    1    4    4    0    0  0.89770618909E+01 -0.54106420039E+00 -0.10435905758E+01  0.90536993518E+01  0.00000000000E+00 0.  1.
</event>
<event>
 8    1  0.2484572E-006  0.9118800E+02  0.7816164E-02  0.1184000E+00
        -11   -1    0    0    0    0  0.00000000000E+00  0.00000000000E+00  0.45593999997E+02  0.45594000000E+02  0.51100000000E-03 0.  1.
         11   -1    0    0    0    0 -0.00000000000E+00 -0.00000000000E+00 -0.45593999997E+02  0.45594000000E+02  0.51100000000E-03 0. -1.
         23    2    1    2    0    0 -0.71054273576E-14  0.00000000000E+00  0.00000000000E+00  0.91188000000E+02  0.91188000000E+02 0.  0.
    9900012    2    3    3    0    0  0.23406957967E+02  0.25527114593E+02 -0.12500491865E+02  0.54367060881E+02  0.39999946890E+02 0.  0.
        -12    1    3    3    0    0 -0.23406957967E+02 -0.25527114593E+02  0.12500491865E+02  0.36820939119E+02  0.00000000000E+00 0.  1.
         11    1    4    4    0    0 -0.60740191242E+01  0.13096117309E+02 -0.10574541386E+02  0.17894773614E+02  0.51100000000E-03 0. -1.
        -11    1    4    4    0    0  0.55370951464E+01  0.86550041957E+01  0.47652720567E+01  0.11325914459E+02  0.51100000000E-03 0.  1.
         12    1    4    4    0    0  0.23943881945E+02  0.37759930885E+01 -0.66912225350E+01  0.25146372808E+02  0.00000000000E+00 0. -1.
</event>
<event>
 8    1  0.2484572E-006  0.9118800E+02  0.7816164E-02  0.1184000E+00
        -11   -1    0    0    0    0  0.00000000000E+00  0.00000000000E+00  0.45593999997E+02  0.45594000000E+02  0.51100000000E-03 0. -1.
         11   -1    0    0    0    0 -0.00000000000E+00 -0.00000000000E+00 -0.45593999997E+02  0.45594000000E+02  0.51100000000E-03 0.  1.
         23    2    1    2    0    0 -0.44408920985E-15  0.00000000000E+00  0.35527136788E-14  0.91188000000E+02  0.91188000000E+02 0.  0.
    9900012    2    3    3    0    0  0.32272895148E+01 -0.22859855218E+02  0.28684346095E+02  0.54367080822E+02  0.39999992351E+02 0.  0.
        -12    1    3    3    0    0 -0.32272895148E+01  0.22859855218E+02 -0.28684346095E+02  0.36820919178E+02  0.00000000000E+00 0.  1.
         11    1    4    4    0    0  0.56331481946E+01 -0.14784580625E+02  0.32387987130E+02  0.36045774974E+02  0.51100000000E-03 0. -1.
        -11    1    4    4    0    0 -0.40542546615E+01  0.20736003352E+01  0.35199502532E+01  0.57555928675E+01  0.51100000000E-03 0.  1.
        -12    1    4    4    0    0  0.16483959818E+01 -0.10148874928E+02 -0.72235912886E+01  0.12565712981E+02  0.00000000000E+00 0.  1.
</event>
<event>
 8    1  0.2484572E-006  0.9118800E+02  0.7816164E-02  0.1184000E+00
        -11   -1    0    0    0    0  0.00000000000E+00  0.00000000000E+00  0.45593999997E+02  0.45594000000E+02  0.51100000000E-03 0.  1.
         11   -1    0    0    0    0 -0.00000000000E+00 -0.00000000000E+00 -0.45593999997E+02  0.45594000000E+02  0.51100000000E-03 0. -1.
         23    2    1    2    0    0  0.00000000000E+00 -0.88817841970E-15  0.00000000000E+00  0.91188000000E+02  0.91188000000E+02 0.  0.
    9900012    2    3    3    0    0 -0.30145483971E+02 -0.40193556857E+01 -0.20757472168E+02  0.54367108175E+02  0.40000054706E+02 0.  0.
        -12    1    3    3    0    0  0.30145483971E+02  0.40193556857E+01  0.20757472168E+02  0.36820891825E+02  0.00000000000E+00 0.  1.
         11    1    4    4    0    0 -0.17447361798E+02  0.15714620439E+02 -0.82336910504E+01  0.24882793207E+02  0.51100000000E-03 0. -1.
        -11    1    4    4    0    0 -0.71161074778E+00 -0.12821969087E+02 -0.55517638017E+01  0.13990402521E+02  0.51100000000E-03 0.  1.
         12    1    4    4    0    0 -0.11986511426E+02 -0.69120070374E+01 -0.69720173161E+01  0.15493912447E+02  0.00000000000E+00 0. -1.
</event>
<event>
 8    1  0.2484572E-006  0.9118800E+02  0.7816164E-02  0.1184000E+00
        -11   -1    0    0    0    0  0.00000000000E+00  0.00000000000E+00  0.45593999997E+02  0.45594000000E+02  0.51100000000E-03 0. -1.
         11   -1    0    0    0    0 -0.00000000000E+00 -0.00000000000E+00 -0.45593999997E+02  0.45594000000E+02  0.51100000000E-03 0.  1.
         23    2    1    2    0    0 -0.17763568394E-14 -0.35527136788E-14  0.35527136788E-14  0.91188000000E+02  0.91188000000E+02 0.  0.
    9900012    2    3    3    0    0  0.10395677119E+02  0.30657984636E+02 -0.17544284006E+02  0.54367027362E+02  0.39999870477E+02 0.  0.
        -12    1    3    3    0    0 -0.10395677119E+02 -0.30657984636E+02  0.17544284006E+02  0.36820972638E+02  0.00000000000E+00 0.  1.
         11    1    4    4    0    0 -0.91882008684E+01  0.23296462391E+02 -0.13847300810E+01  0.25081181647E+02  0.51100000000E-03 0. -1.
        -11    1    4    4    0    0  0.92564800183E+01  0.81765567501E+01 -0.33217959320E+01  0.12789559457E+02  0.51100000000E-03 0.  1.
        -12    1    4    4    0    0  0.10327397969E+02 -0.81503450472E+00 -0.12837757993E+02  0.16496286259E+02  0.00000000000E+00 0.  1.
</event>
<event>
 8    1  0.2484572E-006  0.9118800E+02  0.7816164E-02  0.1184000E+00
        -11   -1    0    0    0    0  0.00000000000E+00  0.00000000000E+00  0.45593999997E+02  0.45594000000E+02  0.51100000000E-03 0. -1.
         11   -1    0    0    0    0 -0.00000000000E+00 -0.00000000000E+00 -0.45593999997E+02  0.45594000000E+02  0.51100000000E-03 0.  1.
         23    2    1    2    0    0 -0.35527136788E-14 -0.44408920985E-15  0.00000000000E+00  0.91188000000E+02  0.91188000000E+02 0.  0.
    9900012    2    3    3    0    0 -0.14448241758E+02  0.34836011608E+01 -0.33688092863E+02  0.54367153083E+02  0.40000157082E+02 0.  0.
         12    1    3    3    0    0  0.14448241758E+02 -0.34836011608E+01  0.33688092863E+02  0.36820846917E+02  0.00000000000E+00 0. -1.
         11    1    4    4    0    0  0.28849856222E+00 -0.14010896419E+01  0.41994897291E+00  0.14908524427E+01  0.51100000000E-03 0. -1.
        -11    1    4    4    0    0  0.11902075337E+02  0.11593042847E+01 -0.17724896448E+02  0.21381658918E+02  0.51100000000E-03 0.  1.
        -12    1    4    4    0    0 -0.26638815658E+02  0.37253865179E+01 -0.16383145388E+02  0.31494641722E+02  0.00000000000E+00 0.  1.
</event>
<event>
 8    1  0.2484572E-006  0.9118800E+02  0.7816164E-02  0.1184000E+00
        -11   -1    0    0    0    0  0.00000000000E+00  0.00000000000E+00  0.45593999997E+02  0.45594000000E+02  0.51100000000E-03 0.  1.
         11   -1    0    0    0    0 -0.00000000000E+00 -0.00000000000E+00 -0.45593999997E+02  0.45594000000E+02  0.51100000000E-03 0. -1.
         23    2    1    2    0    0  0.00000000000E+00  0.00000000000E+00 -0.35527136788E-14  0.91188000000E+02  0.91188000000E+02 0.  0.
    9900012    2    3    3    0    0  0.19942755644E+02  0.28334048505E+02 -0.12459902832E+02  0.54367068644E+02  0.39999964587E+02 0.  0.
         12    1    3    3    0    0 -0.19942755644E+02 -0.28334048505E+02  0.12459902832E+02  0.36820931356E+02  0.00000000000E+00 0. -1.
         11    1    4    4    0    0  0.15927523250E+01 -0.20231422023E+01  0.41462676624E+01  0.48807274180E+01  0.51100000000E-03 0. -1.
        -11    1    4    4    0    0  0.65167058778E+01  0.16427220187E+02 -0.23970445913E+02  0.29780921680E+02  0.51100000000E-03 0.  1.
        -12    1    4    4    0    0  0.11833297441E+02  0.13929970520E+02  0.73642754192E+01  0.19705419546E+02  0.00000000000E+00 0.  1.
</event>
<event>
 8    1  0.2484572E-006  0.9118800E+02  0.7816164E-02  0.1184000E+00
        -11   -1    0    0    0    0  0.00000000000E+00  0.00000000000E+00  0.45593999997E+02  0.45594000000E+02  0.51100000000E-03 0.  1.
         11   -1    0    0    0    0 -0.00000000000E+00 -0.00000000000E+00 -0.45593999997E+02  0.45594000000E+02  0.51100000000E-03 0. -1.
         23    2    1    2    0    0  0.88817841970E-15 -0.35527136788E-14  0.35527136788E-14  0.91188000000E+02  0.91188000000E+02 0.  0.
    9900012    2    3    3    0    0  0.12533846951E+01  0.23670632421E+02 -0.28176408854E+02  0.54367084364E+02  0.40000000424E+02 0.  0.
        -12    1    3    3    0    0 -0.12533846951E+01 -0.23670632421E+02  0.28176408854E+02  0.36820915636E+02  0.00000000000E+00 0.  1.
         11    1    4    4    0    0  0.57059212014E+01  0.93727624228E+01 -0.25040832986E+02  0.27339523205E+02  0.51100000000E-03 0. -1.
        -11    1    4    4    0    0  0.55951801454E+01  0.83002748093E+01  0.64439999531E+01  0.11904861966E+02  0.51100000000E-03 0.  1.
         12    1    4    4    0    0 -0.10047716652E+02  0.59975951890E+01 -0.95795758212E+01  0.15122699193E+02  0.00000000000E+00 0. -1.
</event>
<event>
 8    1  0.2484572E-006  0.9118800E+02  0.7816164E-02  0.1184000E+00
        -11   -1    0    0    0    0  0.00000000000E+00  0.00000000000E+00  0.45593999997E+02  0.45594000000E+02  0.51100000000E-03 0.  1.
         11   -1    0    0    0    0 -0.00000000000E+00 -0.00000000000E+00 -0.45593999997E+02  0.45594000000E+02  0.51100000000E-03 0. -1.
         23    2    1    2    0    0  0.00000000000E+00  0.00000000000E+00  0.00000000000E+00  0.91188000000E+02  0.91188000000E+02 0.  0.
    9900012    2    3    3    0    0  0.23893598129E+02 -0.23989753645E+02  0.14469523538E+02  0.54367089869E+02  0.40000012973E+02 0.  0.
         12    1    3    3    0    0 -0.23893598129E+02  0.23989753645E+02 -0.14469523538E+02  0.36820910131E+02  0.00000000000E+00 0. -1.
         11    1    4    4    0    0  0.18824829710E+02 -0.12973203922E+01  0.35256336079E+01  0.19196024235E+02  0.51100000000E-03 0. -1.
        -11    1    4    4    0    0 -0.66785756066E+01 -0.15326494365E+02 -0.11696311110E+01  0.16759261286E+02  0.51100000000E-03 0.  1.
         12    1    4    4    0    0  0.11747344025E+02 -0.73659388884E+01  0.12113521041E+02  0.18411804348E+02  0.00000000000E+00 0. -1.
</event>
<event>
 8    1  0.2484572E-006  0.9118800E+02  0.7816164E-02  0.1184000E+00
        -11   -1    0    0    0    0  0.00000000000E+00  0.00000000000E+00  0.45593999997E+02  0.45594000000E+02  0.51100000000E-03 0. -1.
         11   -1    0    0    0    0 -0.00000000000E+00 -0.00000000000E+00 -0.45593999997E+02  0.45594000000E+02  0.51100000000E-03 0.  1.
         23    2    1    2    0    0  0.17763568394E-14  0.00000000000E+00  0.00000000000E+00  0.91188000000E+02  0.91188000000E+02 0.  0.
    9900012    2    3    3    0    0 -0.14472515532E+02  0.30589441991E+02  0.14512489146E+02  0.54367081919E+02  0.39999994850E+02 0.  0.
        -12    1    3    3    0    0  0.14472515532E+02 -0.30589441991E+02 -0.14512489146E+02  0.36820918081E+02  0.00000000000E+00 0.  1.
         11    1    4    4    0    0 -0.23165134578E+02  0.31167121668E+02  0.11007381230E+02  0.40363044668E+02  0.51100000000E-03 0. -1.
        -11    1    4    4    0    0  0.83661135242E+01  0.10266421180E+01 -0.16555371138E+01  0.85899157699E+01  0.51100000000E-03 0.  1.
         12    1    4    4    0    0  0.32650552171E+00 -0.16043217953E+01  0.51606450299E+01  0.54141214803E+01  0.00000000000E+00 0. -1.
</event>
<event>
 8    1  0.2484572E-006  0.9118800E+02  0.7816164E-02  0.1184000E+00
        -11   -1    0    0    0    0  0.00000000000E+00  0.00000000000E+00  0.45593999997E+02  0.45594000000E+02  0.51100000000E-03 0.  1.
         11   -1    0    0    0    0 -0.00000000000E+00 -0.00000000000E+00 -0.45593999997E+02  0.45594000000E+02  0.51100000000E-03 0. -1.
         23    2    1    2    0    0  0.00000000000E+00  0.00000000000E+00  0.88817841970E-15  0.91188000000E+02  0.91188000000E+02 0.  0.
    9900012    2    3    3    0    0  0.12961151979E+02 -0.34362546014E+02  0.26463146013E+01  0.54367095473E+02  0.40000025751E+02 0.  0.
        -12    1    3    3    0    0 -0.12961151979E+02  0.34362546014E+02 -0.26463146013E+01  0.36820904527E+02  0.00000000000E+00 0.  1.
         11    1    4    4    0    0  0.34320764655E+01  0.30023129850E+01  0.34852095219E+01  0.57393133559E+01  0.51100000000E-03 0. -1.
        -11    1    4    4    0    0  0.40666999022E+01 -0.50515235319E+00 -0.95227245440E+01  0.10367039597E+02  0.51100000000E-03 0.  1.
        -12    1    4    4    0    0  0.54623756118E+01 -0.36859706646E+02  0.86838296234E+01  0.38260742521E+02  0.00000000000E+00 0.  1.
</event>
<event>
 8    1  0.2484572E-006  0.9118800E+02  0.7816164E-02  0.1184000E+00
        -11   -1    0    0    0    0  0.00000000000E+00  0.00000000000E+00  0.45593999997E+02  0.45594000000E+02  0.51100000000E-03 0.  1.
         11   -1    0    0    0    0 -0.00000000000E+00 -0.00000000000E+00 -0.45593999997E+02  0.45594000000E+02  0.51100000000E-03 0. -1.
         23    2    1    2    0    0  0.71054273576E-14  0.00000000000E+00  0.00000000000E+00  0.91188000000E+02  0.91188000000E+02 0.  0.
    9900012    2    3    3    0    0  0.25606437175E+02  0.40238551908E+01  0.26151392087E+02  0.54367131685E+02  0.40000108302E+02 0.  0.
         12    1    3    3    0    0 -0.25606437175E+02 -0.40238551908E+01 -0.26151392087E+02  0.36820868315E+02  0.00000000000E+00 0. -1.
         11    1    4    4    0    0 -0.16114960148E+01 -0.21873023528E+01 -0.73479556009E+00  0.28144512368E+01  0.51100000000E-03 0. -1.
        -11    1    4    4    0    0  0.30979004514E+02 -0.50871374755E+01  0.15244081519E+02  0.34899279505E+02  0.51100000000E-03 0.  1.
         12    1    4    4    0    0 -0.37610713248E+01  0.11298295019E+02  0.11642106129E+02  0.16653400943E+02  0.00000000000E+00 0. -1.
</event>
<event>
 8    1  0.2484572E-006  0.9118800E+02  0.7816164E-02  0.1184000E+00
        -11   -1    0    0    0    0  0.00000000000E+00  0.00000000000E+00  0.45593999997E+02  0.45594000000E+02  0.51100000000E-03 0. -1.
         11   -1    0    0    0    0 -0.00000000000E+00 -0.00000000000E+00 -0.45593999997E+02  0.45594000000E+02  0.51100000000E-03 0.  1.
         23    2    1    2    0    0 -0.88817841970E-15 -0.35527136788E-14 -0.35527136788E-14  0.91188000000E+02  0.91188000000E+02 0.  0.
    9900012    2    3    3    0    0  0.37666410959E+01  0.24082339519E+02  0.27597641533E+02  0.54367129831E+02  0.40000104075E+02 0.  0.
        -12    1    3    3    0    0 -0.37666410959E+01 -0.24082339519E+02 -0.27597641533E+02  0.36820870169E+02  0.00000000000E+00 0.  1.
         11    1    4    4    0    0 -0.32821354750E+01  0.21132191279E+02  0.24611608006E+02  0.32604802874E+02  0.51100000000E-03 0. -1.
        -11    1    4    4    0    0 -0.35279275536E+01  0.62460092371E+01  0.69578482500E+01  0.99935257414E+01  0.51100000000E-03 0.  1.
        -12    1    4    4    0    0  0.10576704124E+02 -0.32958609972E+01 -0.39718147231E+01  0.11768801215E+02  0.00000000000E+00 0.  1.
</event>
<event>
 8    1  0.2484572E-006  0.9118800E+02  0.7816164E-02  0.1184000E+00
        -11   -1    0    0    0    0  0.00000000000E+00  0.00000000000E+00  0.45593999997E+02  0.45594000000E+02  0.51100000000E-03 0. -1.
         11   -1    0    0    0    0 -0.00000000000E+00 -0.00000000000E+00 -0.45593999997E+02  0.45594000000E+02  0.51100000000E-03 0.  1.
         23    2    1    2    0    0  0.00000000000E+00  0.00000000000E+00  0.00000000000E+00  0.91188000000E+02  0.91188000000E+02 0.  0.
    9900012    2    3    3    0    0 -0.14595109287E+02  0.23978649113E+02  0.23828306367E+02  0.54367068280E+02  0.39999963759E+02 0.  0.
         12    1    3    3    0    0  0.14595109287E+02 -0.23978649113E+02 -0.23828306367E+02  0.36820931720E+02  0.00000000000E+00 0. -1.
         11    1    4    4    0    0 -0.11003757705E+02  0.11632502465E+02  0.19630619548E+02  0.25332963138E+02  0.51100000000E-03 0. -1.
        -11    1    4    4    0    0 -0.11160466059E+02  0.35099974398E+00 -0.48890346655E+01  0.12189416052E+02  0.51100000000E-03 0.  1.
        -12    1    4    4    0    0  0.75691144770E+01  0.11995146904E+02  0.90867214844E+01  0.16844689090E+02  0.00000000000E+00 0.  1.
</event>
<event>
 8    1  0.2484572E-006  0.9118800E+02  0.7816164E-02  0.1184000E+00
        -11   -1    0    0    0    0  0.00000000000E+00  0.00000000000E+00  0.45593999997E+02  0.45594000000E+02  0.51100000000E-03 0.  1.
         11   -1    0    0    0    0 -0.00000000000E+00 -0.00000000000E+00 -0.45593999997E+02  0.45594000000E+02  0.51100000000E-03 0. -1.
         23    2    1    2    0    0 -0.33306690739E-15  0.00000000000E+00  0.17763568394E-14  0.91188000000E+02  0.91188000000E+02 0.  0.
    9900012    2    3    3    0    0  0.63317861145E+00 -0.34419592360E+02 -0.13064139908E+02  0.54367068386E+02  0.39999963999E+02 0.  0.
        -12    1    3    3    0    0 -0.63317861145E+00  0.34419592360E+02  0.13064139908E+02  0.36820931614E+02  0.00000000000E+00 0.  1.
         11    1    4    4    0    0  0.93005005883E+01 -0.13813447156E+02  0.64395911947E+01  0.17854382335E+02  0.51100000000E-03 0.  1.
        -11    1    4    4    0    0 -0.13664911293E+02 -0.10883197200E+02 -0.46643164295E+01  0.18081195480E+02  0.51100000000E-03 0. -1.
         12    1    4    4    0    0  0.49975893166E+01 -0.97229480038E+01 -0.14839414673E+02  0.18431490572E+02  0.00000000000E+00 0. -1.
</event>
<event>
 8    1  0.2484572E-006  0.9118800E+02  0.7816164E-02  0.1184000E+00
        -11   -1    0    0    0    0  0.00000000000E+00  0.00000000000E+00  0.45593999997E+02  0.45594000000E+02  0.51100000000E-03 0. -1.
         11   -1    0    0    0    0 -0.00000000000E+00 -0.00000000000E+00 -0.45593999997E+02  0.45594000000E+02  0.51100000000E-03 0.  1.
         23    2    1    2    0    0  0.00000000000E+00  0.00000000000E+00 -0.44408920985E-15  0.91188000000E+02  0.91188000000E+02 0.  0.
    9900012    2    3    3    0    0 -0.33623396406E+02 -0.14656426238E+02  0.32303983996E+01  0.54367094393E+02  0.40000023287E+02 0.  0.
        -12    1    3    3    0    0  0.33623396406E+02  0.14656426238E+02 -0.32303983996E+01  0.36820905607E+02  0.00000000000E+00 0.  1.
         11    1    4    4    0    0  0.10953354148E+01  0.63023104067E+01  0.38845822738E+01  0.74839064556E+01  0.51100000000E-03 0. -1.
        -11    1    4    4    0    0 -0.85475609207E+01 -0.14637460906E+02  0.78060764504E+01  0.18661481433E+02  0.51100000000E-03 0.  1.
        -12    1    4    4    0    0 -0.26171170900E+02 -0.63212757379E+01 -0.84602603246E+01  0.28221706504E+02  0.00000000000E+00 0.  1.
</event>
<event>
 8    1  0.2484572E-006  0.9118800E+02  0.7816164E-02  0.1184000E+00
        -11   -1    0    0    0    0  0.00000000000E+00  0.00000000000E+00  0.45593999997E+02  0.45594000000E+02  0.51100000000E-03 0. -1.
         11   -1    0    0    0    0 -0.00000000000E+00 -0.00000000000E+00 -0.45593999997E+02  0.45594000000E+02  0.51100000000E-03 0.  1.
         23    2    1    2    0    0 -0.35527136788E-14 -0.17763568394E-14  0.00000000000E+00  0.91188000000E+02  0.91188000000E+02 0.  0.
    9900012    2    3    3    0    0 -0.24743708441E+02 -0.82359917781E+01 -0.25994270764E+02  0.54367017116E+02  0.39999847119E+02 0.  0.
         12    1    3    3    0    0  0.24743708441E+02  0.82359917781E+01  0.25994270764E+02  0.36820982884E+02  0.00000000000E+00 0. -1.
         11    1    4    4    0    0 -0.32474940559E+01 -0.13112199943E+02 -0.90790887724E+00  0.13538844256E+02  0.51100000000E-03 0. -1.
        -11    1    4    4    0    0 -0.15649735865E+01 -0.12532535394E+01  0.43294005514E+01  0.47711105789E+01  0.51100000000E-03 0.  1.
        -12    1    4    4    0    0 -0.19931240799E+02  0.61294617042E+01 -0.29415762438E+02  0.36057062282E+02  0.00000000000E+00 0.  1.
</event>
<event>
 8    1  0.2484572E-006  0.9118800E+02  0.7816164E-02  0.1184000E+00
        -11   -1    0    0    0    0  0.00000000000E+00  0.00000000000E+00  0.45593999997E+02  0.45594000000E+02  0.51100000000E-03 0.  1.
         11   -1    0    0    0    0 -0.00000000000E+00 -0.00000000000E+00 -0.45593999997E+02  0.45594000000E+02  0.51100000000E-03 0. -1.
         23    2    1    2    0    0  0.35527136788E-14  0.00000000000E+00  0.00000000000E+00  0.91188000000E+02  0.91188000000E+02 0.  0.
    9900012    2    3    3    0    0 -0.22353126067E+02  0.36310477814E+01  0.29033337031E+02  0.54367062856E+02  0.39999951393E+02 0.  0.
         12    1    3    3    0    0  0.22353126067E+02 -0.36310477814E+01 -0.29033337031E+02  0.36820937144E+02  0.00000000000E+00 0. -1.
         11    1    4    4    0    0  0.28353939154E+01  0.56526280867E+00 -0.37144877159E+01  0.47070585243E+01  0.51100000000E-03 0. -1.
        -11    1    4    4    0    0  0.17931106641E+00 -0.22383438975E+01 -0.40623603019E+01  0.46416707493E+01  0.51100000000E-03 0.  1.
        -12    1    4    4    0    0 -0.25367831049E+02  0.53041288702E+01  0.36810185049E+02  0.45018333583E+02  0.00000000000E+00 0.  1.
</event>
<event>
 8    1  0.2484572E-006  0.9118800E+02  0.7816164E-02  0.1184000E+00
        -11   -1    0    0    0    0  0.00000000000E+00  0.00000000000E+00  0.45593999997E+02  0.45594000000E+02  0.51100000000E-03 0. -1.
         11   -1    0    0    0    0 -0.00000000000E+00 -0.00000000000E+00 -0.45593999997E+02  0.45594000000E+02  0.51100000000E-03 0.  1.
         23    2    1    2    0    0  0.00000000000E+00  0.88817841970E-15  0.00000000000E+00  0.91188000000E+02  0.91188000000E+02 0.  0.
    9900012    2    3    3    0    0  0.90735163566E+01 -0.56129669790E+01  0.35241221324E+02  0.54367112208E+02  0.40000063901E+02 0.  0.
        -12    1    3    3    0    0 -0.90735163566E+01  0.56129669790E+01 -0.35241221324E+02  0.36820887792E+02  0.00000000000E+00 0.  1.
         11    1    4    4    0    0  0.10911511169E+02 -0.83082650953E+01  0.25900995722E+02  0.29307847490E+02  0.51100000000E-03 0. -1.
        -11    1    4    4    0    0 -0.55856919758E+01 -0.53285990285E+01 -0.42696262145E+01  0.88217702718E+01  0.51100000000E-03 0.  1.
         12    1    4    4    0    0  0.37476971631E+01  0.80238971449E+01  0.13609851817E+02  0.16237494446E+02  0.00000000000E+00 0. -1.
</event>
<event>
 8    1  0.2484572E-006  0.9118800E+02  0.7816164E-02  0.1184000E+00
        -11   -1    0    0    0    0  0.00000000000E+00  0.00000000000E+00  0.45593999997E+02  0.45594000000E+02  0.51100000000E-03 0.  1.
         11   -1    0    0    0    0 -0.00000000000E+00 -0.00000000000E+00 -0.45593999997E+02  0.45594000000E+02  0.51100000000E-03 0. -1.
         23    2    1    2    0    0  0.17763568394E-14  0.35527136788E-14  0.00000000000E+00  0.91188000000E+02  0.91188000000E+02 0.  0.
    9900012    2    3    3    0    0  0.81700358471E+01 -0.29121272747E+02  0.20999580167E+02  0.54367076881E+02  0.39999983365E+02 0.  0.
         12    1    3    3    0    0 -0.81700358471E+01  0.29121272747E+02 -0.20999580167E+02  0.36820923119E+02  0.00000000000E+00 0. -1.
         11    1    4    4    0    0  0.13678573781E+02  0.71678244317E+00  0.15857090776E+02  0.20953865655E+02  0.51100000000E-03 0. -1.
        -11    1    4    4    0    0  0.17313294123E+01 -0.15369737599E+02  0.72789441840E+01  0.17094132446E+02  0.51100000000E-03 0.  1.
         12    1    4    4    0    0 -0.72398673462E+01 -0.14468317591E+02 -0.21364547933E+01  0.16319078779E+02  0.00000000000E+00 0. -1.
</event>
<event>
 8    1  0.2484572E-006  0.9118800E+02  0.7816164E-02  0.1184000E+00
        -11   -1    0    0    0    0  0.00000000000E+00  0.00000000000E+00  0.45593999997E+02  0.45594000000E+02  0.51100000000E-03 0. -1.
         11   -1    0    0    0    0 -0.00000000000E+00 -0.00000000000E+00 -0.45593999997E+02  0.45594000000E+02  0.51100000000E-03 0.  1.
         23    2    1    2    0    0  0.00000000000E+00 -0.88817841970E-15  0.00000000000E+00  0.91188000000E+02  0.91188000000E+02 0.  0.
    9900012    2    3    3    0    0  0.34942213632E+02  0.47069186783E+01 -0.10614173131E+02  0.54367162853E+02  0.40000179355E+02 0.  0.
         12    1    3    3    0    0 -0.34942213632E+02 -0.47069186783E+01  0.10614173131E+02  0.36820837147E+02  0.00000000000E+00 0. -1.
         11    1    4    4    0    0  0.72826646476E+01  0.63007923998E+01 -0.13020082957E+02  0.16194435764E+02  0.51100000000E-03 0. -1.
        -11    1    4    4    0    0  0.12506823453E+02  0.10434135332E+02 -0.56166495963E+01  0.17229003626E+02  0.51100000000E-03 0.  1.
        -12    1    4    4    0    0  0.15152725531E+02 -0.12028009053E+02  0.80225594223E+01  0.20943723463E+02  0.00000000000E+00 0.  1.
</event>
<event>
 8    1  0.2484572E-006  0.9118800E+02  0.7816164E-02  0.1184000E+00
        -11   -1    0    0    0    0  0.00000000000E+00  0.00000000000E+00  0.45593999997E+02  0.45594000000E+02  0.51100000000E-03 0.  1.
         11   -1    0    0    0    0 -0.00000000000E+00 -0.00000000000E+00 -0.45593999997E+02  0.45594000000E+02  0.51100000000E-03 0. -1.
         23    2    1    2    0    0  0.44408920985E-15  0.44408920985E-15  0.00000000000E+00  0.91188000000E+02  0.91188000000E+02 0.  0.
    9900012    2    3    3    0    0  0.22234388417E+01  0.22274958789E+01  0.36686169259E+02  0.54367076151E+02  0.39999981701E+02 0.  0.
         12    1    3    3    0    0 -0.22234388417E+01 -0.22274958789E+01 -0.36686169259E+02  0.36820923849E+02  0.00000000000E+00 0. -1.
         11    1    4    4    0    0 -0.53845314709E+01 -0.39036593479E+01 -0.51164483752E+01  0.83910535515E+01  0.51100000000E-03 0. -1.
        -11    1    4    4    0    0 -0.49240896457E+01 -0.52062045235E+00  0.10943603445E+02  0.12011667708E+02  0.51100000000E-03 0.  1.
         12    1    4    4    0    0  0.12532059958E+02  0.66517756792E+01  0.30859014189E+02  0.33964354892E+02  0.00000000000E+00 0. -1.
</event>
<event>
 8    1  0.2484572E-006  0.9118800E+02  0.7816164E-02  0.1184000E+00
        -11   -1    0    0    0    0  0.00000000000E+00  0.00000000000E+00  0.45593999997E+02  0.45594000000E+02  0.51100000000E-03 0. -1.
         11   -1    0    0    0    0 -0.00000000000E+00 -0.00000000000E+00 -0.45593999997E+02  0.45594000000E+02  0.51100000000E-03 0.  1.
         23    2    1    2    0    0  0.00000000000E+00  0.00000000000E+00  0.88817841970E-15  0.91188000000E+02  0.91188000000E+02 0.  0.
    9900012    2    3    3    0    0  0.34201616153E+02  0.12430607082E+02  0.56131964840E+01  0.54367102202E+02  0.40000041089E+02 0.  0.
         12    1    3    3    0    0 -0.34201616153E+02 -0.12430607082E+02 -0.56131964840E+01  0.36820897798E+02  0.00000000000E+00 0. -1.
         11    1    4    4    0    0  0.12142802923E+02  0.12275976129E+02 -0.45682135212E+01  0.17861014187E+02  0.51100000000E-03 0. -1.
        -11    1    4    4    0    0  0.16154261594E+02  0.99782727483E+01 -0.27955812642E+01  0.19192221590E+02  0.51100000000E-03 0.  1.
         12    1    4    4    0    0  0.59045516354E+01 -0.98236417960E+01  0.12976991269E+02  0.17313866424E+02  0.00000000000E+00 0. -1.
</event>
<event>
 8    1  0.2484572E-006  0.9118800E+02  0.7816164E-02  0.1184000E+00
        -11   -1    0    0    0    0  0.00000000000E+00  0.00000000000E+00  0.45593999997E+02  0.45594000000E+02  0.51100000000E-03 0. -1.
         11   -1    0    0    0    0 -0.00000000000E+00 -0.00000000000E+00 -0.45593999997E+02  0.45594000000E+02  0.51100000000E-03 0.  1.
         23    2    1    2    0    0  0.35527136788E-14  0.00000000000E+00  0.26645352591E-14  0.91188000000E+02  0.91188000000E+02 0.  0.
    9900012    2    3    3    0    0  0.22199131831E+02  0.28669177984E+02  0.64075703081E+01  0.54367079621E+02  0.39999989612E+02 0.  0.
         12    1    3    3    0    0 -0.22199131831E+02 -0.28669177984E+02 -0.64075703081E+01  0.36820920379E+02  0.00000000000E+00 0. -1.
         11    1    4    4    0    0  0.12250020182E+02  0.30600507822E+02  0.16270027498E+02  0.36758235384E+02  0.51100000000E-03 0. -1.
        -11    1    4    4    0    0  0.11246844628E+02  0.55148590575E+00 -0.57788754475E+01  0.12656660400E+02  0.51100000000E-03 0.  1.
         12    1    4    4    0    0 -0.12977329790E+01 -0.24828157445E+01 -0.40835817429E+01  0.49521838371E+01  0.00000000000E+00 0. -1.
</event>
<event>
 8    1  0.2484572E-006  0.9118800E+02  0.7816164E-02  0.1184000E+00
        -11   -1    0    0    0    0  0.00000000000E+00  0.00000000000E+00  0.45593999997E+02  0.45594000000E+02  0.51100000000E-03 0. -1.
         11   -1    0    0    0    0 -0.00000000000E+00 -0.00000000000E+00 -0.45593999997E+02  0.45594000000E+02  0.51100000000E-03 0.  1.
         23    2    1    2    0    0  0.00000000000E+00  0.00000000000E+00 -0.88817841970E-15  0.91188000000E+02  0.91188000000E+02 0.  0.
    9900012    2    3    3    0    0  0.45704810529E+01 -0.35811176301E+02  0.72422285319E+01  0.54367088561E+02  0.40000009992E+02 0.  0.
         12    1    3    3    0    0 -0.45704810529E+01  0.35811176301E+02 -0.72422285319E+01  0.36820911439E+02  0.00000000000E+00 0. -1.
         11    1    4    4    0    0 -0.58203986322E+01 -0.88434585968E+01 -0.77659923133E+01  0.13129906209E+02  0.51100000000E-03 0. -1.
        -11    1    4    4    0    0  0.79285151562E+01 -0.95409840183E+01 -0.60422632909E+01  0.13798575092E+02  0.51100000000E-03 0.  1.
         12    1    4    4    0    0  0.24623645289E+01 -0.17426733686E+02  0.21050484136E+02  0.27438607260E+02  0.00000000000E+00 0. -1.
</event>
<event>
 8    1  0.2484572E-006  0.9118800E+02  0.7816164E-02  0.1184000E+00
        -11   -1    0    0    0    0  0.00000000000E+00  0.00000000000E+00  0.45593999997E+02  0.45594000000E+02  0.51100000000E-03 0.  1.
         11   -1    0    0    0    0 -0.00000000000E+00 -0.00000000000E+00 -0.45593999997E+02  0.45594000000E+02  0.51100000000E-03 0. -1.
         23    2    1    2    0    0  0.00000000000E+00  0.35527136788E-14  0.00000000000E+00  0.91188000000E+02  0.91188000000E+02 0.  0.
    9900012    2    3    3    0    0 -0.27235320361E+02  0.24169701671E+02  0.54628300341E+01  0.54367086568E+02  0.40000005448E+02 0.  0.
        -12    1    3    3    0    0  0.27235320361E+02 -0.24169701671E+02 -0.54628300341E+01  0.36820913432E+02  0.00000000000E+00 0.  1.
         11    1    4    4    0    0  0.33495386495E+00  0.10943457725E+02 -0.43143890639E+00  0.10957079942E+02  0.51100000000E-03 0. -1.
        -11    1    4    4    0    0 -0.23727746829E+02  0.22583251378E+02  0.30279295945E+01  0.32896467444E+02  0.51100000000E-03 0.  1.
        -12    1    4    4    0    0 -0.38425273965E+01 -0.93570074319E+01  0.28663393460E+01  0.10513539181E+02  0.00000000000E+00 0.  1.
</event>
<event>
 8    1  0.2484572E-006  0.9118800E+02  0.7816164E-02  0.1184000E+00
        -11   -1    0    0    0    0  0.00000000000E+00  0.00000000000E+00  0.45593999997E+02  0.45594000000E+02  0.51100000000E-03 0.  1.
         11   -1    0    0    0    0 -0.00000000000E+00 -0.00000000000E+00 -0.45593999997E+02  0.45594000000E+02  0.51100000000E-03 0. -1.
         23    2    1    2    0    0  0.00000000000E+00  0.35527136788E-14  0.00000000000E+00  0.91188000000E+02  0.91188000000E+02 0.  0.
    9900012    2    3    3    0    0 -0.96605525074E+01 -0.27946876641E+02 -0.21941770795E+02  0.54366871631E+02  0.39999515455E+02 0.  0.
        -12    1    3    3    0    0  0.96605525074E+01  0.27946876641E+02  0.21941770795E+02  0.36821128369E+02  0.00000000000E+00 0.  1.
         11    1    4    4    0    0 -0.67298765852E+01 -0.21327814823E+02  0.25259912099E+01  0.22506611381E+02  0.51100000000E-03 0. -1.
        -11    1    4    4    0    0  0.19109188338E+01 -0.12048256862E+02 -0.19671677974E+02  0.23147073655E+02  0.51100000000E-03 0.  1.
         12    1    4    4    0    0 -0.48415947560E+01  0.54291950449E+01 -0.47960840315E+01  0.87131865958E+01  0.00000000000E+00 0. -1.
</event>
<event>
 8    1  0.2484572E-006  0.9118800E+02  0.7816164E-02  0.1184000E+00
        -11   -1    0    0    0    0  0.00000000000E+00  0.00000000000E+00  0.45593999997E+02  0.45594000000E+02  0.51100000000E-03 0.  1.
         11   -1    0    0    0    0 -0.00000000000E+00 -0.00000000000E+00 -0.45593999997E+02  0.45594000000E+02  0.51100000000E-03 0. -1.
         23    2    1    2    0    0  0.00000000000E+00  0.00000000000E+00  0.88817841970E-15  0.91188000000E+02  0.91188000000E+02 0.  0.
    9900012    2    3    3    0    0  0.82472889733E+01  0.35350121161E+02 -0.61749298702E+01  0.54367101037E+02  0.40000038434E+02 0.  0.
        -12    1    3    3    0    0 -0.82472889733E+01 -0.35350121161E+02  0.61749298702E+01  0.36820898963E+02  0.00000000000E+00 0.  1.
         11    1    4    4    0    0  0.18141156930E+02  0.37805455294E+02 -0.10538684702E+02  0.43236765608E+02  0.51100000000E-03 0. -1.
        -11    1    4    4    0    0 -0.74362784228E+01 -0.21700442789E+01  0.35915474980E+01  0.85385328158E+01  0.51100000000E-03 0.  1.
         12    1    4    4    0    0 -0.24575895339E+01 -0.28528985390E+00  0.77220733386E+00  0.25918026129E+01  0.00000000000E+00 0. -1.
</event>
<event>
 8    1  0.2484572E-006  0.9118800E+02  0.7816164E-02  0.1184000E+00
        -11   -1    0    0    0    0  0.00000000000E+00  0.00000000000E+00  0.45593999997E+02  0.45594000000E+02  0.51100000000E-03 0.  1.
         11   -1    0    0    0    0 -0.00000000000E+00 -0.00000000000E+00 -0.45593999997E+02  0.45594000000E+02  0.51100000000E-03 0. -1.
         23    2    1    2    0    0 -0.35527136788E-14 -0.17763568394E-14  0.00000000000E+00  0.91188000000E+02  0.91188000000E+02 0.  0.
    9900012    2    3    3    0    0 -0.20437012778E+02 -0.13068953023E+02  0.27700378665E+02  0.54367081997E+02  0.39999995030E+02 0.  0.
         12    1    3    3    0    0  0.20437012778E+02  0.13068953023E+02 -0.27700378665E+02  0.36820918003E+02  0.00000000000E+00 0. -1.
         11    1    4    4    0    0 -0.47935888822E+01 -0.44681302021E+01  0.13559756844E+02  0.15060202117E+02  0.51100000000E-03 0. -1.
        -11    1    4    4    0    0 -0.12954135836E+02  0.18315581489E+01  0.22257596407E+02  0.25817917007E+02  0.51100000000E-03 0.  1.
         12    1    4    4    0    0 -0.26892880594E+01 -0.10432380970E+02 -0.81169745864E+01  0.13488962873E+02  0.00000000000E+00 0. -1.
</event>
<event>
 8    1  0.2484572E-006  0.9118800E+02  0.7816164E-02  0.1184000E+00
        -11   -1    0    0    0    0  0.00000000000E+00  0.00000000000E+00  0.45593999997E+02  0.45594000000E+02  0.51100000000E-03 0.  1.
         11   -1    0    0    0    0 -0.00000000000E+00 -0.00000000000E+00 -0.45593999997E+02  0.45594000000E+02  0.51100000000E-03 0. -1.
         23    2    1    2    0    0  0.35527136788E-14 -0.35527136788E-14  0.35527136788E-14  0.91188000000E+02  0.91188000000E+02 0.  0.
    9900012    2    3    3    0    0 -0.26799969054E+02  0.10991208364E+02 -0.22731846091E+02  0.54367057191E+02  0.39999938479E+02 0.  0.
        -12    1    3    3    0    0  0.26799969054E+02 -0.10991208364E+02  0.22731846091E+02  0.36820942809E+02  0.00000000000E+00 0.  1.
         11    1    4    4    0    0 -0.63539303782E+01  0.31389924800E+01 -0.17413900132E+02  0.18800787832E+02  0.51100000000E-03 0. -1.
        -11    1    4    4    0    0 -0.26340998562E+00  0.13774748882E+02  0.35212247188E+00  0.13781766290E+02  0.51100000000E-03 0.  1.
         12    1    4    4    0    0 -0.20182628690E+02 -0.59225329980E+01 -0.56700684315E+01  0.21784503069E+02  0.00000000000E+00 0. -1.
</event>
<event>
 8    1  0.2484572E-006  0.9118800E+02  0.7816164E-02  0.1184000E+00
        -11   -1    0    0    0    0  0.00000000000E+00  0.00000000000E+00  0.45593999997E+02  0.45594000000E+02  0.51100000000E-03 0. -1.
         11   -1    0    0    0    0 -0.00000000000E+00 -0.00000000000E+00 -0.45593999997E+02  0.45594000000E+02  0.51100000000E-03 0.  1.
         23    2    1    2    0    0  0.35527136788E-14  0.00000000000E+00  0.00000000000E+00  0.91188000000E+02  0.91188000000E+02 0.  0.
    9900012    2    3    3    0    0 -0.14507579461E+02 -0.86686862596E+01 -0.32713362933E+02  0.54367080706E+02  0.39999992086E+02 0.  0.
         12    1    3    3    0    0  0.14507579461E+02  0.86686862596E+01  0.32713362933E+02  0.36820919294E+02  0.00000000000E+00 0. -1.
         11    1    4    4    0    0 -0.19798133076E+02 -0.17988827833E+01 -0.93614896025E+00  0.19901719215E+02  0.51100000000E-03 0. -1.
        -11    1    4    4    0    0  0.19643872747E+01 -0.75706786812E+01 -0.29116332252E+02  0.30148545523E+02  0.51100000000E-03 0.  1.
         12    1    4    4    0    0  0.33261663406E+01  0.70087520486E+00 -0.26608817204E+01  0.43168159688E+01  0.00000000000E+00 0. -1.
</event>
<event>
 8    1  0.2484572E-006  0.9118800E+02  0.7816164E-02  0.1184000E+00
        -11   -1    0    0    0    0  0.00000000000E+00  0.00000000000E+00  0.45593999997E+02  0.45594000000E+02  0.51100000000E-03 0.  1.
         11   -1    0    0    0    0 -0.00000000000E+00 -0.00000000000E+00 -0.45593999997E+02  0.45594000000E+02  0.51100000000E-03 0. -1.
         23    2    1    2    0    0  0.22204460493E-15  0.35527136788E-14  0.35527136788E-14  0.91188000000E+02  0.91188000000E+02 0.  0.
    9900012    2    3    3    0    0 -0.27463675764E+00 -0.19092690864E+02 -0.31482870916E+02  0.54367116919E+02  0.40000074639E+02 0.  0.
        -12    1    3    3    0    0  0.27463675764E+00  0.19092690864E+02  0.31482870916E+02  0.36820883081E+02  0.00000000000E+00 0.  1.
         11    1    4    4    0    0  0.23807599904E+01 -0.57788462390E+00 -0.23492639814E+01  0.33942613756E+01  0.51100000000E-03 0. -1.
        -11    1    4    4    0    0  0.10553346084E+02  0.70152223573E+01 -0.12309501694E+02  0.17666643442E+02  0.51100000000E-03 0.  1.
         12    1    4    4    0    0 -0.13208742832E+02 -0.25530028598E+02 -0.16824105240E+02  0.33306212101E+02  0.00000000000E+00 0. -1.
</event>
<event>
 8    1  0.2484572E-006  0.9118800E+02  0.7816164E-02  0.1184000E+00
        -11   -1    0    0    0    0  0.00000000000E+00  0.00000000000E+00  0.45593999997E+02  0.45594000000E+02  0.51100000000E-03 0.  1.
         11   -1    0    0    0    0 -0.00000000000E+00 -0.00000000000E+00 -0.45593999997E+02  0.45594000000E+02  0.51100000000E-03 0. -1.
         23    2    1    2    0    0  0.00000000000E+00  0.00000000000E+00  0.11102230246E-14  0.91188000000E+02  0.91188000000E+02 0.  0.
    9900012    2    3    3    0    0  0.27964556562E+02  0.23944363029E+02  0.65604817055E+00  0.54367090943E+02  0.40000015424E+02 0.  0.
         12    1    3    3    0    0 -0.27964556562E+02 -0.23944363029E+02 -0.65604817055E+00  0.36820909057E+02  0.00000000000E+00 0. -1.
         11    1    4    4    0    0  0.18749354099E+02  0.29784438849E+02 -0.59037519713E+01  0.35686206919E+02  0.51100000000E-03 0. -1.
        -11    1    4    4    0    0  0.12297290751E+02 -0.60697458253E+01  0.72528317157E+01  0.15513501937E+02  0.51100000000E-03 0.  1.
        -12    1    4    4    0    0 -0.30820882876E+01  0.22967000483E+00 -0.69303157393E+00  0.31673820871E+01  0.00000000000E+00 0.  1.
</event>
<event>
 8    1  0.2484572E-006  0.9118800E+02  0.7816164E-02  0.1184000E+00
        -11   -1    0    0    0    0  0.00000000000E+00  0.00000000000E+00  0.45593999997E+02  0.45594000000E+02  0.51100000000E-03 0.  1.
         11   -1    0    0    0    0 -0.00000000000E+00 -0.00000000000E+00 -0.45593999997E+02  0.45594000000E+02  0.51100000000E-03 0. -1.
         23    2    1    2    0    0  0.00000000000E+00  0.00000000000E+00  0.00000000000E+00  0.91188000000E+02  0.91188000000E+02 0.  0.
    9900012    2    3    3    0    0 -0.19370782294E+02  0.21051757461E+02  0.23181419540E+02  0.54367056085E+02  0.39999935958E+02 0.  0.
         12    1    3    3    0    0  0.19370782294E+02 -0.21051757461E+02 -0.23181419540E+02  0.36820943915E+02  0.00000000000E+00 0. -1.
         11    1    4    4    0    0  0.48066914882E+01  0.12608541059E+01 -0.23773433717E+01  0.55087020165E+01  0.51100000000E-03 0. -1.
        -11    1    4    4    0    0 -0.14596006019E+02 -0.10763505715E+01  0.18420693318E+00  0.14636797967E+02  0.51100000000E-03 0.  1.
        -12    1    4    4    0    0 -0.95814677627E+01  0.20867253927E+02  0.25374555979E+02  0.34221556102E+02  0.00000000000E+00 0.  1.
</event>
<event>
 8    1  0.2484572E-006  0.9118800E+02  0.7816164E-02  0.1184000E+00
        -11   -1    0    0    0    0  0.00000000000E+00  0.00000000000E+00  0.45593999997E+02  0.45594000000E+02  0.51100000000E-03 0.  1.
         11   -1    0    0    0    0 -0.00000000000E+00 -0.00000000000E+00 -0.45593999997E+02  0.45594000000E+02  0.51100000000E-03 0. -1.
         23    2    1    2    0    0  0.17763568394E-14  0.00000000000E+00  0.00000000000E+00  0.91188000000E+02  0.91188000000E+02 0.  0.
    9900012    2    3    3    0    0 -0.12377717417E+02  0.26336799067E+02  0.22559765724E+02  0.54367110507E+02  0.40000060022E+02 0.  0.
         12    1    3    3    0    0  0.12377717417E+02 -0.26336799067E+02 -0.22559765724E+02  0.36820889493E+02  0.00000000000E+00 0. -1.
         11    1    4    4    0    0 -0.12971483283E+02  0.10921939360E+02  0.54554749767E+01  0.17813207051E+02  0.51100000000E-03 0.  1.
        -11    1    4    4    0    0  0.15346822665E+01  0.23806126389E+02  0.12324792534E+02  0.26851208811E+02  0.51100000000E-03 0. -1.
        -12    1    4    4    0    0 -0.94091640011E+00 -0.83912666826E+01  0.47794982136E+01  0.97026946455E+01  0.00000000000E+00 0.  1.
</event>
<event>
 8    1  0.2484572E-006  0.9118800E+02  0.7816164E-02  0.1184000E+00
        -11   -1    0    0    0    0  0.00000000000E+00  0.00000000000E+00  0.45593999997E+02  0.45594000000E+02  0.51100000000E-03 0.  1.
         11   -1    0    0    0    0 -0.00000000000E+00 -0.00000000000E+00 -0.45593999997E+02  0.45594000000E+02  0.51100000000E-03 0. -1.
         23    2    1    2    0    0  0.35527136788E-14  0.00000000000E+00  0.00000000000E+00  0.91188000000E+02  0.91188000000E+02 0.  0.
    9900012    2    3    3    0    0 -0.28609040782E+02 -0.16627409766E+02  0.16150251623E+02  0.54367101077E+02  0.40000038524E+02 0.  0.
         12    1    3    3    0    0  0.28609040782E+02  0.16627409766E+02 -0.16150251623E+02  0.36820898923E+02  0.00000000000E+00 0. -1.
         11    1    4    4    0    0 -0.11629295255E+02 -0.45727667908E+01  0.17432986584E+02  0.21449002908E+02  0.51100000000E-03 0. -1.
        -11    1    4    4    0    0 -0.12836480816E+02 -0.47371792965E+01  0.11326231214E+02  0.17762309005E+02  0.51100000000E-03 0.  1.
         12    1    4    4    0    0 -0.41432647114E+01 -0.73174636790E+01 -0.12608966175E+02  0.15155789163E+02  0.00000000000E+00 0. -1.
</event>
<event>
 8    1  0.2484572E-006  0.9118800E+02  0.7816164E-02  0.1184000E+00
        -11   -1    0    0    0    0  0.00000000000E+00  0.00000000000E+00  0.45593999997E+02  0.45594000000E+02  0.51100000000E-03 0. -1.
         11   -1    0    0    0    0 -0.00000000000E+00 -0.00000000000E+00 -0.45593999997E+02  0.45594000000E+02  0.51100000000E-03 0.  1.
         23    2    1    2    0    0  0.17763568394E-14  0.17763568394E-14  0.00000000000E+00  0.91188000000E+02  0.91188000000E+02 0.  0.
    9900012    2    3    3    0    0 -0.11887089207E+02 -0.13561557513E+02  0.32102373361E+02  0.54367066994E+02  0.39999960826E+02 0.  0.
        -12    1    3    3    0    0  0.11887089207E+02  0.13561557513E+02 -0.32102373361E+02  0.36820933006E+02  0.00000000000E+00 0.  1.
         11    1    4    4    0    0 -0.16273267997E+01 -0.16906391591E+02  0.19681355608E+02  0.25996731102E+02  0.51100000000E-03 0. -1.
        -11    1    4    4    0    0 -0.14692729810E+02  0.80458668928E+01  0.13870062432E+02  0.21748354316E+02  0.51100000000E-03 0.  1.
        -12    1    4    4    0    0  0.44329674024E+01 -0.47010328150E+01 -0.14490446787E+01  0.66219815764E+01  0.00000000000E+00 0.  1.
</event>
<event>
 8    1  0.2484572E-006  0.9118800E+02  0.7816164E-02  0.1184000E+00
        -11   -1    0    0    0    0  0.00000000000E+00  0.00000000000E+00  0.45593999997E+02  0.45594000000E+02  0.51100000000E-03 0.  1.
         11   -1    0    0    0    0 -0.00000000000E+00 -0.00000000000E+00 -0.45593999997E+02  0.45594000000E+02  0.51100000000E-03 0. -1.
         23    2    1    2    0    0  0.00000000000E+00  0.00000000000E+00  0.00000000000E+00  0.91188000000E+02  0.91188000000E+02 0.  0.
    9900012    2    3    3    0    0 -0.13054437910E+02 -0.43220084172E+01  0.34156672729E+02  0.54367130947E+02  0.40000106619E+02 0.  0.
         12    1    3    3    0    0  0.13054437910E+02  0.43220084172E+01 -0.34156672729E+02  0.36820869053E+02  0.00000000000E+00 0. -1.
         11    1    4    4    0    0 -0.48265689138E+01 -0.21824944629E+01  0.20983850513E+02  0.21642112470E+02  0.51100000000E-03 0. -1.
        -11    1    4    4    0    0 -0.10785903220E+02  0.50619099068E+01  0.19467500729E+02  0.22824158803E+02  0.51100000000E-03 0.  1.
         12    1    4    4    0    0  0.25580342235E+01 -0.72014238611E+01 -0.62946785118E+01  0.99008596739E+01  0.00000000000E+00 0. -1.
</event>
<event>
 8    1  0.2484572E-006  0.9118800E+02  0.7816164E-02  0.1184000E+00
        -11   -1    0    0    0    0  0.00000000000E+00  0.00000000000E+00  0.45593999997E+02  0.45594000000E+02  0.51100000000E-03 0.  1.
         11   -1    0    0    0    0 -0.00000000000E+00 -0.00000000000E+00 -0.45593999997E+02  0.45594000000E+02  0.51100000000E-03 0. -1.
         23    2    1    2    0    0  0.00000000000E+00  0.00000000000E+00  0.00000000000E+00  0.91188000000E+02  0.91188000000E+02 0.  0.
    9900012    2    3    3    0    0 -0.22414848483E+02 -0.22105378660E+02 -0.19097293328E+02  0.54367084603E+02  0.40000000969E+02 0.  0.
        -12    1    3    3    0    0  0.22414848483E+02  0.22105378660E+02  0.19097293328E+02  0.36820915397E+02  0.00000000000E+00 0.  1.
         11    1    4    4    0    0 -0.41037581080E+00 -0.15509352396E+02 -0.13137780267E+02  0.20330019446E+02  0.51100000000E-03 0. -1.
        -11    1    4    4    0    0 -0.22940893754E+02  0.32248666190E+01 -0.15128128748E+01  0.23215791479E+02  0.51100000000E-03 0.  1.
        -12    1    4    4    0    0  0.93642108221E+00 -0.98208928835E+01 -0.44467001860E+01  0.10821273678E+02  0.00000000000E+00 0.  1.
</event>
<event>
 8    1  0.2484572E-006  0.9118800E+02  0.7816164E-02  0.1184000E+00
        -11   -1    0    0    0    0  0.00000000000E+00  0.00000000000E+00  0.45593999997E+02  0.45594000000E+02  0.51100000000E-03 0.  1.
         11   -1    0    0    0    0 -0.00000000000E+00 -0.00000000000E+00 -0.45593999997E+02  0.45594000000E+02  0.51100000000E-03 0. -1.
         23    2    1    2    0    0  0.88817841970E-15  0.00000000000E+00  0.00000000000E+00  0.91188000000E+02  0.91188000000E+02 0.  0.
    9900012    2    3    3    0    0  0.61125516584E+01  0.15514309217E+02 -0.32828688804E+02  0.54367083569E+02  0.39999998611E+02 0.  0.
        -12    1    3    3    0    0 -0.61125516584E+01 -0.15514309217E+02  0.32828688804E+02  0.36820916431E+02  0.00000000000E+00 0.  1.
         11    1    4    4    0    0 -0.76334958208E+01  0.10975979291E+02 -0.14621331363E+02  0.19812261631E+02  0.51100000000E-03 0. -1.
        -11    1    4    4    0    0  0.12410605857E+01 -0.62784756479E+01 -0.16780139817E+02  0.17959192086E+02  0.51100000000E-03 0.  1.
        -12    1    4    4    0    0  0.12504986893E+02  0.10816805574E+02 -0.14272176239E+01  0.16595629852E+02  0.00000000000E+00 0.  1.
</event>
<event>
 8    1  0.2484572E-006  0.9118800E+02  0.7816164E-02  0.1184000E+00
        -11   -1    0    0    0    0  0.00000000000E+00  0.00000000000E+00  0.45593999997E+02  0.45594000000E+02  0.51100000000E-03 0.  1.
         11   -1    0    0    0    0 -0.00000000000E+00 -0.00000000000E+00 -0.45593999997E+02  0.45594000000E+02  0.51100000000E-03 0. -1.
         23    2    1    2    0    0  0.71054273576E-14  0.17763568394E-14  0.00000000000E+00  0.91188000000E+02  0.91188000000E+02 0.  0.
    9900012    2    3    3    0    0  0.35030954724E+02  0.46195255414E+01  0.10357258615E+02  0.54367073733E+02  0.39999976190E+02 0.  0.
         12    1    3    3    0    0 -0.35030954724E+02 -0.46195255414E+01 -0.10357258615E+02  0.36820926267E+02  0.00000000000E+00 0. -1.
         11    1    4    4    0    0  0.13779400892E+02 -0.72011594744E+00 -0.20961598669E+00  0.13799796921E+02  0.51100000000E-03 0. -1.
        -11    1    4    4    0    0  0.18074557623E+02 -0.74928895968E+01 -0.49499104435E+01  0.20182533078E+02  0.51100000000E-03 0.  1.
         12    1    4    4    0    0  0.31769962087E+01  0.12832531086E+02  0.15516785046E+02  0.20384743735E+02  0.00000000000E+00 0. -1.
</event>
<event>
 8    1  0.2484572E-006  0.9118800E+02  0.7816164E-02  0.1184000E+00
        -11   -1    0    0    0    0  0.00000000000E+00  0.00000000000E+00  0.45593999997E+02  0.45594000000E+02  0.51100000000E-03 0.  1.
         11   -1    0    0    0    0 -0.00000000000E+00 -0.00000000000E+00 -0.45593999997E+02  0.45594000000E+02  0.51100000000E-03 0. -1.
         23    2    1    2    0    0 -0.35527136788E-14  0.88817841970E-15  0.00000000000E+00  0.91188000000E+02  0.91188000000E+02 0.  0.
    9900012    2    3    3    0    0  0.19804059837E+02 -0.79788857106E+01 -0.29998628900E+02  0.54367066564E+02  0.39999959846E+02 0.  0.
        -12    1    3    3    0    0 -0.19804059837E+02  0.79788857106E+01  0.29998628900E+02  0.36820933436E+02  0.00000000000E+00 0.  1.
         11    1    4    4    0    0  0.17049010298E+02 -0.17397096213E+02 -0.15234558562E+02  0.28730114577E+02  0.51100000000E-03 0. -1.
        -11    1    4    4    0    0 -0.38050505309E+01  0.10944562951E+02 -0.14930886886E+02  0.18899556905E+02  0.51100000000E-03 0.  1.
        -12    1    4    4    0    0  0.65601000699E+01 -0.15263524486E+01  0.16681654823E+00  0.67373950816E+01  0.00000000000E+00 0.  1.
</event>
<event>
 8    1  0.2484572E-006  0.9118800E+02  0.7816164E-02  0.1184000E+00
        -11   -1    0    0    0    0  0.00000000000E+00  0.00000000000E+00  0.45593999997E+02  0.45594000000E+02  0.51100000000E-03 0. -1.
         11   -1    0    0    0    0 -0.00000000000E+00 -0.00000000000E+00 -0.45593999997E+02  0.45594000000E+02  0.51100000000E-03 0.  1.
         23    2    1    2    0    0 -0.13322676296E-14 -0.35527136788E-14  0.35527136788E-14  0.91188000000E+02  0.91188000000E+02 0.  0.
    9900012    2    3    3    0    0  0.38574053829E+01  0.24730584186E+02 -0.27005538971E+02  0.54367075167E+02  0.39999979458E+02 0.  0.
         12    1    3    3    0    0 -0.38574053829E+01 -0.24730584186E+02  0.27005538971E+02  0.36820924833E+02  0.00000000000E+00 0. -1.
         11    1    4    4    0    0  0.12366284576E+01  0.31165183669E+01  0.11253915827E+01  0.35367277460E+01  0.51100000000E-03 0. -1.
        -11    1    4    4    0    0  0.17278541156E+02  0.14946904537E+02 -0.62927087869E+01  0.23697175440E+02  0.51100000000E-03 0.  1.
        -12    1    4    4    0    0 -0.14657764230E+02  0.66671612817E+01 -0.21838221767E+02  0.27133171981E+02  0.00000000000E+00 0.  1.
</event>
<event>
 8    1  0.2484572E-006  0.9118800E+02  0.7816164E-02  0.1184000E+00
        -11   -1    0    0    0    0  0.00000000000E+00  0.00000000000E+00  0.45593999997E+02  0.45594000000E+02  0.51100000000E-03 0.  1.
         11   -1    0    0    0    0 -0.00000000000E+00 -0.00000000000E+00 -0.45593999997E+02  0.45594000000E+02  0.51100000000E-03 0. -1.
         23    2    1    2    0    0  0.55511151231E-15  0.00000000000E+00  0.00000000000E+00  0.91188000000E+02  0.91188000000E+02 0.  0.
    9900012    2    3    3    0    0  0.69996456562E+00 -0.12900857569E+02 -0.34479806659E+02  0.54367093661E+02  0.40000021619E+02 0.  0.
        -12    1    3    3    0    0 -0.69996456562E+00  0.12900857569E+02  0.34479806659E+02  0.36820906339E+02  0.00000000000E+00 0.  1.
         11    1    4    4    0    0  0.30116731718E+01 -0.12086284632E+02 -0.98232412744E+01  0.15863307376E+02  0.51100000000E-03 0. -1.
        -11    1    4    4    0    0  0.10941266392E+02  0.42701197224E+01 -0.20646405365E+02  0.23753300560E+02  0.51100000000E-03 0.  1.
         12    1    4    4    0    0 -0.13252974999E+02 -0.50846926593E+01 -0.40101600187E+01  0.14750485725E+02  0.00000000000E+00 0. -1.
</event>
<event>
 8    1  0.2484572E-006  0.9118800E+02  0.7816164E-02  0.1184000E+00
        -11   -1    0    0    0    0  0.00000000000E+00  0.00000000000E+00  0.45593999997E+02  0.45594000000E+02  0.51100000000E-03 0. -1.
         11   -1    0    0    0    0 -0.00000000000E+00 -0.00000000000E+00 -0.45593999997E+02  0.45594000000E+02  0.51100000000E-03 0.  1.
         23    2    1    2    0    0  0.00000000000E+00  0.00000000000E+00  0.00000000000E+00  0.91188000000E+02  0.91188000000E+02 0.  0.
    9900012    2    3    3    0    0  0.99585822923E+01 -0.93291199104E+01 -0.34199099392E+02  0.54367024473E+02  0.39999863890E+02 0.  0.
         12    1    3    3    0    0 -0.99585822923E+01  0.93291199104E+01  0.34199099392E+02  0.36820975527E+02  0.00000000000E+00 0. -1.
         11    1    4    4    0    0 -0.59008210518E+00 -0.51399888560E+01 -0.71881867557E+00  0.52234454989E+01  0.51100000000E-03 0. -1.
        -11    1    4    4    0    0 -0.15100401118E+01  0.13709652112E+02 -0.88129708156E+01  0.16367749907E+02  0.51100000000E-03 0.  1.
        -12    1    4    4    0    0  0.12058704509E+02 -0.17898783166E+02 -0.24667309901E+02  0.32775829067E+02  0.00000000000E+00 0.  1.
</event>
<event>
 8    1  0.2484572E-006  0.9118800E+02  0.7816164E-02  0.1184000E+00
        -11   -1    0    0    0    0  0.00000000000E+00  0.00000000000E+00  0.45593999997E+02  0.45594000000E+02  0.51100000000E-03 0. -1.
         11   -1    0    0    0    0 -0.00000000000E+00 -0.00000000000E+00 -0.45593999997E+02  0.45594000000E+02  0.51100000000E-03 0.  1.
         23    2    1    2    0    0  0.35527136788E-14 -0.15543122345E-14  0.00000000000E+00  0.91188000000E+02  0.91188000000E+02 0.  0.
    9900012    2    3    3    0    0  0.22685206253E+02 -0.11333197630E+01  0.28980618501E+02  0.54367092283E+02  0.40000018478E+02 0.  0.
        -12    1    3    3    0    0 -0.22685206253E+02  0.11333197630E+01 -0.28980618501E+02  0.36820907717E+02  0.00000000000E+00 0.  1.
         11    1    4    4    0    0  0.61687882539E+01  0.94804843408E+01  0.25005253839E+02  0.27444421139E+02  0.51100000000E-03 0. -1.
        -11    1    4    4    0    0  0.17847892320E+02 -0.14196426713E+02  0.34334541545E+01  0.23062402290E+02  0.51100000000E-03 0.  1.
        -12    1    4    4    0    0 -0.13314743217E+01  0.35826226089E+01  0.54191050738E+00  0.38602688540E+01  0.00000000000E+00 0.  1.
</event>
<event>
 8    1  0.2484572E-006  0.9118800E+02  0.7816164E-02  0.1184000E+00
        -11   -1    0    0    0    0  0.00000000000E+00  0.00000000000E+00  0.45593999997E+02  0.45594000000E+02  0.51100000000E-03 0.  1.
         11   -1    0    0    0    0 -0.00000000000E+00 -0.00000000000E+00 -0.45593999997E+02  0.45594000000E+02  0.51100000000E-03 0. -1.
         23    2    1    2    0    0  0.17763568394E-14  0.35527136788E-14  0.35527136788E-14  0.91188000000E+02  0.91188000000E+02 0.  0.
    9900012    2    3    3    0    0 -0.12319279540E+02  0.27309313373E+02  0.21405950116E+02  0.54367109928E+02  0.40000058703E+02 0.  0.
         12    1    3    3    0    0  0.12319279540E+02 -0.27309313373E+02 -0.21405950116E+02  0.36820890072E+02  0.00000000000E+00 0. -1.
         11    1    4    4    0    0  0.65959515773E+01  0.11395389034E+02  0.93197766153E+01  0.16131326817E+02  0.51100000000E-03 0. -1.
        -11    1    4    4    0    0 -0.82008547573E+01  0.20415512365E+02  0.76950129020E+00  0.22014524669E+02  0.51100000000E-03 0.  1.
         12    1    4    4    0    0 -0.10714376360E+02 -0.45015880262E+01  0.11316672211E+02  0.16221258443E+02  0.00000000000E+00 0. -1.
</event>
<event>
 8    1  0.2484572E-006  0.9118800E+02  0.7816164E-02  0.1184000E+00
        -11   -1    0    0    0    0  0.00000000000E+00  0.00000000000E+00  0.45593999997E+02  0.45594000000E+02  0.51100000000E-03 0. -1.
         11   -1    0    0    0    0 -0.00000000000E+00 -0.00000000000E+00 -0.45593999997E+02  0.45594000000E+02  0.51100000000E-03 0.  1.
         23    2    1    2    0    0  0.00000000000E+00  0.00000000000E+00 -0.35527136788E-14  0.91188000000E+02  0.91188000000E+02 0.  0.
    9900012    2    3    3    0    0  0.13900135441E+02  0.14386039495E+02  0.30912910474E+02  0.54367082961E+02  0.39999997226E+02 0.  0.
        -12    1    3    3    0    0 -0.13900135441E+02 -0.14386039495E+02 -0.30912910474E+02  0.36820917039E+02  0.00000000000E+00 0.  1.
         11    1    4    4    0    0  0.12400451713E+02  0.46923670003E+01  0.36414979337E+02  0.38753583462E+02  0.51100000000E-03 0. -1.
        -11    1    4    4    0    0  0.29128825666E+01  0.43604647949E+01 -0.79932862302E+01  0.95598725459E+01  0.51100000000E-03 0.  1.
         12    1    4    4    0    0 -0.14131988383E+01  0.53332076994E+01  0.24912173673E+01  0.60536269536E+01  0.00000000000E+00 0. -1.
</event>
<event>
 8    1  0.2484572E-006  0.9118800E+02  0.7816164E-02  0.1184000E+00
        -11   -1    0    0    0    0  0.00000000000E+00  0.00000000000E+00  0.45593999997E+02  0.45594000000E+02  0.51100000000E-03 0. -1.
         11   -1    0    0    0    0 -0.00000000000E+00 -0.00000000000E+00 -0.45593999997E+02  0.45594000000E+02  0.51100000000E-03 0.  1.
         23    2    1    2    0    0  0.00000000000E+00  0.00000000000E+00  0.88817841970E-15  0.91188000000E+02  0.91188000000E+02 0.  0.
    9900012    2    3    3    0    0 -0.23584537069E+02  0.28205190937E+02 -0.20043744761E+01  0.54367072505E+02  0.39999973389E+02 0.  0.
        -12    1    3    3    0    0  0.23584537069E+02 -0.28205190937E+02  0.20043744761E+01  0.36820927495E+02  0.00000000000E+00 0.  1.
         11    1    4    4    0    0 -0.97073927660E+01  0.10025177820E+02  0.71796811350E+01  0.15693485467E+02  0.51100000000E-03 0. -1.
        -11    1    4    4    0    0 -0.21339734608E+02  0.16627096525E+02 -0.41647788644E+00  0.27055832386E+02  0.51100000000E-03 0.  1.
        -12    1    4    4    0    0  0.74625903046E+01  0.15529165916E+01 -0.87675777246E+01  0.11617754652E+02  0.00000000000E+00 0.  1.
</event>
<event>
 8    1  0.2484572E-006  0.9118800E+02  0.7816164E-02  0.1184000E+00
        -11   -1    0    0    0    0  0.00000000000E+00  0.00000000000E+00  0.45593999997E+02  0.45594000000E+02  0.51100000000E-03 0. -1.
         11   -1    0    0    0    0 -0.00000000000E+00 -0.00000000000E+00 -0.45593999997E+02  0.45594000000E+02  0.51100000000E-03 0.  1.
         23    2    1    2    0    0 -0.35527136788E-14 -0.17763568394E-14  0.00000000000E+00  0.91188000000E+02  0.91188000000E+02 0.  0.
    9900012    2    3    3    0    0 -0.30115573351E+02  0.14051123139E+02 -0.15855529323E+02  0.54367087058E+02  0.40000006567E+02 0.  0.
         12    1    3    3    0    0  0.30115573351E+02 -0.14051123139E+02  0.15855529323E+02  0.36820912942E+02  0.00000000000E+00 0. -1.
         11    1    4    4    0    0 -0.61663848991E+01  0.18676731026E+02 -0.15007671388E+02  0.24740145216E+02  0.51100000000E-03 0. -1.
        -11    1    4    4    0    0 -0.74215830988E+01  0.61593601941E+01  0.14706277931E+01  0.97560422334E+01  0.51100000000E-03 0.  1.
         12    1    4    4    0    0 -0.16527605353E+02 -0.10784968081E+02 -0.23184857284E+01  0.19870899609E+02  0.00000000000E+00 0. -1.
</event>
<event>
 8    1  0.2484572E-006  0.9118800E+02  0.7816164E-02  0.1184000E+00
        -11   -1    0    0    0    0  0.00000000000E+00  0.00000000000E+00  0.45593999997E+02  0.45594000000E+02  0.51100000000E-03 0. -1.
         11   -1    0    0    0    0 -0.00000000000E+00 -0.00000000000E+00 -0.45593999997E+02  0.45594000000E+02  0.51100000000E-03 0.  1.
         23    2    1    2    0    0  0.00000000000E+00  0.00000000000E+00 -0.88817841970E-15  0.91188000000E+02  0.91188000000E+02 0.  0.
    9900012    2    3    3    0    0 -0.33420612433E+02 -0.13789123255E+02  0.69786708021E+01  0.54367094230E+02  0.40000022917E+02 0.  0.
         12    1    3    3    0    0  0.33420612433E+02  0.13789123255E+02 -0.69786708021E+01  0.36820905770E+02  0.00000000000E+00 0. -1.
         11    1    4    4    0    0 -0.14874250498E+02  0.48041986753E+01  0.29358588355E+01  0.15904179330E+02  0.51100000000E-03 0. -1.
        -11    1    4    4    0    0 -0.14798155271E+02  0.37692078550E+01  0.40102099984E+01  0.15788417013E+02  0.51100000000E-03 0.  1.
        -12    1    4    4    0    0 -0.37482066640E+01 -0.22362529785E+02  0.32601968256E-01  0.22674497888E+02  0.00000000000E+00 0.  1.
</event>
<event>
 8    1  0.2484572E-006  0.9118800E+02  0.7816164E-02  0.1184000E+00
        -11   -1    0    0    0    0  0.00000000000E+00  0.00000000000E+00  0.45593999997E+02  0.45594000000E+02  0.51100000000E-03 0.  1.
         11   -1    0    0    0    0 -0.00000000000E+00 -0.00000000000E+00 -0.45593999997E+02  0.45594000000E+02  0.51100000000E-03 0. -1.
         23    2    1    2    0    0  0.00000000000E+00  0.88817841970E-15 -0.17763568394E-14  0.91188000000E+02  0.91188000000E+02 0.  0.
    9900012    2    3    3    0    0 -0.35002787660E+02 -0.73731291235E+01  0.87305689905E+01  0.54367068290E+02  0.39999963782E+02 0.  0.
         12    1    3    3    0    0  0.35002787660E+02  0.73731291235E+01 -0.87305689905E+01  0.36820931710E+02  0.00000000000E+00 0. -1.
         11    1    4    4    0    0 -0.28786473063E+02 -0.12020496678E+02 -0.15129293420E+01  0.31232072093E+02  0.51100000000E-03 0. -1.
        -11    1    4    4    0    0 -0.33016303962E+01 -0.24640452515E+01 -0.47492760232E+01  0.62871221779E+01  0.51100000000E-03 0.  1.
        -12    1    4    4    0    0 -0.29146842009E+01  0.71114128057E+01  0.14992774356E+02  0.16847874019E+02  0.00000000000E+00 0.  1.
</event>
<event>
 8    1  0.2484572E-006  0.9118800E+02  0.7816164E-02  0.1184000E+00
        -11   -1    0    0    0    0  0.00000000000E+00  0.00000000000E+00  0.45593999997E+02  0.45594000000E+02  0.51100000000E-03 0. -1.
         11   -1    0    0    0    0 -0.00000000000E+00 -0.00000000000E+00 -0.45593999997E+02  0.45594000000E+02  0.51100000000E-03 0.  1.
         23    2    1    2    0    0  0.00000000000E+00 -0.17763568394E-14  0.00000000000E+00  0.91188000000E+02  0.91188000000E+02 0.  0.
    9900012    2    3    3    0    0  0.17559055236E+02 -0.95685532121E+01 -0.30917683500E+02  0.54367071381E+02  0.39999970827E+02 0.  0.
         12    1    3    3    0    0 -0.17559055236E+02  0.95685532121E+01  0.30917683500E+02  0.36820928619E+02  0.00000000000E+00 0. -1.
         11    1    4    4    0    0  0.11556026396E+02  0.14408311336E+01 -0.29447412189E+02  0.31666509522E+02  0.51100000000E-03 0. -1.
        -11    1    4    4    0    0  0.83733844622E+01  0.29907336352E+00 -0.59837955385E+01  0.10296058544E+02  0.51100000000E-03 0.  1.
         12    1    4    4    0    0 -0.23703556229E+01 -0.11308457709E+02  0.45135242273E+01  0.12404503315E+02  0.00000000000E+00 0. -1.
</event>
<event>
 8    1  0.2484572E-006  0.9118800E+02  0.7816164E-02  0.1184000E+00
        -11   -1    0    0    0    0  0.00000000000E+00  0.00000000000E+00  0.45593999997E+02  0.45594000000E+02  0.51100000000E-03 0.  1.
         11   -1    0    0    0    0 -0.00000000000E+00 -0.00000000000E+00 -0.45593999997E+02  0.45594000000E+02  0.51100000000E-03 0. -1.
         23    2    1    2    0    0 -0.17763568394E-14 -0.35527136788E-14 -0.35527136788E-14  0.91188000000E+02  0.91188000000E+02 0.  0.
    9900012    2    3    3    0    0 -0.81654701303E+01  0.25748305473E+02  0.25022576812E+02  0.54367088991E+02  0.40000010973E+02 0.  0.
         12    1    3    3    0    0  0.81654701303E+01 -0.25748305473E+02 -0.25022576812E+02  0.36820911009E+02  0.00000000000E+00 0. -1.
         11    1    4    4    0    0  0.74374955980E+01  0.48964073982E+01 -0.12862208326E+01  0.89969722947E+01  0.51100000000E-03 0. -1.
        -11    1    4    4    0    0  0.99571631293E+00  0.14233660658E+02  0.88665367975E+00  0.14295968023E+02  0.51100000000E-03 0.  1.
         12    1    4    4    0    0 -0.16598682041E+02  0.66182374172E+01  0.25422143965E+02  0.31074148674E+02  0.00000000000E+00 0. -1.
</event>
<event>
 8    1  0.2484572E-006  0.9118800E+02  0.7816164E-02  0.1184000E+00
        -11   -1    0    0    0    0  0.00000000000E+00  0.00000000000E+00  0.45593999997E+02  0.45594000000E+02  0.51100000000E-03 0.  1.
         11   -1    0    0    0    0 -0.00000000000E+00 -0.00000000000E+00 -0.45593999997E+02  0.45594000000E+02  0.51100000000E-03 0. -1.
         23    2    1    2    0    0 -0.13322676296E-14  0.00000000000E+00  0.00000000000E+00  0.91188000000E+02  0.91188000000E+02 0.  0.
    9900012    2    3    3    0    0  0.25562630616E+01  0.34186698004E+01  0.36572654110E+02  0.54367070996E+02  0.39999969950E+02 0.  0.
         12    1    3    3    0    0 -0.25562630616E+01 -0.34186698004E+01 -0.36572654110E+02  0.36820929004E+02  0.00000000000E+00 0. -1.
         11    1    4    4    0    0 -0.10744588589E+02 -0.20362388061E+01 -0.14333231794E+01  0.11029363899E+02  0.51100000000E-03 0. -1.
        -11    1    4    4    0    0  0.15764504656E+02  0.32299304521E+01  0.23667551770E+02  0.28620011615E+02  0.51100000000E-03 0.  1.
         12    1    4    4    0    0 -0.24636530055E+01  0.22249781544E+01  0.14338425519E+02  0.14717695482E+02  0.00000000000E+00 0. -1.
</event>
<event>
 8    1  0.2484572E-006  0.9118800E+02  0.7816164E-02  0.1184000E+00
        -11   -1    0    0    0    0  0.00000000000E+00  0.00000000000E+00  0.45593999997E+02  0.45594000000E+02  0.51100000000E-03 0.  1.
         11   -1    0    0    0    0 -0.00000000000E+00 -0.00000000000E+00 -0.45593999997E+02  0.45594000000E+02  0.51100000000E-03 0. -1.
         23    2    1    2    0    0  0.14210854715E-13  0.17763568394E-14  0.00000000000E+00  0.91188000000E+02  0.91188000000E+02 0.  0.
    9900012    2    3    3    0    0  0.35367135106E+02  0.48693937838E+01 -0.90130334589E+01  0.54367081848E+02  0.39999994688E+02 0.  0.
        -12    1    3    3    0    0 -0.35367135106E+02 -0.48693937838E+01  0.90130334589E+01  0.36820918152E+02  0.00000000000E+00 0.  1.
         11    1    4    4    0    0  0.27999238361E+02 -0.55798068794E+01 -0.82476491268E+01  0.29717256098E+02  0.51100000000E-03 0. -1.
        -11    1    4    4    0    0 -0.42768852108E+01 -0.28142789001E+01  0.38506889368E+01  0.64062249713E+01  0.51100000000E-03 0.  1.
        -12    1    4    4    0    0  0.11644781956E+02  0.13263479563E+02 -0.46160732689E+01  0.18243600778E+02  0.00000000000E+00 0.  1.
</event>
<event>
 8    1  0.2484572E-006  0.9118800E+02  0.7816164E-02  0.1184000E+00
        -11   -1    0    0    0    0  0.00000000000E+00  0.00000000000E+00  0.45593999997E+02  0.45594000000E+02  0.51100000000E-03 0. -1.
         11   -1    0    0    0    0 -0.00000000000E+00 -0.00000000000E+00 -0.45593999997E+02  0.45594000000E+02  0.51100000000E-03 0.  1.
         23    2    1    2    0    0  0.00000000000E+00  0.00000000000E+00  0.00000000000E+00  0.91188000000E+02  0.91188000000E+02 0.  0.
    9900012    2    3    3    0    0  0.25888237374E+02 -0.96693461866E+01  0.24332751677E+02  0.54367083469E+02  0.39999998384E+02 0.  0.
        -12    1    3    3    0    0 -0.25888237374E+02  0.96693461866E+01 -0.24332751677E+02  0.36820916531E+02  0.00000000000E+00 0.  1.
         11    1    4    4    0    0  0.16736400622E+02  0.57861151386E+01  0.17768478313E+02  0.25085953360E+02  0.51100000000E-03 0. -1.
        -11    1    4    4    0    0  0.15361835274E+02 -0.14297279897E+02  0.12446097727E+01  0.21022541453E+02  0.51100000000E-03 0.  1.
         12    1    4    4    0    0 -0.62099985208E+01 -0.11581814286E+01  0.53196635908E+01  0.82585886548E+01  0.00000000000E+00 0. -1.
</event>
<event>
 8    1  0.2484572E-006  0.9118800E+02  0.7816164E-02  0.1184000E+00
        -11   -1    0    0    0    0  0.00000000000E+00  0.00000000000E+00  0.45593999997E+02  0.45594000000E+02  0.51100000000E-03 0.  1.
         11   -1    0    0    0    0 -0.00000000000E+00 -0.00000000000E+00 -0.45593999997E+02  0.45594000000E+02  0.51100000000E-03 0. -1.
         23    2    1    2    0    0 -0.22204460493E-14  0.00000000000E+00  0.00000000000E+00  0.91188000000E+02  0.91188000000E+02 0.  0.
    9900012    2    3    3    0    0 -0.24497618514E+01  0.57464240909E+01 -0.36287120672E+02  0.54367111233E+02  0.40000061677E+02 0.  0.
        -12    1    3    3    0    0  0.24497618514E+01 -0.57464240909E+01  0.36287120672E+02  0.36820888767E+02  0.00000000000E+00 0.  1.
         11    1    4    4    0    0  0.12794531366E+02  0.82748005332E+01 -0.27410413155E+02  0.31360853087E+02  0.51100000000E-03 0. -1.
        -11    1    4    4    0    0 -0.91912171335E+01  0.49458793396E+00 -0.12348489778E+02  0.15401567767E+02  0.51100000000E-03 0.  1.
         12    1    4    4    0    0 -0.60530760838E+01 -0.30229643763E+01  0.34717822610E+01  0.76046903792E+01  0.00000000000E+00 0. -1.
</event>
<event>
 8    1  0.2484572E-006  0.9118800E+02  0.7816164E-02  0.1184000E+00
        -11   -1    0    0    0    0  0.00000000000E+00  0.00000000000E+00  0.45593999997E+02  0.45594000000E+02  0.51100000000E-03 0.  1.
         11   -1    0    0    0    0 -0.00000000000E+00 -0.00000000000E+00 -0.45593999997E+02  0.45594000000E+02  0.51100000000E-03 0. -1.
         23    2    1    2    0    0 -0.17763568394E-14 -0.71054273576E-14  0.00000000000E+00  0.91188000000E+02  0.91188000000E+02 0.  0.
    9900012    2    3    3    0    0  0.12386094435E+02 -0.31824032730E+02 -0.13768964093E+02  0.54367234571E+02  0.40000342850E+02 0.  0.
        -12    1    3    3    0    0 -0.12386094435E+02  0.31824032730E+02  0.13768964093E+02  0.36820765429E+02  0.00000000000E+00 0.  1.
         11    1    4    4    0    0  0.30905330806E+01 -0.21566005631E+02 -0.11096543744E+02  0.24449484185E+02  0.51100000000E-03 0. -1.
        -11    1    4    4    0    0  0.16503503634E+02 -0.13482954266E+02 -0.45723263944E+01  0.21795913765E+02  0.51100000000E-03 0.  1.
        -12    1    4    4    0    0 -0.72079422789E+01  0.32249271658E+01  0.18999060456E+01  0.81218366213E+01  0.00000000000E+00 0.  1.
</event>
<event>
 8    1  0.2484572E-006  0.9118800E+02  0.7816164E-02  0.1184000E+00
        -11   -1    0    0    0    0  0.00000000000E+00  0.00000000000E+00  0.45593999997E+02  0.45594000000E+02  0.51100000000E-03 0. -1.
         11   -1    0    0    0    0 -0.00000000000E+00 -0.00000000000E+00 -0.45593999997E+02  0.45594000000E+02  0.51100000000E-03 0.  1.
         23    2    1    2    0    0  0.00000000000E+00  0.71054273576E-14  0.00000000000E+00  0.91188000000E+02  0.91188000000E+02 0.  0.
    9900012    2    3    3    0    0  0.22062492961E+01 -0.34188017412E+02  0.13494121417E+02  0.54367090406E+02  0.40000014198E+02 0.  0.
        -12    1    3    3    0    0 -0.22062492961E+01  0.34188017412E+02 -0.13494121417E+02  0.36820909594E+02  0.00000000000E+00 0.  1.
         11    1    4    4    0    0  0.61837884700E+01 -0.27881526892E+02  0.16088585429E+02  0.32778977456E+02  0.51100000000E-03 0. -1.
        -11    1    4    4    0    0  0.74505033664E+01 -0.31033023477E+00  0.22721301893E+01  0.77954397648E+01  0.51100000000E-03 0.  1.
        -12    1    4    4    0    0 -0.11428042540E+02 -0.59961602854E+01 -0.48665942012E+01  0.13792673185E+02  0.00000000000E+00 0.  1.
</event>
<event>
 8    1  0.2484572E-006  0.9118800E+02  0.7816164E-02  0.1184000E+00
        -11   -1    0    0    0    0  0.00000000000E+00  0.00000000000E+00  0.45593999997E+02  0.45594000000E+02  0.51100000000E-03 0.  1.
         11   -1    0    0    0    0 -0.00000000000E+00 -0.00000000000E+00 -0.45593999997E+02  0.45594000000E+02  0.51100000000E-03 0. -1.
         23    2    1    2    0    0  0.17763568394E-14  0.00000000000E+00  0.00000000000E+00  0.91188000000E+02  0.91188000000E+02 0.  0.
    9900012    2    3    3    0    0 -0.10864162053E+02  0.91060015662E+01  0.33982758860E+02  0.54367120307E+02  0.40000082365E+02 0.  0.
         12    1    3    3    0    0  0.10864162053E+02 -0.91060015662E+01 -0.33982758860E+02  0.36820879693E+02  0.00000000000E+00 0. -1.
         11    1    4    4    0    0 -0.83001212464E+01  0.32784996637E+01 -0.45954972577E+01  0.10037886633E+02  0.51100000000E-03 0. -1.
        -11    1    4    4    0    0 -0.16707103535E+01  0.33692749811E+01 -0.15848465039E+01  0.40810569324E+01  0.51100000000E-03 0.  1.
        -12    1    4    4    0    0 -0.89333045287E+00  0.24582269214E+01  0.40163102621E+02  0.40248176742E+02  0.00000000000E+00 0.  1.
</event>
<event>
 8    1  0.2484572E-006  0.9118800E+02  0.7816164E-02  0.1184000E+00
        -11   -1    0    0    0    0  0.00000000000E+00  0.00000000000E+00  0.45593999997E+02  0.45594000000E+02  0.51100000000E-03 0.  1.
         11   -1    0    0    0    0 -0.00000000000E+00 -0.00000000000E+00 -0.45593999997E+02  0.45594000000E+02  0.51100000000E-03 0. -1.
         23    2    1    2    0    0  0.17763568394E-14  0.00000000000E+00  0.17763568394E-14  0.91188000000E+02  0.91188000000E+02 0.  0.
    9900012    2    3    3    0    0 -0.73853463044E+01 -0.33015633521E+02  0.14532865661E+02  0.54367087719E+02  0.40000008074E+02 0.  0.
        -12    1    3    3    0    0  0.73853463044E+01  0.33015633521E+02 -0.14532865661E+02  0.36820912281E+02  0.00000000000E+00 0.  1.
         11    1    4    4    0    0 -0.17296528108E+02 -0.18827089906E+02  0.13762446343E+02  0.29035050001E+02  0.51100000000E-03 0. -1.
        -11    1    4    4    0    0 -0.15296488556E+01  0.34930980076E+01 -0.16068640234E+01  0.41380637457E+01  0.51100000000E-03 0.  1.
         12    1    4    4    0    0  0.11440830660E+02 -0.17681641623E+02  0.23772833413E+01  0.21193973973E+02  0.00000000000E+00 0. -1.
</event>
<event>
 8    1  0.2484572E-006  0.9118800E+02  0.7816164E-02  0.1184000E+00
        -11   -1    0    0    0    0  0.00000000000E+00  0.00000000000E+00  0.45593999997E+02  0.45594000000E+02  0.51100000000E-03 0.  1.
         11   -1    0    0    0    0 -0.00000000000E+00 -0.00000000000E+00 -0.45593999997E+02  0.45594000000E+02  0.51100000000E-03 0. -1.
         23    2    1    2    0    0  0.00000000000E+00  0.00000000000E+00  0.00000000000E+00  0.91188000000E+02  0.91188000000E+02 0.  0.
    9900012    2    3    3    0    0  0.20106273179E+02  0.23164379682E+02 -0.20369808571E+02  0.54367084634E+02  0.40000001040E+02 0.  0.
        -12    1    3    3    0    0 -0.20106273179E+02 -0.23164379682E+02  0.20369808571E+02  0.36820915366E+02  0.00000000000E+00 0.  1.
         11    1    4    4    0    0  0.10761542658E+02  0.86143332362E+01 -0.19314621216E+02  0.23729140954E+02  0.51100000000E-03 0. -1.
        -11    1    4    4    0    0  0.37493488012E+01  0.20803204765E+02  0.29443150833E+01  0.21342444483E+02  0.51100000000E-03 0.  1.
         12    1    4    4    0    0  0.55953817199E+01 -0.62531583194E+01 -0.39995024387E+01  0.92954991967E+01  0.00000000000E+00 0. -1.
</event>
<event>
 8    1  0.2484572E-006  0.9118800E+02  0.7816164E-02  0.1184000E+00
        -11   -1    0    0    0    0  0.00000000000E+00  0.00000000000E+00  0.45593999997E+02  0.45594000000E+02  0.51100000000E-03 0. -1.
         11   -1    0    0    0    0 -0.00000000000E+00 -0.00000000000E+00 -0.45593999997E+02  0.45594000000E+02  0.51100000000E-03 0.  1.
         23    2    1    2    0    0  0.00000000000E+00  0.22204460493E-15  0.00000000000E+00  0.91188000000E+02  0.91188000000E+02 0.  0.
    9900012    2    3    3    0    0 -0.34913580783E+02 -0.18445790909E+01 -0.11550714096E+02  0.54367087583E+02  0.40000007763E+02 0.  0.
         12    1    3    3    0    0  0.34913580783E+02  0.18445790909E+01  0.11550714096E+02  0.36820912417E+02  0.00000000000E+00 0. -1.
         11    1    4    4    0    0 -0.28203787265E+01  0.38152288497E+01 -0.78332520897E+00  0.48087530588E+01  0.51100000000E-03 0. -1.
        -11    1    4    4    0    0 -0.11409275327E+02 -0.84282959044E+01 -0.21757439536E+02  0.25972945746E+02  0.51100000000E-03 0.  1.
        -12    1    4    4    0    0 -0.20683926729E+02  0.27684879637E+01  0.10990050649E+02  0.23585388778E+02  0.00000000000E+00 0.  1.
</event>
<event>
 8    1  0.2484572E-006  0.9118800E+02  0.7816164E-02  0.1184000E+00
        -11   -1    0    0    0    0  0.00000000000E+00  0.00000000000E+00  0.45593999997E+02  0.45594000000E+02  0.51100000000E-03 0.  1.
         11   -1    0    0    0    0 -0.00000000000E+00 -0.00000000000E+00 -0.45593999997E+02  0.45594000000E+02  0.51100000000E-03 0. -1.
         23    2    1    2    0    0  0.00000000000E+00  0.00000000000E+00  0.00000000000E+00  0.91188000000E+02  0.91188000000E+02 0.  0.
    9900012    2    3    3    0    0  0.23328055463E+02  0.23036800726E+02  0.16759681812E+02  0.54367091621E+02  0.40000016969E+02 0.  0.
         12    1    3    3    0    0 -0.23328055463E+02 -0.23036800726E+02 -0.16759681812E+02  0.36820908379E+02  0.00000000000E+00 0. -1.
         11    1    4    4    0    0  0.21585346880E+02  0.18638391016E+02  0.52254297690E+01  0.28993480925E+02  0.51100000000E-03 0. -1.
        -11    1    4    4    0    0  0.10984468850E+02  0.26349883068E+01  0.11277008772E+02  0.15961599117E+02  0.51100000000E-03 0.  1.
         12    1    4    4    0    0 -0.92417602667E+01  0.17634214029E+01  0.25724327189E+00  0.94120115795E+01  0.00000000000E+00 0. -1.
</event>
<event>
 8    1  0.2484572E-006  0.9118800E+02  0.7816164E-02  0.1184000E+00
        -11   -1    0    0    0    0  0.00000000000E+00  0.00000000000E+00  0.45593999997E+02  0.45594000000E+02  0.51100000000E-03 0. -1.
         11   -1    0    0    0    0 -0.00000000000E+00 -0.00000000000E+00 -0.45593999997E+02  0.45594000000E+02  0.51100000000E-03 0.  1.
         23    2    1    2    0    0  0.00000000000E+00  0.88817841970E-15 -0.17763568394E-14  0.91188000000E+02  0.91188000000E+02 0.  0.
    9900012    2    3    3    0    0 -0.33414337908E+02 -0.45980370835E+01  0.14768875706E+02  0.54367087294E+02  0.40000007105E+02 0.  0.
        -12    1    3    3    0    0  0.33414337908E+02  0.45980370835E+01 -0.14768875706E+02  0.36820912706E+02  0.00000000000E+00 0.  1.
         11    1    4    4    0    0 -0.11072960701E+02  0.10754645565E+02  0.45217064036E+01  0.16084734657E+02  0.51100000000E-03 0. -1.
        -11    1    4    4    0    0 -0.16983153537E+02 -0.79443682010E+01 -0.59601997316E+01  0.19673954135E+02  0.51100000000E-03 0.  1.
        -12    1    4    4    0    0 -0.53582236696E+01 -0.74083144472E+01  0.16207369034E+02  0.18608398503E+02  0.00000000000E+00 0.  1.
</event>
<event>
 8    1  0.2484572E-006  0.9118800E+02  0.7816164E-02  0.1184000E+00
        -11   -1    0    0    0    0  0.00000000000E+00  0.00000000000E+00  0.45593999997E+02  0.45594000000E+02  0.51100000000E-03 0.  1.
         11   -1    0    0    0    0 -0.00000000000E+00 -0.00000000000E+00 -0.45593999997E+02  0.45594000000E+02  0.51100000000E-03 0. -1.
         23    2    1    2    0    0 -0.17763568394E-14  0.88817841970E-15  0.00000000000E+00  0.91188000000E+02  0.91188000000E+02 0.  0.
    9900012    2    3    3    0    0  0.86673138210E+01  0.17888794040E+01  0.35741536814E+02  0.54367083767E+02  0.39999999063E+02 0.  0.
         12    1    3    3    0    0 -0.86673138210E+01 -0.17888794040E+01 -0.35741536814E+02  0.36820916233E+02  0.00000000000E+00 0. -1.
         11    1    4    4    0    0  0.22511276820E+02 -0.60043667844E+01  0.17047081009E+02  0.28868892874E+02  0.51100000000E-03 0. -1.
        -11    1    4    4    0    0 -0.82341819084E+01  0.44483387526E+01  0.57091309988E+01  0.10962830218E+02  0.51100000000E-03 0.  1.
         12    1    4    4    0    0 -0.56097810909E+01  0.33449074358E+01  0.12985324806E+02  0.14535360675E+02  0.00000000000E+00 0. -1.
</event>
<event>
 8    1  0.2484572E-006  0.9118800E+02  0.7816164E-02  0.1184000E+00
        -11   -1    0    0    0    0  0.00000000000E+00  0.00000000000E+00  0.45593999997E+02  0.45594000000E+02  0.51100000000E-03 0. -1.
         11   -1    0    0    0    0 -0.00000000000E+00 -0.00000000000E+00 -0.45593999997E+02  0.45594000000E+02  0.51100000000E-03 0.  1.
         23    2    1    2    0    0 -0.77715611724E-15  0.88817841970E-15  0.00000000000E+00  0.91188000000E+02  0.91188000000E+02 0.  0.
    9900012    2    3    3    0    0 -0.54289218116E+00  0.67264826088E+01 -0.36197239890E+02  0.54367075570E+02  0.39999980378E+02 0.  0.
         12    1    3    3    0    0  0.54289218116E+00 -0.67264826088E+01  0.36197239890E+02  0.36820924430E+02  0.00000000000E+00 0. -1.
         11    1    4    4    0    0 -0.71647369170E+01  0.26719836696E+01  0.32682675121E+01  0.83159199499E+01  0.51100000000E-03 0. -1.
        -11    1    4    4    0    0 -0.74073540625E+01  0.51317835579E+01 -0.10413556052E+02  0.13771210789E+02  0.51100000000E-03 0.  1.
         12    1    4    4    0    0  0.14029198798E+02 -0.10772846187E+01 -0.29051951350E+02  0.32279944832E+02  0.00000000000E+00 0. -1.
</event>
<event>
 8    1  0.2484572E-006  0.9118800E+02  0.7816164E-02  0.1184000E+00
        -11   -1    0    0    0    0  0.00000000000E+00  0.00000000000E+00  0.45593999997E+02  0.45594000000E+02  0.51100000000E-03 0. -1.
         11   -1    0    0    0    0 -0.00000000000E+00 -0.00000000000E+00 -0.45593999997E+02  0.45594000000E+02  0.51100000000E-03 0.  1.
         23    2    1    2    0    0  0.00000000000E+00  0.00000000000E+00  0.00000000000E+00  0.91188000000E+02  0.91188000000E+02 0.  0.
    9900012    2    3    3    0    0 -0.17919691168E+02  0.18334997136E+02 -0.26428997227E+02  0.54367090914E+02  0.40000015356E+02 0.  0.
         12    1    3    3    0    0  0.17919691168E+02 -0.18334997136E+02  0.26428997227E+02  0.36820909086E+02  0.00000000000E+00 0. -1.
         11    1    4    4    0    0 -0.20521336538E+02  0.24870771597E+02 -0.11693880783E+02  0.34299087176E+02  0.51100000000E-03 0. -1.
        -11    1    4    4    0    0 -0.17048788651E+01  0.36593672991E+00 -0.10963197377E+02  0.11101000794E+02  0.51100000000E-03 0.  1.
         12    1    4    4    0    0  0.43065242352E+01 -0.69017111906E+01 -0.37719190668E+01  0.89670029438E+01  0.00000000000E+00 0. -1.
</event>
<event>
 8    1  0.2484572E-006  0.9118800E+02  0.7816164E-02  0.1184000E+00
        -11   -1    0    0    0    0  0.00000000000E+00  0.00000000000E+00  0.45593999997E+02  0.45594000000E+02  0.51100000000E-03 0.  1.
         11   -1    0    0    0    0 -0.00000000000E+00 -0.00000000000E+00 -0.45593999997E+02  0.45594000000E+02  0.51100000000E-03 0. -1.
         23    2    1    2    0    0  0.00000000000E+00  0.35527136788E-14 -0.22204460493E-15  0.91188000000E+02  0.91188000000E+02 0.  0.
    9900012    2    3    3    0    0  0.31435483426E+02  0.19116130190E+02 -0.14708471812E+01  0.54367089594E+02  0.40000012349E+02 0.  0.
         12    1    3    3    0    0 -0.31435483426E+02 -0.19116130190E+02  0.14708471812E+01  0.36820910406E+02  0.00000000000E+00 0. -1.
         11    1    4    4    0    0 -0.98520609017E+00  0.43496410089E+01 -0.25888140777E+01  0.51567399136E+01  0.51100000000E-03 0.  1.
        -11    1    4    4    0    0  0.18038746358E+01 -0.92470302337E+01 -0.34485708335E+01  0.10032655326E+02  0.51100000000E-03 0. -1.
        -12    1    4    4    0    0  0.30616814880E+02  0.24013519414E+02  0.45665377299E+01  0.39177694354E+02  0.00000000000E+00 0.  1.
</event>
<event>
 8    1  0.2484572E-006  0.9118800E+02  0.7816164E-02  0.1184000E+00
        -11   -1    0    0    0    0  0.00000000000E+00  0.00000000000E+00  0.45593999997E+02  0.45594000000E+02  0.51100000000E-03 0.  1.
         11   -1    0    0    0    0 -0.00000000000E+00 -0.00000000000E+00 -0.45593999997E+02  0.45594000000E+02  0.51100000000E-03 0. -1.
         23    2    1    2    0    0  0.13322676296E-14  0.00000000000E+00 -0.35527136788E-14  0.91188000000E+02  0.91188000000E+02 0.  0.
    9900012    2    3    3    0    0 -0.29858838584E+01  0.27082052405E+02 -0.24767339644E+02  0.54367161092E+02  0.40000175340E+02 0.  0.
        -12    1    3    3    0    0  0.29858838584E+01 -0.27082052405E+02  0.24767339644E+02  0.36820838908E+02  0.00000000000E+00 0.  1.
         11    1    4    4    0    0  0.15084001507E+02  0.10878413285E+02 -0.17498360918E+02  0.25535457939E+02  0.51100000000E-03 0. -1.
        -11    1    4    4    0    0 -0.19453252419E+01 -0.24503167562E+01 -0.16719336538E+01  0.35473518160E+01  0.51100000000E-03 0.  1.
        -12    1    4    4    0    0 -0.16124560123E+02  0.18653955876E+02 -0.55970450714E+01  0.25284351337E+02  0.00000000000E+00 0.  1.
</event>
<event>
 8    1  0.2484572E-006  0.9118800E+02  0.7816164E-02  0.1184000E+00
        -11   -1    0    0    0    0  0.00000000000E+00  0.00000000000E+00  0.45593999997E+02  0.45594000000E+02  0.51100000000E-03 0.  1.
         11   -1    0    0    0    0 -0.00000000000E+00 -0.00000000000E+00 -0.45593999997E+02  0.45594000000E+02  0.51100000000E-03 0. -1.
         23    2    1    2    0    0  0.00000000000E+00  0.00000000000E+00  0.00000000000E+00  0.91188000000E+02  0.91188000000E+02 0.  0.
    9900012    2    3    3    0    0 -0.24223092526E+02  0.18415161710E+02  0.20734148179E+02  0.54367064473E+02  0.39999955080E+02 0.  0.
        -12    1    3    3    0    0  0.24223092526E+02 -0.18415161710E+02 -0.20734148179E+02  0.36820935527E+02  0.00000000000E+00 0.  1.
         11    1    4    4    0    0 -0.52126081528E+01  0.12409778230E+02  0.73545676775E+00  0.13480162328E+02  0.51100000000E-03 0. -1.
        -11    1    4    4    0    0  0.38309440585E+01 -0.79907957108E+01  0.45156830684E+01  0.99458706158E+01  0.51100000000E-03 0.  1.
        -12    1    4    4    0    0 -0.22841428432E+02  0.13996179191E+02  0.15483008343E+02  0.30941031530E+02  0.00000000000E+00 0.  1.
</event>
<event>
 8    1  0.2484572E-006  0.9118800E+02  0.7816164E-02  0.1184000E+00
        -11   -1    0    0    0    0  0.00000000000E+00  0.00000000000E+00  0.45593999997E+02  0.45594000000E+02  0.51100000000E-03 0.  1.
         11   -1    0    0    0    0 -0.00000000000E+00 -0.00000000000E+00 -0.45593999997E+02  0.45594000000E+02  0.51100000000E-03 0. -1.
         23    2    1    2    0    0  0.00000000000E+00  0.00000000000E+00  0.00000000000E+00  0.91188000000E+02  0.91188000000E+02 0.  0.
    9900012    2    3    3    0    0  0.22790420602E+02  0.19689161542E+02 -0.21182869183E+02  0.54367077955E+02  0.39999985813E+02 0.  0.
        -12    1    3    3    0    0 -0.22790420602E+02 -0.19689161542E+02  0.21182869183E+02  0.36820922045E+02  0.00000000000E+00 0.  1.
         11    1    4    4    0    0  0.18196032089E+02  0.35086519117E+01 -0.74185108636E+01  0.19960975069E+02  0.51100000000E-03 0. -1.
        -11    1    4    4    0    0 -0.27574021874E+01  0.21951254554E+02 -0.86718953740E+01  0.23762630598E+02  0.51100000000E-03 0.  1.
        -12    1    4    4    0    0  0.73517906999E+01 -0.57707449235E+01 -0.50924629455E+01  0.10643472287E+02  0.00000000000E+00 0.  1.
</event>
<event>
 8    1  0.2484572E-006  0.9118800E+02  0.7816164E-02  0.1184000E+00
        -11   -1    0    0    0    0  0.00000000000E+00  0.00000000000E+00  0.45593999997E+02  0.45594000000E+02  0.51100000000E-03 0.  1.
         11   -1    0    0    0    0 -0.00000000000E+00 -0.00000000000E+00 -0.45593999997E+02  0.45594000000E+02  0.51100000000E-03 0. -1.
         23    2    1    2    0    0  0.35527136788E-14 -0.10658141036E-13 -0.17763568394E-14  0.91188000000E+02  0.91188000000E+02 0.  0.
    9900012    2    3    3    0    0 -0.17771206900E+02  0.30922848421E+02  0.91509163160E+01  0.54367114370E+02  0.40000068829E+02 0.  0.
         12    1    3    3    0    0  0.17771206900E+02 -0.30922848421E+02 -0.91509163160E+01  0.36820885630E+02  0.00000000000E+00 0. -1.
         11    1    4    4    0    0  0.89423249758E+01 -0.13319936273E+01 -0.10924615611E+01  0.91067478015E+01  0.51100000000E-03 0. -1.
        -11    1    4    4    0    0 -0.51793752581E+01  0.74248580584E+01  0.83870340623E+01  0.12340858393E+02  0.51100000000E-03 0.  1.
         12    1    4    4    0    0 -0.21534156618E+02  0.24829983990E+02  0.18563438148E+01  0.32919508176E+02  0.00000000000E+00 0. -1.
</event>
<event>
 8    1  0.2484572E-006  0.9118800E+02  0.7816164E-02  0.1184000E+00
        -11   -1    0    0    0    0  0.00000000000E+00  0.00000000000E+00  0.45593999997E+02  0.45594000000E+02  0.51100000000E-03 0. -1.
         11   -1    0    0    0    0 -0.00000000000E+00 -0.00000000000E+00 -0.45593999997E+02  0.45594000000E+02  0.51100000000E-03 0.  1.
         23    2    1    2    0    0  0.35527136788E-14  0.00000000000E+00  0.35527136788E-14  0.91188000000E+02  0.91188000000E+02 0.  0.
    9900012    2    3    3    0    0 -0.18297671748E+02 -0.18066059903E+02 -0.26355123820E+02  0.54367083887E+02  0.39999999338E+02 0.  0.
         12    1    3    3    0    0  0.18297671748E+02  0.18066059903E+02  0.26355123820E+02  0.36820916113E+02  0.00000000000E+00 0. -1.
         11    1    4    4    0    0 -0.28907739588E+01 -0.46999455269E+01 -0.17343685980E+02  0.18200261142E+02  0.51100000000E-03 0. -1.
        -11    1    4    4    0    0 -0.18971033745E+02  0.21325950202E+01 -0.41407935329E+01  0.19534437648E+02  0.51100000000E-03 0.  1.
         12    1    4    4    0    0  0.35641359552E+01 -0.15498709396E+02 -0.48706443073E+01  0.16632385097E+02  0.00000000000E+00 0. -1.
</event>
<event>
 8    1  0.2484572E-006  0.9118800E+02  0.7816164E-02  0.1184000E+00
        -11   -1    0    0    0    0  0.00000000000E+00  0.00000000000E+00  0.45593999997E+02  0.45594000000E+02  0.51100000000E-03 0. -1.
         11   -1    0    0    0    0 -0.00000000000E+00 -0.00000000000E+00 -0.45593999997E+02  0.45594000000E+02  0.51100000000E-03 0.  1.
         23    2    1    2    0    0  0.17763568394E-14 -0.71054273576E-14  0.17763568394E-14  0.91188000000E+02  0.91188000000E+02 0.  0.
    9900012    2    3    3    0    0  0.11400696348E+02 -0.33633552518E+02 -0.97256357058E+01  0.54367085806E+02  0.40000003711E+02 0.  0.
        -12    1    3    3    0    0 -0.11400696348E+02  0.33633552518E+02  0.97256357058E+01  0.36820914194E+02  0.00000000000E+00 0.  1.
         11    1    4    4    0    0  0.14940706633E+02 -0.22489720692E+02 -0.20818808564E+02  0.34094501636E+02  0.51100000000E-03 0. -1.
        -11    1    4    4    0    0  0.26507009732E+01  0.87738242844E+00  0.43343504543E+01  0.51558325901E+01  0.51100000000E-03 0.  1.
         12    1    4    4    0    0 -0.61907112580E+01 -0.12021214255E+02  0.67588224040E+01  0.15116751580E+02  0.00000000000E+00 0. -1.
</event>
<event>
 8    1  0.2484572E-006  0.9118800E+02  0.7816164E-02  0.1184000E+00
        -11   -1    0    0    0    0  0.00000000000E+00  0.00000000000E+00  0.45593999997E+02  0.45594000000E+02  0.51100000000E-03 0. -1.
         11   -1    0    0    0    0 -0.00000000000E+00 -0.00000000000E+00 -0.45593999997E+02  0.45594000000E+02  0.51100000000E-03 0.  1.
         23    2    1    2    0    0 -0.22204460493E-15  0.00000000000E+00  0.00000000000E+00  0.91188000000E+02  0.91188000000E+02 0.  0.
    9900012    2    3    3    0    0  0.17487815861E+01  0.22906242819E+02  0.28775481387E+02  0.54367047729E+02  0.39999916907E+02 0.  0.
        -12    1    3    3    0    0 -0.17487815861E+01 -0.22906242819E+02 -0.28775481387E+02  0.36820952271E+02  0.00000000000E+00 0.  1.
         11    1    4    4    0    0 -0.65143718259E+01 -0.59798706963E+01  0.97047819434E+01  0.13129306404E+02  0.51100000000E-03 0. -1.
        -11    1    4    4    0    0  0.21230325364E+01  0.12411091398E+02  0.19997414898E+02  0.23631315234E+02  0.51100000000E-03 0.  1.
        -12    1    4    4    0    0  0.61401208756E+01  0.16475022117E+02 -0.92671545423E+00  0.17606426090E+02  0.00000000000E+00 0.  1.
</event>
<event>
 8    1  0.2484572E-006  0.9118800E+02  0.7816164E-02  0.1184000E+00
        -11   -1    0    0    0    0  0.00000000000E+00  0.00000000000E+00  0.45593999997E+02  0.45594000000E+02  0.51100000000E-03 0.  1.
         11   -1    0    0    0    0 -0.00000000000E+00 -0.00000000000E+00 -0.45593999997E+02  0.45594000000E+02  0.51100000000E-03 0. -1.
         23    2    1    2    0    0  0.71054273576E-14  0.35527136788E-14  0.00000000000E+00  0.91188000000E+02  0.91188000000E+02 0.  0.
    9900012    2    3    3    0    0  0.31039740953E+02  0.10730936274E+02  0.16648082855E+02  0.54367120400E+02  0.40000082576E+02 0.  0.
         12    1    3    3    0    0 -0.31039740953E+02 -0.10730936274E+02 -0.16648082855E+02  0.36820879600E+02  0.00000000000E+00 0. -1.
         11    1    4    4    0    0  0.66343127165E+01  0.60356832335E+01 -0.29915490078E+01  0.94547841352E+01  0.51100000000E-03 0. -1.
        -11    1    4    4    0    0  0.83196530824E+01 -0.10229883215E+02 -0.28507827779E+01  0.13490518920E+02  0.51100000000E-03 0.  1.
        -12    1    4    4    0    0  0.16085775155E+02  0.14925136256E+02  0.22490414641E+02  0.31421817345E+02  0.00000000000E+00 0.  1.
</event>
<event>
 8    1  0.2484572E-006  0.9118800E+02  0.7816164E-02  0.1184000E+00
        -11   -1    0    0    0    0  0.00000000000E+00  0.00000000000E+00  0.45593999997E+02  0.45594000000E+02  0.51100000000E-03 0.  1.
         11   -1    0    0    0    0 -0.00000000000E+00 -0.00000000000E+00 -0.45593999997E+02  0.45594000000E+02  0.51100000000E-03 0. -1.
         23    2    1    2    0    0  0.71054273576E-14 -0.17763568394E-14 -0.17763568394E-14  0.91188000000E+02  0.91188000000E+02 0.  0.
    9900012    2    3    3    0    0 -0.32286168590E+02  0.12284770513E+02  0.12746288529E+02  0.54367080130E+02  0.39999990773E+02 0.  0.
        -12    1    3    3    0    0  0.32286168590E+02 -0.12284770513E+02 -0.12746288529E+02  0.36820919870E+02  0.00000000000E+00 0.  1.
         11    1    4    4    0    0 -0.13523425202E+02  0.92226505015E+01  0.11119960613E+02  0.19788730019E+02  0.51100000000E-03 0. -1.
        -11    1    4    4    0    0  0.62838807001E+01 -0.32508593444E+01  0.48066817325E+01  0.85533287478E+01  0.51100000000E-03 0.  1.
         12    1    4    4    0    0 -0.25046624088E+02  0.63129793561E+01 -0.31803538163E+01  0.26025021363E+02  0.00000000000E+00 0. -1.
</event>
<event>
 8    1  0.2484572E-006  0.9118800E+02  0.7816164E-02  0.1184000E+00
        -11   -1    0    0    0    0  0.00000000000E+00  0.00000000000E+00  0.45593999997E+02  0.45594000000E+02  0.51100000000E-03 0.  1.
         11   -1    0    0    0    0 -0.00000000000E+00 -0.00000000000E+00 -0.45593999997E+02  0.45594000000E+02  0.51100000000E-03 0. -1.
         23    2    1    2    0    0  0.25535129566E-14  0.00000000000E+00  0.71054273576E-14  0.91188000000E+02  0.91188000000E+02 0.  0.
    9900012    2    3    3    0    0 -0.89537202133E+00  0.24050338443E+02 -0.27866816693E+02  0.54367082808E+02  0.39999996878E+02 0.  0.
         12    1    3    3    0    0  0.89537202133E+00 -0.24050338443E+02  0.27866816693E+02  0.36820917192E+02  0.00000000000E+00 0. -1.
         11    1    4    4    0    0  0.13274901433E+02 -0.79114630348E+00 -0.10031905358E+02  0.16657972443E+02  0.51100000000E-03 0. -1.
        -11    1    4    4    0    0  0.80391767667E+00  0.18213881347E+01  0.27455157860E+01  0.33914002360E+01  0.51100000000E-03 0.  1.
         12    1    4    4    0    0 -0.14974191131E+02  0.23020096611E+02 -0.20580427121E+02  0.34317710129E+02  0.00000000000E+00 0. -1.
</event>
<event>
 8    1  0.2484572E-006  0.9118800E+02  0.7816164E-02  0.1184000E+00
        -11   -1    0    0    0    0  0.00000000000E+00  0.00000000000E+00  0.45593999997E+02  0.45594000000E+02  0.51100000000E-03 0. -1.
         11   -1    0    0    0    0 -0.00000000000E+00 -0.00000000000E+00 -0.45593999997E+02  0.45594000000E+02  0.51100000000E-03 0.  1.
         23    2    1    2    0    0  0.00000000000E+00  0.00000000000E+00 -0.35527136788E-14  0.91188000000E+02  0.91188000000E+02 0.  0.
    9900012    2    3    3    0    0 -0.10944369983E+02 -0.27786234148E+02  0.21538937265E+02  0.54367083920E+02  0.39999999412E+02 0.  0.
        -12    1    3    3    0    0  0.10944369983E+02  0.27786234148E+02 -0.21538937265E+02  0.36820916080E+02  0.00000000000E+00 0.  1.
         11    1    4    4    0    0  0.72609922757E+01 -0.19350125707E+02  0.15920310648E+02  0.26088420134E+02  0.51100000000E-03 0. -1.
        -11    1    4    4    0    0 -0.30747113319E+01 -0.10880771194E+02 -0.14515891585E+01  0.11399655385E+02  0.51100000000E-03 0.  1.
        -12    1    4    4    0    0 -0.15130650927E+02  0.24446627533E+01  0.70702157755E+01  0.16879008400E+02  0.00000000000E+00 0.  1.
</event>
<event>
 8    1  0.2484572E-006  0.9118800E+02  0.7816164E-02  0.1184000E+00
        -11   -1    0    0    0    0  0.00000000000E+00  0.00000000000E+00  0.45593999997E+02  0.45594000000E+02  0.51100000000E-03 0.  1.
         11   -1    0    0    0    0 -0.00000000000E+00 -0.00000000000E+00 -0.45593999997E+02  0.45594000000E+02  0.51100000000E-03 0. -1.
         23    2    1    2    0    0  0.00000000000E+00  0.00000000000E+00  0.00000000000E+00  0.91188000000E+02  0.91188000000E+02 0.  0.
    9900012    2    3    3    0    0  0.18134009224E+02  0.24247454319E+02  0.20952306890E+02  0.54367075303E+02  0.39999979769E+02 0.  0.
         12    1    3    3    0    0 -0.18134009224E+02 -0.24247454319E+02 -0.20952306890E+02  0.36820924697E+02  0.00000000000E+00 0. -1.
         11    1    4    4    0    0  0.41327633327E+01  0.20808068936E+02 -0.91504261985E+00  0.21234235773E+02  0.51100000000E-03 0. -1.
        -11    1    4    4    0    0  0.16924469344E+02  0.85195796586E+01  0.17811330061E+02  0.26005083713E+02  0.51100000000E-03 0.  1.
        -12    1    4    4    0    0 -0.29232234522E+01 -0.50801942751E+01  0.40560194491E+01  0.71277558176E+01  0.00000000000E+00 0.  1.
</event>
<event>
 8    1  0.2484572E-006  0.9118800E+02  0.7816164E-02  0.1184000E+00
        -11   -1    0    0    0    0  0.00000000000E+00  0.00000000000E+00  0.45593999997E+02  0.45594000000E+02  0.51100000000E-03 0.  1.
         11   -1    0    0    0    0 -0.00000000000E+00 -0.00000000000E+00 -0.45593999997E+02  0.45594000000E+02  0.51100000000E-03 0. -1.
         23    2    1    2    0    0  0.00000000000E+00 -0.17763568394E-14  0.00000000000E+00  0.91188000000E+02  0.91188000000E+02 0.  0.
    9900012    2    3    3    0    0  0.32628335765E+02 -0.12289006096E+02 -0.11838656039E+02  0.54367058371E+02  0.39999941168E+02 0.  0.
        -12    1    3    3    0    0 -0.32628335765E+02  0.12289006096E+02  0.11838656039E+02  0.36820941629E+02  0.00000000000E+00 0.  1.
         11    1    4    4    0    0  0.15550728597E+02 -0.77491948757E+01 -0.39880780936E+01  0.17826383488E+02  0.51100000000E-03 0. -1.
        -11    1    4    4    0    0  0.22981388171E+02 -0.94874625750E+01 -0.12199999893E+02  0.27694695269E+02  0.51100000000E-03 0.  1.
        -12    1    4    4    0    0 -0.59037810032E+01  0.49476513546E+01  0.43494219470E+01  0.88459796141E+01  0.00000000000E+00 0.  1.
</event>
<event>
 8    1  0.2484572E-006  0.9118800E+02  0.7816164E-02  0.1184000E+00
        -11   -1    0    0    0    0  0.00000000000E+00  0.00000000000E+00  0.45593999997E+02  0.45594000000E+02  0.51100000000E-03 0. -1.
         11   -1    0    0    0    0 -0.00000000000E+00 -0.00000000000E+00 -0.45593999997E+02  0.45594000000E+02  0.51100000000E-03 0.  1.
         23    2    1    2    0    0 -0.71054273576E-14  0.35527136788E-14 -0.35527136788E-14  0.91188000000E+02  0.91188000000E+02 0.  0.
    9900012    2    3    3    0    0  0.17664378004E+02 -0.30059126405E+02  0.11840544802E+02  0.54367084317E+02  0.40000000318E+02 0.  0.
        -12    1    3    3    0    0 -0.17664378004E+02  0.30059126405E+02 -0.11840544802E+02  0.36820915683E+02  0.00000000000E+00 0.  1.
         11    1    4    4    0    0 -0.13982797607E+01  0.76818367952E+00 -0.70475172247E+00  0.17441237645E+01  0.51100000000E-03 0. -1.
        -11    1    4    4    0    0 -0.80339702420E+01 -0.21078888400E+00  0.82423422458E+01  0.11511964027E+02  0.51100000000E-03 0.  1.
         12    1    4    4    0    0  0.27096628007E+02 -0.30616521201E+02  0.43029542785E+01  0.41110996525E+02  0.00000000000E+00 0. -1.
</event>
<event>
 8    1  0.2484572E-006  0.9118800E+02  0.7816164E-02  0.1184000E+00
        -11   -1    0    0    0    0  0.00000000000E+00  0.00000000000E+00  0.45593999997E+02  0.45594000000E+02  0.51100000000E-03 0.  1.
         11   -1    0    0    0    0 -0.00000000000E+00 -0.00000000000E+00 -0.45593999997E+02  0.45594000000E+02  0.51100000000E-03 0. -1.
         23    2    1    2    0    0 -0.16653345369E-15 -0.35527136788E-14  0.00000000000E+00  0.91188000000E+02  0.91188000000E+02 0.  0.
    9900012    2    3    3    0    0  0.15701776437E+00 -0.20110996378E+02  0.30843072286E+02  0.54367191509E+02  0.40000244682E+02 0.  0.
         12    1    3    3    0    0 -0.15701776437E+00  0.20110996378E+02 -0.30843072286E+02  0.36820808491E+02  0.00000000000E+00 0. -1.
         11    1    4    4    0    0  0.51927377745E+01  0.79350313435E+01  0.17484536576E+02  0.19890657796E+02  0.51100000000E-03 0. -1.
        -11    1    4    4    0    0 -0.20000357602E+01 -0.19726226542E+02  0.15728833001E+02  0.25308503402E+02  0.51100000000E-03 0.  1.
         12    1    4    4    0    0 -0.30356842499E+01 -0.83198011802E+01 -0.23702972907E+01  0.91680303113E+01  0.00000000000E+00 0. -1.
</event>
<event>
 8    1  0.2484572E-006  0.9118800E+02  0.7816164E-02  0.1184000E+00
        -11   -1    0    0    0    0  0.00000000000E+00  0.00000000000E+00  0.45593999997E+02  0.45594000000E+02  0.51100000000E-03 0.  1.
         11   -1    0    0    0    0 -0.00000000000E+00 -0.00000000000E+00 -0.45593999997E+02  0.45594000000E+02  0.51100000000E-03 0. -1.
         23    2    1    2    0    0  0.00000000000E+00  0.00000000000E+00 -0.17763568394E-14  0.91188000000E+02  0.91188000000E+02 0.  0.
    9900012    2    3    3    0    0  0.10803273435E+02  0.31497667553E+02 -0.15715158781E+02  0.54367082118E+02  0.39999995305E+02 0.  0.
         12    1    3    3    0    0 -0.10803273435E+02 -0.31497667553E+02  0.15715158781E+02  0.36820917882E+02  0.00000000000E+00 0. -1.
         11    1    4    4    0    0 -0.15528723057E+00  0.19748953115E+02 -0.17764423265E+02  0.26563508757E+02  0.51100000000E-03 0. -1.
        -11    1    4    4    0    0  0.78814422939E+01  0.18508705928E+02  0.29107746341E+01  0.20326385242E+02  0.51100000000E-03 0.  1.
         12    1    4    4    0    0  0.30771183712E+01 -0.67599914913E+01 -0.86151014979E+00  0.74771881193E+01  0.00000000000E+00 0. -1.
</event>
<event>
 8    1  0.2484572E-006  0.9118800E+02  0.7816164E-02  0.1184000E+00
        -11   -1    0    0    0    0  0.00000000000E+00  0.00000000000E+00  0.45593999997E+02  0.45594000000E+02  0.51100000000E-03 0.  1.
         11   -1    0    0    0    0 -0.00000000000E+00 -0.00000000000E+00 -0.45593999997E+02  0.45594000000E+02  0.51100000000E-03 0. -1.
         23    2    1    2    0    0 -0.17763568394E-14  0.35527136788E-14  0.35527136788E-14  0.91188000000E+02  0.91188000000E+02 0.  0.
    9900012    2    3    3    0    0 -0.10760101098E+02 -0.22529941265E+02  0.27062932858E+02  0.54367077091E+02  0.39999983844E+02 0.  0.
         12    1    3    3    0    0  0.10760101098E+02  0.22529941265E+02 -0.27062932858E+02  0.36820922909E+02  0.00000000000E+00 0. -1.
         11    1    4    4    0    0  0.12904693234E+02 -0.16088702860E+02  0.55447183587E+01  0.21356998130E+02  0.51100000000E-03 0. -1.
        -11    1    4    4    0    0 -0.20299550025E+02 -0.64588721181E+01  0.20314974018E+02  0.29436150052E+02  0.51100000000E-03 0.  1.
         12    1    4    4    0    0 -0.33652443062E+01  0.17633713687E-01  0.12032404814E+01  0.35739289087E+01  0.00000000000E+00 0. -1.
</event>
<event>
 8    1  0.2484572E-006  0.9118800E+02  0.7816164E-02  0.1184000E+00
        -11   -1    0    0    0    0  0.00000000000E+00  0.00000000000E+00  0.45593999997E+02  0.45594000000E+02  0.51100000000E-03 0. -1.
         11   -1    0    0    0    0 -0.00000000000E+00 -0.00000000000E+00 -0.45593999997E+02  0.45594000000E+02  0.51100000000E-03 0.  1.
         23    2    1    2    0    0  0.17763568394E-14  0.00000000000E+00  0.00000000000E+00  0.91188000000E+02  0.91188000000E+02 0.  0.
    9900012    2    3    3    0    0  0.14287721886E+02  0.15665791851E+02 -0.30103562406E+02  0.54367075235E+02  0.39999979614E+02 0.  0.
         12    1    3    3    0    0 -0.14287721886E+02 -0.15665791851E+02  0.30103562406E+02  0.36820924765E+02  0.00000000000E+00 0. -1.
         11    1    4    4    0    0  0.63655674728E+01  0.65994353530E+01 -0.26618306988E+02  0.28153281574E+02  0.51100000000E-03 0. -1.
        -11    1    4    4    0    0  0.16268566792E+01  0.36353508113E+01 -0.12989371969E+02  0.13586251234E+02  0.51100000000E-03 0.  1.
         12    1    4    4    0    0  0.62952977340E+01  0.54310056868E+01  0.95041165512E+01  0.12627542427E+02  0.00000000000E+00 0. -1.
</event>
<event>
 8    1  0.2484572E-006  0.9118800E+02  0.7816164E-02  0.1184000E+00
        -11   -1    0    0    0    0  0.00000000000E+00  0.00000000000E+00  0.45593999997E+02  0.45594000000E+02  0.51100000000E-03 0.  1.
         11   -1    0    0    0    0 -0.00000000000E+00 -0.00000000000E+00 -0.45593999997E+02  0.45594000000E+02  0.51100000000E-03 0. -1.
         23    2    1    2    0    0  0.00000000000E+00  0.00000000000E+00  0.00000000000E+00  0.91188000000E+02  0.91188000000E+02 0.  0.
    9900012    2    3    3    0    0  0.23725764282E+02 -0.18125884396E+02  0.21548054495E+02  0.54367106089E+02  0.40000049951E+02 0.  0.
         12    1    3    3    0    0 -0.23725764282E+02  0.18125884396E+02 -0.21548054495E+02  0.36820893911E+02  0.00000000000E+00 0. -1.
         11    1    4    4    0    0 -0.41480995962E+01 -0.11456406748E+02  0.26458396376E+01  0.12468217735E+02  0.51100000000E-03 0. -1.
        -11    1    4    4    0    0  0.31864098927E+02 -0.34208908806E+01  0.17717859077E+02  0.36618927147E+02  0.51100000000E-03 0.  1.
        -12    1    4    4    0    0 -0.39902350490E+01 -0.32485867672E+01  0.11843557799E+01  0.52799612066E+01  0.00000000000E+00 0.  1.
</event>
<event>
 8    1  0.2484572E-006  0.9118800E+02  0.7816164E-02  0.1184000E+00
        -11   -1    0    0    0    0  0.00000000000E+00  0.00000000000E+00  0.45593999997E+02  0.45594000000E+02  0.51100000000E-03 0. -1.
         11   -1    0    0    0    0 -0.00000000000E+00 -0.00000000000E+00 -0.45593999997E+02  0.45594000000E+02  0.51100000000E-03 0.  1.
         23    2    1    2    0    0  0.00000000000E+00  0.15265566589E-14  0.00000000000E+00  0.91188000000E+02  0.91188000000E+02 0.  0.
    9900012    2    3    3    0    0  0.29896213005E+02 -0.67416338477E-01  0.21493969697E+02  0.54367097916E+02  0.40000031318E+02 0.  0.
        -12    1    3    3    0    0 -0.29896213005E+02  0.67416338477E-01 -0.21493969697E+02  0.36820902084E+02  0.00000000000E+00 0.  1.
         11    1    4    4    0    0  0.17249464124E+02  0.12984394862E+02 -0.70011354755E+00  0.21601589796E+02  0.51100000000E-03 0. -1.
        -11    1    4    4    0    0  0.50523302920E+01  0.33643331677E+00  0.14891527976E+02  0.15728853565E+02  0.51100000000E-03 0.  1.
         12    1    4    4    0    0  0.75944185892E+01 -0.13388244517E+02  0.73025552678E+01  0.17036654554E+02  0.00000000000E+00 0. -1.
</event>
<event>
 8    1  0.2484572E-006  0.9118800E+02  0.7816164E-02  0.1184000E+00
        -11   -1    0    0    0    0  0.00000000000E+00  0.00000000000E+00  0.45593999997E+02  0.45594000000E+02  0.51100000000E-03 0.  1.
         11   -1    0    0    0    0 -0.00000000000E+00 -0.00000000000E+00 -0.45593999997E+02  0.45594000000E+02  0.51100000000E-03 0. -1.
         23    2    1    2    0    0 -0.35527136788E-14  0.00000000000E+00  0.00000000000E+00  0.91188000000E+02  0.91188000000E+02 0.  0.
    9900012    2    3    3    0    0 -0.20409331051E+02 -0.26744474591E+02  0.14965623097E+02  0.54367114761E+02  0.40000069721E+02 0.  0.
         12    1    3    3    0    0  0.20409331051E+02  0.26744474591E+02 -0.14965623097E+02  0.36820885239E+02  0.00000000000E+00 0. -1.
         11    1    4    4    0    0  0.40304836876E+00  0.18230450096E+01 -0.73682181247E+01  0.76010906907E+01  0.51100000000E-03 0. -1.
        -11    1    4    4    0    0 -0.27449237256E+01 -0.25572166156E+00  0.10968352778E+02  0.11309498784E+02  0.51100000000E-03 0.  1.
        -12    1    4    4    0    0 -0.18067455694E+02 -0.28311797939E+02  0.11365488444E+02  0.35456525286E+02  0.00000000000E+00 0.  1.
</event>
<event>
 8    1  0.2484572E-006  0.9118800E+02  0.7816164E-02  0.1184000E+00
        -11   -1    0    0    0    0  0.00000000000E+00  0.00000000000E+00  0.45593999997E+02  0.45594000000E+02  0.51100000000E-03 0.  1.
         11   -1    0    0    0    0 -0.00000000000E+00 -0.00000000000E+00 -0.45593999997E+02  0.45594000000E+02  0.51100000000E-03 0. -1.
         23    2    1    2    0    0  0.00000000000E+00 -0.44408920985E-15 -0.71054273576E-14  0.91188000000E+02  0.91188000000E+02 0.  0.
    9900012    2    3    3    0    0  0.18218708188E+02  0.28354587578E+01 -0.31871905589E+02  0.54367088547E+02  0.40000009960E+02 0.  0.
        -12    1    3    3    0    0 -0.18218708188E+02 -0.28354587578E+01  0.31871905589E+02  0.36820911453E+02  0.00000000000E+00 0.  1.
         11    1    4    4    0    0  0.66205503576E-01  0.53857399000E+01 -0.21882645678E+02  0.22535766230E+02  0.51100000000E-03 0. -1.
        -11    1    4    4    0    0  0.13087655286E+02  0.40740984815E+01  0.50722622347E+01  0.14615500120E+02  0.51100000000E-03 0.  1.
         12    1    4    4    0    0  0.50648473984E+01 -0.66243796238E+01 -0.15061522145E+02  0.17215822197E+02  0.00000000000E+00 0. -1.
</event>
<event>
 8    1  0.2484572E-006  0.9118800E+02  0.7816164E-02  0.1184000E+00
        -11   -1    0    0    0    0  0.00000000000E+00  0.00000000000E+00  0.45593999997E+02  0.45594000000E+02  0.51100000000E-03 0.  1.
         11   -1    0    0    0    0 -0.00000000000E+00 -0.00000000000E+00 -0.45593999997E+02  0.45594000000E+02  0.51100000000E-03 0. -1.
         23    2    1    2    0    0 -0.35527136788E-14 -0.88817841970E-15  0.00000000000E+00  0.91188000000E+02  0.91188000000E+02 0.  0.
    9900012    2    3    3    0    0 -0.18164397143E+02 -0.48546011615E+01 -0.31658609410E+02  0.54367081682E+02  0.39999994310E+02 0.  0.
        -12    1    3    3    0    0  0.18164397143E+02  0.48546011615E+01  0.31658609410E+02  0.36820918318E+02  0.00000000000E+00 0.  1.
         11    1    4    4    0    0 -0.10867334012E+02  0.73672509471E+01  0.35928008766E+01  0.13611890150E+02  0.51100000000E-03 0. -1.
        -11    1    4    4    0    0  0.44070970517E+01 -0.19774050669E+01 -0.98317397807E+01  0.10954256825E+02  0.51100000000E-03 0.  1.
         12    1    4    4    0    0 -0.11704160183E+02 -0.10244447042E+02 -0.25419670506E+02  0.29800934707E+02  0.00000000000E+00 0. -1.
</event>
<event>
 8    1  0.2484572E-006  0.9118800E+02  0.7816164E-02  0.1184000E+00
        -11   -1    0    0    0    0  0.00000000000E+00  0.00000000000E+00  0.45593999997E+02  0.45594000000E+02  0.51100000000E-03 0.  1.
         11   -1    0    0    0    0 -0.00000000000E+00 -0.00000000000E+00 -0.45593999997E+02  0.45594000000E+02  0.51100000000E-03 0. -1.
         23    2    1    2    0    0  0.00000000000E+00  0.00000000000E+00  0.00000000000E+00  0.91188000000E+02  0.91188000000E+02 0.  0.
    9900012    2    3    3    0    0  0.32430670792E+02 -0.16029779666E+02 -0.68613318717E+01  0.54367080414E+02  0.39999991419E+02 0.  0.
        -12    1    3    3    0    0 -0.32430670792E+02  0.16029779666E+02  0.68613318717E+01  0.36820919586E+02  0.00000000000E+00 0.  1.
         11    1    4    4    0    0  0.13619260007E+02 -0.26066379367E+02 -0.11505021535E+02  0.31580150367E+02  0.51100000000E-03 0. -1.
        -11    1    4    4    0    0  0.54323440297E+01  0.31152788502E+01 -0.16276087163E+01  0.64702731291E+01  0.51100000000E-03 0.  1.
        -12    1    4    4    0    0  0.13379066756E+02  0.69213208517E+01  0.62712983793E+01  0.16316656917E+02  0.00000000000E+00 0.  1.
</event>
<event>
 8    1  0.2484572E-006  0.9118800E+02  0.7816164E-02  0.1184000E+00
        -11   -1    0    0    0    0  0.00000000000E+00  0.00000000000E+00  0.45593999997E+02  0.45594000000E+02  0.51100000000E-03 0. -1.
         11   -1    0    0    0    0 -0.00000000000E+00 -0.00000000000E+00 -0.45593999997E+02  0.45594000000E+02  0.51100000000E-03 0.  1.
         23    2    1    2    0    0 -0.35527136788E-14  0.00000000000E+00 -0.35527136788E-14  0.91188000000E+02  0.91188000000E+02 0.  0.
    9900012    2    3    3    0    0  0.29535647345E+02 -0.81796774047E+01  0.20408720521E+02  0.54367116525E+02  0.40000073742E+02 0.  0.
         12    1    3    3    0    0 -0.29535647345E+02  0.81796774047E+01 -0.20408720521E+02  0.36820883475E+02  0.00000000000E+00 0. -1.
         11    1    4    4    0    0 -0.22347946945E+01  0.11427108124E+02  0.31703105446E+01  0.12067475983E+02  0.51100000000E-03 0. -1.
        -11    1    4    4    0    0  0.87951056269E+01 -0.53354378074E+01  0.98951403704E+01  0.14273562372E+02  0.51100000000E-03 0.  1.
        -12    1    4    4    0    0  0.22975336413E+02 -0.14271347721E+02  0.73432696062E+01  0.28026078170E+02  0.00000000000E+00 0.  1.
</event>
<event>
 8    1  0.2484572E-006  0.9118800E+02  0.7816164E-02  0.1184000E+00
        -11   -1    0    0    0    0  0.00000000000E+00  0.00000000000E+00  0.45593999997E+02  0.45594000000E+02  0.51100000000E-03 0. -1.
         11   -1    0    0    0    0 -0.00000000000E+00 -0.00000000000E+00 -0.45593999997E+02  0.45594000000E+02  0.51100000000E-03 0.  1.
         23    2    1    2    0    0  0.00000000000E+00  0.16653345369E-15 -0.35527136788E-14  0.91188000000E+02  0.91188000000E+02 0.  0.
    9900012    2    3    3    0    0 -0.35604901697E+02 -0.19564559211E+00  0.93824739962E+01  0.54367107556E+02  0.40000053297E+02 0.  0.
        -12    1    3    3    0    0  0.35604901697E+02  0.19564559211E+00 -0.93824739962E+01  0.36820892444E+02  0.00000000000E+00 0.  1.
         11    1    4    4    0    0 -0.21630926913E+01 -0.63773839318E+01  0.55940054131E+01  0.87545926591E+01  0.51100000000E-03 0. -1.
        -11    1    4    4    0    0 -0.30118976363E+02 -0.59241034252E+00 -0.84032307794E+01  0.31274877697E+02  0.51100000000E-03 0.  1.
        -12    1    4    4    0    0 -0.33228326424E+01  0.67741486822E+01  0.12191699362E+02  0.14337637200E+02  0.00000000000E+00 0.  1.
</event>
<event>
 8    1  0.2484572E-006  0.9118800E+02  0.7816164E-02  0.1184000E+00
        -11   -1    0    0    0    0  0.00000000000E+00  0.00000000000E+00  0.45593999997E+02  0.45594000000E+02  0.51100000000E-03 0.  1.
         11   -1    0    0    0    0 -0.00000000000E+00 -0.00000000000E+00 -0.45593999997E+02  0.45594000000E+02  0.51100000000E-03 0. -1.
         23    2    1    2    0    0 -0.88817841970E-15  0.00000000000E+00  0.00000000000E+00  0.91188000000E+02  0.91188000000E+02 0.  0.
    9900012    2    3    3    0    0 -0.62805207859E+01 -0.32658250316E+02  0.15804237762E+02  0.54367079503E+02  0.39999989343E+02 0.  0.
         12    1    3    3    0    0  0.62805207859E+01  0.32658250316E+02 -0.15804237762E+02  0.36820920497E+02  0.00000000000E+00 0. -1.
         11    1    4    4    0    0 -0.24845449421E+01  0.24798228225E+01 -0.16313188812E+01  0.38708766906E+01  0.51100000000E-03 0. -1.
        -11    1    4    4    0    0 -0.17422019234E+02 -0.19462600557E+02  0.60593770258E+01  0.26814839638E+02  0.51100000000E-03 0.  1.
         12    1    4    4    0    0  0.13626043390E+02 -0.15675472581E+02  0.11376179617E+02  0.23681363174E+02  0.00000000000E+00 0. -1.
</event>
<event>
 8    1  0.2484572E-006  0.9118800E+02  0.7816164E-02  0.1184000E+00
        -11   -1    0    0    0    0  0.00000000000E+00  0.00000000000E+00  0.45593999997E+02  0.45594000000E+02  0.51100000000E-03 0.  1.
         11   -1    0    0    0    0 -0.00000000000E+00 -0.00000000000E+00 -0.45593999997E+02  0.45594000000E+02  0.51100000000E-03 0. -1.
         23    2    1    2    0    0 -0.88817841970E-15  0.00000000000E+00  0.00000000000E+00  0.91188000000E+02  0.91188000000E+02 0.  0.
    9900012    2    3    3    0    0 -0.41958433551E+01  0.13514120180E+02 -0.33993261594E+02  0.54367104037E+02  0.40000045274E+02 0.  0.
        -12    1    3    3    0    0  0.41958433551E+01 -0.13514120180E+02  0.33993261594E+02  0.36820895963E+02  0.00000000000E+00 0.  1.
         11    1    4    4    0    0 -0.50942228245E+01  0.13062143228E+02 -0.45855787068E+01  0.14751210941E+02  0.51100000000E-03 0. -1.
        -11    1    4    4    0    0  0.12691776557E+01 -0.99145103404E+01 -0.18428587956E+01  0.10163879968E+02  0.51100000000E-03 0.  1.
         12    1    4    4    0    0 -0.37079818634E+00  0.10366487293E+02 -0.27564824091E+02  0.29452013128E+02  0.00000000000E+00 0. -1.
</event>
<event>
 8    1  0.2484572E-006  0.9118800E+02  0.7816164E-02  0.1184000E+00
        -11   -1    0    0    0    0  0.00000000000E+00  0.00000000000E+00  0.45593999997E+02  0.45594000000E+02  0.51100000000E-03 0.  1.
         11   -1    0    0    0    0 -0.00000000000E+00 -0.00000000000E+00 -0.45593999997E+02  0.45594000000E+02  0.51100000000E-03 0. -1.
         23    2    1    2    0    0  0.17763568394E-14  0.00000000000E+00  0.00000000000E+00  0.91188000000E+02  0.91188000000E+02 0.  0.
    9900012    2    3    3    0    0  0.10654649987E+02  0.26334301122E+02  0.23425669497E+02  0.54367095974E+02  0.40000026891E+02 0.  0.
         12    1    3    3    0    0 -0.10654649987E+02 -0.26334301122E+02 -0.23425669497E+02  0.36820904026E+02  0.00000000000E+00 0. -1.
         11    1    4    4    0    0  0.10296942898E+02 -0.34645815558E+01  0.84394470624E+01  0.13756984604E+02  0.51100000000E-03 0.  1.
        -11    1    4    4    0    0 -0.13882884771E+01  0.37499123721E+01 -0.59335505883E+01  0.71551527265E+01  0.51100000000E-03 0. -1.
         12    1    4    4    0    0  0.17459955658E+01  0.26048970306E+02  0.20919773023E+02  0.33454958644E+02  0.00000000000E+00 0. -1.
</event>
<event>
 8    1  0.2484572E-006  0.9118800E+02  0.7816164E-02  0.1184000E+00
        -11   -1    0    0    0    0  0.00000000000E+00  0.00000000000E+00  0.45593999997E+02  0.45594000000E+02  0.51100000000E-03 0.  1.
         11   -1    0    0    0    0 -0.00000000000E+00 -0.00000000000E+00 -0.45593999997E+02  0.45594000000E+02  0.51100000000E-03 0. -1.
         23    2    1    2    0    0  0.00000000000E+00  0.00000000000E+00  0.00000000000E+00  0.91188000000E+02  0.91188000000E+02 0.  0.
    9900012    2    3    3    0    0  0.25737138005E+02 -0.74965160778E+01 -0.25242471330E+02  0.54367076806E+02  0.39999983196E+02 0.  0.
        -12    1    3    3    0    0 -0.25737138005E+02  0.74965160778E+01  0.25242471330E+02  0.36820923194E+02  0.00000000000E+00 0.  1.
         11    1    4    4    0    0  0.22004430171E+02 -0.73900659562E+01 -0.22634161022E+02  0.32420877031E+02  0.51100000000E-03 0. -1.
        -11    1    4    4    0    0 -0.78640220189E+01  0.40819944843E+01 -0.36276531077E+01  0.95742043332E+01  0.51100000000E-03 0.  1.
        -12    1    4    4    0    0  0.11596729852E+02 -0.41884446059E+01  0.10193427999E+01  0.12371995442E+02  0.00000000000E+00 0.  1.
</event>
<event>
 8    1  0.2484572E-006  0.9118800E+02  0.7816164E-02  0.1184000E+00
        -11   -1    0    0    0    0  0.00000000000E+00  0.00000000000E+00  0.45593999997E+02  0.45594000000E+02  0.51100000000E-03 0.  1.
         11   -1    0    0    0    0 -0.00000000000E+00 -0.00000000000E+00 -0.45593999997E+02  0.45594000000E+02  0.51100000000E-03 0. -1.
         23    2    1    2    0    0  0.35527136788E-14 -0.88817841970E-15  0.00000000000E+00  0.91188000000E+02  0.91188000000E+02 0.  0.
    9900012    2    3    3    0    0 -0.22092500964E+02 -0.32046282974E+01  0.29281939415E+02  0.54367079081E+02  0.39999988381E+02 0.  0.
         12    1    3    3    0    0  0.22092500964E+02  0.32046282974E+01 -0.29281939415E+02  0.36820920919E+02  0.00000000000E+00 0. -1.
         11    1    4    4    0    0  0.73328917999E+01  0.39957852574E+01  0.20193665230E+02  0.21852270309E+02  0.51100000000E-03 0. -1.
        -11    1    4    4    0    0 -0.93101990143E+01 -0.21634991633E+01  0.66316893378E+01  0.11633565148E+02  0.51100000000E-03 0.  1.
         12    1    4    4    0    0 -0.20115193750E+02 -0.50369143916E+01  0.24565848474E+01  0.20881243624E+02  0.00000000000E+00 0. -1.
</event>
<event>
 8    1  0.2484572E-006  0.9118800E+02  0.7816164E-02  0.1184000E+00
        -11   -1    0    0    0    0  0.00000000000E+00  0.00000000000E+00  0.45593999997E+02  0.45594000000E+02  0.51100000000E-03 0. -1.
         11   -1    0    0    0    0 -0.00000000000E+00 -0.00000000000E+00 -0.45593999997E+02  0.45594000000E+02  0.51100000000E-03 0.  1.
         23    2    1    2    0    0  0.35527136788E-14  0.00000000000E+00  0.00000000000E+00  0.91188000000E+02  0.91188000000E+02 0.  0.
    9900012    2    3    3    0    0  0.29958111736E+02  0.14140580699E+02 -0.16072828451E+02  0.54367078016E+02  0.39999985954E+02 0.  0.
         12    1    3    3    0    0 -0.29958111736E+02 -0.14140580699E+02  0.16072828451E+02  0.36820921984E+02  0.00000000000E+00 0. -1.
         11    1    4    4    0    0 -0.69637147755E+00  0.85855350168E+01  0.32742210841E+01  0.92150349282E+01  0.51100000000E-03 0. -1.
        -11    1    4    4    0    0  0.27277127355E+01  0.10457330601E+02 -0.11393709662E+02  0.15703910347E+02  0.51100000000E-03 0.  1.
        -12    1    4    4    0    0  0.27926770478E+02 -0.49022849191E+01 -0.79533398731E+01  0.29448132741E+02  0.00000000000E+00 0.  1.
</event>
<event>
 8    1  0.2484572E-006  0.9118800E+02  0.7816164E-02  0.1184000E+00
        -11   -1    0    0    0    0  0.00000000000E+00  0.00000000000E+00  0.45593999997E+02  0.45594000000E+02  0.51100000000E-03 0.  1.
         11   -1    0    0    0    0 -0.00000000000E+00 -0.00000000000E+00 -0.45593999997E+02  0.45594000000E+02  0.51100000000E-03 0. -1.
         23    2    1    2    0    0 -0.17763568394E-14  0.44408920985E-15  0.00000000000E+00  0.91188000000E+02  0.91188000000E+02 0.  0.
    9900012    2    3    3    0    0  0.14925897765E+02 -0.33854491304E+01  0.33489397909E+02  0.54367035018E+02  0.39999887930E+02 0.  0.
         12    1    3    3    0    0 -0.14925897765E+02  0.33854491304E+01 -0.33489397909E+02  0.36820964982E+02  0.00000000000E+00 0. -1.
         11    1    4    4    0    0  0.17728912040E+02 -0.38366290400E+01  0.18329482238E+02  0.25787670772E+02  0.51100000000E-03 0. -1.
        -11    1    4    4    0    0  0.30315354863E+00 -0.11044162479E+02  0.11890392622E+02  0.16231046297E+02  0.51100000000E-03 0.  1.
        -12    1    4    4    0    0 -0.31061678234E+01  0.11495342389E+02  0.32695230494E+01  0.12348317948E+02  0.00000000000E+00 0.  1.
</event>
<event>
 8    1  0.2484572E-006  0.9118800E+02  0.7816164E-02  0.1184000E+00
        -11   -1    0    0    0    0  0.00000000000E+00  0.00000000000E+00  0.45593999997E+02  0.45594000000E+02  0.51100000000E-03 0.  1.
         11   -1    0    0    0    0 -0.00000000000E+00 -0.00000000000E+00 -0.45593999997E+02  0.45594000000E+02  0.51100000000E-03 0. -1.
         23    2    1    2    0    0  0.00000000000E+00  0.00000000000E+00  0.00000000000E+00  0.91188000000E+02  0.91188000000E+02 0.  0.
    9900012    2    3    3    0    0  0.28285452328E+02  0.89029616444E+01 -0.21827751054E+02  0.54367078562E+02  0.39999987199E+02 0.  0.
        -12    1    3    3    0    0 -0.28285452328E+02 -0.89029616444E+01  0.21827751054E+02  0.36820921438E+02  0.00000000000E+00 0.  1.
         11    1    4    4    0    0  0.97331062407E+01  0.15198412461E+01 -0.26578353939E+02  0.28345231925E+02  0.51100000000E-03 0. -1.
        -11    1    4    4    0    0  0.43276987874E+01  0.10011228899E+02  0.37050150593E+01  0.11518715975E+02  0.51100000000E-03 0.  1.
        -12    1    4    4    0    0  0.14224647300E+02 -0.26281085006E+01  0.10455878263E+01  0.14503130662E+02  0.00000000000E+00 0.  1.
</event>
<event>
 8    1  0.2484572E-006  0.9118800E+02  0.7816164E-02  0.1184000E+00
        -11   -1    0    0    0    0  0.00000000000E+00  0.00000000000E+00  0.45593999997E+02  0.45594000000E+02  0.51100000000E-03 0.  1.
         11   -1    0    0    0    0 -0.00000000000E+00 -0.00000000000E+00 -0.45593999997E+02  0.45594000000E+02  0.51100000000E-03 0. -1.
         23    2    1    2    0    0 -0.71054273576E-14 -0.71054273576E-14  0.53290705182E-14  0.91188000000E+02  0.91188000000E+02 0.  0.
    9900012    2    3    3    0    0  0.26716666641E+02  0.19686307721E+02 -0.15951453270E+02  0.54367084075E+02  0.39999999766E+02 0.  0.
        -12    1    3    3    0    0 -0.26716666641E+02 -0.19686307721E+02  0.15951453270E+02  0.36820915925E+02  0.00000000000E+00 0.  1.
         11    1    4    4    0    0  0.80268183839E+01  0.40225969809E+01  0.29335849925E+01  0.94454762192E+01  0.51100000000E-03 0. -1.
        -11    1    4    4    0    0  0.27095704294E+02  0.17289582227E+02 -0.15853524829E+02  0.35839100080E+02  0.51100000000E-03 0.  1.
         12    1    4    4    0    0 -0.84058560370E+01 -0.16258714862E+01 -0.30315134330E+01  0.90825077759E+01  0.00000000000E+00 0. -1.
</event>
<event>
 8    1  0.2484572E-006  0.9118800E+02  0.7816164E-02  0.1184000E+00
        -11   -1    0    0    0    0  0.00000000000E+00  0.00000000000E+00  0.45593999997E+02  0.45594000000E+02  0.51100000000E-03 0.  1.
         11   -1    0    0    0    0 -0.00000000000E+00 -0.00000000000E+00 -0.45593999997E+02  0.45594000000E+02  0.51100000000E-03 0. -1.
         23    2    1    2    0    0  0.00000000000E+00  0.00000000000E+00  0.44408920985E-15  0.91188000000E+02  0.91188000000E+02 0.  0.
    9900012    2    3    3    0    0 -0.31429432902E+02 -0.18857490595E+02 -0.35164892126E+01  0.54367083384E+02  0.39999998189E+02 0.  0.
        -12    1    3    3    0    0  0.31429432902E+02  0.18857490595E+02  0.35164892126E+01  0.36820916616E+02  0.00000000000E+00 0.  1.
         11    1    4    4    0    0 -0.34233572771E+02 -0.19038457881E+02  0.26316323939E+01  0.39259723286E+02  0.51100000000E-03 0. -1.
        -11    1    4    4    0    0  0.67637394026E+01 -0.37276829766E+01 -0.15218585950E+01  0.78714576112E+01  0.51100000000E-03 0.  1.
         12    1    4    4    0    0 -0.39595995334E+01  0.39086502625E+01 -0.46262630115E+01  0.72359024863E+01  0.00000000000E+00 0. -1.
</event>
<event>
 8    1  0.2484572E-006  0.9118800E+02  0.7816164E-02  0.1184000E+00
        -11   -1    0    0    0    0  0.00000000000E+00  0.00000000000E+00  0.45593999997E+02  0.45594000000E+02  0.51100000000E-03 0.  1.
         11   -1    0    0    0    0 -0.00000000000E+00 -0.00000000000E+00 -0.45593999997E+02  0.45594000000E+02  0.51100000000E-03 0. -1.
         23    2    1    2    0    0  0.00000000000E+00 -0.35527136788E-14  0.35527136788E-14  0.91188000000E+02  0.91188000000E+02 0.  0.
    9900012    2    3    3    0    0  0.25106084813E+02 -0.20746067862E+02 -0.17177477688E+02  0.54367074345E+02  0.39999977584E+02 0.  0.
        -12    1    3    3    0    0 -0.25106084813E+02  0.20746067862E+02  0.17177477688E+02  0.36820925655E+02  0.00000000000E+00 0.  1.
         11    1    4    4    0    0  0.24296709774E+02 -0.56943613258E+01 -0.18630917070E+02  0.31142686587E+02  0.51100000000E-03 0. -1.
        -11    1    4    4    0    0  0.34821826084E+01 -0.74627217408E+01  0.89958545718E+01  0.12196032602E+02  0.51100000000E-03 0.  1.
         12    1    4    4    0    0 -0.26728075691E+01 -0.75889847955E+01 -0.75424151907E+01  0.11028355155E+02  0.00000000000E+00 0. -1.
</event>
<event>
 8    1  0.2484572E-006  0.9118800E+02  0.7816164E-02  0.1184000E+00
        -11   -1    0    0    0    0  0.00000000000E+00  0.00000000000E+00  0.45593999997E+02  0.45594000000E+02  0.51100000000E-03 0.  1.
         11   -1    0    0    0    0 -0.00000000000E+00 -0.00000000000E+00 -0.45593999997E+02  0.45594000000E+02  0.51100000000E-03 0. -1.
         23    2    1    2    0    0  0.88817841970E-15  0.00000000000E+00 -0.71054273576E-14  0.91188000000E+02  0.91188000000E+02 0.  0.
    9900012    2    3    3    0    0 -0.26191766738E+01  0.12421694509E+02  0.34563164788E+02  0.54367205045E+02  0.40000275541E+02 0.  0.
         12    1    3    3    0    0  0.26191766738E+01 -0.12421694509E+02 -0.34563164788E+02  0.36820794955E+02  0.00000000000E+00 0. -1.
         11    1    4    4    0    0 -0.53775120261E+00  0.84916154848E+01 -0.13979859850E+01  0.86227069400E+01  0.51100000000E-03 0. -1.
        -11    1    4    4    0    0 -0.10300654495E+02  0.83449544855E+01  0.33599731742E+02  0.36120405891E+02  0.51100000000E-03 0.  1.
         12    1    4    4    0    0  0.82192290241E+01 -0.44148754618E+01  0.23614190318E+01  0.96240922137E+01  0.00000000000E+00 0. -1.
</event>
<event>
 8    1  0.2484572E-006  0.9118800E+02  0.7816164E-02  0.1184000E+00
        -11   -1    0    0    0    0  0.00000000000E+00  0.00000000000E+00  0.45593999997E+02  0.45594000000E+02  0.51100000000E-03 0.  1.
         11   -1    0    0    0    0 -0.00000000000E+00 -0.00000000000E+00 -0.45593999997E+02  0.45594000000E+02  0.51100000000E-03 0. -1.
         23    2    1    2    0    0 -0.88817841970E-15 -0.71054273576E-14  0.17763568394E-14  0.91188000000E+02  0.91188000000E+02 0.  0.
    9900012    2    3    3    0    0  0.47972180501E+01  0.35573969424E+02 -0.82011919995E+01  0.54367079971E+02  0.39999990409E+02 0.  0.
        -12    1    3    3    0    0 -0.47972180501E+01 -0.35573969424E+02  0.82011919995E+01  0.36820920029E+02  0.00000000000E+00 0.  1.
         11    1    4    4    0    0  0.16744503435E+01  0.30521704665E+02 -0.18956373106E+02  0.35968351661E+02  0.51100000000E-03 0. -1.
        -11    1    4    4    0    0  0.74431640705E+01  0.56330006561E+01  0.35684818889E+01  0.99932702868E+01  0.51100000000E-03 0.  1.
        -12    1    4    4    0    0 -0.43203963640E+01 -0.58073589718E+00  0.71866992179E+01  0.84054580228E+01  0.00000000000E+00 0.  1.
</event>
<event>
 8    1  0.2484572E-006  0.9118800E+02  0.7816164E-02  0.1184000E+00
        -11   -1    0    0    0    0  0.00000000000E+00  0.00000000000E+00  0.45593999997E+02  0.45594000000E+02  0.51100000000E-03 0. -1.
         11   -1    0    0    0    0 -0.00000000000E+00 -0.00000000000E+00 -0.45593999997E+02  0.45594000000E+02  0.51100000000E-03 0.  1.
         23    2    1    2    0    0  0.00000000000E+00  0.35527136788E-14 -0.31918911958E-15  0.91188000000E+02  0.91188000000E+02 0.  0.
    9900012    2    3    3    0    0 -0.29621675023E+02  0.21870683195E+02  0.96729634761E-01  0.54367085139E+02  0.40000002192E+02 0.  0.
         12    1    3    3    0    0  0.29621675023E+02 -0.21870683195E+02 -0.96729634761E-01  0.36820914861E+02  0.00000000000E+00 0. -1.
         11    1    4    4    0    0 -0.27375259304E+01  0.18321206475E+00 -0.82039092904E+01  0.86505342486E+01  0.51100000000E-03 0. -1.
        -11    1    4    4    0    0 -0.14958727779E+02  0.27698924642E+02  0.42808142900E+01  0.31769786501E+02  0.51100000000E-03 0.  1.
        -12    1    4    4    0    0 -0.11925421313E+02 -0.60114535122E+01  0.40198246351E+01  0.13946764389E+02  0.00000000000E+00 0.  1.
</event>
<event>
 8    1  0.2484572E-006  0.9118800E+02  0.7816164E-02  0.1184000E+00
        -11   -1    0    0    0    0  0.00000000000E+00  0.00000000000E+00  0.45593999997E+02  0.45594000000E+02  0.51100000000E-03 0. -1.
         11   -1    0    0    0    0 -0.00000000000E+00 -0.00000000000E+00 -0.45593999997E+02  0.45594000000E+02  0.51100000000E-03 0.  1.
         23    2    1    2    0    0  0.00000000000E+00  0.00000000000E+00  0.35527136788E-14  0.91188000000E+02  0.91188000000E+02 0.  0.
    9900012    2    3    3    0    0  0.33303537309E+02  0.92619870695E+01 -0.12683444934E+02  0.54367085058E+02  0.40000002006E+02 0.  0.
         12    1    3    3    0    0 -0.33303537309E+02 -0.92619870695E+01  0.12683444934E+02  0.36820914942E+02  0.00000000000E+00 0. -1.
         11    1    4    4    0    0  0.22566653896E+02  0.95698863634E+01  0.10642088654E+02  0.26722474516E+02  0.51100000000E-03 0. -1.
        -11    1    4    4    0    0 -0.10673676897E+01 -0.25653103240E+01 -0.52191701619E+01  0.59126836787E+01  0.51100000000E-03 0.  1.
         12    1    4    4    0    0  0.11804251103E+02  0.22574110302E+01 -0.18106363426E+02  0.21731926863E+02  0.00000000000E+00 0. -1.
</event>
<event>
 8    1  0.2484572E-006  0.9118800E+02  0.7816164E-02  0.1184000E+00
        -11   -1    0    0    0    0  0.00000000000E+00  0.00000000000E+00  0.45593999997E+02  0.45594000000E+02  0.51100000000E-03 0.  1.
         11   -1    0    0    0    0 -0.00000000000E+00 -0.00000000000E+00 -0.45593999997E+02  0.45594000000E+02  0.51100000000E-03 0. -1.
         23    2    1    2    0    0  0.00000000000E+00  0.00000000000E+00  0.00000000000E+00  0.91188000000E+02  0.91188000000E+02 0.  0.
    9900012    2    3    3    0    0 -0.10986405325E+02 -0.29140411881E+02 -0.19644754734E+02  0.54367067162E+02  0.39999961209E+02 0.  0.
        -12    1    3    3    0    0  0.10986405325E+02  0.29140411881E+02  0.19644754734E+02  0.36820932838E+02  0.00000000000E+00 0.  1.
         11    1    4    4    0    0 -0.51055101737E+01 -0.29974360555E+02 -0.23361405700E+02  0.38344279904E+02  0.51100000000E-03 0. -1.
        -11    1    4    4    0    0 -0.94726275565E+01 -0.11701329770E+01  0.60436336896E+01  0.11297140897E+02  0.51100000000E-03 0.  1.
         12    1    4    4    0    0  0.35917324055E+01  0.20040816510E+01 -0.23269827237E+01  0.47256463614E+01  0.00000000000E+00 0. -1.
</event>
<event>
 8    1  0.2484572E-006  0.9118800E+02  0.7816164E-02  0.1184000E+00
        -11   -1    0    0    0    0  0.00000000000E+00  0.00000000000E+00  0.45593999997E+02  0.45594000000E+02  0.51100000000E-03 0. -1.
         11   -1    0    0    0    0 -0.00000000000E+00 -0.00000000000E+00 -0.45593999997E+02  0.45594000000E+02  0.51100000000E-03 0.  1.
         23    2    1    2    0    0  0.17763568394E-14  0.00000000000E+00 -0.35527136788E-14  0.91188000000E+02  0.91188000000E+02 0.  0.
    9900012    2    3    3    0    0  0.15912396241E+02 -0.27078262451E+02 -0.19218303819E+02  0.54367084026E+02  0.39999999655E+02 0.  0.
         12    1    3    3    0    0 -0.15912396241E+02  0.27078262451E+02  0.19218303819E+02  0.36820915974E+02  0.00000000000E+00 0. -1.
         11    1    4    4    0    0  0.66492899935E+01 -0.34603279144E+01 -0.40547107860E+01  0.85221832010E+01  0.51100000000E-03 0.  1.
        -11    1    4    4    0    0  0.62113137574E+01 -0.15289742518E+02  0.99090759561E+01  0.19249582630E+02  0.51100000000E-03 0. -1.
         12    1    4    4    0    0  0.30517924899E+01 -0.83281920186E+01 -0.25072668989E+02  0.26595318196E+02  0.00000000000E+00 0. -1.
</event>
<event>
 8    1  0.2484572E-006  0.9118800E+02  0.7816164E-02  0.1184000E+00
        -11   -1    0    0    0    0  0.00000000000E+00  0.00000000000E+00  0.45593999997E+02  0.45594000000E+02  0.51100000000E-03 0. -1.
         11   -1    0    0    0    0 -0.00000000000E+00 -0.00000000000E+00 -0.45593999997E+02  0.45594000000E+02  0.51100000000E-03 0.  1.
         23    2    1    2    0    0  0.44408920985E-14  0.00000000000E+00  0.00000000000E+00  0.91188000000E+02  0.91188000000E+02 0.  0.
    9900012    2    3    3    0    0  0.49217456494E+01  0.21022397783E+02  0.29826462850E+02  0.54367045708E+02  0.39999912302E+02 0.  0.
        -12    1    3    3    0    0 -0.49217456494E+01 -0.21022397783E+02 -0.29826462850E+02  0.36820954292E+02  0.00000000000E+00 0.  1.
         11    1    4    4    0    0  0.83028382587E+01  0.13186970269E+02  0.83607338952E+01  0.17684320161E+02  0.51100000000E-03 0. -1.
        -11    1    4    4    0    0 -0.12144794078E+02  0.47321938683E+00  0.22097664926E+02  0.25219570877E+02  0.51100000000E-03 0.  1.
        -12    1    4    4    0    0  0.87637014685E+01  0.73622081267E+01 -0.63193597052E+00  0.11463154671E+02  0.00000000000E+00 0.  1.
</event>
<event>
 8    1  0.2484572E-006  0.9118800E+02  0.7816164E-02  0.1184000E+00
        -11   -1    0    0    0    0  0.00000000000E+00  0.00000000000E+00  0.45593999997E+02  0.45594000000E+02  0.51100000000E-03 0.  1.
         11   -1    0    0    0    0 -0.00000000000E+00 -0.00000000000E+00 -0.45593999997E+02  0.45594000000E+02  0.51100000000E-03 0. -1.
         23    2    1    2    0    0  0.88817841970E-15 -0.71054273576E-14  0.00000000000E+00  0.91188000000E+02  0.91188000000E+02 0.  0.
    9900012    2    3    3    0    0  0.27150249603E+01 -0.35505495261E+02 -0.93684387236E+01  0.54367092917E+02  0.40000019924E+02 0.  0.
         12    1    3    3    0    0 -0.27150249603E+01  0.35505495261E+02  0.93684387236E+01  0.36820907083E+02  0.00000000000E+00 0. -1.
         11    1    4    4    0    0  0.12665581619E+02 -0.13723326281E+02  0.38247252659E+01  0.19062401884E+02  0.51100000000E-03 0. -1.
        -11    1    4    4    0    0  0.57588556631E+01 -0.11452586030E+01  0.64689623526E+00  0.59071575920E+01  0.51100000000E-03 0.  1.
         12    1    4    4    0    0 -0.15709412322E+02 -0.20636910377E+02 -0.13840060225E+02  0.29397533442E+02  0.00000000000E+00 0. -1.
</event>
<event>
 8    1  0.2484572E-006  0.9118800E+02  0.7816164E-02  0.1184000E+00
        -11   -1    0    0    0    0  0.00000000000E+00  0.00000000000E+00  0.45593999997E+02  0.45594000000E+02  0.51100000000E-03 0. -1.
         11   -1    0    0    0    0 -0.00000000000E+00 -0.00000000000E+00 -0.45593999997E+02  0.45594000000E+02  0.51100000000E-03 0.  1.
         23    2    1    2    0    0  0.00000000000E+00  0.00000000000E+00  0.00000000000E+00  0.91188000000E+02  0.91188000000E+02 0.  0.
    9900012    2    3    3    0    0  0.89827580174E+01 -0.20079478468E+02 -0.29528016400E+02  0.54367093579E+02  0.40000021433E+02 0.  0.
         12    1    3    3    0    0 -0.89827580174E+01  0.20079478468E+02  0.29528016400E+02  0.36820906421E+02  0.00000000000E+00 0. -1.
         11    1    4    4    0    0  0.20520747879E+02 -0.18967238776E+02 -0.24514158648E+02  0.37172586873E+02  0.51100000000E-03 0. -1.
        -11    1    4    4    0    0  0.17171596294E+01 -0.83197936279E-01 -0.33895633899E+01  0.38006182819E+01  0.51100000000E-03 0.  1.
         12    1    4    4    0    0 -0.13255149491E+02 -0.10290417552E+01 -0.16242943618E+01  0.13393888425E+02  0.00000000000E+00 0. -1.
</event>
<event>
 8    1  0.2484572E-006  0.9118800E+02  0.7816164E-02  0.1184000E+00
        -11   -1    0    0    0    0  0.00000000000E+00  0.00000000000E+00  0.45593999997E+02  0.45594000000E+02  0.51100000000E-03 0. -1.
         11   -1    0    0    0    0 -0.00000000000E+00 -0.00000000000E+00 -0.45593999997E+02  0.45594000000E+02  0.51100000000E-03 0.  1.
         23    2    1    2    0    0  0.17763568394E-14  0.44408920985E-15 -0.71054273576E-14  0.91188000000E+02  0.91188000000E+02 0.  0.
    9900012    2    3    3    0    0  0.14751945092E+02 -0.38052733531E+01  0.33521335114E+02  0.54367083429E+02  0.39999998293E+02 0.  0.
        -12    1    3    3    0    0 -0.14751945092E+02  0.38052733531E+01 -0.33521335114E+02  0.36820916571E+02  0.00000000000E+00 0.  1.
         11    1    4    4    0    0 -0.14037350134E+01  0.11245159098E+02  0.42483244525E+01  0.12102575595E+02  0.51100000000E-03 0. -1.
        -11    1    4    4    0    0  0.20986762366E+02 -0.95526146283E+01  0.23690868417E+02  0.33059853107E+02  0.51100000000E-03 0.  1.
        -12    1    4    4    0    0 -0.48310822598E+01 -0.54978178225E+01  0.55821422440E+01  0.92046547269E+01  0.00000000000E+00 0.  1.
</event>
<event>
 8    1  0.2484572E-006  0.9118800E+02  0.7816164E-02  0.1184000E+00
        -11   -1    0    0    0    0  0.00000000000E+00  0.00000000000E+00  0.45593999997E+02  0.45594000000E+02  0.51100000000E-03 0. -1.
         11   -1    0    0    0    0 -0.00000000000E+00 -0.00000000000E+00 -0.45593999997E+02  0.45594000000E+02  0.51100000000E-03 0.  1.
         23    2    1    2    0    0  0.17763568394E-14  0.00000000000E+00  0.00000000000E+00  0.91188000000E+02  0.91188000000E+02 0.  0.
    9900012    2    3    3    0    0 -0.85426335995E+01  0.25844120220E+02 -0.24796867242E+02  0.54367085240E+02  0.40000002421E+02 0.  0.
         12    1    3    3    0    0  0.85426335995E+01 -0.25844120220E+02  0.24796867242E+02  0.36820914760E+02  0.00000000000E+00 0. -1.
         11    1    4    4    0    0 -0.20839167071E+02  0.25683895805E+02 -0.13774241686E+02  0.35828244755E+02  0.51100000000E-03 0. -1.
        -11    1    4    4    0    0  0.27895453158E+01  0.31472516614E+01 -0.61388552051E+01  0.74412565860E+01  0.51100000000E-03 0.  1.
         12    1    4    4    0    0  0.95069881559E+01 -0.29870272456E+01 -0.48837703503E+01  0.11097583899E+02  0.00000000000E+00 0. -1.
</event>
<event>
 8    1  0.2484572E-006  0.9118800E+02  0.7816164E-02  0.1184000E+00
        -11   -1    0    0    0    0  0.00000000000E+00  0.00000000000E+00  0.45593999997E+02  0.45594000000E+02  0.51100000000E-03 0. -1.
         11   -1    0    0    0    0 -0.00000000000E+00 -0.00000000000E+00 -0.45593999997E+02  0.45594000000E+02  0.51100000000E-03 0.  1.
         23    2    1    2    0    0  0.44408920985E-15  0.00000000000E+00  0.35527136788E-14  0.91188000000E+02  0.91188000000E+02 0.  0.
    9900012    2    3    3    0    0  0.33699980619E+01  0.27183073843E+02  0.24606867393E+02  0.54367159252E+02  0.40000171147E+02 0.  0.
        -12    1    3    3    0    0 -0.33699980619E+01 -0.27183073843E+02 -0.24606867393E+02  0.36820840748E+02  0.00000000000E+00 0.  1.
         11    1    4    4    0    0  0.11376621255E+02  0.11932465329E+01  0.49801759386E+01  0.12476117229E+02  0.51100000000E-03 0. -1.
        -11    1    4    4    0    0  0.59272046662E+01  0.16221090778E+02  0.17759167273E+02  0.24771830043E+02  0.51100000000E-03 0.  1.
         12    1    4    4    0    0 -0.13933827859E+02  0.97687365328E+01  0.18675241808E+01  0.17119211980E+02  0.00000000000E+00 0. -1.
</event>
<event>
 8    1  0.2484572E-006  0.9118800E+02  0.7816164E-02  0.1184000E+00
        -11   -1    0    0    0    0  0.00000000000E+00  0.00000000000E+00  0.45593999997E+02  0.45594000000E+02  0.51100000000E-03 0.  1.
         11   -1    0    0    0    0 -0.00000000000E+00 -0.00000000000E+00 -0.45593999997E+02  0.45594000000E+02  0.51100000000E-03 0. -1.
         23    2    1    2    0    0  0.00000000000E+00 -0.88817841970E-15  0.00000000000E+00  0.91188000000E+02  0.91188000000E+02 0.  0.
    9900012    2    3    3    0    0 -0.24663466939E+02  0.57535967124E+01 -0.26728074174E+02  0.54367076253E+02  0.39999981934E+02 0.  0.
        -12    1    3    3    0    0  0.24663466939E+02 -0.57535967124E+01  0.26728074174E+02  0.36820923747E+02  0.00000000000E+00 0.  1.
         11    1    4    4    0    0 -0.11491933428E+02  0.15348380495E+02 -0.20245167300E+02  0.27883760812E+02  0.51100000000E-03 0. -1.
        -11    1    4    4    0    0 -0.68401867425E+00 -0.12660436561E+02 -0.18363252251E+01  0.12811191438E+02  0.51100000000E-03 0.  1.
         12    1    4    4    0    0 -0.12487514836E+02  0.30656527781E+01 -0.46465816488E+01  0.13672124003E+02  0.00000000000E+00 0. -1.
</event>
<event>
 8    1  0.2484572E-006  0.9118800E+02  0.7816164E-02  0.1184000E+00
        -11   -1    0    0    0    0  0.00000000000E+00  0.00000000000E+00  0.45593999997E+02  0.45594000000E+02  0.51100000000E-03 0.  1.
         11   -1    0    0    0    0 -0.00000000000E+00 -0.00000000000E+00 -0.45593999997E+02  0.45594000000E+02  0.51100000000E-03 0. -1.
         23    2    1    2    0    0  0.17763568394E-14 -0.88817841970E-15  0.71054273576E-14  0.91188000000E+02  0.91188000000E+02 0.  0.
    9900012    2    3    3    0    0 -0.10489322897E+02  0.45054903973E+01 -0.35006487882E+02  0.54367088382E+02  0.40000009585E+02 0.  0.
        -12    1    3    3    0    0  0.10489322897E+02 -0.45054903973E+01  0.35006487882E+02  0.36820911618E+02  0.00000000000E+00 0.  1.
         11    1    4    4    0    0 -0.64398539639E+01  0.14992177097E+02 -0.18779569795E+02  0.24877888478E+02  0.51100000000E-03 0. -1.
        -11    1    4    4    0    0  0.56550582858E+01  0.36366349442E+01 -0.14871635667E+01  0.68859606206E+01  0.51100000000E-03 0.  1.
        -12    1    4    4    0    0 -0.97045272189E+01 -0.14123321644E+02 -0.14739754520E+02  0.22603239283E+02  0.00000000000E+00 0.  1.
</event>
<event>
 8    1  0.2484572E-006  0.9118800E+02  0.7816164E-02  0.1184000E+00
        -11   -1    0    0    0    0  0.00000000000E+00  0.00000000000E+00  0.45593999997E+02  0.45594000000E+02  0.51100000000E-03 0. -1.
         11   -1    0    0    0    0 -0.00000000000E+00 -0.00000000000E+00 -0.45593999997E+02  0.45594000000E+02  0.51100000000E-03 0.  1.
         23    2    1    2    0    0  0.35527136788E-14  0.35527136788E-14  0.00000000000E+00  0.91188000000E+02  0.91188000000E+02 0.  0.
    9900012    2    3    3    0    0 -0.18151779156E+02  0.31908742477E+02  0.28506590407E+01  0.54367065873E+02  0.39999958271E+02 0.  0.
        -12    1    3    3    0    0  0.18151779156E+02 -0.31908742477E+02 -0.28506590407E+01  0.36820934127E+02  0.00000000000E+00 0.  1.
         11    1    4    4    0    0 -0.55144253825E+00  0.13993519491E+02 -0.51470629055E+01  0.14920285970E+02  0.51100000000E-03 0. -1.
        -11    1    4    4    0    0 -0.22108294532E+02  0.18313470789E+02 -0.16861318261E+01  0.28757658810E+02  0.51100000000E-03 0.  1.
        -12    1    4    4    0    0  0.45079579136E+01 -0.39824780296E+00  0.96838537723E+01  0.10689121093E+02  0.00000000000E+00 0.  1.
</event>
<event>
 8    1  0.2484572E-006  0.9118800E+02  0.7816164E-02  0.1184000E+00
        -11   -1    0    0    0    0  0.00000000000E+00  0.00000000000E+00  0.45593999997E+02  0.45594000000E+02  0.51100000000E-03 0.  1.
         11   -1    0    0    0    0 -0.00000000000E+00 -0.00000000000E+00 -0.45593999997E+02  0.45594000000E+02  0.51100000000E-03 0. -1.
         23    2    1    2    0    0  0.00000000000E+00 -0.35527136788E-14 -0.88817841970E-15  0.91188000000E+02  0.91188000000E+02 0.  0.
    9900012    2    3    3    0    0  0.20836795379E+02 -0.30113826165E+02 -0.38412781300E+01  0.54367218020E+02  0.40000305118E+02 0.  0.
        -12    1    3    3    0    0 -0.20836795379E+02  0.30113826165E+02  0.38412781300E+01  0.36820781980E+02  0.00000000000E+00 0.  1.
         11    1    4    4    0    0  0.26894429482E+01 -0.38479603841E+01 -0.12197554484E+02  0.13069821656E+02  0.51100000000E-03 0. -1.
        -11    1    4    4    0    0 -0.40504824377E+01  0.19880086379E+01  0.97810310016E+00  0.46168465708E+01  0.51100000000E-03 0.  1.
        -12    1    4    4    0    0  0.22197834869E+02 -0.28253874419E+02  0.73781732534E+01  0.36680549793E+02  0.00000000000E+00 0.  1.
</event>
<event>
 8    1  0.2484572E-006  0.9118800E+02  0.7816164E-02  0.1184000E+00
        -11   -1    0    0    0    0  0.00000000000E+00  0.00000000000E+00  0.45593999997E+02  0.45594000000E+02  0.51100000000E-03 0. -1.
         11   -1    0    0    0    0 -0.00000000000E+00 -0.00000000000E+00 -0.45593999997E+02  0.45594000000E+02  0.51100000000E-03 0.  1.
         23    2    1    2    0    0 -0.35527136788E-14  0.00000000000E+00  0.00000000000E+00  0.91188000000E+02  0.91188000000E+02 0.  0.
    9900012    2    3    3    0    0  0.31720458182E+02  0.18126960015E+02  0.45832186269E+01  0.54367081493E+02  0.39999993880E+02 0.  0.
        -12    1    3    3    0    0 -0.31720458182E+02 -0.18126960015E+02 -0.45832186269E+01  0.36820918507E+02  0.00000000000E+00 0.  1.
         11    1    4    4    0    0  0.14476716175E+02 -0.11245669847E+01 -0.20609942997E+01  0.14665867172E+02  0.51100000000E-03 0. -1.
        -11    1    4    4    0    0 -0.68583298608E+01  0.37789438203E+01 -0.44264400551E+01  0.89950251083E+01  0.51100000000E-03 0.  1.
         12    1    4    4    0    0  0.24102071868E+02  0.15472583180E+02  0.11070652982E+02  0.30706189213E+02  0.00000000000E+00 0. -1.
</event>
<event>
 8    1  0.2484572E-006  0.9118800E+02  0.7816164E-02  0.1184000E+00
        -11   -1    0    0    0    0  0.00000000000E+00  0.00000000000E+00  0.45593999997E+02  0.45594000000E+02  0.51100000000E-03 0.  1.
         11   -1    0    0    0    0 -0.00000000000E+00 -0.00000000000E+00 -0.45593999997E+02  0.45594000000E+02  0.51100000000E-03 0. -1.
         23    2    1    2    0    0  0.35527136788E-14  0.00000000000E+00  0.00000000000E+00  0.91188000000E+02  0.91188000000E+02 0.  0.
    9900012    2    3    3    0    0  0.26786241512E+02 -0.15610752315E+02 -0.19864086159E+02  0.54367078758E+02  0.39999987644E+02 0.  0.
        -12    1    3    3    0    0 -0.26786241512E+02  0.15610752315E+02  0.19864086159E+02  0.36820921242E+02  0.00000000000E+00 0.  1.
         11    1    4    4    0    0 -0.39455973595E+01 -0.44678840001E+00 -0.10038610351E+02  0.10795418308E+02  0.51100000000E-03 0. -1.
        -11    1    4    4    0    0  0.15664394168E+02  0.52744064623E+01 -0.54723345779E+00  0.16537595741E+02  0.51100000000E-03 0.  1.
         12    1    4    4    0    0  0.15067444704E+02 -0.20438370377E+02 -0.92782423499E+01  0.27034064709E+02  0.00000000000E+00 0. -1.
</event>
<event>
 8    1  0.2484572E-006  0.9118800E+02  0.7816164E-02  0.1184000E+00
        -11   -1    0    0    0    0  0.00000000000E+00  0.00000000000E+00  0.45593999997E+02  0.45594000000E+02  0.51100000000E-03 0.  1.
         11   -1    0    0    0    0 -0.00000000000E+00 -0.00000000000E+00 -0.45593999997E+02  0.45594000000E+02  0.51100000000E-03 0. -1.
         23    2    1    2    0    0 -0.71054273576E-14  0.00000000000E+00  0.00000000000E+00  0.91188000000E+02  0.91188000000E+02 0.  0.
    9900012    2    3    3    0    0 -0.29792076048E+02  0.93715155221E+01  0.19503518885E+02  0.54367077316E+02  0.39999984357E+02 0.  0.
         12    1    3    3    0    0  0.29792076048E+02 -0.93715155221E+01 -0.19503518885E+02  0.36820922684E+02  0.00000000000E+00 0. -1.
         11    1    4    4    0    0  0.33364668228E+01  0.84730789116E+01  0.10712391844E+02  0.14059886784E+02  0.51100000000E-03 0. -1.
        -11    1    4    4    0    0 -0.30742109452E+02  0.25458934892E+01  0.14361938305E+02  0.34026815005E+02  0.51100000000E-03 0.  1.
         12    1    4    4    0    0 -0.23864334185E+01 -0.16474568787E+01 -0.55708112635E+01  0.62803755271E+01  0.00000000000E+00 0. -1.
</event>
<event>
 8    1  0.2484572E-006  0.9118800E+02  0.7816164E-02  0.1184000E+00
        -11   -1    0    0    0    0  0.00000000000E+00  0.00000000000E+00  0.45593999997E+02  0.45594000000E+02  0.51100000000E-03 0.  1.
         11   -1    0    0    0    0 -0.00000000000E+00 -0.00000000000E+00 -0.45593999997E+02  0.45594000000E+02  0.51100000000E-03 0. -1.
         23    2    1    2    0    0  0.44408920985E-15  0.00000000000E+00  0.00000000000E+00  0.91188000000E+02  0.91188000000E+02 0.  0.
    9900012    2    3    3    0    0  0.18703041480E+01 -0.59786232098E+01  0.36284119131E+02  0.54367091888E+02  0.40000017576E+02 0.  0.
         12    1    3    3    0    0 -0.18703041480E+01  0.59786232098E+01 -0.36284119131E+02  0.36820908112E+02  0.00000000000E+00 0. -1.
         11    1    4    4    0    0  0.14179027822E+02 -0.38469126106E+01  0.54040875964E+01  0.15654000435E+02  0.51100000000E-03 0. -1.
        -11    1    4    4    0    0 -0.89850445972E+01  0.71444760228E+01  0.24269608069E+02  0.26847503425E+02  0.51100000000E-03 0.  1.
         12    1    4    4    0    0 -0.33236790766E+01 -0.92761866220E+01  0.66104234659E+01  0.11865588028E+02  0.00000000000E+00 0. -1.
</event>
<event>
 8    1  0.2484572E-006  0.9118800E+02  0.7816164E-02  0.1184000E+00
        -11   -1    0    0    0    0  0.00000000000E+00  0.00000000000E+00  0.45593999997E+02  0.45594000000E+02  0.51100000000E-03 0.  1.
         11   -1    0    0    0    0 -0.00000000000E+00 -0.00000000000E+00 -0.45593999997E+02  0.45594000000E+02  0.51100000000E-03 0. -1.
         23    2    1    2    0    0  0.10547118734E-14  0.00000000000E+00  0.00000000000E+00  0.91188000000E+02  0.91188000000E+02 0.  0.
    9900012    2    3    3    0    0 -0.46451260210E+00  0.17497837190E+02 -0.32394230824E+02  0.54367132697E+02  0.40000110608E+02 0.  0.
        -12    1    3    3    0    0  0.46451260210E+00 -0.17497837190E+02  0.32394230824E+02  0.36820867303E+02  0.00000000000E+00 0.  1.
         11    1    4    4    0    0 -0.53260599732E+01  0.13025994343E+02 -0.32019839394E+01  0.14432468426E+02  0.51100000000E-03 0.  1.
        -11    1    4    4    0    0  0.56238491424E+00  0.15304490172E+02 -0.13701684146E+02  0.20549448774E+02  0.51100000000E-03 0. -1.
         12    1    4    4    0    0  0.42991624568E+01 -0.10832647325E+02 -0.15490562739E+02  0.19385215497E+02  0.00000000000E+00 0. -1.
</event>
<event>
 8    1  0.2484572E-006  0.9118800E+02  0.7816164E-02  0.1184000E+00
        -11   -1    0    0    0    0  0.00000000000E+00  0.00000000000E+00  0.45593999997E+02  0.45594000000E+02  0.51100000000E-03 0. -1.
         11   -1    0    0    0    0 -0.00000000000E+00 -0.00000000000E+00 -0.45593999997E+02  0.45594000000E+02  0.51100000000E-03 0.  1.
         23    2    1    2    0    0  0.00000000000E+00  0.00000000000E+00  0.35527136788E-14  0.91188000000E+02  0.91188000000E+02 0.  0.
    9900012    2    3    3    0    0  0.17321643083E+02 -0.67408021507E+01 -0.31785262102E+02  0.54367073618E+02  0.39999975927E+02 0.  0.
         12    1    3    3    0    0 -0.17321643083E+02  0.67408021507E+01  0.31785262102E+02  0.36820926382E+02  0.00000000000E+00 0. -1.
         11    1    4    4    0    0  0.20769553152E+02 -0.92676723772E+01 -0.21402040320E+02  0.31229976298E+02  0.51100000000E-03 0. -1.
        -11    1    4    4    0    0  0.51598797758E+01  0.50552064356E+01 -0.12014242928E+02  0.14018612798E+02  0.51100000000E-03 0.  1.
         12    1    4    4    0    0 -0.86077898448E+01 -0.25283362091E+01  0.16310211455E+01  0.91184845218E+01  0.00000000000E+00 0. -1.
</event>
<event>
 8    1  0.2484572E-006  0.9118800E+02  0.7816164E-02  0.1184000E+00
        -11   -1    0    0    0    0  0.00000000000E+00  0.00000000000E+00  0.45593999997E+02  0.45594000000E+02  0.51100000000E-03 0.  1.
         11   -1    0    0    0    0 -0.00000000000E+00 -0.00000000000E+00 -0.45593999997E+02  0.45594000000E+02  0.51100000000E-03 0. -1.
         23    2    1    2    0    0  0.00000000000E+00  0.00000000000E+00  0.00000000000E+00  0.91188000000E+02  0.91188000000E+02 0.  0.
    9900012    2    3    3    0    0  0.26897746589E+02  0.11555704318E+02 -0.22332865021E+02  0.54367082930E+02  0.39999997155E+02 0.  0.
        -12    1    3    3    0    0 -0.26897746589E+02 -0.11555704318E+02  0.22332865021E+02  0.36820917070E+02  0.00000000000E+00 0.  1.
         11    1    4    4    0    0  0.22345885230E+02  0.19778836209E+01 -0.12008403484E+02  0.25445085278E+02  0.51100000000E-03 0. -1.
        -11    1    4    4    0    0  0.55581440577E+01  0.17124288806E+02 -0.28042524457E+01  0.18220814046E+02  0.51100000000E-03 0.  1.
        -12    1    4    4    0    0 -0.10062826990E+01 -0.75464681082E+01 -0.75202090911E+01  0.10701183605E+02  0.00000000000E+00 0.  1.
</event>
<event>
 8    1  0.2484572E-006  0.9118800E+02  0.7816164E-02  0.1184000E+00
        -11   -1    0    0    0    0  0.00000000000E+00  0.00000000000E+00  0.45593999997E+02  0.45594000000E+02  0.51100000000E-03 0.  1.
         11   -1    0    0    0    0 -0.00000000000E+00 -0.00000000000E+00 -0.45593999997E+02  0.45594000000E+02  0.51100000000E-03 0. -1.
         23    2    1    2    0    0  0.44408920985E-15  0.00000000000E+00  0.71054273576E-14  0.91188000000E+02  0.91188000000E+02 0.  0.
    9900012    2    3    3    0    0  0.20122365909E+01 -0.13374584246E+02  0.34246894142E+02  0.54367104326E+02  0.40000045933E+02 0.  0.
         12    1    3    3    0    0 -0.20122365909E+01  0.13374584246E+02 -0.34246894142E+02  0.36820895674E+02  0.00000000000E+00 0. -1.
         11    1    4    4    0    0 -0.58133885058E+01 -0.57353356522E+01 -0.35149647753E+01  0.88906995560E+01  0.51100000000E-03 0. -1.
        -11    1    4    4    0    0 -0.50365156311E+01 -0.43288760720E+01  0.14304240736E+01  0.67935094789E+01  0.51100000000E-03 0.  1.
         12    1    4    4    0    0  0.12862140728E+02 -0.33103725222E+01  0.36331434843E+02  0.38682895291E+02  0.00000000000E+00 0. -1.
</event>
<event>
 8    1  0.2484572E-006  0.9118800E+02  0.7816164E-02  0.1184000E+00
        -11   -1    0    0    0    0  0.00000000000E+00  0.00000000000E+00  0.45593999997E+02  0.45594000000E+02  0.51100000000E-03 0.  1.
         11   -1    0    0    0    0 -0.00000000000E+00 -0.00000000000E+00 -0.45593999997E+02  0.45594000000E+02  0.51100000000E-03 0. -1.
         23    2    1    2    0    0  0.00000000000E+00 -0.17763568394E-14  0.35527136788E-14  0.91188000000E+02  0.91188000000E+02 0.  0.
    9900012    2    3    3    0    0 -0.21005106155E+02 -0.65764719767E+01  0.29518066241E+02  0.54367072488E+02  0.39999973351E+02 0.  0.
         12    1    3    3    0    0  0.21005106155E+02  0.65764719767E+01 -0.29518066241E+02  0.36820927512E+02  0.00000000000E+00 0. -1.
         11    1    4    4    0    0 -0.21114029723E+02  0.37129893920E+01  0.69263825551E+01  0.22529165917E+02  0.51100000000E-03 0. -1.
        -11    1    4    4    0    0  0.66417541193E+01  0.29123149360E+01  0.46098891348E+01  0.85933435963E+01  0.51100000000E-03 0.  1.
        -12    1    4    4    0    0 -0.65328305511E+01 -0.13201776305E+02  0.17981794551E+02  0.23244562974E+02  0.00000000000E+00 0.  1.
</event>
<event>
 8    1  0.2484572E-006  0.9118800E+02  0.7816164E-02  0.1184000E+00
        -11   -1    0    0    0    0  0.00000000000E+00  0.00000000000E+00  0.45593999997E+02  0.45594000000E+02  0.51100000000E-03 0. -1.
         11   -1    0    0    0    0 -0.00000000000E+00 -0.00000000000E+00 -0.45593999997E+02  0.45594000000E+02  0.51100000000E-03 0.  1.
         23    2    1    2    0    0  0.00000000000E+00 -0.88817841970E-15 -0.71054273576E-14  0.91188000000E+02  0.91188000000E+02 0.  0.
    9900012    2    3    3    0    0 -0.60522764221E+01  0.62729756853E+01  0.35774287297E+02  0.54367083316E+02  0.39999998037E+02 0.  0.
        -12    1    3    3    0    0  0.60522764221E+01 -0.62729756853E+01 -0.35774287297E+02  0.36820916684E+02  0.00000000000E+00 0.  1.
         11    1    4    4    0    0  0.87188219333E+01  0.11701558870E+02  0.15436957156E+02  0.21242504146E+02  0.51100000000E-03 0. -1.
        -11    1    4    4    0    0 -0.78133338693E+01  0.30841296866E+01 -0.16326418322E+01  0.85571935639E+01  0.51100000000E-03 0.  1.
         12    1    4    4    0    0 -0.69577644861E+01 -0.85127128709E+01  0.21969971973E+02  0.24567385607E+02  0.00000000000E+00 0. -1.
</event>
<event>
 8    1  0.2484572E-006  0.9118800E+02  0.7816164E-02  0.1184000E+00
        -11   -1    0    0    0    0  0.00000000000E+00  0.00000000000E+00  0.45593999997E+02  0.45594000000E+02  0.51100000000E-03 0.  1.
         11   -1    0    0    0    0 -0.00000000000E+00 -0.00000000000E+00 -0.45593999997E+02  0.45594000000E+02  0.51100000000E-03 0. -1.
         23    2    1    2    0    0 -0.13322676296E-14  0.35527136788E-14 -0.35527136788E-14  0.91188000000E+02  0.91188000000E+02 0.  0.
    9900012    2    3    3    0    0  0.11108258998E+01  0.27847692580E+02 -0.24063500005E+02  0.54367082729E+02  0.39999996698E+02 0.  0.
        -12    1    3    3    0    0 -0.11108258998E+01 -0.27847692580E+02  0.24063500005E+02  0.36820917271E+02  0.00000000000E+00 0.  1.
         11    1    4    4    0    0  0.67218742595E+01  0.89225328712E+01 -0.21148414591E+02  0.23917579860E+02  0.51100000000E-03 0. -1.
        -11    1    4    4    0    0  0.80209751710E+01  0.11737140935E+02  0.18089334103E+01  0.14330692948E+02  0.51100000000E-03 0.  1.
        -12    1    4    4    0    0 -0.13632023531E+02  0.71880187738E+01 -0.47240188242E+01  0.16118809922E+02  0.00000000000E+00 0.  1.
</event>
<event>
 8    1  0.2484572E-006  0.9118800E+02  0.7816164E-02  0.1184000E+00
        -11   -1    0    0    0    0  0.00000000000E+00  0.00000000000E+00  0.45593999997E+02  0.45594000000E+02  0.51100000000E-03 0. -1.
         11   -1    0    0    0    0 -0.00000000000E+00 -0.00000000000E+00 -0.45593999997E+02  0.45594000000E+02  0.51100000000E-03 0.  1.
         23    2    1    2    0    0 -0.88817841970E-15 -0.35527136788E-14  0.00000000000E+00  0.91188000000E+02  0.91188000000E+02 0.  0.
    9900012    2    3    3    0    0 -0.45941916351E+01  0.28656506782E+02  0.22659937410E+02  0.54367153443E+02  0.40000157904E+02 0.  0.
        -12    1    3    3    0    0  0.45941916351E+01 -0.28656506782E+02 -0.22659937410E+02  0.36820846557E+02  0.00000000000E+00 0.  1.
         11    1    4    4    0    0  0.37518777242E+01  0.14529846606E+02  0.15951191205E+02  0.21900537208E+02  0.51100000000E-03 0. -1.
        -11    1    4    4    0    0 -0.10068202282E+02 -0.25796026495E+01  0.10998722341E+02  0.15132578776E+02  0.51100000000E-03 0.  1.
        -12    1    4    4    0    0  0.17221329226E+01  0.16706262825E+02 -0.42899761362E+01  0.17334037459E+02  0.00000000000E+00 0.  1.
</event>
<event>
 8    1  0.2484572E-006  0.9118800E+02  0.7816164E-02  0.1184000E+00
        -11   -1    0    0    0    0  0.00000000000E+00  0.00000000000E+00  0.45593999997E+02  0.45594000000E+02  0.51100000000E-03 0. -1.
         11   -1    0    0    0    0 -0.00000000000E+00 -0.00000000000E+00 -0.45593999997E+02  0.45594000000E+02  0.51100000000E-03 0.  1.
         23    2    1    2    0    0  0.00000000000E+00  0.53290705182E-14  0.00000000000E+00  0.91188000000E+02  0.91188000000E+02 0.  0.
    9900012    2    3    3    0    0  0.14335459111E+02  0.13957063215E+02  0.30910752367E+02  0.54367087282E+02  0.40000007077E+02 0.  0.
        -12    1    3    3    0    0 -0.14335459111E+02 -0.13957063215E+02 -0.30910752367E+02  0.36820912718E+02  0.00000000000E+00 0.  1.
         11    1    4    4    0    0  0.84130828526E+01  0.22131206831E+02  0.68324219446E+01  0.24642489094E+02  0.51100000000E-03 0. -1.
        -11    1    4    4    0    0  0.93447596516E+01 -0.97936838501E+01  0.17372782707E+02  0.22023949590E+02  0.51100000000E-03 0.  1.
        -12    1    4    4    0    0 -0.34223833936E+01  0.16195402345E+01  0.67055477150E+01  0.77006485975E+01  0.00000000000E+00 0.  1.
</event>
<event>
 8    1  0.2484572E-006  0.9118800E+02  0.7816164E-02  0.1184000E+00
        -11   -1    0    0    0    0  0.00000000000E+00  0.00000000000E+00  0.45593999997E+02  0.45594000000E+02  0.51100000000E-03 0.  1.
         11   -1    0    0    0    0 -0.00000000000E+00 -0.00000000000E+00 -0.45593999997E+02  0.45594000000E+02  0.51100000000E-03 0. -1.
         23    2    1    2    0    0 -0.35527136788E-14  0.00000000000E+00  0.00000000000E+00  0.91188000000E+02  0.91188000000E+02 0.  0.
    9900012    2    3    3    0    0 -0.23066617845E+02  0.24992142573E+02 -0.14110535440E+02  0.54367037769E+02  0.39999894202E+02 0.  0.
        -12    1    3    3    0    0  0.23066617845E+02 -0.24992142573E+02  0.14110535440E+02  0.36820962231E+02  0.00000000000E+00 0.  1.
         11    1    4    4    0    0  0.49395226159E+01  0.15420778513E+02 -0.47485630180E+01  0.16874482055E+02  0.51100000000E-03 0. -1.
        -11    1    4    4    0    0 -0.85538041664E+01 -0.62404232565E+01  0.38766685999E+00  0.10595316607E+02  0.51100000000E-03 0.  1.
         12    1    4    4    0    0 -0.19452336295E+02  0.15811787317E+02 -0.97496392819E+01  0.26897239107E+02  0.00000000000E+00 0. -1.
</event>
<event>
 8    1  0.2484572E-006  0.9118800E+02  0.7816164E-02  0.1184000E+00
        -11   -1    0    0    0    0  0.00000000000E+00  0.00000000000E+00  0.45593999997E+02  0.45594000000E+02  0.51100000000E-03 0. -1.
         11   -1    0    0    0    0 -0.00000000000E+00 -0.00000000000E+00 -0.45593999997E+02  0.45594000000E+02  0.51100000000E-03 0.  1.
         23    2    1    2    0    0  0.00000000000E+00  0.00000000000E+00  0.00000000000E+00  0.91188000000E+02  0.91188000000E+02 0.  0.
    9900012    2    3    3    0    0  0.13544060483E+02  0.90429969174E+01  0.33023659696E+02  0.54367089265E+02  0.40000011597E+02 0.  0.
        -12    1    3    3    0    0 -0.13544060483E+02 -0.90429969174E+01 -0.33023659696E+02  0.36820910735E+02  0.00000000000E+00 0.  1.
         11    1    4    4    0    0  0.22325799856E+02  0.40971096028E+01  0.26175900212E+02  0.34646867080E+02  0.51100000000E-03 0.  1.
        -11    1    4    4    0    0  0.38165812757E+01 -0.16578297574E+01  0.67946480163E+00  0.42162026536E+01  0.51100000000E-03 0. -1.
         12    1    4    4    0    0 -0.12598320648E+02  0.66037170720E+01  0.61682946830E+01  0.15504019531E+02  0.00000000000E+00 0. -1.
</event>
<event>
 8    1  0.2484572E-006  0.9118800E+02  0.7816164E-02  0.1184000E+00
        -11   -1    0    0    0    0  0.00000000000E+00  0.00000000000E+00  0.45593999997E+02  0.45594000000E+02  0.51100000000E-03 0. -1.
         11   -1    0    0    0    0 -0.00000000000E+00 -0.00000000000E+00 -0.45593999997E+02  0.45594000000E+02  0.51100000000E-03 0.  1.
         23    2    1    2    0    0  0.00000000000E+00  0.88817841970E-15  0.11102230246E-14  0.91188000000E+02  0.91188000000E+02 0.  0.
    9900012    2    3    3    0    0 -0.36413199439E+02  0.52371037001E+01 -0.15594092400E+01  0.54367080596E+02  0.39999991836E+02 0.  0.
         12    1    3    3    0    0  0.36413199439E+02 -0.52371037001E+01  0.15594092400E+01  0.36820919404E+02  0.00000000000E+00 0. -1.
         11    1    4    4    0    0 -0.50194152135E+01  0.14534242030E+02  0.54086035548E+01  0.16300052550E+02  0.51100000000E-03 0. -1.
        -11    1    4    4    0    0 -0.94468050967E+01  0.18141247138E+01  0.48535912662E+01  0.10774531240E+02  0.51100000000E-03 0.  1.
         12    1    4    4    0    0 -0.21946979129E+02 -0.11111263044E+02 -0.11821604061E+02  0.27292496805E+02  0.00000000000E+00 0. -1.
</event>
<event>
 8    1  0.2484572E-006  0.9118800E+02  0.7816164E-02  0.1184000E+00
        -11   -1    0    0    0    0  0.00000000000E+00  0.00000000000E+00  0.45593999997E+02  0.45594000000E+02  0.51100000000E-03 0.  1.
         11   -1    0    0    0    0 -0.00000000000E+00 -0.00000000000E+00 -0.45593999997E+02  0.45594000000E+02  0.51100000000E-03 0. -1.
         23    2    1    2    0    0  0.00000000000E+00  0.35527136788E-14 -0.71054273576E-14  0.91188000000E+02  0.91188000000E+02 0.  0.
    9900012    2    3    3    0    0  0.47891351189E+01 -0.31299796425E+02 -0.18792752475E+02  0.54367073654E+02  0.39999976009E+02 0.  0.
        -12    1    3    3    0    0 -0.47891351189E+01  0.31299796425E+02  0.18792752475E+02  0.36820926346E+02  0.00000000000E+00 0.  1.
         11    1    4    4    0    0  0.59238125588E+01 -0.21931444607E+02 -0.19349580998E+02  0.29841013770E+02  0.51100000000E-03 0. -1.
        -11    1    4    4    0    0  0.16273001248E+01  0.39112160751E+01  0.80013802179E+01  0.90536071560E+01  0.51100000000E-03 0.  1.
        -12    1    4    4    0    0 -0.27619775647E+01 -0.13279567893E+02 -0.74445516948E+01  0.15472452728E+02  0.00000000000E+00 0.  1.
</event>
<event>
 8    1  0.2484572E-006  0.9118800E+02  0.7816164E-02  0.1184000E+00
        -11   -1    0    0    0    0  0.00000000000E+00  0.00000000000E+00  0.45593999997E+02  0.45594000000E+02  0.51100000000E-03 0. -1.
         11   -1    0    0    0    0 -0.00000000000E+00 -0.00000000000E+00 -0.45593999997E+02  0.45594000000E+02  0.51100000000E-03 0.  1.
         23    2    1    2    0    0 -0.35527136788E-14  0.35527136788E-14  0.00000000000E+00  0.91188000000E+02  0.91188000000E+02 0.  0.
    9900012    2    3    3    0    0  0.17842046274E+02 -0.30695265830E+02 -0.97592422701E+01  0.54367071586E+02  0.39999971294E+02 0.  0.
         12    1    3    3    0    0 -0.17842046274E+02  0.30695265830E+02  0.97592422701E+01  0.36820928414E+02  0.00000000000E+00 0. -1.
         11    1    4    4    0    0  0.16446515817E+02 -0.89319078499E+01 -0.17167121770E+02  0.25396396014E+02  0.51100000000E-03 0. -1.
        -11    1    4    4    0    0 -0.28866447161E+01 -0.18005366384E+02  0.11849049408E+02  0.21746859739E+02  0.51100000000E-03 0.  1.
        -12    1    4    4    0    0  0.42821751732E+01 -0.37579915955E+01 -0.44411699079E+01  0.72238158335E+01  0.00000000000E+00 0.  1.
</event>
<event>
 8    1  0.2484572E-006  0.9118800E+02  0.7816164E-02  0.1184000E+00
        -11   -1    0    0    0    0  0.00000000000E+00  0.00000000000E+00  0.45593999997E+02  0.45594000000E+02  0.51100000000E-03 0.  1.
         11   -1    0    0    0    0 -0.00000000000E+00 -0.00000000000E+00 -0.45593999997E+02  0.45594000000E+02  0.51100000000E-03 0. -1.
         23    2    1    2    0    0 -0.35527136788E-14 -0.71054273576E-14 -0.17763568394E-14  0.91188000000E+02  0.91188000000E+02 0.  0.
    9900012    2    3    3    0    0  0.26187544947E+02  0.25287169829E+02  0.55274829145E+01  0.54367061179E+02  0.39999947570E+02 0.  0.
         12    1    3    3    0    0 -0.26187544947E+02 -0.25287169829E+02 -0.55274829145E+01  0.36820938821E+02  0.00000000000E+00 0. -1.
         11    1    4    4    0    0  0.67620173403E+01  0.35944984537E+01 -0.96541730496E+01  0.12322676462E+02  0.51100000000E-03 0. -1.
        -11    1    4    4    0    0  0.11193910246E+01  0.22949024829E+01 -0.69385111146E+01  0.73934126370E+01  0.51100000000E-03 0.  1.
        -12    1    4    4    0    0  0.18306136582E+02  0.19397768892E+02  0.22120167079E+02  0.34650972081E+02  0.00000000000E+00 0.  1.
</event>
<event>
 8    1  0.2484572E-006  0.9118800E+02  0.7816164E-02  0.1184000E+00
        -11   -1    0    0    0    0  0.00000000000E+00  0.00000000000E+00  0.45593999997E+02  0.45594000000E+02  0.51100000000E-03 0. -1.
         11   -1    0    0    0    0 -0.00000000000E+00 -0.00000000000E+00 -0.45593999997E+02  0.45594000000E+02  0.51100000000E-03 0.  1.
         23    2    1    2    0    0  0.00000000000E+00  0.00000000000E+00 -0.35527136788E-14  0.91188000000E+02  0.91188000000E+02 0.  0.
    9900012    2    3    3    0    0  0.16077009567E+02 -0.29326379515E+02 -0.15403735235E+02  0.54367057165E+02  0.39999938420E+02 0.  0.
         12    1    3    3    0    0 -0.16077009567E+02  0.29326379515E+02  0.15403735235E+02  0.36820942835E+02  0.00000000000E+00 0. -1.
         11    1    4    4    0    0  0.12953429156E+01 -0.48811070972E+00  0.27506029135E+01  0.30792827059E+01  0.51100000000E-03 0. -1.
        -11    1    4    4    0    0  0.20257635546E+02 -0.49887406556E+01 -0.74501093264E-01  0.20863002706E+02  0.51100000000E-03 0.  1.
        -12    1    4    4    0    0 -0.54759688949E+01 -0.23849528149E+02 -0.18079837055E+02  0.30424771753E+02  0.00000000000E+00 0.  1.
</event>
<event>
 8    1  0.2484572E-006  0.9118800E+02  0.7816164E-02  0.1184000E+00
        -11   -1    0    0    0    0  0.00000000000E+00  0.00000000000E+00  0.45593999997E+02  0.45594000000E+02  0.51100000000E-03 0. -1.
         11   -1    0    0    0    0 -0.00000000000E+00 -0.00000000000E+00 -0.45593999997E+02  0.45594000000E+02  0.51100000000E-03 0.  1.
         23    2    1    2    0    0  0.17763568394E-14  0.00000000000E+00  0.00000000000E+00  0.91188000000E+02  0.91188000000E+02 0.  0.
    9900012    2    3    3    0    0  0.10859779732E+02 -0.24749031852E+02 -0.25006382117E+02  0.54367237651E+02  0.40000349870E+02 0.  0.
         12    1    3    3    0    0 -0.10859779732E+02  0.24749031852E+02  0.25006382117E+02  0.36820762349E+02  0.00000000000E+00 0. -1.
         11    1    4    4    0    0  0.69462556465E+01 -0.38468462904E+01  0.89037009588E+01  0.11929986794E+02  0.51100000000E-03 0. -1.
        -11    1    4    4    0    0  0.30630115753E+01 -0.17475382920E+02 -0.15097011418E+02  0.23295724975E+02  0.51100000000E-03 0.  1.
         12    1    4    4    0    0  0.85051251001E+00 -0.34268026420E+01 -0.18813071657E+02  0.19141525881E+02  0.00000000000E+00 0. -1.
</event>
<event>
 8    1  0.2484572E-006  0.9118800E+02  0.7816164E-02  0.1184000E+00
        -11   -1    0    0    0    0  0.00000000000E+00  0.00000000000E+00  0.45593999997E+02  0.45594000000E+02  0.51100000000E-03 0.  1.
         11   -1    0    0    0    0 -0.00000000000E+00 -0.00000000000E+00 -0.45593999997E+02  0.45594000000E+02  0.51100000000E-03 0. -1.
         23    2    1    2    0    0  0.00000000000E+00  0.27755575616E-15  0.00000000000E+00  0.91188000000E+02  0.91188000000E+02 0.  0.
    9900012    2    3    3    0    0  0.17760623827E+02  0.41099028891E+00  0.32251691509E+02  0.54367078271E+02  0.39999986535E+02 0.  0.
         12    1    3    3    0    0 -0.17760623827E+02 -0.41099028891E+00 -0.32251691509E+02  0.36820921729E+02  0.00000000000E+00 0. -1.
         11    1    4    4    0    0  0.95713717049E+01  0.12405565363E+02  0.30269007426E+02  0.34084043468E+02  0.51100000000E-03 0. -1.
        -11    1    4    4    0    0  0.10049516396E+02 -0.37092285423E+01  0.42009147774E+01  0.11506469546E+02  0.51100000000E-03 0.  1.
         12    1    4    4    0    0 -0.18602642740E+01 -0.82853465314E+01 -0.22182306945E+01  0.87765652580E+01  0.00000000000E+00 0. -1.
</event>
<event>
 8    1  0.2484572E-006  0.9118800E+02  0.7816164E-02  0.1184000E+00
        -11   -1    0    0    0    0  0.00000000000E+00  0.00000000000E+00  0.45593999997E+02  0.45594000000E+02  0.51100000000E-03 0. -1.
         11   -1    0    0    0    0 -0.00000000000E+00 -0.00000000000E+00 -0.45593999997E+02  0.45594000000E+02  0.51100000000E-03 0.  1.
         23    2    1    2    0    0 -0.35527136788E-14  0.00000000000E+00  0.71054273576E-14  0.91188000000E+02  0.91188000000E+02 0.  0.
    9900012    2    3    3    0    0  0.13909220220E+02  0.23998495551E+02 -0.24215428984E+02  0.54367065781E+02  0.39999958062E+02 0.  0.
         12    1    3    3    0    0 -0.13909220220E+02 -0.23998495551E+02  0.24215428984E+02  0.36820934219E+02  0.00000000000E+00 0. -1.
         11    1    4    4    0    0  0.17635211060E+00  0.73610973028E+01 -0.46580079618E+01  0.87128578549E+01  0.51100000000E-03 0. -1.
        -11    1    4    4    0    0 -0.28919703411E+01  0.55191191742E+01 -0.24311192921E+02  0.25096977317E+02  0.51100000000E-03 0.  1.
         12    1    4    4    0    0  0.16624838450E+02  0.11118279074E+02  0.47537718989E+01  0.20557230610E+02  0.00000000000E+00 0. -1.
</event>
<event>
 8    1  0.2484572E-006  0.9118800E+02  0.7816164E-02  0.1184000E+00
        -11   -1    0    0    0    0  0.00000000000E+00  0.00000000000E+00  0.45593999997E+02  0.45594000000E+02  0.51100000000E-03 0. -1.
         11   -1    0    0    0    0 -0.00000000000E+00 -0.00000000000E+00 -0.45593999997E+02  0.45594000000E+02  0.51100000000E-03 0.  1.
         23    2    1    2    0    0  0.00000000000E+00  0.00000000000E+00  0.44408920985E-15  0.91188000000E+02  0.91188000000E+02 0.  0.
    9900012    2    3    3    0    0 -0.30242367148E+02  0.20862773453E+02 -0.24335694406E+01  0.54367104477E+02  0.40000046277E+02 0.  0.
         12    1    3    3    0    0  0.30242367148E+02 -0.20862773453E+02  0.24335694406E+01  0.36820895523E+02  0.00000000000E+00 0. -1.
         11    1    4    4    0    0 -0.12538358528E+01  0.42121689979E+01  0.45919530679E+01  0.63561391781E+01  0.51100000000E-03 0. -1.
        -11    1    4    4    0    0 -0.26029475835E+02  0.20136880240E+02 -0.16998074889E+02  0.37040006861E+02  0.51100000000E-03 0.  1.
        -12    1    4    4    0    0 -0.29590554603E+01 -0.34862757851E+01  0.99725523808E+01  0.10970958438E+02  0.00000000000E+00 0.  1.
</event>
<event>
 8    1  0.2484572E-006  0.9118800E+02  0.7816164E-02  0.1184000E+00
        -11   -1    0    0    0    0  0.00000000000E+00  0.00000000000E+00  0.45593999997E+02  0.45594000000E+02  0.51100000000E-03 0.  1.
         11   -1    0    0    0    0 -0.00000000000E+00 -0.00000000000E+00 -0.45593999997E+02  0.45594000000E+02  0.51100000000E-03 0. -1.
         23    2    1    2    0    0  0.00000000000E+00  0.00000000000E+00  0.00000000000E+00  0.91188000000E+02  0.91188000000E+02 0.  0.
    9900012    2    3    3    0    0  0.28436944691E+01  0.11357501542E+02 -0.34909900269E+02  0.54367074207E+02  0.39999977269E+02 0.  0.
        -12    1    3    3    0    0 -0.28436944691E+01 -0.11357501542E+02  0.34909900269E+02  0.36820925793E+02  0.00000000000E+00 0.  1.
         11    1    4    4    0    0  0.53845660966E+00  0.37178293149E+01 -0.32535288493E+01  0.49696720787E+01  0.51100000000E-03 0.  1.
        -11    1    4    4    0    0 -0.39944065417E+01 -0.10363545472E+02 -0.27801791379E+02  0.29938235795E+02  0.51100000000E-03 0. -1.
        -12    1    4    4    0    0  0.62996444011E+01  0.18003217699E+02 -0.38545800403E+01  0.19459166333E+02  0.00000000000E+00 0.  1.
</event>
<event>
 8    1  0.2484572E-006  0.9118800E+02  0.7816164E-02  0.1184000E+00
        -11   -1    0    0    0    0  0.00000000000E+00  0.00000000000E+00  0.45593999997E+02  0.45594000000E+02  0.51100000000E-03 0. -1.
         11   -1    0    0    0    0 -0.00000000000E+00 -0.00000000000E+00 -0.45593999997E+02  0.45594000000E+02  0.51100000000E-03 0.  1.
         23    2    1    2    0    0  0.13322676296E-14  0.00000000000E+00 -0.35527136788E-14  0.91188000000E+02  0.91188000000E+02 0.  0.
    9900012    2    3    3    0    0  0.88018156321E+00  0.33421685610E+02  0.15427104713E+02  0.54367090880E+02  0.40000015280E+02 0.  0.
        -12    1    3    3    0    0 -0.88018156321E+00 -0.33421685610E+02 -0.15427104713E+02  0.36820909120E+02  0.00000000000E+00 0.  1.
         11    1    4    4    0    0 -0.53566553465E+01  0.19075310597E+02  0.19491741604E+02  0.27793690325E+02  0.51100000000E-03 0. -1.
        -11    1    4    4    0    0 -0.44813617444E+01  0.38793188256E+01 -0.90205950146E+01  0.10793648702E+02  0.51100000000E-03 0.  1.
        -12    1    4    4    0    0  0.10718198654E+02  0.10467056187E+02  0.49559581241E+01  0.15779751853E+02  0.00000000000E+00 0.  1.
</event>
<event>
 8    1  0.2484572E-006  0.9118800E+02  0.7816164E-02  0.1184000E+00
        -11   -1    0    0    0    0  0.00000000000E+00  0.00000000000E+00  0.45593999997E+02  0.45594000000E+02  0.51100000000E-03 0.  1.
         11   -1    0    0    0    0 -0.00000000000E+00 -0.00000000000E+00 -0.45593999997E+02  0.45594000000E+02  0.51100000000E-03 0. -1.
         23    2    1    2    0    0  0.35527136788E-14  0.00000000000E+00  0.00000000000E+00  0.91188000000E+02  0.91188000000E+02 0.  0.
    9900012    2    3    3    0    0  0.25325439383E+02  0.17735429708E+02 -0.19996419566E+02  0.54367080099E+02  0.39999990702E+02 0.  0.
        -12    1    3    3    0    0 -0.25325439383E+02 -0.17735429708E+02  0.19996419566E+02  0.36820919901E+02  0.00000000000E+00 0.  1.
         11    1    4    4    0    0  0.17060777513E+02  0.24753435869E+02 -0.25896031534E+02  0.39678799958E+02  0.51100000000E-03 0. -1.
        -11    1    4    4    0    0  0.78440030662E+01 -0.19460784034E+01  0.50463124625E+01  0.95278998202E+01  0.51100000000E-03 0.  1.
         12    1    4    4    0    0  0.42065880414E+00 -0.50719277576E+01  0.85329950530E+00  0.51603803206E+01  0.00000000000E+00 0. -1.
</event>
<event>
 8    1  0.2484572E-006  0.9118800E+02  0.7816164E-02  0.1184000E+00
        -11   -1    0    0    0    0  0.00000000000E+00  0.00000000000E+00  0.45593999997E+02  0.45594000000E+02  0.51100000000E-03 0.  1.
         11   -1    0    0    0    0 -0.00000000000E+00 -0.00000000000E+00 -0.45593999997E+02  0.45594000000E+02  0.51100000000E-03 0. -1.
         23    2    1    2    0    0  0.00000000000E+00 -0.17763568394E-14  0.00000000000E+00  0.91188000000E+02  0.91188000000E+02 0.  0.
    9900012    2    3    3    0    0 -0.29666313647E+02 -0.11803613593E+02  0.18340249282E+02  0.54367079275E+02  0.39999988824E+02 0.  0.
        -12    1    3    3    0    0  0.29666313647E+02  0.11803613593E+02 -0.18340249282E+02  0.36820920725E+02  0.00000000000E+00 0.  1.
         11    1    4    4    0    0 -0.17667073560E+02  0.56425752406E+01  0.24434033264E+01  0.18706532645E+02  0.51100000000E-03 0. -1.
        -11    1    4    4    0    0 -0.95124994933E+01 -0.18624883906E+02  0.21141462285E+02  0.29737776899E+02  0.51100000000E-03 0.  1.
        -12    1    4    4    0    0 -0.24867405944E+01  0.11786950722E+01 -0.52446163289E+01  0.59227697317E+01  0.00000000000E+00 0.  1.
</event>
<event>
 8    1  0.2484572E-006  0.9118800E+02  0.7816164E-02  0.1184000E+00
        -11   -1    0    0    0    0  0.00000000000E+00  0.00000000000E+00  0.45593999997E+02  0.45594000000E+02  0.51100000000E-03 0.  1.
         11   -1    0    0    0    0 -0.00000000000E+00 -0.00000000000E+00 -0.45593999997E+02  0.45594000000E+02  0.51100000000E-03 0. -1.
         23    2    1    2    0    0  0.00000000000E+00  0.00000000000E+00  0.35527136788E-14  0.91188000000E+02  0.91188000000E+02 0.  0.
    9900012    2    3    3    0    0  0.86907540908E+01 -0.21598680483E+02 -0.28526249562E+02  0.54367093990E+02  0.40000022370E+02 0.  0.
        -12    1    3    3    0    0 -0.86907540908E+01  0.21598680483E+02  0.28526249562E+02  0.36820906010E+02  0.00000000000E+00 0.  1.
         11    1    4    4    0    0  0.31934313653E+01 -0.83421901183E+01 -0.32922042664E-01  0.89325933511E+01  0.51100000000E-03 0. -1.
        -11    1    4    4    0    0  0.13894160372E+02  0.53780948283E+01 -0.10805504112E+02  0.18404632999E+02  0.51100000000E-03 0.  1.
        -12    1    4    4    0    0 -0.83968376467E+01 -0.18634585194E+02 -0.17687823407E+02  0.27029867641E+02  0.00000000000E+00 0.  1.
</event>
<event>
 8    1  0.2484572E-006  0.9118800E+02  0.7816164E-02  0.1184000E+00
        -11   -1    0    0    0    0  0.00000000000E+00  0.00000000000E+00  0.45593999997E+02  0.45594000000E+02  0.51100000000E-03 0. -1.
         11   -1    0    0    0    0 -0.00000000000E+00 -0.00000000000E+00 -0.45593999997E+02  0.45594000000E+02  0.51100000000E-03 0.  1.
         23    2    1    2    0    0  0.00000000000E+00  0.00000000000E+00  0.22204460493E-15  0.91188000000E+02  0.91188000000E+02 0.  0.
    9900012    2    3    3    0    0  0.36790579161E+02 -0.13672733579E+01  0.60301427887E+00  0.54367085052E+02  0.40000001992E+02 0.  0.
         12    1    3    3    0    0 -0.36790579161E+02  0.13672733579E+01 -0.60301427887E+00  0.36820914948E+02  0.00000000000E+00 0. -1.
         11    1    4    4    0    0  0.53322911542E+01  0.53771920296E+00  0.12046669104E+02  0.13185018303E+02  0.51100000000E-03 0. -1.
        -11    1    4    4    0    0 -0.94103169907E+00 -0.34562739750E+01 -0.77477499567E+01  0.85357483621E+01  0.51100000000E-03 0.  1.
         12    1    4    4    0    0  0.32399319705E+02  0.15512814141E+01 -0.36959048681E+01  0.32646318387E+02  0.00000000000E+00 0. -1.
</event>
<event>
 8    1  0.2484572E-006  0.9118800E+02  0.7816164E-02  0.1184000E+00
        -11   -1    0    0    0    0  0.00000000000E+00  0.00000000000E+00  0.45593999997E+02  0.45594000000E+02  0.51100000000E-03 0. -1.
         11   -1    0    0    0    0 -0.00000000000E+00 -0.00000000000E+00 -0.45593999997E+02  0.45594000000E+02  0.51100000000E-03 0.  1.
         23    2    1    2    0    0  0.00000000000E+00  0.00000000000E+00 -0.88817841970E-15  0.91188000000E+02  0.91188000000E+02 0.  0.
    9900012    2    3    3    0    0  0.34833888920E+02 -0.10795900891E+02 -0.50833346043E+01  0.54366924730E+02  0.39999636504E+02 0.  0.
         12    1    3    3    0    0 -0.34833888920E+02  0.10795900891E+02  0.50833346043E+01  0.36821075270E+02  0.00000000000E+00 0. -1.
         11    1    4    4    0    0 -0.40220390751E+01  0.10801580509E+01 -0.12470785047E+01  0.43472686592E+01  0.51100000000E-03 0. -1.
        -11    1    4    4    0    0  0.17818343801E+02  0.87132445333E+01  0.22462111969E+01  0.19961449624E+02  0.51100000000E-03 0.  1.
         12    1    4    4    0    0  0.21037584195E+02 -0.20589303475E+02 -0.60824672965E+01  0.30058206446E+02  0.00000000000E+00 0. -1.
</event>
<event>
 8    1  0.2484572E-006  0.9118800E+02  0.7816164E-02  0.1184000E+00
        -11   -1    0    0    0    0  0.00000000000E+00  0.00000000000E+00  0.45593999997E+02  0.45594000000E+02  0.51100000000E-03 0.  1.
         11   -1    0    0    0    0 -0.00000000000E+00 -0.00000000000E+00 -0.45593999997E+02  0.45594000000E+02  0.51100000000E-03 0. -1.
         23    2    1    2    0    0  0.00000000000E+00  0.00000000000E+00 -0.35527136788E-14  0.91188000000E+02  0.91188000000E+02 0.  0.
    9900012    2    3    3    0    0 -0.24399600921E+01 -0.30620866037E+02 -0.20302343704E+02  0.54367136322E+02  0.40000118873E+02 0.  0.
        -12    1    3    3    0    0  0.24399600921E+01  0.30620866037E+02  0.20302343704E+02  0.36820863678E+02  0.00000000000E+00 0.  1.
         11    1    4    4    0    0 -0.62738108862E+01 -0.11731080195E+02  0.32518428303E+01  0.13695014700E+02  0.51100000000E-03 0. -1.
        -11    1    4    4    0    0  0.52962561366E+01 -0.42497785692E+01  0.50791781686E+01  0.84799173393E+01  0.51100000000E-03 0.  1.
         12    1    4    4    0    0 -0.14624053425E+01 -0.14640007273E+02 -0.28633364703E+02  0.32192204283E+02  0.00000000000E+00 0. -1.
</event>
<event>
 8    1  0.2484572E-006  0.9118800E+02  0.7816164E-02  0.1184000E+00
        -11   -1    0    0    0    0  0.00000000000E+00  0.00000000000E+00  0.45593999997E+02  0.45594000000E+02  0.51100000000E-03 0.  1.
         11   -1    0    0    0    0 -0.00000000000E+00 -0.00000000000E+00 -0.45593999997E+02  0.45594000000E+02  0.51100000000E-03 0. -1.
         23    2    1    2    0    0  0.00000000000E+00 -0.35527136788E-14  0.33306690739E-15  0.91188000000E+02  0.91188000000E+02 0.  0.
    9900012    2    3    3    0    0 -0.29966806682E+02 -0.21388306797E+02 -0.55704638841E+00  0.54367089215E+02  0.40000011483E+02 0.  0.
         12    1    3    3    0    0  0.29966806682E+02  0.21388306797E+02  0.55704638841E+00  0.36820910785E+02  0.00000000000E+00 0. -1.
         11    1    4    4    0    0 -0.10591928081E+02  0.44427102597E+01 -0.98040977993E+01  0.15101223422E+02  0.51100000000E-03 0. -1.
        -11    1    4    4    0    0 -0.53185727197E+01 -0.23209241808E+02  0.67660750805E+01  0.24753502648E+02  0.51100000000E-03 0.  1.
         12    1    4    4    0    0 -0.14056305881E+02 -0.26217752482E+01  0.24809763303E+01  0.14512363144E+02  0.00000000000E+00 0. -1.
</event>
<event>
 8    1  0.2484572E-006  0.9118800E+02  0.7816164E-02  0.1184000E+00
        -11   -1    0    0    0    0  0.00000000000E+00  0.00000000000E+00  0.45593999997E+02  0.45594000000E+02  0.51100000000E-03 0. -1.
         11   -1    0    0    0    0 -0.00000000000E+00 -0.00000000000E+00 -0.45593999997E+02  0.45594000000E+02  0.51100000000E-03 0.  1.
         23    2    1    2    0    0  0.00000000000E+00  0.35527136788E-14  0.88817841970E-15  0.91188000000E+02  0.91188000000E+02 0.  0.
    9900012    2    3    3    0    0 -0.32304861648E+02  0.17069387099E+02  0.45618299976E+01  0.54367104371E+02  0.40000046034E+02 0.  0.
        -12    1    3    3    0    0  0.32304861648E+02 -0.17069387099E+02 -0.45618299976E+01  0.36820895629E+02  0.00000000000E+00 0.  1.
         11    1    4    4    0    0  0.27128605229E+01 -0.52525102389E+01  0.37139479782E+01  0.69815389329E+01  0.51100000000E-03 0. -1.
        -11    1    4    4    0    0 -0.16584714232E+02  0.19483163404E+02 -0.79106455613E+01  0.26781051433E+02  0.51100000000E-03 0.  1.
         12    1    4    4    0    0 -0.18433007938E+02  0.28387339340E+01  0.87585275806E+01  0.20604514005E+02  0.00000000000E+00 0. -1.
</event>
<event>
 8    1  0.2484572E-006  0.9118800E+02  0.7816164E-02  0.1184000E+00
        -11   -1    0    0    0    0  0.00000000000E+00  0.00000000000E+00  0.45593999997E+02  0.45594000000E+02  0.51100000000E-03 0.  1.
         11   -1    0    0    0    0 -0.00000000000E+00 -0.00000000000E+00 -0.45593999997E+02  0.45594000000E+02  0.51100000000E-03 0. -1.
         23    2    1    2    0    0  0.35527136788E-14 -0.35527136788E-14  0.00000000000E+00  0.91188000000E+02  0.91188000000E+02 0.  0.
    9900012    2    3    3    0    0 -0.22401926511E+02 -0.21133813737E+02 -0.20181572451E+02  0.54367078487E+02  0.39999987027E+02 0.  0.
        -12    1    3    3    0    0  0.22401926511E+02  0.21133813737E+02  0.20181572451E+02  0.36820921513E+02  0.00000000000E+00 0.  1.
         11    1    4    4    0    0  0.55632658634E+01 -0.15564972014E+02 -0.62447879596E+01  0.17669625287E+02  0.51100000000E-03 0. -1.
        -11    1    4    4    0    0 -0.22648408925E+02  0.33316571442E+01 -0.12903912048E+02  0.26278533303E+02  0.51100000000E-03 0.  1.
        -12    1    4    4    0    0 -0.53167834495E+01 -0.89004988670E+01 -0.10328724436E+01  0.10418919897E+02  0.00000000000E+00 0.  1.
</event>
<event>
 8    1  0.2484572E-006  0.9118800E+02  0.7816164E-02  0.1184000E+00
        -11   -1    0    0    0    0  0.00000000000E+00  0.00000000000E+00  0.45593999997E+02  0.45594000000E+02  0.51100000000E-03 0.  1.
         11   -1    0    0    0    0 -0.00000000000E+00 -0.00000000000E+00 -0.45593999997E+02  0.45594000000E+02  0.51100000000E-03 0. -1.
         23    2    1    2    0    0  0.00000000000E+00  0.53290705182E-14  0.00000000000E+00  0.91188000000E+02  0.91188000000E+02 0.  0.
    9900012    2    3    3    0    0 -0.34144414957E+02 -0.11086376913E+02  0.81872394886E+01  0.54367085885E+02  0.40000003892E+02 0.  0.
         12    1    3    3    0    0  0.34144414957E+02  0.11086376913E+02 -0.81872394886E+01  0.36820914115E+02  0.00000000000E+00 0. -1.
         11    1    4    4    0    0 -0.23588574903E+02  0.57833354328E+01  0.65825289778E+01  0.25163416355E+02  0.51100000000E-03 0.  1.
        -11    1    4    4    0    0 -0.14138278724E+02 -0.18298242192E+02  0.54499883461E+01  0.23757503358E+02  0.51100000000E-03 0. -1.
         12    1    4    4    0    0  0.35824386689E+01  0.14285298457E+01 -0.38452778353E+01  0.54461661715E+01  0.00000000000E+00 0. -1.
</event>
<event>
 8    1  0.2484572E-006  0.9118800E+02  0.7816164E-02  0.1184000E+00
        -11   -1    0    0    0    0  0.00000000000E+00  0.00000000000E+00  0.45593999997E+02  0.45594000000E+02  0.51100000000E-03 0.  1.
         11   -1    0    0    0    0 -0.00000000000E+00 -0.00000000000E+00 -0.45593999997E+02  0.45594000000E+02  0.51100000000E-03 0. -1.
         23    2    1    2    0    0 -0.55511151231E-15  0.00000000000E+00  0.00000000000E+00  0.91188000000E+02  0.91188000000E+02 0.  0.
    9900012    2    3    3    0    0  0.96533626186E+00 -0.82074932723E+01  0.35881541353E+02  0.54367084343E+02  0.40000000377E+02 0.  0.
         12    1    3    3    0    0 -0.96533626186E+00  0.82074932723E+01 -0.35881541353E+02  0.36820915657E+02  0.00000000000E+00 0. -1.
         11    1    4    4    0    0 -0.74216998128E+01 -0.68801722674E+01  0.24554003475E+02  0.26557814019E+02  0.51100000000E-03 0. -1.
        -11    1    4    4    0    0  0.11811276021E+02  0.87677637890E+01  0.59238178831E+01  0.15857854258E+02  0.51100000000E-03 0.  1.
         12    1    4    4    0    0 -0.34242399461E+01 -0.10095084794E+02  0.54037199950E+01  0.11951416066E+02  0.00000000000E+00 0. -1.
</event>
<event>
 8    1  0.2484572E-006  0.9118800E+02  0.7816164E-02  0.1184000E+00
        -11   -1    0    0    0    0  0.00000000000E+00  0.00000000000E+00  0.45593999997E+02  0.45594000000E+02  0.51100000000E-03 0. -1.
         11   -1    0    0    0    0 -0.00000000000E+00 -0.00000000000E+00 -0.45593999997E+02  0.45594000000E+02  0.51100000000E-03 0.  1.
         23    2    1    2    0    0  0.00000000000E+00  0.35527136788E-14 -0.35527136788E-14  0.91188000000E+02  0.91188000000E+02 0.  0.
    9900012    2    3    3    0    0  0.25633620232E+02 -0.11778858423E+02  0.23663391925E+02  0.54367080547E+02  0.39999991724E+02 0.  0.
        -12    1    3    3    0    0 -0.25633620232E+02  0.11778858423E+02 -0.23663391925E+02  0.36820919453E+02  0.00000000000E+00 0.  1.
         11    1    4    4    0    0  0.19456389300E+02 -0.19744437871E+02  0.26035555372E+02  0.38029515580E+02  0.51100000000E-03 0. -1.
        -11    1    4    4    0    0  0.54062310153E+01 -0.41931597442E+00  0.31471717677E+01  0.62695972816E+01  0.51100000000E-03 0.  1.
        -12    1    4    4    0    0  0.77099991619E+00  0.83848954229E+01 -0.55193352141E+01  0.10067967686E+02  0.00000000000E+00 0.  1.
</event>
<event>
 8    1  0.2484572E-006  0.9118800E+02  0.7816164E-02  0.1184000E+00
        -11   -1    0    0    0    0  0.00000000000E+00  0.00000000000E+00  0.45593999997E+02  0.45594000000E+02  0.51100000000E-03 0. -1.
         11   -1    0    0    0    0 -0.00000000000E+00 -0.00000000000E+00 -0.45593999997E+02  0.45594000000E+02  0.51100000000E-03 0.  1.
         23    2    1    2    0    0  0.00000000000E+00  0.00000000000E+00 -0.17763568394E-14  0.91188000000E+02  0.91188000000E+02 0.  0.
    9900012    2    3    3    0    0 -0.29823667526E+02  0.21174999597E+02 -0.42365565622E+01  0.54367079803E+02  0.39999990027E+02 0.  0.
         12    1    3    3    0    0  0.29823667526E+02 -0.21174999597E+02  0.42365565622E+01  0.36820920197E+02  0.00000000000E+00 0. -1.
         11    1    4    4    0    0 -0.15301760066E+02  0.17939173947E+02 -0.11168324124E+02  0.26090022749E+02  0.51100000000E-03 0. -1.
        -11    1    4    4    0    0 -0.15353015956E+02  0.66025165848E+01 -0.36801478751E+01  0.17112913628E+02  0.51100000000E-03 0.  1.
         12    1    4    4    0    0  0.83110849614E+00 -0.33666909350E+01  0.10611915437E+02  0.11164143426E+02  0.00000000000E+00 0. -1.
</event>
<event>
 8    1  0.2484572E-006  0.9118800E+02  0.7816164E-02  0.1184000E+00
        -11   -1    0    0    0    0  0.00000000000E+00  0.00000000000E+00  0.45593999997E+02  0.45594000000E+02  0.51100000000E-03 0. -1.
         11   -1    0    0    0    0 -0.00000000000E+00 -0.00000000000E+00 -0.45593999997E+02  0.45594000000E+02  0.51100000000E-03 0.  1.
         23    2    1    2    0    0  0.35527136788E-14  0.00000000000E+00 -0.17763568394E-14  0.91188000000E+02  0.91188000000E+02 0.  0.
    9900012    2    3    3    0    0  0.27504807512E+02  0.21207549490E+02  0.12227310814E+02  0.54367058657E+02  0.39999941820E+02 0.  0.
        -12    1    3    3    0    0 -0.27504807512E+02 -0.21207549490E+02 -0.12227310814E+02  0.36820941343E+02  0.00000000000E+00 0.  1.
         11    1    4    4    0    0  0.61052605768E+01  0.19696961529E+02  0.82393922452E+01  0.22206577517E+02  0.51100000000E-03 0. -1.
        -11    1    4    4    0    0  0.20535478886E+02 -0.71001188025E+01  0.72593012756E+01  0.22908841859E+02  0.51100000000E-03 0.  1.
        -12    1    4    4    0    0  0.86406804970E+00  0.86107067631E+01 -0.32713827068E+01  0.92516392801E+01  0.00000000000E+00 0.  1.
</event>
<event>
 8    1  0.2484572E-006  0.9118800E+02  0.7816164E-02  0.1184000E+00
        -11   -1    0    0    0    0  0.00000000000E+00  0.00000000000E+00  0.45593999997E+02  0.45594000000E+02  0.51100000000E-03 0.  1.
         11   -1    0    0    0    0 -0.00000000000E+00 -0.00000000000E+00 -0.45593999997E+02  0.45594000000E+02  0.51100000000E-03 0. -1.
         23    2    1    2    0    0  0.00000000000E+00  0.00000000000E+00 -0.35527136788E-14  0.91188000000E+02  0.91188000000E+02 0.  0.
    9900012    2    3    3    0    0  0.50798237646E+01 -0.24804818179E+02  0.26733798181E+02  0.54367087742E+02  0.40000008125E+02 0.  0.
         12    1    3    3    0    0 -0.50798237646E+01  0.24804818179E+02 -0.26733798181E+02  0.36820912258E+02  0.00000000000E+00 0. -1.
         11    1    4    4    0    0 -0.15642145296E+02 -0.76442409409E+01  0.71840730526E+01  0.18834065809E+02  0.51100000000E-03 0. -1.
        -11    1    4    4    0    0  0.24506404439E+00  0.17510001806E+01  0.15609570182E+01  0.23585260423E+01  0.51100000000E-03 0.  1.
         12    1    4    4    0    0  0.20476905016E+02 -0.18911577418E+02  0.17988768110E+02  0.33174495891E+02  0.00000000000E+00 0. -1.
</event>
<event>
 8    1  0.2484572E-006  0.9118800E+02  0.7816164E-02  0.1184000E+00
        -11   -1    0    0    0    0  0.00000000000E+00  0.00000000000E+00  0.45593999997E+02  0.45594000000E+02  0.51100000000E-03 0. -1.
         11   -1    0    0    0    0 -0.00000000000E+00 -0.00000000000E+00 -0.45593999997E+02  0.45594000000E+02  0.51100000000E-03 0.  1.
         23    2    1    2    0    0  0.00000000000E+00 -0.35527136788E-14  0.00000000000E+00  0.91188000000E+02  0.91188000000E+02 0.  0.
    9900012    2    3    3    0    0  0.14185497198E+02 -0.29031694053E+02  0.17655380832E+02  0.54367081181E+02  0.39999993169E+02 0.  0.
        -12    1    3    3    0    0 -0.14185497198E+02  0.29031694053E+02 -0.17655380832E+02  0.36820918819E+02  0.00000000000E+00 0.  1.
         11    1    4    4    0    0 -0.54475461166E-01 -0.75985777463E+01  0.13158447491E+02  0.15194936393E+02  0.51100000000E-03 0. -1.
        -11    1    4    4    0    0 -0.58178994013E+01  0.10461360855E+01 -0.48309486199E+01  0.76341613149E+01  0.51100000000E-03 0.  1.
        -12    1    4    4    0    0  0.20057872061E+02 -0.22479252392E+02  0.93278819602E+01  0.31537983473E+02  0.00000000000E+00 0.  1.
</event>
<event>
 8    1  0.2484572E-006  0.9118800E+02  0.7816164E-02  0.1184000E+00
        -11   -1    0    0    0    0  0.00000000000E+00  0.00000000000E+00  0.45593999997E+02  0.45594000000E+02  0.51100000000E-03 0.  1.
         11   -1    0    0    0    0 -0.00000000000E+00 -0.00000000000E+00 -0.45593999997E+02  0.45594000000E+02  0.51100000000E-03 0. -1.
         23    2    1    2    0    0 -0.17763568394E-14  0.00000000000E+00  0.00000000000E+00  0.91188000000E+02  0.91188000000E+02 0.  0.
    9900012    2    3    3    0    0 -0.14501936365E+02 -0.22435350082E+02  0.25340263495E+02  0.54367081413E+02  0.39999993697E+02 0.  0.
         12    1    3    3    0    0  0.14501936365E+02  0.22435350082E+02 -0.25340263495E+02  0.36820918587E+02  0.00000000000E+00 0. -1.
         11    1    4    4    0    0 -0.19878971257E+00 -0.22420688216E+02  0.23510106092E+02  0.32487718697E+02  0.51100000000E-03 0.  1.
        -11    1    4    4    0    0 -0.10183791327E+02 -0.24578785536E+01  0.86224895181E+01  0.13568275444E+02  0.51100000000E-03 0. -1.
         12    1    4    4    0    0 -0.41193553252E+01  0.24432166880E+01 -0.67923321147E+01  0.83110872716E+01  0.00000000000E+00 0. -1.
</event>
<event>
 8    1  0.2484572E-006  0.9118800E+02  0.7816164E-02  0.1184000E+00
        -11   -1    0    0    0    0  0.00000000000E+00  0.00000000000E+00  0.45593999997E+02  0.45594000000E+02  0.51100000000E-03 0.  1.
         11   -1    0    0    0    0 -0.00000000000E+00 -0.00000000000E+00 -0.45593999997E+02  0.45594000000E+02  0.51100000000E-03 0. -1.
         23    2    1    2    0    0  0.00000000000E+00  0.00000000000E+00 -0.11102230246E-14  0.91188000000E+02  0.91188000000E+02 0.  0.
    9900012    2    3    3    0    0  0.93614122103E+01  0.35606771530E+02 -0.56612475503E+00  0.54366827903E+02  0.39999415765E+02 0.  0.
        -12    1    3    3    0    0 -0.93614122103E+01 -0.35606771530E+02  0.56612475503E+00  0.36821172097E+02  0.00000000000E+00 0.  1.
         11    1    4    4    0    0  0.97726132619E+01  0.39065676720E+02 -0.74505068187E+01  0.40952913445E+02  0.51100000000E-03 0. -1.
        -11    1    4    4    0    0  0.18125479574E+01  0.29402534404E+01  0.55073121323E+01  0.65008389901E+01  0.51100000000E-03 0.  1.
        -12    1    4    4    0    0 -0.22237490090E+01 -0.63991586296E+01  0.13770699313E+01  0.69130754674E+01  0.00000000000E+00 0.  1.
</event>
<event>
 8    1  0.2484572E-006  0.9118800E+02  0.7816164E-02  0.1184000E+00
        -11   -1    0    0    0    0  0.00000000000E+00  0.00000000000E+00  0.45593999997E+02  0.45594000000E+02  0.51100000000E-03 0.  1.
         11   -1    0    0    0    0 -0.00000000000E+00 -0.00000000000E+00 -0.45593999997E+02  0.45594000000E+02  0.51100000000E-03 0. -1.
         23    2    1    2    0    0 -0.17763568394E-14  0.35527136788E-14  0.00000000000E+00  0.91188000000E+02  0.91188000000E+02 0.  0.
    9900012    2    3    3    0    0 -0.54604856715E+01  0.14026988784E+02 -0.33603640218E+02  0.54367109815E+02  0.40000058445E+02 0.  0.
        -12    1    3    3    0    0  0.54604856715E+01 -0.14026988784E+02  0.33603640218E+02  0.36820890185E+02  0.00000000000E+00 0.  1.
         11    1    4    4    0    0  0.36185612521E+01 -0.71036777312E+01 -0.27655364113E+01  0.84382708387E+01  0.51100000000E-03 0. -1.
        -11    1    4    4    0    0  0.19825095611E+00 -0.42628836202E+01 -0.12635998814E+02  0.13337164110E+02  0.51100000000E-03 0.  1.
        -12    1    4    4    0    0 -0.92772978797E+01  0.25393550135E+02 -0.18202104993E+02  0.32591674867E+02  0.00000000000E+00 0.  1.
</event>
<event>
 8    1  0.2484572E-006  0.9118800E+02  0.7816164E-02  0.1184000E+00
        -11   -1    0    0    0    0  0.00000000000E+00  0.00000000000E+00  0.45593999997E+02  0.45594000000E+02  0.51100000000E-03 0.  1.
         11   -1    0    0    0    0 -0.00000000000E+00 -0.00000000000E+00 -0.45593999997E+02  0.45594000000E+02  0.51100000000E-03 0. -1.
         23    2    1    2    0    0  0.88817841970E-15  0.00000000000E+00  0.00000000000E+00  0.91188000000E+02  0.91188000000E+02 0.  0.
    9900012    2    3    3    0    0  0.54605406519E+01  0.32294097093E+02 -0.16824231133E+02  0.54367068935E+02  0.39999965252E+02 0.  0.
         12    1    3    3    0    0 -0.54605406519E+01 -0.32294097093E+02  0.16824231133E+02  0.36820931065E+02  0.00000000000E+00 0. -1.
         11    1    4    4    0    0  0.77931014993E+01  0.19485252081E+02 -0.14378202571E+02  0.25438950236E+02  0.51100000000E-03 0. -1.
        -11    1    4    4    0    0 -0.92521445974E+01  0.81047745255E+01 -0.11330911160E+02  0.16723608992E+02  0.51100000000E-03 0.  1.
         12    1    4    4    0    0  0.69195837500E+01  0.47040704860E+01  0.88848825982E+01  0.12204509707E+02  0.00000000000E+00 0. -1.
</event>
<event>
 8    1  0.2484572E-006  0.9118800E+02  0.7816164E-02  0.1184000E+00
        -11   -1    0    0    0    0  0.00000000000E+00  0.00000000000E+00  0.45593999997E+02  0.45594000000E+02  0.51100000000E-03 0.  1.
         11   -1    0    0    0    0 -0.00000000000E+00 -0.00000000000E+00 -0.45593999997E+02  0.45594000000E+02  0.51100000000E-03 0. -1.
         23    2    1    2    0    0  0.00000000000E+00 -0.71054273576E-14 -0.17763568394E-14  0.91188000000E+02  0.91188000000E+02 0.  0.
    9900012    2    3    3    0    0 -0.77271943070E+01  0.33415867954E+02  0.13395834172E+02  0.54367107342E+02  0.40000052807E+02 0.  0.
        -12    1    3    3    0    0  0.77271943070E+01 -0.33415867954E+02 -0.13395834172E+02  0.36820892658E+02  0.00000000000E+00 0.  1.
         11    1    4    4    0    0  0.11609945679E+02  0.14365147771E+02  0.12435085243E+02  0.22266109998E+02  0.51100000000E-03 0. -1.
        -11    1    4    4    0    0 -0.11849081842E+02  0.88506351165E+00  0.32528361351E+01  0.12319294667E+02  0.51100000000E-03 0.  1.
         12    1    4    4    0    0 -0.74880581440E+01  0.18165656671E+02 -0.22920872062E+01  0.19781702677E+02  0.00000000000E+00 0. -1.
</event>
<event>
 8    1  0.2484572E-006  0.9118800E+02  0.7816164E-02  0.1184000E+00
        -11   -1    0    0    0    0  0.00000000000E+00  0.00000000000E+00  0.45593999997E+02  0.45594000000E+02  0.51100000000E-03 0. -1.
         11   -1    0    0    0    0 -0.00000000000E+00 -0.00000000000E+00 -0.45593999997E+02  0.45594000000E+02  0.51100000000E-03 0.  1.
         23    2    1    2    0    0  0.00000000000E+00  0.00000000000E+00  0.00000000000E+00  0.91188000000E+02  0.91188000000E+02 0.  0.
    9900012    2    3    3    0    0 -0.16235222188E+02  0.16244470254E+02  0.28780469732E+02  0.54367072644E+02  0.39999973707E+02 0.  0.
        -12    1    3    3    0    0  0.16235222188E+02 -0.16244470254E+02 -0.28780469732E+02  0.36820927356E+02  0.00000000000E+00 0.  1.
         11    1    4    4    0    0 -0.46525654487E+01  0.68881358013E+01 -0.40025319890E+01  0.92256730191E+01  0.51100000000E-03 0. -1.
        -11    1    4    4    0    0 -0.15577416640E+01  0.58550491097E+01 -0.37305440806E+01  0.71151330674E+01  0.51100000000E-03 0.  1.
         12    1    4    4    0    0 -0.10024915076E+02  0.35012853431E+01  0.36513545802E+02  0.38026266558E+02  0.00000000000E+00 0. -1.
</event>
<event>
 8    1  0.2484572E-006  0.9118800E+02  0.7816164E-02  0.1184000E+00
        -11   -1    0    0    0    0  0.00000000000E+00  0.00000000000E+00  0.45593999997E+02  0.45594000000E+02  0.51100000000E-03 0.  1.
         11   -1    0    0    0    0 -0.00000000000E+00 -0.00000000000E+00 -0.45593999997E+02  0.45594000000E+02  0.51100000000E-03 0. -1.
         23    2    1    2    0    0  0.00000000000E+00 -0.35527136788E-14  0.00000000000E+00  0.91188000000E+02  0.91188000000E+02 0.  0.
    9900012    2    3    3    0    0  0.84784217043E+01 -0.18940809525E+02  0.30416142028E+02  0.54367087519E+02  0.40000007618E+02 0.  0.
         12    1    3    3    0    0 -0.84784217043E+01  0.18940809525E+02 -0.30416142028E+02  0.36820912481E+02  0.00000000000E+00 0. -1.
         11    1    4    4    0    0 -0.53906814088E+01  0.26265428130E+01 -0.22553153471E+01  0.64066075872E+01  0.51100000000E-03 0. -1.
        -11    1    4    4    0    0  0.28069524784E+01 -0.23629260876E+02  0.23501465122E+02  0.33444578258E+02  0.51100000000E-03 0.  1.
        -12    1    4    4    0    0  0.11062150635E+02  0.20619085378E+01  0.91699922531E+01  0.14515901674E+02  0.00000000000E+00 0.  1.
</event>
<event>
 8    1  0.2484572E-006  0.9118800E+02  0.7816164E-02  0.1184000E+00
        -11   -1    0    0    0    0  0.00000000000E+00  0.00000000000E+00  0.45593999997E+02  0.45594000000E+02  0.51100000000E-03 0.  1.
         11   -1    0    0    0    0 -0.00000000000E+00 -0.00000000000E+00 -0.45593999997E+02  0.45594000000E+02  0.51100000000E-03 0. -1.
         23    2    1    2    0    0 -0.17763568394E-14  0.00000000000E+00  0.00000000000E+00  0.91188000000E+02  0.91188000000E+02 0.  0.
    9900012    2    3    3    0    0 -0.38112653983E+01  0.16339265265E+02 -0.32776264703E+02  0.54367070337E+02  0.39999968448E+02 0.  0.
        -12    1    3    3    0    0  0.38112653983E+01 -0.16339265265E+02  0.32776264703E+02  0.36820929663E+02  0.00000000000E+00 0.  1.
         11    1    4    4    0    0  0.93024271087E+01  0.10205530494E+02 -0.15612234313E+02  0.20842981151E+02  0.51100000000E-03 0. -1.
        -11    1    4    4    0    0  0.39669079017E+01  0.61088826646E+01  0.22903462590E+01  0.76354758828E+01  0.51100000000E-03 0.  1.
         12    1    4    4    0    0 -0.17080600409E+02  0.24852107196E-01 -0.19454376650E+02  0.25888613303E+02  0.00000000000E+00 0. -1.
</event>
<event>
 8    1  0.2484572E-006  0.9118800E+02  0.7816164E-02  0.1184000E+00
        -11   -1    0    0    0    0  0.00000000000E+00  0.00000000000E+00  0.45593999997E+02  0.45594000000E+02  0.51100000000E-03 0.  1.
         11   -1    0    0    0    0 -0.00000000000E+00 -0.00000000000E+00 -0.45593999997E+02  0.45594000000E+02  0.51100000000E-03 0. -1.
         23    2    1    2    0    0 -0.17763568394E-14  0.00000000000E+00  0.00000000000E+00  0.91188000000E+02  0.91188000000E+02 0.  0.
    9900012    2    3    3    0    0 -0.94653260629E+01  0.21707934093E+02 -0.28194907597E+02  0.54367087267E+02  0.40000007042E+02 0.  0.
        -12    1    3    3    0    0  0.94653260629E+01 -0.21707934093E+02  0.28194907597E+02  0.36820912733E+02  0.00000000000E+00 0.  1.
         11    1    4    4    0    0  0.78920500059E+01 -0.19855712798E+01 -0.45738825615E+01  0.93352744228E+01  0.51100000000E-03 0. -1.
        -11    1    4    4    0    0 -0.22758347953E+00  0.17935915901E+02 -0.40412295894E+01  0.18386963053E+02  0.51100000000E-03 0.  1.
         12    1    4    4    0    0 -0.17129792589E+02  0.57575894721E+01 -0.19579795446E+02  0.26644849791E+02  0.00000000000E+00 0. -1.
</event>
<event>
 8    1  0.2484572E-006  0.9118800E+02  0.7816164E-02  0.1184000E+00
        -11   -1    0    0    0    0  0.00000000000E+00  0.00000000000E+00  0.45593999997E+02  0.45594000000E+02  0.51100000000E-03 0.  1.
         11   -1    0    0    0    0 -0.00000000000E+00 -0.00000000000E+00 -0.45593999997E+02  0.45594000000E+02  0.51100000000E-03 0. -1.
         23    2    1    2    0    0  0.00000000000E+00  0.00000000000E+00  0.00000000000E+00  0.91188000000E+02  0.91188000000E+02 0.  0.
    9900012    2    3    3    0    0 -0.12800932437E+02  0.34237301318E+02  0.44410257334E+01  0.54367090419E+02  0.40000014229E+02 0.  0.
        -12    1    3    3    0    0  0.12800932437E+02 -0.34237301318E+02 -0.44410257334E+01  0.36820909581E+02  0.00000000000E+00 0.  1.
         11    1    4    4    0    0 -0.13267201614E+01  0.25447088991E+02 -0.12041024918E+02  0.28183342701E+02  0.51100000000E-03 0. -1.
        -11    1    4    4    0    0 -0.10583942607E+01 -0.27495254307E+01  0.78898195887E+01  0.84219559431E+01  0.51100000000E-03 0.  1.
        -12    1    4    4    0    0 -0.10415818015E+02  0.11539737757E+02  0.85922310623E+01  0.17761791775E+02  0.00000000000E+00 0.  1.
</event>
<event>
 8    1  0.2484572E-006  0.9118800E+02  0.7816164E-02  0.1184000E+00
        -11   -1    0    0    0    0  0.00000000000E+00  0.00000000000E+00  0.45593999997E+02  0.45594000000E+02  0.51100000000E-03 0.  1.
         11   -1    0    0    0    0 -0.00000000000E+00 -0.00000000000E+00 -0.45593999997E+02  0.45594000000E+02  0.51100000000E-03 0. -1.
         23    2    1    2    0    0  0.00000000000E+00 -0.71054273576E-14 -0.17763568394E-14  0.91188000000E+02  0.91188000000E+02 0.  0.
    9900012    2    3    3    0    0 -0.55418126357E+01  0.34414110598E+02 -0.11863261197E+02  0.54367086625E+02  0.40000005578E+02 0.  0.
        -12    1    3    3    0    0  0.55418126357E+01 -0.34414110598E+02  0.11863261197E+02  0.36820913375E+02  0.00000000000E+00 0.  1.
         11    1    4    4    0    0  0.75824908032E+01  0.46075877475E+01 -0.64277020139E+01  0.10956248677E+02  0.51100000000E-03 0. -1.
        -11    1    4    4    0    0 -0.47619379396E+01 -0.97619506930E-01 -0.10888191085E+02  0.11884371581E+02  0.51100000000E-03 0.  1.
        -12    1    4    4    0    0 -0.83623654993E+01  0.29904142358E+02  0.54526319018E+01  0.31526466367E+02  0.00000000000E+00 0.  1.
</event>
<event>
 8    1  0.2484572E-006  0.9118800E+02  0.7816164E-02  0.1184000E+00
        -11   -1    0    0    0    0  0.00000000000E+00  0.00000000000E+00  0.45593999997E+02  0.45594000000E+02  0.51100000000E-03 0.  1.
         11   -1    0    0    0    0 -0.00000000000E+00 -0.00000000000E+00 -0.45593999997E+02  0.45594000000E+02  0.51100000000E-03 0. -1.
         23    2    1    2    0    0 -0.17763568394E-14  0.88817841970E-15  0.00000000000E+00  0.91188000000E+02  0.91188000000E+02 0.  0.
    9900012    2    3    3    0    0 -0.15428637372E+02  0.40483649866E+01 -0.33186686423E+02  0.54366969787E+02  0.39999739222E+02 0.  0.
        -12    1    3    3    0    0  0.15428637372E+02 -0.40483649866E+01  0.33186686423E+02  0.36821030213E+02  0.00000000000E+00 0.  1.
         11    1    4    4    0    0 -0.12473011180E+02  0.14898540963E+01 -0.15167910454E+02  0.19694191553E+02  0.51100000000E-03 0. -1.
        -11    1    4    4    0    0 -0.14509476214E+01  0.69950912957E+01  0.65313725082E+01  0.96796373039E+01  0.51100000000E-03 0.  1.
         12    1    4    4    0    0 -0.15046785707E+01 -0.44365804053E+01 -0.24550148478E+02  0.24993140930E+02  0.00000000000E+00 0. -1.
</event>
<event>
 8    1  0.2484572E-006  0.9118800E+02  0.7816164E-02  0.1184000E+00
        -11   -1    0    0    0    0  0.00000000000E+00  0.00000000000E+00  0.45593999997E+02  0.45594000000E+02  0.51100000000E-03 0. -1.
         11   -1    0    0    0    0 -0.00000000000E+00 -0.00000000000E+00 -0.45593999997E+02  0.45594000000E+02  0.51100000000E-03 0.  1.
         23    2    1    2    0    0 -0.71054273576E-14  0.35527136788E-14  0.88817841970E-15  0.91188000000E+02  0.91188000000E+02 0.  0.
    9900012    2    3    3    0    0  0.23005112425E+02 -0.27935755207E+02 -0.67924828738E+01  0.54367089633E+02  0.40000012436E+02 0.  0.
         12    1    3    3    0    0 -0.23005112425E+02  0.27935755207E+02  0.67924828738E+01  0.36820910367E+02  0.00000000000E+00 0. -1.
         11    1    4    4    0    0  0.23159172210E+02 -0.51454234945E+01 -0.68449593981E+01  0.24691620234E+02  0.51100000000E-03 0. -1.
        -11    1    4    4    0    0 -0.17702699957E+00 -0.10946429607E+02 -0.94722263186E+01  0.14476834301E+02  0.51100000000E-03 0.  1.
        -12    1    4    4    0    0  0.22967214871E-01 -0.11843902106E+02  0.95247028429E+01  0.15198635098E+02  0.00000000000E+00 0.  1.
</event>
<event>
 8    1  0.2484572E-006  0.9118800E+02  0.7816164E-02  0.1184000E+00
        -11   -1    0    0    0    0  0.00000000000E+00  0.00000000000E+00  0.45593999997E+02  0.45594000000E+02  0.51100000000E-03 0. -1.
         11   -1    0    0    0    0 -0.00000000000E+00 -0.00000000000E+00 -0.45593999997E+02  0.45594000000E+02  0.51100000000E-03 0.  1.
         23    2    1    2    0    0  0.17763568394E-14  0.00000000000E+00  0.71054273576E-14  0.91188000000E+02  0.91188000000E+02 0.  0.
    9900012    2    3    3    0    0  0.10818668633E+02 -0.91004829251E+01 -0.33998807447E+02  0.54367064538E+02  0.39999955227E+02 0.  0.
         12    1    3    3    0    0 -0.10818668633E+02  0.91004829251E+01  0.33998807447E+02  0.36820935462E+02  0.00000000000E+00 0. -1.
         11    1    4    4    0    0 -0.58161210368E+01  0.46103679565E+00  0.15690203882E+01  0.60416590504E+01  0.51100000000E-03 0. -1.
        -11    1    4    4    0    0  0.23592820973E+02 -0.51417995246E+01 -0.23372508208E+02  0.33605556743E+02  0.51100000000E-03 0.  1.
         12    1    4    4    0    0 -0.69580313036E+01 -0.44197201962E+01 -0.12195319628E+02  0.14719848745E+02  0.00000000000E+00 0. -1.
</event>
<event>
 8    1  0.2484572E-006  0.9118800E+02  0.7816164E-02  0.1184000E+00
        -11   -1    0    0    0    0  0.00000000000E+00  0.00000000000E+00  0.45593999997E+02  0.45594000000E+02  0.51100000000E-03 0.  1.
         11   -1    0    0    0    0 -0.00000000000E+00 -0.00000000000E+00 -0.45593999997E+02  0.45594000000E+02  0.51100000000E-03 0. -1.
         23    2    1    2    0    0  0.35527136788E-14  0.00000000000E+00  0.17763568394E-14  0.91188000000E+02  0.91188000000E+02 0.  0.
    9900012    2    3    3    0    0 -0.30355259206E+02 -0.18962764876E+02 -0.86458777712E+01  0.54367089967E+02  0.40000013198E+02 0.  0.
        -12    1    3    3    0    0  0.30355259206E+02  0.18962764876E+02  0.86458777712E+01  0.36820910033E+02  0.00000000000E+00 0.  1.
         11    1    4    4    0    0 -0.19565948934E+02 -0.15401712159E+02  0.13262787012E+02  0.28212419511E+02  0.51100000000E-03 0. -1.
        -11    1    4    4    0    0 -0.10257332326E+02 -0.37216293762E+01 -0.11956758843E+02  0.16187262707E+02  0.51100000000E-03 0.  1.
        -12    1    4    4    0    0 -0.53197794664E+00  0.16057665894E+00 -0.99519059398E+01  0.99674077490E+01  0.00000000000E+00 0.  1.
</event>
<event>
 8    1  0.2484572E-006  0.9118800E+02  0.7816164E-02  0.1184000E+00
        -11   -1    0    0    0    0  0.00000000000E+00  0.00000000000E+00  0.45593999997E+02  0.45594000000E+02  0.51100000000E-03 0.  1.
         11   -1    0    0    0    0 -0.00000000000E+00 -0.00000000000E+00 -0.45593999997E+02  0.45594000000E+02  0.51100000000E-03 0. -1.
         23    2    1    2    0    0  0.38857805862E-15 -0.71054273576E-14  0.22204460493E-15  0.91188000000E+02  0.91188000000E+02 0.  0.
    9900012    2    3    3    0    0 -0.48641998586E+00  0.36791779496E+02 -0.13808750960E+01  0.54367102959E+02  0.40000042815E+02 0.  0.
        -12    1    3    3    0    0  0.48641998586E+00 -0.36791779496E+02  0.13808750960E+01  0.36820897041E+02  0.00000000000E+00 0.  1.
         11    1    4    4    0    0  0.55569670535E+01  0.17614560024E+02 -0.30573061988E+01  0.18721637993E+02  0.51100000000E-03 0. -1.
        -11    1    4    4    0    0  0.94902498566E+01  0.13394998745E+02 -0.58691721176E+01  0.17433818151E+02  0.51100000000E-03 0.  1.
        -12    1    4    4    0    0 -0.15533636896E+02  0.57822207272E+01  0.75456032204E+01  0.18211646815E+02  0.00000000000E+00 0.  1.
</event>
<event>
 8    1  0.2484572E-006  0.9118800E+02  0.7816164E-02  0.1184000E+00
        -11   -1    0    0    0    0  0.00000000000E+00  0.00000000000E+00  0.45593999997E+02  0.45594000000E+02  0.51100000000E-03 0. -1.
         11   -1    0    0    0    0 -0.00000000000E+00 -0.00000000000E+00 -0.45593999997E+02  0.45594000000E+02  0.51100000000E-03 0.  1.
         23    2    1    2    0    0  0.00000000000E+00 -0.17763568394E-14  0.00000000000E+00  0.91188000000E+02  0.91188000000E+02 0.  0.
    9900012    2    3    3    0    0 -0.35390959967E+02  0.96042293499E+01  0.33194325763E+01  0.54367083371E+02  0.39999998161E+02 0.  0.
         12    1    3    3    0    0  0.35390959967E+02 -0.96042293499E+01 -0.33194325763E+01  0.36820916629E+02  0.00000000000E+00 0. -1.
         11    1    4    4    0    0 -0.23783117651E+02 -0.10708284229E+02  0.22346067878E+01  0.26178187563E+02  0.51100000000E-03 0. -1.
        -11    1    4    4    0    0  0.32524119562E+01  0.62313261750E+01  0.29687880035E+01  0.76302891100E+01  0.51100000000E-03 0.  1.
         12    1    4    4    0    0 -0.14860254272E+02  0.14081187404E+02 -0.18839622150E+01  0.20558606698E+02  0.00000000000E+00 0. -1.
</event>
<event>
 8    1  0.2484572E-006  0.9118800E+02  0.7816164E-02  0.1184000E+00
        -11   -1    0    0    0    0  0.00000000000E+00  0.00000000000E+00  0.45593999997E+02  0.45594000000E+02  0.51100000000E-03 0.  1.
         11   -1    0    0    0    0 -0.00000000000E+00 -0.00000000000E+00 -0.45593999997E+02  0.45594000000E+02  0.51100000000E-03 0. -1.
         23    2    1    2    0    0 -0.71054273576E-14 -0.17763568394E-14  0.17763568394E-14  0.91188000000E+02  0.91188000000E+02 0.  0.
    9900012    2    3    3    0    0 -0.31706643602E+02 -0.10134438373E+02  0.15740452334E+02  0.54367082992E+02  0.39999997297E+02 0.  0.
         12    1    3    3    0    0  0.31706643602E+02  0.10134438373E+02 -0.15740452334E+02  0.36820917008E+02  0.00000000000E+00 0. -1.
         11    1    4    4    0    0  0.19867785431E+01  0.26305263372E+01 -0.77920808858E+01  0.84607022511E+01  0.51100000000E-03 0. -1.
        -11    1    4    4    0    0 -0.11045443430E+01 -0.57477157490E+01  0.53736502798E+01  0.79455882179E+01  0.51100000000E-03 0.  1.
        -12    1    4    4    0    0 -0.32588877802E+02 -0.70172489616E+01  0.18158882939E+02  0.37960792523E+02  0.00000000000E+00 0.  1.
</event>
<event>
 8    1  0.2484572E-006  0.9118800E+02  0.7816164E-02  0.1184000E+00
        -11   -1    0    0    0    0  0.00000000000E+00  0.00000000000E+00  0.45593999997E+02  0.45594000000E+02  0.51100000000E-03 0.  1.
         11   -1    0    0    0    0 -0.00000000000E+00 -0.00000000000E+00 -0.45593999997E+02  0.45594000000E+02  0.51100000000E-03 0. -1.
         23    2    1    2    0    0  0.17763568394E-14  0.00000000000E+00 -0.71054273576E-14  0.91188000000E+02  0.91188000000E+02 0.  0.
    9900012    2    3    3    0    0  0.12173832217E+02  0.38656003476E+01  0.34534554101E+02  0.54367075461E+02  0.39999980129E+02 0.  0.
         12    1    3    3    0    0 -0.12173832217E+02 -0.38656003476E+01 -0.34534554101E+02  0.36820924539E+02  0.00000000000E+00 0. -1.
         11    1    4    4    0    0 -0.96773671735E+01  0.69834920010E+01  0.79525454936E+01  0.14340975421E+02  0.51100000000E-03 0. -1.
        -11    1    4    4    0    0  0.21536164148E+02  0.43757156817E+01  0.22644465569E+02  0.31555111711E+02  0.51100000000E-03 0.  1.
        -12    1    4    4    0    0  0.31503524267E+00 -0.74936073351E+01  0.39375430392E+01  0.84709883297E+01  0.00000000000E+00 0.  1.
</event>
<event>
 8    1  0.2484572E-006  0.9118800E+02  0.7816164E-02  0.1184000E+00
        -11   -1    0    0    0    0  0.00000000000E+00  0.00000000000E+00  0.45593999997E+02  0.45594000000E+02  0.51100000000E-03 0. -1.
         11   -1    0    0    0    0 -0.00000000000E+00 -0.00000000000E+00 -0.45593999997E+02  0.45594000000E+02  0.51100000000E-03 0.  1.
         23    2    1    2    0    0  0.00000000000E+00  0.35527136788E-14 -0.35527136788E-14  0.91188000000E+02  0.91188000000E+02 0.  0.
    9900012    2    3    3    0    0  0.10569013179E+02 -0.28363027138E+02  0.20966967262E+02  0.54367094740E+02  0.40000024080E+02 0.  0.
         12    1    3    3    0    0 -0.10569013179E+02  0.28363027138E+02 -0.20966967262E+02  0.36820905260E+02  0.00000000000E+00 0. -1.
         11    1    4    4    0    0  0.41913267502E+01  0.51591228349E+01 -0.16289938992E+00  0.66490830064E+01  0.51100000000E-03 0. -1.
        -11    1    4    4    0    0 -0.98968998352E+01 -0.16047746656E+02  0.10486854842E+02  0.21574358016E+02  0.51100000000E-03 0.  1.
         12    1    4    4    0    0  0.16274586264E+02 -0.17474403317E+02  0.10643011809E+02  0.26143653718E+02  0.00000000000E+00 0. -1.
</event>
<event>
 8    1  0.2484572E-006  0.9118800E+02  0.7816164E-02  0.1184000E+00
        -11   -1    0    0    0    0  0.00000000000E+00  0.00000000000E+00  0.45593999997E+02  0.45594000000E+02  0.51100000000E-03 0.  1.
         11   -1    0    0    0    0 -0.00000000000E+00 -0.00000000000E+00 -0.45593999997E+02  0.45594000000E+02  0.51100000000E-03 0. -1.
         23    2    1    2    0    0  0.00000000000E+00  0.00000000000E+00  0.00000000000E+00  0.91188000000E+02  0.91188000000E+02 0.  0.
    9900012    2    3    3    0    0 -0.27665139148E+02 -0.18111115025E+02 -0.16198991305E+02  0.54367085687E+02  0.40000003440E+02 0.  0.
        -12    1    3    3    0    0  0.27665139148E+02  0.18111115025E+02  0.16198991305E+02  0.36820914313E+02  0.00000000000E+00 0.  1.
         11    1    4    4    0    0 -0.11223593245E+02 -0.11111615842E+02 -0.13684967619E+02  0.20897736503E+02  0.51100000000E-03 0. -1.
        -11    1    4    4    0    0 -0.10540288252E+02 -0.17739338140E+02  0.11861864881E+01  0.20668546943E+02  0.51100000000E-03 0.  1.
        -12    1    4    4    0    0 -0.59012576515E+01  0.10739838957E+02 -0.37002101748E+01  0.12800802241E+02  0.00000000000E+00 0.  1.
</event>
<event>
 8    1  0.2484572E-006  0.9118800E+02  0.7816164E-02  0.1184000E+00
        -11   -1    0    0    0    0  0.00000000000E+00  0.00000000000E+00  0.45593999997E+02  0.45594000000E+02  0.51100000000E-03 0. -1.
         11   -1    0    0    0    0 -0.00000000000E+00 -0.00000000000E+00 -0.45593999997E+02  0.45594000000E+02  0.51100000000E-03 0.  1.
         23    2    1    2    0    0  0.00000000000E+00  0.00000000000E+00 -0.44408920985E-15  0.91188000000E+02  0.91188000000E+02 0.  0.
    9900012    2    3    3    0    0 -0.28185784638E+02 -0.23660825992E+02  0.12277340364E+01  0.54367075607E+02  0.39999980461E+02 0.  0.
         12    1    3    3    0    0  0.28185784638E+02  0.23660825992E+02 -0.12277340364E+01  0.36820924393E+02  0.00000000000E+00 0. -1.
         11    1    4    4    0    0  0.37609799159E+01  0.36841347003E+01 -0.26898521560E+01  0.59121166514E+01  0.51100000000E-03 0. -1.
        -11    1    4    4    0    0 -0.11786429924E+02 -0.20065730299E+02 -0.71327772328E+01  0.24339884430E+02  0.51100000000E-03 0.  1.
        -12    1    4    4    0    0 -0.20160334631E+02 -0.72792303931E+01  0.11050363425E+02  0.24115074525E+02  0.00000000000E+00 0.  1.
</event>
<event>
 8    1  0.2484572E-006  0.9118800E+02  0.7816164E-02  0.1184000E+00
        -11   -1    0    0    0    0  0.00000000000E+00  0.00000000000E+00  0.45593999997E+02  0.45594000000E+02  0.51100000000E-03 0.  1.
         11   -1    0    0    0    0 -0.00000000000E+00 -0.00000000000E+00 -0.45593999997E+02  0.45594000000E+02  0.51100000000E-03 0. -1.
         23    2    1    2    0    0  0.00000000000E+00  0.44408920985E-15  0.00000000000E+00  0.91188000000E+02  0.91188000000E+02 0.  0.
    9900012    2    3    3    0    0  0.84462123666E+01  0.23604164554E+01  0.35761280585E+02  0.54367092104E+02  0.40000018069E+02 0.  0.
         12    1    3    3    0    0 -0.84462123666E+01 -0.23604164554E+01 -0.35761280585E+02  0.36820907896E+02  0.00000000000E+00 0. -1.
         11    1    4    4    0    0  0.16251518180E+02 -0.10771954774E+02  0.12987063014E+02  0.23426708237E+02  0.51100000000E-03 0. -1.
        -11    1    4    4    0    0  0.22120894750E+01  0.62427543100E+01  0.15291817169E+02  0.16664483005E+02  0.51100000000E-03 0.  1.
         12    1    4    4    0    0 -0.10017395288E+02  0.68896169197E+01  0.74824004018E+01  0.14275900862E+02  0.00000000000E+00 0. -1.
</event>
<event>
 8    1  0.2484572E-006  0.9118800E+02  0.7816164E-02  0.1184000E+00
        -11   -1    0    0    0    0  0.00000000000E+00  0.00000000000E+00  0.45593999997E+02  0.45594000000E+02  0.51100000000E-03 0. -1.
         11   -1    0    0    0    0 -0.00000000000E+00 -0.00000000000E+00 -0.45593999997E+02  0.45594000000E+02  0.51100000000E-03 0.  1.
         23    2    1    2    0    0  0.55511151231E-15  0.00000000000E+00  0.00000000000E+00  0.91188000000E+02  0.91188000000E+02 0.  0.
    9900012    2    3    3    0    0  0.38892472329E+00  0.15710945401E+02  0.33298571161E+02  0.54367083265E+02  0.39999997919E+02 0.  0.
        -12    1    3    3    0    0 -0.38892472329E+00 -0.15710945401E+02 -0.33298571161E+02  0.36820916735E+02  0.00000000000E+00 0.  1.
         11    1    4    4    0    0 -0.11139273926E+02  0.85599968874E+01  0.85383009485E+01  0.16439572794E+02  0.51100000000E-03 0. -1.
        -11    1    4    4    0    0  0.70487156102E+01  0.10308205304E+02  0.28619097659E+02  0.31224929774E+02  0.51100000000E-03 0.  1.
        -12    1    4    4    0    0  0.44794830389E+01 -0.31572567905E+01 -0.38588274461E+01  0.67025806967E+01  0.00000000000E+00 0.  1.
</event>
<event>
 8    1  0.2484572E-006  0.9118800E+02  0.7816164E-02  0.1184000E+00
        -11   -1    0    0    0    0  0.00000000000E+00  0.00000000000E+00  0.45593999997E+02  0.45594000000E+02  0.51100000000E-03 0.  1.
         11   -1    0    0    0    0 -0.00000000000E+00 -0.00000000000E+00 -0.45593999997E+02  0.45594000000E+02  0.51100000000E-03 0. -1.
         23    2    1    2    0    0  0.00000000000E+00  0.35527136788E-14  0.11102230246E-14  0.91188000000E+02  0.91188000000E+02 0.  0.
    9900012    2    3    3    0    0  0.27021687417E+02 -0.25011417145E+02 -0.19534209786E+00  0.54367072025E+02  0.39999972294E+02 0.  0.
         12    1    3    3    0    0 -0.27021687417E+02  0.25011417145E+02  0.19534209786E+00  0.36820927975E+02  0.00000000000E+00 0. -1.
         11    1    4    4    0    0  0.10153938594E+02 -0.88455294950E+01  0.40606582255E+01  0.14065376159E+02  0.51100000000E-03 0. -1.
        -11    1    4    4    0    0 -0.52340632108E+01  0.19599947398E+01  0.75348754229E+01  0.93814361893E+01  0.51100000000E-03 0.  1.
         12    1    4    4    0    0  0.22101812034E+02 -0.18125882390E+02 -0.11790875746E+02  0.30920259676E+02  0.00000000000E+00 0. -1.
</event>
<event>
 8    1  0.2484572E-006  0.9118800E+02  0.7816164E-02  0.1184000E+00
        -11   -1    0    0    0    0  0.00000000000E+00  0.00000000000E+00  0.45593999997E+02  0.45594000000E+02  0.51100000000E-03 0. -1.
         11   -1    0    0    0    0 -0.00000000000E+00 -0.00000000000E+00 -0.45593999997E+02  0.45594000000E+02  0.51100000000E-03 0.  1.
         23    2    1    2    0    0  0.71054273576E-14 -0.35527136788E-14  0.44408920985E-15  0.91188000000E+02  0.91188000000E+02 0.  0.
    9900012    2    3    3    0    0  0.36318104515E+02 -0.59794195867E+01  0.10114211185E+01  0.54367066459E+02  0.39999959606E+02 0.  0.
         12    1    3    3    0    0 -0.36318104515E+02  0.59794195867E+01 -0.10114211185E+01  0.36820933541E+02  0.00000000000E+00 0. -1.
         11    1    4    4    0    0  0.11980109635E+01  0.83472431038E+01  0.44434738627E+00  0.84444740845E+01  0.51100000000E-03 0. -1.
        -11    1    4    4    0    0  0.12403254138E+02  0.27643295830E+01 -0.93907739309E+01  0.15800913472E+02  0.51100000000E-03 0.  1.
         12    1    4    4    0    0  0.22716839413E+02 -0.17090992274E+02  0.99578476631E+01  0.30121678903E+02  0.00000000000E+00 0. -1.
</event>
<event>
 8    1  0.2484572E-006  0.9118800E+02  0.7816164E-02  0.1184000E+00
        -11   -1    0    0    0    0  0.00000000000E+00  0.00000000000E+00  0.45593999997E+02  0.45594000000E+02  0.51100000000E-03 0.  1.
         11   -1    0    0    0    0 -0.00000000000E+00 -0.00000000000E+00 -0.45593999997E+02  0.45594000000E+02  0.51100000000E-03 0. -1.
         23    2    1    2    0    0  0.00000000000E+00  0.88817841970E-15 -0.17763568394E-14  0.91188000000E+02  0.91188000000E+02 0.  0.
    9900012    2    3    3    0    0 -0.34700316784E+02 -0.53595803030E+01 -0.11087982621E+02  0.54367075995E+02  0.39999981347E+02 0.  0.
         12    1    3    3    0    0  0.34700316784E+02  0.53595803030E+01  0.11087982621E+02  0.36820924005E+02  0.00000000000E+00 0. -1.
         11    1    4    4    0    0 -0.33079028556E+02  0.68875714825E+01 -0.15870304281E+02  0.37329978963E+02  0.51100000000E-03 0. -1.
        -11    1    4    4    0    0 -0.81136049352E+00 -0.78774179491E+01 -0.26726839266E+01  0.83579458617E+01  0.51100000000E-03 0.  1.
         12    1    4    4    0    0 -0.80992773438E+00 -0.43697338364E+01  0.74550055870E+01  0.86791511703E+01  0.00000000000E+00 0. -1.
</event>
<event>
 8    1  0.2484572E-006  0.9118800E+02  0.7816164E-02  0.1184000E+00
        -11   -1    0    0    0    0  0.00000000000E+00  0.00000000000E+00  0.45593999997E+02  0.45594000000E+02  0.51100000000E-03 0.  1.
         11   -1    0    0    0    0 -0.00000000000E+00 -0.00000000000E+00 -0.45593999997E+02  0.45594000000E+02  0.51100000000E-03 0. -1.
         23    2    1    2    0    0  0.35527136788E-14  0.00000000000E+00  0.00000000000E+00  0.91188000000E+02  0.91188000000E+02 0.  0.
    9900012    2    3    3    0    0  0.27622156043E+02 -0.18239824778E+02 -0.16127892750E+02  0.54367032645E+02  0.39999882521E+02 0.  0.
        -12    1    3    3    0    0 -0.27622156043E+02  0.18239824778E+02  0.16127892750E+02  0.36820967355E+02  0.00000000000E+00 0.  1.
         11    1    4    4    0    0  0.16313085090E+02 -0.23741323926E+02 -0.20339239760E+02  0.35262613080E+02  0.51100000000E-03 0. -1.
        -11    1    4    4    0    0 -0.21189458204E+01  0.53893070193E+00  0.42603797587E+01  0.47886546796E+01  0.51100000000E-03 0.  1.
         12    1    4    4    0    0  0.13428016773E+02  0.49625684466E+01 -0.49032748426E-01  0.14315764886E+02  0.00000000000E+00 0. -1.
</event>
<event>
 8    1  0.2484572E-006  0.9118800E+02  0.7816164E-02  0.1184000E+00
        -11   -1    0    0    0    0  0.00000000000E+00  0.00000000000E+00  0.45593999997E+02  0.45594000000E+02  0.51100000000E-03 0.  1.
         11   -1    0    0    0    0 -0.00000000000E+00 -0.00000000000E+00 -0.45593999997E+02  0.45594000000E+02  0.51100000000E-03 0. -1.
         23    2    1    2    0    0  0.00000000000E+00 -0.17763568394E-14  0.88817841970E-15  0.91188000000E+02  0.91188000000E+02 0.  0.
    9900012    2    3    3    0    0  0.32945489663E+02  0.14838244407E+02  0.70856848002E+01  0.54367004423E+02  0.39999818183E+02 0.  0.
         12    1    3    3    0    0 -0.32945489663E+02 -0.14838244407E+02 -0.70856848002E+01  0.36820995577E+02  0.00000000000E+00 0. -1.
         11    1    4    4    0    0  0.22122327879E+02  0.30486087367E+01 -0.58801729054E+01  0.23092592745E+02  0.51100000000E-03 0. -1.
        -11    1    4    4    0    0 -0.56999925481E+00  0.77855517461E+01  0.16865144715E+02  0.18584208933E+02  0.51100000000E-03 0.  1.
         12    1    4    4    0    0  0.11393161038E+02  0.40040839243E+01 -0.38992870099E+01  0.12690202745E+02  0.00000000000E+00 0. -1.
</event>
<event>
 8    1  0.2484572E-006  0.9118800E+02  0.7816164E-02  0.1184000E+00
        -11   -1    0    0    0    0  0.00000000000E+00  0.00000000000E+00  0.45593999997E+02  0.45594000000E+02  0.51100000000E-03 0.  1.
         11   -1    0    0    0    0 -0.00000000000E+00 -0.00000000000E+00 -0.45593999997E+02  0.45594000000E+02  0.51100000000E-03 0. -1.
         23    2    1    2    0    0 -0.38857805862E-15  0.00000000000E+00 -0.71054273576E-14  0.91188000000E+02  0.91188000000E+02 0.  0.
    9900012    2    3    3    0    0 -0.41435962534E-01  0.12391993206E+02 -0.34672998515E+02  0.54367081508E+02  0.39999993913E+02 0.  0.
        -12    1    3    3    0    0  0.41435962534E-01 -0.12391993206E+02  0.34672998515E+02  0.36820918492E+02  0.00000000000E+00 0.  1.
         11    1    4    4    0    0 -0.13934738162E+01 -0.81575533524E+01 -0.56699163401E+01  0.10031719570E+02  0.51100000000E-03 0. -1.
        -11    1    4    4    0    0 -0.28555759682E+01  0.12359671566E+02  0.12172117881E+01  0.12743523850E+02  0.51100000000E-03 0.  1.
        -12    1    4    4    0    0  0.42076138218E+01  0.81898749929E+01 -0.30220293964E+02  0.31591838087E+02  0.00000000000E+00 0.  1.
</event>
<event>
 8    1  0.2484572E-006  0.9118800E+02  0.7816164E-02  0.1184000E+00
        -11   -1    0    0    0    0  0.00000000000E+00  0.00000000000E+00  0.45593999997E+02  0.45594000000E+02  0.51100000000E-03 0. -1.
         11   -1    0    0    0    0 -0.00000000000E+00 -0.00000000000E+00 -0.45593999997E+02  0.45594000000E+02  0.51100000000E-03 0.  1.
         23    2    1    2    0    0  0.88817841970E-15  0.00000000000E+00  0.00000000000E+00  0.91188000000E+02  0.91188000000E+02 0.  0.
    9900012    2    3    3    0    0 -0.50773111209E+01  0.10875471044E+02 -0.34809828897E+02  0.54367093623E+02  0.40000021532E+02 0.  0.
        -12    1    3    3    0    0  0.50773111209E+01 -0.10875471044E+02  0.34809828897E+02  0.36820906377E+02  0.00000000000E+00 0.  1.
         11    1    4    4    0    0  0.11462329551E+02  0.91765710307E+01 -0.52801413072E+01  0.15603664541E+02  0.51100000000E-03 0. -1.
        -11    1    4    4    0    0  0.16607613197E+01  0.55010660696E+01 -0.33455417364E+01  0.66492485165E+01  0.51100000000E-03 0.  1.
        -12    1    4    4    0    0 -0.18200401991E+02 -0.38021660567E+01 -0.26184145853E+02  0.32114180566E+02  0.00000000000E+00 0.  1.
</event>
<event>
 8    1  0.2484572E-006  0.9118800E+02  0.7816164E-02  0.1184000E+00
        -11   -1    0    0    0    0  0.00000000000E+00  0.00000000000E+00  0.45593999997E+02  0.45594000000E+02  0.51100000000E-03 0.  1.
         11   -1    0    0    0    0 -0.00000000000E+00 -0.00000000000E+00 -0.45593999997E+02  0.45594000000E+02  0.51100000000E-03 0. -1.
         23    2    1    2    0    0 -0.88817841970E-15  0.26645352591E-14 -0.71054273576E-14  0.91188000000E+02  0.91188000000E+02 0.  0.
    9900012    2    3    3    0    0 -0.50425323325E+01 -0.59979467864E+01  0.35977459021E+02  0.54367081277E+02  0.39999993387E+02 0.  0.
         12    1    3    3    0    0  0.50425323325E+01  0.59979467864E+01 -0.35977459021E+02  0.36820918723E+02  0.00000000000E+00 0. -1.
         11    1    4    4    0    0 -0.13677389669E+02  0.59373434156E+01  0.19466866263E+01  0.15037041733E+02  0.51100000000E-03 0. -1.
        -11    1    4    4    0    0  0.32253027177E+01 -0.34507785440E+01  0.26083759374E+02  0.26507979054E+02  0.51100000000E-03 0.  1.
         12    1    4    4    0    0  0.54095546193E+01 -0.84845116580E+01  0.79470130211E+01  0.12822060490E+02  0.00000000000E+00 0. -1.
</event>
<event>
 8    1  0.2484572E-006  0.9118800E+02  0.7816164E-02  0.1184000E+00
        -11   -1    0    0    0    0  0.00000000000E+00  0.00000000000E+00  0.45593999997E+02  0.45594000000E+02  0.51100000000E-03 0.  1.
         11   -1    0    0    0    0 -0.00000000000E+00 -0.00000000000E+00 -0.45593999997E+02  0.45594000000E+02  0.51100000000E-03 0. -1.
         23    2    1    2    0    0  0.00000000000E+00  0.00000000000E+00 -0.88817841970E-15  0.91188000000E+02  0.91188000000E+02 0.  0.
    9900012    2    3    3    0    0 -0.16546850248E+02  0.32539069289E+02  0.48159908507E+01  0.54367040599E+02  0.39999900654E+02 0.  0.
        -12    1    3    3    0    0  0.16546850248E+02 -0.32539069289E+02 -0.48159908507E+01  0.36820959401E+02  0.00000000000E+00 0.  1.
         11    1    4    4    0    0 -0.64910692123E+01  0.10973028462E+02 -0.49645587273E+01  0.13681673025E+02  0.51100000000E-03 0. -1.
        -11    1    4    4    0    0 -0.11464759669E+01  0.63260771726E+01 -0.11415159952E+02  0.13101127300E+02  0.51100000000E-03 0.  1.
        -12    1    4    4    0    0 -0.89093050691E+01  0.15239963654E+02  0.21195709530E+02  0.27584240274E+02  0.00000000000E+00 0.  1.
</event>
<event>
 8    1  0.2484572E-006  0.9118800E+02  0.7816164E-02  0.1184000E+00
        -11   -1    0    0    0    0  0.00000000000E+00  0.00000000000E+00  0.45593999997E+02  0.45594000000E+02  0.51100000000E-03 0. -1.
         11   -1    0    0    0    0 -0.00000000000E+00 -0.00000000000E+00 -0.45593999997E+02  0.45594000000E+02  0.51100000000E-03 0.  1.
         23    2    1    2    0    0  0.00000000000E+00  0.00000000000E+00  0.00000000000E+00  0.91188000000E+02  0.91188000000E+02 0.  0.
    9900012    2    3    3    0    0 -0.24684263205E+02 -0.21912731589E+02  0.16318724571E+02  0.54367062651E+02  0.39999950925E+02 0.  0.
        -12    1    3    3    0    0  0.24684263205E+02  0.21912731589E+02 -0.16318724571E+02  0.36820937349E+02  0.00000000000E+00 0.  1.
         11    1    4    4    0    0 -0.54513925707E+01  0.56137470577E+01  0.91244346821E+01  0.12020280592E+02  0.51100000000E-03 0. -1.
        -11    1    4    4    0    0  0.24905699248E+01  0.31676186971E+00 -0.44939782336E+01  0.51477293303E+01  0.51100000000E-03 0.  1.
         12    1    4    4    0    0 -0.21723440559E+02 -0.27843240517E+02  0.11688268123E+02  0.37199052728E+02  0.00000000000E+00 0. -1.
</event>
<event>
 8    1  0.2484572E-006  0.9118800E+02  0.7816164E-02  0.1184000E+00
        -11   -1    0    0    0    0  0.00000000000E+00  0.00000000000E+00  0.45593999997E+02  0.45594000000E+02  0.51100000000E-03 0. -1.
         11   -1    0    0    0    0 -0.00000000000E+00 -0.00000000000E+00 -0.45593999997E+02  0.45594000000E+02  0.51100000000E-03 0.  1.
         23    2    1    2    0    0  0.55511151231E-16  0.00000000000E+00  0.00000000000E+00  0.91188000000E+02  0.91188000000E+02 0.  0.
    9900012    2    3    3    0    0 -0.39830811004E+00 -0.30589570746E+02  0.20491458671E+02  0.54367077059E+02  0.39999983770E+02 0.  0.
        -12    1    3    3    0    0  0.39830811004E+00  0.30589570746E+02 -0.20491458671E+02  0.36820922941E+02  0.00000000000E+00 0.  1.
         11    1    4    4    0    0  0.72840409637E+01 -0.36580767540E+02  0.22616301407E+02  0.43620028613E+02  0.51100000000E-03 0. -1.
        -11    1    4    4    0    0  0.87456718514E-01  0.43259636045E+00  0.66183046218E+00  0.79549236984E+00  0.51100000000E-03 0.  1.
         12    1    4    4    0    0 -0.77698057923E+01  0.55586004331E+01 -0.27866731981E+01  0.99515560762E+01  0.00000000000E+00 0. -1.
</event>
<event>
 8    1  0.2484572E-006  0.9118800E+02  0.7816164E-02  0.1184000E+00
        -11   -1    0    0    0    0  0.00000000000E+00  0.00000000000E+00  0.45593999997E+02  0.45594000000E+02  0.51100000000E-03 0.  1.
         11   -1    0    0    0    0 -0.00000000000E+00 -0.00000000000E+00 -0.45593999997E+02  0.45594000000E+02  0.51100000000E-03 0. -1.
         23    2    1    2    0    0  0.44408920985E-14  0.71054273576E-14  0.17763568394E-14  0.91188000000E+02  0.91188000000E+02 0.  0.
    9900012    2    3    3    0    0  0.64173970904E+01 -0.34139272246E+02 -0.12210920670E+02  0.54367089114E+02  0.40000011253E+02 0.  0.
         12    1    3    3    0    0 -0.64173970904E+01  0.34139272246E+02  0.12210920670E+02  0.36820910886E+02  0.00000000000E+00 0. -1.
         11    1    4    4    0    0  0.51639735197E+01  0.17069113513E+01 -0.66071309761E+01  0.85577069867E+01  0.51100000000E-03 0. -1.
        -11    1    4    4    0    0 -0.13109151705E+02 -0.13349987473E+02 -0.11054078274E+01  0.18742837316E+02  0.51100000000E-03 0.  1.
        -12    1    4    4    0    0  0.14362575275E+02 -0.22496196124E+02 -0.44983818662E+01  0.27066544811E+02  0.00000000000E+00 0.  1.
</event>
<event>
 8    1  0.2484572E-006  0.9118800E+02  0.7816164E-02  0.1184000E+00
        -11   -1    0    0    0    0  0.00000000000E+00  0.00000000000E+00  0.45593999997E+02  0.45594000000E+02  0.51100000000E-03 0.  1.
         11   -1    0    0    0    0 -0.00000000000E+00 -0.00000000000E+00 -0.45593999997E+02  0.45594000000E+02  0.51100000000E-03 0. -1.
         23    2    1    2    0    0  0.00000000000E+00  0.00000000000E+00 -0.71054273576E-14  0.91188000000E+02  0.91188000000E+02 0.  0.
    9900012    2    3    3    0    0  0.12937239052E+01 -0.17332050039E+02 -0.32460820448E+02  0.54367101800E+02  0.40000040173E+02 0.  0.
        -12    1    3    3    0    0 -0.12937239052E+01  0.17332050039E+02  0.32460820448E+02  0.36820898200E+02  0.00000000000E+00 0.  1.
         11    1    4    4    0    0  0.45252627214E+01  0.77825070114E+01 -0.20371995926E+02  0.22272486084E+02  0.51100000000E-03 0. -1.
        -11    1    4    4    0    0 -0.17220352455E+01 -0.20112277568E+02 -0.14450836002E+01  0.20237524089E+02  0.51100000000E-03 0.  1.
         12    1    4    4    0    0 -0.15095035707E+01 -0.50022794818E+01 -0.10643740922E+02  0.11857091628E+02  0.00000000000E+00 0. -1.
</event>
<event>
 8    1  0.2484572E-006  0.9118800E+02  0.7816164E-02  0.1184000E+00
        -11   -1    0    0    0    0  0.00000000000E+00  0.00000000000E+00  0.45593999997E+02  0.45594000000E+02  0.51100000000E-03 0. -1.
         11   -1    0    0    0    0 -0.00000000000E+00 -0.00000000000E+00 -0.45593999997E+02  0.45594000000E+02  0.51100000000E-03 0.  1.
         23    2    1    2    0    0  0.00000000000E+00 -0.17763568394E-14  0.00000000000E+00  0.91188000000E+02  0.91188000000E+02 0.  0.
    9900012    2    3    3    0    0 -0.29066874787E+02  0.13389625248E+02  0.18210290742E+02  0.54367082534E+02  0.39999996252E+02 0.  0.
        -12    1    3    3    0    0  0.29066874787E+02 -0.13389625248E+02 -0.18210290742E+02  0.36820917466E+02  0.00000000000E+00 0.  1.
         11    1    4    4    0    0 -0.62030138648E+00 -0.40052181776E+01  0.34346863479E+01  0.53125904256E+01  0.51100000000E-03 0. -1.
        -11    1    4    4    0    0 -0.33453641875E+02  0.19704510357E+02  0.68897194019E+01  0.39431993569E+02  0.51100000000E-03 0.  1.
        -12    1    4    4    0    0  0.50070684743E+01 -0.23096669320E+01  0.78858849919E+01  0.96224985398E+01  0.00000000000E+00 0.  1.
</event>
<event>
 8    1  0.2484572E-006  0.9118800E+02  0.7816164E-02  0.1184000E+00
        -11   -1    0    0    0    0  0.00000000000E+00  0.00000000000E+00  0.45593999997E+02  0.45594000000E+02  0.51100000000E-03 0.  1.
         11   -1    0    0    0    0 -0.00000000000E+00 -0.00000000000E+00 -0.45593999997E+02  0.45594000000E+02  0.51100000000E-03 0. -1.
         23    2    1    2    0    0  0.00000000000E+00  0.00000000000E+00  0.00000000000E+00  0.91188000000E+02  0.91188000000E+02 0.  0.
    9900012    2    3    3    0    0  0.11915284305E+01 -0.24472507576E+01  0.36720196406E+02  0.54367060301E+02  0.39999945568E+02 0.  0.
         12    1    3    3    0    0 -0.11915284305E+01  0.24472507576E+01 -0.36720196406E+02  0.36820939699E+02  0.00000000000E+00 0. -1.
         11    1    4    4    0    0  0.88608684025E+01 -0.39579739859E+01  0.10023458591E+01  0.97562925541E+01  0.51100000000E-03 0. -1.
        -11    1    4    4    0    0  0.24320142983E+01  0.12156933575E+00  0.34218103218E+02  0.34304636141E+02  0.51100000000E-03 0.  1.
         12    1    4    4    0    0 -0.10101354270E+02  0.13891538925E+01  0.14997473285E+01  0.10306131606E+02  0.00000000000E+00 0. -1.
</event>
<event>
 8    1  0.2484572E-006  0.9118800E+02  0.7816164E-02  0.1184000E+00
        -11   -1    0    0    0    0  0.00000000000E+00  0.00000000000E+00  0.45593999997E+02  0.45594000000E+02  0.51100000000E-03 0.  1.
         11   -1    0    0    0    0 -0.00000000000E+00 -0.00000000000E+00 -0.45593999997E+02  0.45594000000E+02  0.51100000000E-03 0. -1.
         23    2    1    2    0    0 -0.88817841970E-15 -0.71054273576E-14  0.00000000000E+00  0.91188000000E+02  0.91188000000E+02 0.  0.
    9900012    2    3    3    0    0  0.39010111876E+01  0.36299103062E+02 -0.47896029133E+01  0.54367040378E+02  0.39999900150E+02 0.  0.
        -12    1    3    3    0    0 -0.39010111876E+01 -0.36299103062E+02  0.47896029133E+01  0.36820959622E+02  0.00000000000E+00 0.  1.
         11    1    4    4    0    0 -0.10272489893E+02 -0.17346499673E+01  0.15429378678E+01  0.10531558130E+02  0.51100000000E-03 0. -1.
        -11    1    4    4    0    0  0.44265148059E+01  0.80556818171E+01  0.48439220263E+01  0.10389977080E+02  0.51100000000E-03 0.  1.
         12    1    4    4    0    0  0.97469862751E+01  0.29978071213E+02 -0.11176462807E+02  0.33445505168E+02  0.00000000000E+00 0. -1.
</event>
<event>
 8    1  0.2484572E-006  0.9118800E+02  0.7816164E-02  0.1184000E+00
        -11   -1    0    0    0    0  0.00000000000E+00  0.00000000000E+00  0.45593999997E+02  0.45594000000E+02  0.51100000000E-03 0.  1.
         11   -1    0    0    0    0 -0.00000000000E+00 -0.00000000000E+00 -0.45593999997E+02  0.45594000000E+02  0.51100000000E-03 0. -1.
         23    2    1    2    0    0  0.22204460493E-15  0.13322676296E-14  0.71054273576E-14  0.91188000000E+02  0.91188000000E+02 0.  0.
    9900012    2    3    3    0    0  0.11154774513E+01 -0.34281406635E+01  0.36644037606E+02  0.54367055818E+02  0.39999935348E+02 0.  0.
         12    1    3    3    0    0 -0.11154774513E+01  0.34281406635E+01 -0.36644037606E+02  0.36820944182E+02  0.00000000000E+00 0. -1.
         11    1    4    4    0    0  0.14645172886E+02 -0.14781824425E+01  0.45216832855E+01  0.15398432784E+02  0.51100000000E-03 0. -1.
        -11    1    4    4    0    0 -0.51943691915E+01 -0.79172866124E+01  0.68228811781E+01  0.11671187019E+02  0.51100000000E-03 0.  1.
        -12    1    4    4    0    0 -0.83353262433E+01  0.59673283914E+01  0.25299473143E+02  0.27297436015E+02  0.00000000000E+00 0.  1.
</event>
<event>
 8    1  0.2484572E-006  0.9118800E+02  0.7816164E-02  0.1184000E+00
        -11   -1    0    0    0    0  0.00000000000E+00  0.00000000000E+00  0.45593999997E+02  0.45594000000E+02  0.51100000000E-03 0.  1.
         11   -1    0    0    0    0 -0.00000000000E+00 -0.00000000000E+00 -0.45593999997E+02  0.45594000000E+02  0.51100000000E-03 0. -1.
         23    2    1    2    0    0  0.00000000000E+00 -0.44408920985E-15  0.00000000000E+00  0.91188000000E+02  0.91188000000E+02 0.  0.
    9900012    2    3    3    0    0  0.34466397595E+02 -0.22919663674E+01 -0.12751253023E+02  0.54367080312E+02  0.39999991187E+02 0.  0.
        -12    1    3    3    0    0 -0.34466397595E+02  0.22919663674E+01  0.12751253023E+02  0.36820919688E+02  0.00000000000E+00 0.  1.
         11    1    4    4    0    0  0.41160252711E+02 -0.44862951040E+01 -0.59681650006E+01  0.41831952390E+02  0.51100000000E-03 0. -1.
        -11    1    4    4    0    0 -0.38693237127E+01  0.51526646699E+01 -0.39196588103E+01  0.75422373766E+01  0.51100000000E-03 0.  1.
         12    1    4    4    0    0 -0.28245314034E+01 -0.29583359333E+01 -0.28634292121E+01  0.49928905452E+01  0.00000000000E+00 0. -1.
</event>
<event>
 8    1  0.2484572E-006  0.9118800E+02  0.7816164E-02  0.1184000E+00
        -11   -1    0    0    0    0  0.00000000000E+00  0.00000000000E+00  0.45593999997E+02  0.45594000000E+02  0.51100000000E-03 0.  1.
         11   -1    0    0    0    0 -0.00000000000E+00 -0.00000000000E+00 -0.45593999997E+02  0.45594000000E+02  0.51100000000E-03 0. -1.
         23    2    1    2    0    0 -0.88817841970E-15  0.71054273576E-14  0.71054273576E-14  0.91188000000E+02  0.91188000000E+02 0.  0.
    9900012    2    3    3    0    0  0.77580423020E+01 -0.23821149374E+02 -0.26984199288E+02  0.54367063169E+02  0.39999952107E+02 0.  0.
        -12    1    3    3    0    0 -0.77580423020E+01  0.23821149374E+02  0.26984199288E+02  0.36820936831E+02  0.00000000000E+00 0.  1.
         11    1    4    4    0    0  0.99526865292E+01 -0.31915348546E+02 -0.18662157296E+02  0.38287355055E+02  0.51100000000E-03 0. -1.
        -11    1    4    4    0    0  0.40036003139E+01  0.18657986129E+01 -0.74993694722E+00  0.44802260683E+01  0.51100000000E-03 0.  1.
        -12    1    4    4    0    0 -0.61982445411E+01  0.62284005586E+01 -0.75721050451E+01  0.11599482045E+02  0.00000000000E+00 0.  1.
</event>
<event>
 8    1  0.2484572E-006  0.9118800E+02  0.7816164E-02  0.1184000E+00
        -11   -1    0    0    0    0  0.00000000000E+00  0.00000000000E+00  0.45593999997E+02  0.45594000000E+02  0.51100000000E-03 0. -1.
         11   -1    0    0    0    0 -0.00000000000E+00 -0.00000000000E+00 -0.45593999997E+02  0.45594000000E+02  0.51100000000E-03 0.  1.
         23    2    1    2    0    0 -0.35527136788E-14  0.35527136788E-14 -0.35527136788E-14  0.91188000000E+02  0.91188000000E+02 0.  0.
    9900012    2    3    3    0    0  0.16941339468E+02 -0.28380477066E+02  0.16227122893E+02  0.54367082319E+02  0.39999995764E+02 0.  0.
         12    1    3    3    0    0 -0.16941339468E+02  0.28380477066E+02 -0.16227122893E+02  0.36820917681E+02  0.00000000000E+00 0. -1.
         11    1    4    4    0    0  0.12497186719E+02  0.12005695841E+01 -0.44263472064E+01  0.13312159594E+02  0.51100000000E-03 0. -1.
        -11    1    4    4    0    0  0.97513739409E+01 -0.28343443455E+02  0.16605232676E+02  0.34266220001E+02  0.51100000000E-03 0.  1.
        -12    1    4    4    0    0 -0.53072211922E+01 -0.12376031951E+01  0.40482374225E+01  0.67887027244E+01  0.00000000000E+00 0.  1.
</event>
<event>
 8    1  0.2484572E-006  0.9118800E+02  0.7816164E-02  0.1184000E+00
        -11   -1    0    0    0    0  0.00000000000E+00  0.00000000000E+00  0.45593999997E+02  0.45594000000E+02  0.51100000000E-03 0. -1.
         11   -1    0    0    0    0 -0.00000000000E+00 -0.00000000000E+00 -0.45593999997E+02  0.45594000000E+02  0.51100000000E-03 0.  1.
         23    2    1    2    0    0 -0.16653345369E-15  0.00000000000E+00  0.00000000000E+00  0.91188000000E+02  0.91188000000E+02 0.  0.
    9900012    2    3    3    0    0 -0.41984670431E+00  0.26635219328E+02 -0.25419864513E+02  0.54367072639E+02  0.39999973694E+02 0.  0.
         12    1    3    3    0    0  0.41984670431E+00 -0.26635219328E+02  0.25419864513E+02  0.36820927361E+02  0.00000000000E+00 0. -1.
         11    1    4    4    0    0 -0.85298270806E+01 -0.47967100599E+01 -0.39955913991E+01  0.10570294618E+02  0.51100000000E-03 0. -1.
        -11    1    4    4    0    0  0.32999063480E+01  0.18632961883E+02 -0.23277645871E+02  0.29998757441E+02  0.51100000000E-03 0.  1.
         12    1    4    4    0    0  0.48100740283E+01  0.12798967505E+02  0.18533727567E+01  0.13798020580E+02  0.00000000000E+00 0. -1.
</event>
<event>
 8    1  0.2484572E-006  0.9118800E+02  0.7816164E-02  0.1184000E+00
        -11   -1    0    0    0    0  0.00000000000E+00  0.00000000000E+00  0.45593999997E+02  0.45594000000E+02  0.51100000000E-03 0. -1.
         11   -1    0    0    0    0 -0.00000000000E+00 -0.00000000000E+00 -0.45593999997E+02  0.45594000000E+02  0.51100000000E-03 0.  1.
         23    2    1    2    0    0  0.35527136788E-14 -0.71054273576E-14  0.17763568394E-14  0.91188000000E+02  0.91188000000E+02 0.  0.
    9900012    2    3    3    0    0  0.21982832546E+02 -0.26631989594E+02  0.12777781069E+02  0.54367089018E+02  0.40000011035E+02 0.  0.
        -12    1    3    3    0    0 -0.21982832546E+02  0.26631989594E+02 -0.12777781069E+02  0.36820910982E+02  0.00000000000E+00 0.  1.
         11    1    4    4    0    0  0.73731304918E+01 -0.22692053011E+01  0.47786669811E+01  0.90745801183E+01  0.51100000000E-03 0. -1.
        -11    1    4    4    0    0  0.17454827386E+02 -0.13359422473E+02 -0.98863100573E+01  0.24101541334E+02  0.51100000000E-03 0.  1.
         12    1    4    4    0    0 -0.28451253315E+01 -0.11003361820E+02  0.17885424146E+02  0.21190967566E+02  0.00000000000E+00 0. -1.
</event>
<event>
 8    1  0.2484572E-006  0.9118800E+02  0.7816164E-02  0.1184000E+00
        -11   -1    0    0    0    0  0.00000000000E+00  0.00000000000E+00  0.45593999997E+02  0.45594000000E+02  0.51100000000E-03 0. -1.
         11   -1    0    0    0    0 -0.00000000000E+00 -0.00000000000E+00 -0.45593999997E+02  0.45594000000E+02  0.51100000000E-03 0.  1.
         23    2    1    2    0    0  0.00000000000E+00  0.00000000000E+00  0.00000000000E+00  0.91188000000E+02  0.91188000000E+02 0.  0.
    9900012    2    3    3    0    0 -0.18424867245E+02  0.31328719108E+02 -0.59004002019E+01  0.54367094301E+02  0.40000023077E+02 0.  0.
         12    1    3    3    0    0  0.18424867245E+02 -0.31328719108E+02  0.59004002019E+01  0.36820905699E+02  0.00000000000E+00 0. -1.
         11    1    4    4    0    0  0.36643612471E+01  0.26611982976E+02  0.69583208402E+01  0.27749656042E+02  0.51100000000E-03 0. -1.
        -11    1    4    4    0    0 -0.11784299143E+02 -0.13533482068E+00 -0.51329606574E+01  0.12854388635E+02  0.51100000000E-03 0.  1.
         12    1    4    4    0    0 -0.10304929349E+02  0.48520709533E+01 -0.77257603848E+01  0.13763049624E+02  0.00000000000E+00 0. -1.
</event>
<event>
 8    1  0.2484572E-006  0.9118800E+02  0.7816164E-02  0.1184000E+00
        -11   -1    0    0    0    0  0.00000000000E+00  0.00000000000E+00  0.45593999997E+02  0.45594000000E+02  0.51100000000E-03 0. -1.
         11   -1    0    0    0    0 -0.00000000000E+00 -0.00000000000E+00 -0.45593999997E+02  0.45594000000E+02  0.51100000000E-03 0.  1.
         23    2    1    2    0    0  0.00000000000E+00  0.00000000000E+00  0.35527136788E-14  0.91188000000E+02  0.91188000000E+02 0.  0.
    9900012    2    3    3    0    0 -0.27452708818E+02  0.14994431374E+02  0.19424093178E+02  0.54367087607E+02  0.40000007817E+02 0.  0.
         12    1    3    3    0    0  0.27452708818E+02 -0.14994431374E+02 -0.19424093178E+02  0.36820912393E+02  0.00000000000E+00 0. -1.
         11    1    4    4    0    0 -0.19389031626E+02  0.67560183028E+01  0.28984272915E+02  0.35519943798E+02  0.51100000000E-03 0. -1.
        -11    1    4    4    0    0 -0.99524848981E+01  0.31752427935E+01 -0.81838441096E+01  0.13270622710E+02  0.51100000000E-03 0.  1.
         12    1    4    4    0    0  0.18888077056E+01  0.50631702776E+01 -0.13763356275E+01  0.55765210991E+01  0.00000000000E+00 0. -1.
</event>
<event>
 8    1  0.2484572E-006  0.9118800E+02  0.7816164E-02  0.1184000E+00
        -11   -1    0    0    0    0  0.00000000000E+00  0.00000000000E+00  0.45593999997E+02  0.45594000000E+02  0.51100000000E-03 0.  1.
         11   -1    0    0    0    0 -0.00000000000E+00 -0.00000000000E+00 -0.45593999997E+02  0.45594000000E+02  0.51100000000E-03 0. -1.
         23    2    1    2    0    0  0.35527136788E-14  0.00000000000E+00 -0.88817841970E-15  0.91188000000E+02  0.91188000000E+02 0.  0.
    9900012    2    3    3    0    0 -0.25668843309E+02  0.26366665729E+02 -0.12997083907E+01  0.54367084471E+02  0.40000000668E+02 0.  0.
        -12    1    3    3    0    0  0.25668843309E+02 -0.26366665729E+02  0.12997083907E+01  0.36820915529E+02  0.00000000000E+00 0.  1.
         11    1    4    4    0    0 -0.27047703526E+02  0.16868128300E+02 -0.10092631902E+02  0.33436106791E+02  0.51100000000E-03 0. -1.
        -11    1    4    4    0    0  0.36755375796E+00  0.91285329124E+01  0.13389814741E+02  0.16209637502E+02  0.51100000000E-03 0.  1.
        -12    1    4    4    0    0  0.10113064590E+01  0.37000451674E+00 -0.45968912291E+01  0.47213401772E+01  0.00000000000E+00 0.  1.
</event>
<event>
 8    1  0.2484572E-006  0.9118800E+02  0.7816164E-02  0.1184000E+00
        -11   -1    0    0    0    0  0.00000000000E+00  0.00000000000E+00  0.45593999997E+02  0.45594000000E+02  0.51100000000E-03 0.  1.
         11   -1    0    0    0    0 -0.00000000000E+00 -0.00000000000E+00 -0.45593999997E+02  0.45594000000E+02  0.51100000000E-03 0. -1.
         23    2    1    2    0    0  0.00000000000E+00 -0.35527136788E-14  0.00000000000E+00  0.91188000000E+02  0.91188000000E+02 0.  0.
    9900012    2    3    3    0    0  0.68279818417E+01 -0.30899937389E+02  0.18824258714E+02  0.54367079550E+02  0.39999989449E+02 0.  0.
         12    1    3    3    0    0 -0.68279818417E+01  0.30899937389E+02 -0.18824258714E+02  0.36820920450E+02  0.00000000000E+00 0. -1.
         11    1    4    4    0    0  0.62847682682E+01 -0.18889792090E+02  0.26122438389E+02  0.32843634772E+02  0.51100000000E-03 0. -1.
        -11    1    4    4    0    0  0.22951563327E+01  0.34471670404E+01  0.41107603174E+00  0.41616928000E+01  0.51100000000E-03 0.  1.
         12    1    4    4    0    0 -0.17519427593E+01 -0.15457312339E+02 -0.77092557068E+01  0.17361751978E+02  0.00000000000E+00 0. -1.
</event>
<event>
 8    1  0.2484572E-006  0.9118800E+02  0.7816164E-02  0.1184000E+00
        -11   -1    0    0    0    0  0.00000000000E+00  0.00000000000E+00  0.45593999997E+02  0.45594000000E+02  0.51100000000E-03 0.  1.
         11   -1    0    0    0    0 -0.00000000000E+00 -0.00000000000E+00 -0.45593999997E+02  0.45594000000E+02  0.51100000000E-03 0. -1.
         23    2    1    2    0    0 -0.35527136788E-14 -0.44408920985E-15  0.00000000000E+00  0.91188000000E+02  0.91188000000E+02 0.  0.
    9900012    2    3    3    0    0  0.16800129698E+02  0.36675078017E+01  0.32558955202E+02  0.54367074764E+02  0.39999978540E+02 0.  0.
         12    1    3    3    0    0 -0.16800129698E+02 -0.36675078017E+01 -0.32558955202E+02  0.36820925236E+02  0.00000000000E+00 0. -1.
         11    1    4    4    0    0 -0.10713691791E+02  0.78854895513E+01  0.13399024064E+02  0.18881154186E+02  0.51100000000E-03 0. -1.
        -11    1    4    4    0    0  0.80079759331E+01  0.16044874765E+01  0.10653358949E+02  0.13423714678E+02  0.51100000000E-03 0.  1.
         12    1    4    4    0    0  0.19505845557E+02 -0.58224692261E+01  0.85065721891E+01  0.22062205900E+02  0.00000000000E+00 0. -1.
</event>
<event>
 8    1  0.2484572E-006  0.9118800E+02  0.7816164E-02  0.1184000E+00
        -11   -1    0    0    0    0  0.00000000000E+00  0.00000000000E+00  0.45593999997E+02  0.45594000000E+02  0.51100000000E-03 0. -1.
         11   -1    0    0    0    0 -0.00000000000E+00 -0.00000000000E+00 -0.45593999997E+02  0.45594000000E+02  0.51100000000E-03 0.  1.
         23    2    1    2    0    0  0.00000000000E+00  0.00000000000E+00 -0.71054273576E-14  0.91188000000E+02  0.91188000000E+02 0.  0.
    9900012    2    3    3    0    0 -0.11747056632E+02 -0.10262063653E+02 -0.33353781112E+02  0.54367109131E+02  0.40000056886E+02 0.  0.
         12    1    3    3    0    0  0.11747056632E+02  0.10262063653E+02  0.33353781112E+02  0.36820890869E+02  0.00000000000E+00 0. -1.
         11    1    4    4    0    0  0.81499627794E+00 -0.84343782644E+01 -0.38726452867E+01  0.93166698674E+01  0.51100000000E-03 0. -1.
        -11    1    4    4    0    0 -0.71716144005E+00 -0.15446379671E+02 -0.96105601852E+01  0.18206258067E+02  0.51100000000E-03 0.  1.
         12    1    4    4    0    0 -0.11844891470E+02  0.13618694282E+02 -0.19870575640E+02  0.26844181197E+02  0.00000000000E+00 0. -1.
</event>
<event>
 8    1  0.2484572E-006  0.9118800E+02  0.7816164E-02  0.1184000E+00
        -11   -1    0    0    0    0  0.00000000000E+00  0.00000000000E+00  0.45593999997E+02  0.45594000000E+02  0.51100000000E-03 0. -1.
         11   -1    0    0    0    0 -0.00000000000E+00 -0.00000000000E+00 -0.45593999997E+02  0.45594000000E+02  0.51100000000E-03 0.  1.
         23    2    1    2    0    0  0.71054273576E-14  0.00000000000E+00  0.17763568394E-14  0.91188000000E+02  0.91188000000E+02 0.  0.
    9900012    2    3    3    0    0  0.32471918127E+02 -0.12464267064E+02  0.12082906830E+02  0.54367081248E+02  0.39999993321E+02 0.  0.
        -12    1    3    3    0    0 -0.32471918127E+02  0.12464267064E+02 -0.12082906830E+02  0.36820918752E+02  0.00000000000E+00 0.  1.
         11    1    4    4    0    0  0.21181946349E+01 -0.69894716894E-01 -0.51415516640E+01  0.55612217685E+01  0.51100000000E-03 0. -1.
        -11    1    4    4    0    0  0.26405031323E+01  0.92491382044E+01  0.78471905368E+01  0.12413589888E+02  0.51100000000E-03 0.  1.
         12    1    4    4    0    0  0.27713220360E+02 -0.21643510551E+02  0.93772679577E+01  0.36392269592E+02  0.00000000000E+00 0. -1.
</event>
<event>
 8    1  0.2484572E-006  0.9118800E+02  0.7816164E-02  0.1184000E+00
        -11   -1    0    0    0    0  0.00000000000E+00  0.00000000000E+00  0.45593999997E+02  0.45594000000E+02  0.51100000000E-03 0.  1.
         11   -1    0    0    0    0 -0.00000000000E+00 -0.00000000000E+00 -0.45593999997E+02  0.45594000000E+02  0.51100000000E-03 0. -1.
         23    2    1    2    0    0 -0.35527136788E-14  0.35527136788E-14  0.00000000000E+00  0.91188000000E+02  0.91188000000E+02 0.  0.
    9900012    2    3    3    0    0  0.24271176805E+02  0.19272049841E+02  0.19881660777E+02  0.54367049934E+02  0.39999921934E+02 0.  0.
         12    1    3    3    0    0 -0.24271176805E+02 -0.19272049841E+02 -0.19881660777E+02  0.36820950066E+02  0.00000000000E+00 0. -1.
         11    1    4    4    0    0 -0.10304015394E+02  0.65548143884E+01  0.48463494169E+01  0.13138699625E+02  0.51100000000E-03 0. -1.
        -11    1    4    4    0    0  0.60934159082E+01  0.20580425649E+01  0.75339278527E+01  0.99058228219E+01  0.51100000000E-03 0.  1.
        -12    1    4    4    0    0  0.28481776290E+02  0.10659192888E+02  0.75013835072E+01  0.31322527487E+02  0.00000000000E+00 0.  1.
</event>
<event>
 8    1  0.2484572E-006  0.9118800E+02  0.7816164E-02  0.1184000E+00
        -11   -1    0    0    0    0  0.00000000000E+00  0.00000000000E+00  0.45593999997E+02  0.45594000000E+02  0.51100000000E-03 0.  1.
         11   -1    0    0    0    0 -0.00000000000E+00 -0.00000000000E+00 -0.45593999997E+02  0.45594000000E+02  0.51100000000E-03 0. -1.
         23    2    1    2    0    0  0.00000000000E+00  0.00000000000E+00  0.00000000000E+00  0.91188000000E+02  0.91188000000E+02 0.  0.
    9900012    2    3    3    0    0 -0.29598813960E+02 -0.13908578810E+02  0.16918680933E+02  0.54367080446E+02  0.39999991492E+02 0.  0.
         12    1    3    3    0    0  0.29598813960E+02  0.13908578810E+02 -0.16918680933E+02  0.36820919554E+02  0.00000000000E+00 0. -1.
         11    1    4    4    0    0 -0.21882807122E+02 -0.83799520004E+01 -0.53484027111E+01  0.24035104636E+02  0.51100000000E-03 0. -1.
        -11    1    4    4    0    0 -0.78116314990E+01  0.36675158082E+01  0.18461809555E+02  0.20379172485E+02  0.51100000000E-03 0.  1.
        -12    1    4    4    0    0  0.95624660957E-01 -0.91961426173E+01  0.38052740891E+01  0.99528033240E+01  0.00000000000E+00 0.  1.
</event>
<event>
 8    1  0.2484572E-006  0.9118800E+02  0.7816164E-02  0.1184000E+00
        -11   -1    0    0    0    0  0.00000000000E+00  0.00000000000E+00  0.45593999997E+02  0.45594000000E+02  0.51100000000E-03 0.  1.
         11   -1    0    0    0    0 -0.00000000000E+00 -0.00000000000E+00 -0.45593999997E+02  0.45594000000E+02  0.51100000000E-03 0. -1.
         23    2    1    2    0    0  0.00000000000E+00  0.00000000000E+00 -0.44408920985E-15  0.91188000000E+02  0.91188000000E+02 0.  0.
    9900012    2    3    3    0    0  0.10766942585E+02  0.34999701979E+02 -0.38567551280E+01  0.54367071829E+02  0.39999971850E+02 0.  0.
         12    1    3    3    0    0 -0.10766942585E+02 -0.34999701979E+02  0.38567551280E+01  0.36820928171E+02  0.00000000000E+00 0. -1.
         11    1    4    4    0    0  0.19534050890E+02  0.13155666342E+02  0.54859853732E+00  0.23557412033E+02  0.51100000000E-03 0. -1.
        -11    1    4    4    0    0 -0.36540080308E+01  0.15898877486E+02  0.63445348354E+01  0.17503691112E+02  0.51100000000E-03 0.  1.
         12    1    4    4    0    0 -0.51131002744E+01  0.59451581503E+01 -0.10749888501E+02  0.13305968684E+02  0.00000000000E+00 0. -1.
</event>
<event>
 8    1  0.2484572E-006  0.9118800E+02  0.7816164E-02  0.1184000E+00
        -11   -1    0    0    0    0  0.00000000000E+00  0.00000000000E+00  0.45593999997E+02  0.45594000000E+02  0.51100000000E-03 0. -1.
         11   -1    0    0    0    0 -0.00000000000E+00 -0.00000000000E+00 -0.45593999997E+02  0.45594000000E+02  0.51100000000E-03 0.  1.
         23    2    1    2    0    0  0.00000000000E+00  0.00000000000E+00  0.00000000000E+00  0.91188000000E+02  0.91188000000E+02 0.  0.
    9900012    2    3    3    0    0 -0.24751392330E+02 -0.27151846489E+02  0.24347102440E+01  0.54367054819E+02  0.39999933071E+02 0.  0.
        -12    1    3    3    0    0  0.24751392330E+02  0.27151846489E+02 -0.24347102440E+01  0.36820945181E+02  0.00000000000E+00 0.  1.
         11    1    4    4    0    0 -0.72486546460E+01 -0.82908310700E+01 -0.92246367212E+01  0.14365750830E+02  0.51100000000E-03 0.  1.
        -11    1    4    4    0    0 -0.16416772162E+02 -0.26076908927E+02  0.79885837285E+01  0.31832892701E+02  0.51100000000E-03 0. -1.
         12    1    4    4    0    0 -0.10859655218E+01  0.72158935085E+01  0.36707632367E+01  0.81684112887E+01  0.00000000000E+00 0. -1.
</event>
<event>
 8    1  0.2484572E-006  0.9118800E+02  0.7816164E-02  0.1184000E+00
        -11   -1    0    0    0    0  0.00000000000E+00  0.00000000000E+00  0.45593999997E+02  0.45594000000E+02  0.51100000000E-03 0. -1.
         11   -1    0    0    0    0 -0.00000000000E+00 -0.00000000000E+00 -0.45593999997E+02  0.45594000000E+02  0.51100000000E-03 0.  1.
         23    2    1    2    0    0  0.71054273576E-14  0.00000000000E+00  0.00000000000E+00  0.91188000000E+02  0.91188000000E+02 0.  0.
    9900012    2    3    3    0    0 -0.23840712991E+02  0.20337260244E+02  0.19333808883E+02  0.54367083172E+02  0.39999997706E+02 0.  0.
         12    1    3    3    0    0  0.23840712991E+02 -0.20337260244E+02 -0.19333808883E+02  0.36820916828E+02  0.00000000000E+00 0. -1.
         11    1    4    4    0    0  0.49551363969E+01  0.36398173223E+01  0.15201286471E+02  0.16397583892E+02  0.51100000000E-03 0. -1.
        -11    1    4    4    0    0 -0.23687162463E+02  0.39938018031E+01  0.19025034913E+01  0.24096714261E+02  0.51100000000E-03 0.  1.
         12    1    4    4    0    0 -0.51086869247E+01  0.12703641119E+02  0.22300189203E+01  0.13872785018E+02  0.00000000000E+00 0. -1.
</event>
<event>
 8    1  0.2484572E-006  0.9118800E+02  0.7816164E-02  0.1184000E+00
        -11   -1    0    0    0    0  0.00000000000E+00  0.00000000000E+00  0.45593999997E+02  0.45594000000E+02  0.51100000000E-03 0.  1.
         11   -1    0    0    0    0 -0.00000000000E+00 -0.00000000000E+00 -0.45593999997E+02  0.45594000000E+02  0.51100000000E-03 0. -1.
         23    2    1    2    0    0  0.35527136788E-14 -0.35527136788E-14 -0.35527136788E-14  0.91188000000E+02  0.91188000000E+02 0.  0.
    9900012    2    3    3    0    0  0.15903723601E+02 -0.29969496038E+02 -0.14306561429E+02  0.54367125254E+02  0.40000093641E+02 0.  0.
         12    1    3    3    0    0 -0.15903723601E+02  0.29969496038E+02  0.14306561429E+02  0.36820874746E+02  0.00000000000E+00 0. -1.
         11    1    4    4    0    0  0.77183759556E+01 -0.32743648989E+02  0.18144110878E+01  0.33689938622E+02  0.51100000000E-03 0.  1.
        -11    1    4    4    0    0  0.92384553634E+01  0.44865892111E+01 -0.10413396560E+02  0.14625914277E+02  0.51100000000E-03 0. -1.
        -12    1    4    4    0    0 -0.10531077181E+01 -0.17124362599E+01 -0.57075759568E+01  0.60512723549E+01  0.00000000000E+00 0.  1.
</event>
<event>
 8    1  0.2484572E-006  0.9118800E+02  0.7816164E-02  0.1184000E+00
        -11   -1    0    0    0    0  0.00000000000E+00  0.00000000000E+00  0.45593999997E+02  0.45594000000E+02  0.51100000000E-03 0.  1.
         11   -1    0    0    0    0 -0.00000000000E+00 -0.00000000000E+00 -0.45593999997E+02  0.45594000000E+02  0.51100000000E-03 0. -1.
         23    2    1    2    0    0  0.44408920985E-15  0.00000000000E+00  0.00000000000E+00  0.91188000000E+02  0.91188000000E+02 0.  0.
    9900012    2    3    3    0    0  0.39400001306E+01 -0.25780732391E+01 -0.36518720322E+02  0.54366987023E+02  0.39999778517E+02 0.  0.
        -12    1    3    3    0    0 -0.39400001306E+01  0.25780732391E+01  0.36518720322E+02  0.36821012977E+02  0.00000000000E+00 0.  1.
         11    1    4    4    0    0  0.16347877222E+01 -0.12374671848E+02 -0.19919874806E+02  0.23507582751E+02  0.51100000000E-03 0. -1.
        -11    1    4    4    0    0  0.25555470132E+01 -0.72052805874E+01 -0.10074752125E+02  0.12647035998E+02  0.51100000000E-03 0.  1.
        -12    1    4    4    0    0 -0.25033460481E+00  0.17001879196E+02 -0.65240933906E+01  0.18212368275E+02  0.00000000000E+00 0.  1.
</event>
<event>
 8    1  0.2484572E-006  0.9118800E+02  0.7816164E-02  0.1184000E+00
        -11   -1    0    0    0    0  0.00000000000E+00  0.00000000000E+00  0.45593999997E+02  0.45594000000E+02  0.51100000000E-03 0.  1.
         11   -1    0    0    0    0 -0.00000000000E+00 -0.00000000000E+00 -0.45593999997E+02  0.45594000000E+02  0.51100000000E-03 0. -1.
         23    2    1    2    0    0  0.00000000000E+00 -0.88817841970E-15 -0.17763568394E-14  0.91188000000E+02  0.91188000000E+02 0.  0.
    9900012    2    3    3    0    0 -0.34062464953E+02 -0.62564854164E+01 -0.12505430175E+02  0.54367069644E+02  0.39999966868E+02 0.  0.
        -12    1    3    3    0    0  0.34062464953E+02  0.62564854164E+01  0.12505430175E+02  0.36820930356E+02  0.00000000000E+00 0.  1.
         11    1    4    4    0    0 -0.26312660084E+02  0.81142873904E+01 -0.13677657533E+02  0.30745342027E+02  0.51100000000E-03 0. -1.
        -11    1    4    4    0    0  0.25863505125E+01  0.51638306233E-01 -0.43304587340E+01  0.50442787985E+01  0.51100000000E-03 0.  1.
        -12    1    4    4    0    0 -0.10336155381E+02 -0.14422411113E+02  0.55026860919E+01  0.18577448819E+02  0.00000000000E+00 0.  1.
</event>
<event>
 8    1  0.2484572E-006  0.9118800E+02  0.7816164E-02  0.1184000E+00
        -11   -1    0    0    0    0  0.00000000000E+00  0.00000000000E+00  0.45593999997E+02  0.45594000000E+02  0.51100000000E-03 0. -1.
         11   -1    0    0    0    0 -0.00000000000E+00 -0.00000000000E+00 -0.45593999997E+02  0.45594000000E+02  0.51100000000E-03 0.  1.
         23    2    1    2    0    0 -0.26367796835E-15  0.17763568394E-14 -0.71054273576E-14  0.91188000000E+02  0.91188000000E+02 0.  0.
    9900012    2    3    3    0    0 -0.32445048657E-01 -0.37673756125E+01 -0.36627773132E+02  0.54366974264E+02  0.39999749428E+02 0.  0.
         12    1    3    3    0    0  0.32445048657E-01  0.37673756125E+01  0.36627773132E+02  0.36821025736E+02  0.00000000000E+00 0. -1.
         11    1    4    4    0    0  0.50210081692E+01  0.17068475782E+02 -0.14320461749E+02  0.22838980133E+02  0.51100000000E-03 0.  1.
        -11    1    4    4    0    0 -0.46506163481E+01 -0.72020365051E+01 -0.98158774116E+01  0.13032613393E+02  0.51100000000E-03 0. -1.
        -12    1    4    4    0    0 -0.40283686973E+00 -0.13633814889E+02 -0.12491433971E+02  0.18495380737E+02  0.00000000000E+00 0.  1.
</event>
<event>
 8    1  0.2484572E-006  0.9118800E+02  0.7816164E-02  0.1184000E+00
        -11   -1    0    0    0    0  0.00000000000E+00  0.00000000000E+00  0.45593999997E+02  0.45594000000E+02  0.51100000000E-03 0. -1.
         11   -1    0    0    0    0 -0.00000000000E+00 -0.00000000000E+00 -0.45593999997E+02  0.45594000000E+02  0.51100000000E-03 0.  1.
         23    2    1    2    0    0 -0.35527136788E-14 -0.88817841970E-15  0.00000000000E+00  0.91188000000E+02  0.91188000000E+02 0.  0.
    9900012    2    3    3    0    0  0.20836968446E+02  0.76193203620E+01 -0.29386134596E+02  0.54367106430E+02  0.40000050729E+02 0.  0.
         12    1    3    3    0    0 -0.20836968446E+02 -0.76193203620E+01  0.29386134596E+02  0.36820893570E+02  0.00000000000E+00 0. -1.
         11    1    4    4    0    0 -0.82050303392E+01  0.16051570045E+01 -0.47389017068E+01  0.96102154775E+01  0.51100000000E-03 0. -1.
        -11    1    4    4    0    0 -0.72122445954E+00 -0.48565819867E+01 -0.68086687385E+01  0.83943149551E+01  0.51100000000E-03 0.  1.
        -12    1    4    4    0    0  0.29763223244E+02  0.10870745344E+02 -0.17838564151E+02  0.36362575998E+02  0.00000000000E+00 0.  1.
</event>
<event>
 8    1  0.2484572E-006  0.9118800E+02  0.7816164E-02  0.1184000E+00
        -11   -1    0    0    0    0  0.00000000000E+00  0.00000000000E+00  0.45593999997E+02  0.45594000000E+02  0.51100000000E-03 0. -1.
         11   -1    0    0    0    0 -0.00000000000E+00 -0.00000000000E+00 -0.45593999997E+02  0.45594000000E+02  0.51100000000E-03 0.  1.
         23    2    1    2    0    0  0.00000000000E+00  0.88817841970E-15 -0.35527136788E-14  0.91188000000E+02  0.91188000000E+02 0.  0.
    9900012    2    3    3    0    0 -0.18181612663E+02 -0.72154566993E+01  0.31195299497E+02  0.54367074358E+02  0.39999977614E+02 0.  0.
        -12    1    3    3    0    0  0.18181612663E+02  0.72154566993E+01 -0.31195299497E+02  0.36820925642E+02  0.00000000000E+00 0.  1.
         11    1    4    4    0    0 -0.16311231748E+02  0.13863258919E+01  0.18781389782E+01  0.16477426586E+02  0.51100000000E-03 0. -1.
        -11    1    4    4    0    0 -0.10251965476E+02 -0.73673733552E+01  0.79879588246E+01  0.14939493724E+02  0.51100000000E-03 0.  1.
        -12    1    4    4    0    0  0.83815845612E+01 -0.12344092359E+01  0.21329201694E+02  0.22950154048E+02  0.00000000000E+00 0.  1.
</event>
<event>
 8    1  0.2484572E-006  0.9118800E+02  0.7816164E-02  0.1184000E+00
        -11   -1    0    0    0    0  0.00000000000E+00  0.00000000000E+00  0.45593999997E+02  0.45594000000E+02  0.51100000000E-03 0. -1.
         11   -1    0    0    0    0 -0.00000000000E+00 -0.00000000000E+00 -0.45593999997E+02  0.45594000000E+02  0.51100000000E-03 0.  1.
         23    2    1    2    0    0  0.00000000000E+00  0.00000000000E+00 -0.35527136788E-14  0.91188000000E+02  0.91188000000E+02 0.  0.
    9900012    2    3    3    0    0 -0.13382852188E+02 -0.21114976555E+02 -0.27034020494E+02  0.54367065307E+02  0.39999956981E+02 0.  0.
         12    1    3    3    0    0  0.13382852188E+02  0.21114976555E+02  0.27034020494E+02  0.36820934693E+02  0.00000000000E+00 0. -1.
         11    1    4    4    0    0  0.21179895820E+00 -0.33750914407E+01 -0.12953270434E+02  0.13387431278E+02  0.51100000000E-03 0. -1.
        -11    1    4    4    0    0  0.14775262534E+00 -0.22355687920E+02 -0.14195562433E+02  0.26482307419E+02  0.51100000000E-03 0.  1.
         12    1    4    4    0    0 -0.13742403771E+02  0.46158028056E+01  0.11481237332E+00  0.14497326610E+02  0.00000000000E+00 0. -1.
</event>
<event>
 8    1  0.2484572E-006  0.9118800E+02  0.7816164E-02  0.1184000E+00
        -11   -1    0    0    0    0  0.00000000000E+00  0.00000000000E+00  0.45593999997E+02  0.45594000000E+02  0.51100000000E-03 0.  1.
         11   -1    0    0    0    0 -0.00000000000E+00 -0.00000000000E+00 -0.45593999997E+02  0.45594000000E+02  0.51100000000E-03 0. -1.
         23    2    1    2    0    0 -0.17763568394E-14 -0.35527136788E-14  0.00000000000E+00  0.91188000000E+02  0.91188000000E+02 0.  0.
    9900012    2    3    3    0    0  0.13962883696E+02  0.16704709436E+02 -0.29694630781E+02  0.54367074758E+02  0.39999978525E+02 0.  0.
        -12    1    3    3    0    0 -0.13962883696E+02 -0.16704709436E+02  0.29694630781E+02  0.36820925242E+02  0.00000000000E+00 0.  1.
         11    1    4    4    0    0  0.44284676987E+01  0.21455248970E+02 -0.18020343827E+02  0.28366738029E+02  0.51100000000E-03 0. -1.
        -11    1    4    4    0    0 -0.46101911356E+01 -0.14938754032E+01 -0.10346302811E+02  0.11425038650E+02  0.51100000000E-03 0.  1.
         12    1    4    4    0    0  0.14144607133E+02 -0.32566641299E+01 -0.13279841426E+01  0.14575298079E+02  0.00000000000E+00 0. -1.
</event>
<event>
 8    1  0.2484572E-006  0.9118800E+02  0.7816164E-02  0.1184000E+00
        -11   -1    0    0    0    0  0.00000000000E+00  0.00000000000E+00  0.45593999997E+02  0.45594000000E+02  0.51100000000E-03 0.  1.
         11   -1    0    0    0    0 -0.00000000000E+00 -0.00000000000E+00 -0.45593999997E+02  0.45594000000E+02  0.51100000000E-03 0. -1.
         23    2    1    2    0    0  0.00000000000E+00  0.00000000000E+00  0.35527136788E-14  0.91188000000E+02  0.91188000000E+02 0.  0.
    9900012    2    3    3    0    0 -0.20278361610E+02 -0.24392052782E+02 -0.18697473147E+02  0.54367086234E+02  0.40000004687E+02 0.  0.
        -12    1    3    3    0    0  0.20278361610E+02  0.24392052782E+02  0.18697473147E+02  0.36820913766E+02  0.00000000000E+00 0.  1.
         11    1    4    4    0    0  0.14481099231E+01 -0.10424402105E+02  0.63554277163E+01  0.12294577801E+02  0.51100000000E-03 0. -1.
        -11    1    4    4    0    0 -0.81028759169E+01 -0.77930134241E+01 -0.24669131152E+02  0.27110029296E+02  0.51100000000E-03 0.  1.
        -12    1    4    4    0    0 -0.13623595616E+02 -0.61746372525E+01 -0.38376971105E+00  0.14962479136E+02  0.00000000000E+00 0.  1.
</event>
<event>
 8    1  0.2484572E-006  0.9118800E+02  0.7816164E-02  0.1184000E+00
        -11   -1    0    0    0    0  0.00000000000E+00  0.00000000000E+00  0.45593999997E+02  0.45594000000E+02  0.51100000000E-03 0. -1.
         11   -1    0    0    0    0 -0.00000000000E+00 -0.00000000000E+00 -0.45593999997E+02  0.45594000000E+02  0.51100000000E-03 0.  1.
         23    2    1    2    0    0  0.00000000000E+00  0.00000000000E+00 -0.17763568394E-14  0.91188000000E+02  0.91188000000E+02 0.  0.
    9900012    2    3    3    0    0 -0.23966737772E+02 -0.26116074447E+02 -0.99662536282E+01  0.54367081009E+02  0.39999992776E+02 0.  0.
         12    1    3    3    0    0  0.23966737772E+02  0.26116074447E+02  0.99662536282E+01  0.36820918991E+02  0.00000000000E+00 0. -1.
         11    1    4    4    0    0 -0.22526516005E+02 -0.21486895115E+02 -0.13984865892E+01  0.31162258423E+02  0.51100000000E-03 0. -1.
        -11    1    4    4    0    0 -0.22255755567E+01 -0.12780729274E+02 -0.73928925402E+01  0.14931680673E+02  0.51100000000E-03 0.  1.
         12    1    4    4    0    0  0.78535378953E+00  0.81515499422E+01 -0.11748744989E+01  0.82731419136E+01  0.00000000000E+00 0. -1.
</event>
<event>
 8    1  0.2484572E-006  0.9118800E+02  0.7816164E-02  0.1184000E+00
        -11   -1    0    0    0    0  0.00000000000E+00  0.00000000000E+00  0.45593999997E+02  0.45594000000E+02  0.51100000000E-03 0.  1.
         11   -1    0    0    0    0 -0.00000000000E+00 -0.00000000000E+00 -0.45593999997E+02  0.45594000000E+02  0.51100000000E-03 0. -1.
         23    2    1    2    0    0  0.71054273576E-14 -0.35527136788E-14 -0.44408920985E-15  0.91188000000E+02  0.91188000000E+02 0.  0.
    9900012    2    3    3    0    0  0.36147484316E+02 -0.67733438777E+01 -0.18062621337E+01  0.54367063122E+02  0.39999951999E+02 0.  0.
        -12    1    3    3    0    0 -0.36147484316E+02  0.67733438777E+01  0.18062621337E+01  0.36820936878E+02  0.00000000000E+00 0.  1.
         11    1    4    4    0    0  0.13854851318E+02  0.45159173673E+01 -0.31569942875E+01  0.14910299390E+02  0.51100000000E-03 0. -1.
        -11    1    4    4    0    0  0.68196950987E+01  0.93657761624E+01 -0.53976336843E+01  0.12781254008E+02  0.51100000000E-03 0.  1.
         12    1    4    4    0    0  0.15472937900E+02 -0.20655037407E+02  0.67483658380E+01  0.26675509724E+02  0.00000000000E+00 0. -1.
</event>
<event>
 8    1  0.2484572E-006  0.9118800E+02  0.7816164E-02  0.1184000E+00
        -11   -1    0    0    0    0  0.00000000000E+00  0.00000000000E+00  0.45593999997E+02  0.45594000000E+02  0.51100000000E-03 0. -1.
         11   -1    0    0    0    0 -0.00000000000E+00 -0.00000000000E+00 -0.45593999997E+02  0.45594000000E+02  0.51100000000E-03 0.  1.
         23    2    1    2    0    0  0.00000000000E+00  0.00000000000E+00  0.00000000000E+00  0.91188000000E+02  0.91188000000E+02 0.  0.
    9900012    2    3    3    0    0  0.16632033606E+02  0.10860837488E+02 -0.31003189976E+02  0.54367080382E+02  0.39999991347E+02 0.  0.
         12    1    3    3    0    0 -0.16632033606E+02 -0.10860837488E+02  0.31003189976E+02  0.36820919618E+02  0.00000000000E+00 0. -1.
         11    1    4    4    0    0  0.25201137548E+02  0.93996641905E+01 -0.19237780438E+02  0.33068764976E+02  0.51100000000E-03 0. -1.
        -11    1    4    4    0    0  0.22683501482E+01 -0.34363076153E+01 -0.76967959053E+01  0.87289340639E+01  0.51100000000E-03 0.  1.
         12    1    4    4    0    0 -0.10837454090E+02  0.48974809124E+01 -0.40686136329E+01  0.12569381342E+02  0.00000000000E+00 0. -1.
</event>
<event>
 8    1  0.2484572E-006  0.9118800E+02  0.7816164E-02  0.1184000E+00
        -11   -1    0    0    0    0  0.00000000000E+00  0.00000000000E+00  0.45593999997E+02  0.45594000000E+02  0.51100000000E-03 0.  1.
         11   -1    0    0    0    0 -0.00000000000E+00 -0.00000000000E+00 -0.45593999997E+02  0.45594000000E+02  0.51100000000E-03 0. -1.
         23    2    1    2    0    0  0.00000000000E+00  0.17763568394E-14  0.00000000000E+00  0.91188000000E+02  0.91188000000E+02 0.  0.
    9900012    2    3    3    0    0  0.22112760040E+02  0.15257463017E+02 -0.25179608523E+02  0.54367122502E+02  0.40000087368E+02 0.  0.
        -12    1    3    3    0    0 -0.22112760040E+02 -0.15257463017E+02  0.25179608523E+02  0.36820877498E+02  0.00000000000E+00 0.  1.
         11    1    4    4    0    0 -0.40184468111E+01 -0.75922084043E+00 -0.40246392581E+01  0.57377741745E+01  0.51100000000E-03 0. -1.
        -11    1    4    4    0    0  0.89093828065E+01  0.15569808957E+02  0.37695562408E+01  0.18330455735E+02  0.51100000000E-03 0.  1.
         12    1    4    4    0    0  0.17221824045E+02  0.44687490089E+00 -0.24924525506E+02  0.30298892592E+02  0.00000000000E+00 0. -1.
</event>
<event>
 8    1  0.2484572E-006  0.9118800E+02  0.7816164E-02  0.1184000E+00
        -11   -1    0    0    0    0  0.00000000000E+00  0.00000000000E+00  0.45593999997E+02  0.45594000000E+02  0.51100000000E-03 0.  1.
         11   -1    0    0    0    0 -0.00000000000E+00 -0.00000000000E+00 -0.45593999997E+02  0.45594000000E+02  0.51100000000E-03 0. -1.
         23    2    1    2    0    0  0.11102230246E-14  0.00000000000E+00  0.00000000000E+00  0.91188000000E+02  0.91188000000E+02 0.  0.
    9900012    2    3    3    0    0 -0.10823984251E+01  0.32395688658E+02 -0.17467887798E+02  0.54367091074E+02  0.40000015722E+02 0.  0.
        -12    1    3    3    0    0  0.10823984251E+01 -0.32395688658E+02  0.17467887798E+02  0.36820908926E+02  0.00000000000E+00 0.  1.
         11    1    4    4    0    0  0.12496180249E+01  0.51158706344E+01 -0.11814203924E+02  0.12934801590E+02  0.51100000000E-03 0. -1.
        -11    1    4    4    0    0  0.12968500979E+02  0.50310764954E+01 -0.35200374719E+00  0.13914656131E+02  0.51100000000E-03 0.  1.
        -12    1    4    4    0    0 -0.15300517429E+02  0.22248741529E+02 -0.53016801270E+01  0.27517633353E+02  0.00000000000E+00 0.  1.
</event>
<event>
 8    1  0.2484572E-006  0.9118800E+02  0.7816164E-02  0.1184000E+00
        -11   -1    0    0    0    0  0.00000000000E+00  0.00000000000E+00  0.45593999997E+02  0.45594000000E+02  0.51100000000E-03 0.  1.
         11   -1    0    0    0    0 -0.00000000000E+00 -0.00000000000E+00 -0.45593999997E+02  0.45594000000E+02  0.51100000000E-03 0. -1.
         23    2    1    2    0    0 -0.35527136788E-14  0.00000000000E+00 -0.22204460493E-15  0.91188000000E+02  0.91188000000E+02 0.  0.
    9900012    2    3    3    0    0  0.31694197851E+02  0.18640049884E+02  0.19510240580E+01  0.54367080240E+02  0.39999991024E+02 0.  0.
         12    1    3    3    0    0 -0.31694197851E+02 -0.18640049884E+02 -0.19510240580E+01  0.36820919760E+02  0.00000000000E+00 0. -1.
         11    1    4    4    0    0 -0.22563444843E+01  0.99114535747E+01  0.75133080138E+01  0.12640324362E+02  0.51100000000E-03 0. -1.
        -11    1    4    4    0    0  0.29651578327E+02  0.11302188674E+02 -0.11684676453E+02  0.33815488022E+02  0.51100000000E-03 0.  1.
        -12    1    4    4    0    0  0.42989640077E+01 -0.25735923643E+01  0.61223924976E+01  0.79112678562E+01  0.00000000000E+00 0.  1.
</event>
<event>
 8    1  0.2484572E-006  0.9118800E+02  0.7816164E-02  0.1184000E+00
        -11   -1    0    0    0    0  0.00000000000E+00  0.00000000000E+00  0.45593999997E+02  0.45594000000E+02  0.51100000000E-03 0. -1.
         11   -1    0    0    0    0 -0.00000000000E+00 -0.00000000000E+00 -0.45593999997E+02  0.45594000000E+02  0.51100000000E-03 0.  1.
         23    2    1    2    0    0  0.00000000000E+00  0.88817841970E-15  0.71054273576E-14  0.91188000000E+02  0.91188000000E+02 0.  0.
    9900012    2    3    3    0    0 -0.27137712513E+01  0.44253995122E+01 -0.36453130214E+02  0.54367089940E+02  0.40000013137E+02 0.  0.
         12    1    3    3    0    0  0.27137712513E+01 -0.44253995122E+01  0.36453130214E+02  0.36820910060E+02  0.00000000000E+00 0. -1.
         11    1    4    4    0    0  0.50406345022E+01  0.42012164442E+01  0.32955567486E+01  0.73429497029E+01  0.51100000000E-03 0. -1.
        -11    1    4    4    0    0 -0.58093599029E+01  0.10921370765E+02 -0.29884919306E+02  0.32343985594E+02  0.51100000000E-03 0.  1.
        -12    1    4    4    0    0 -0.19450458506E+01 -0.10697187697E+02 -0.98637676561E+01  0.14680154644E+02  0.00000000000E+00 0.  1.
</event>
<event>
 8    1  0.2484572E-006  0.9118800E+02  0.7816164E-02  0.1184000E+00
        -11   -1    0    0    0    0  0.00000000000E+00  0.00000000000E+00  0.45593999997E+02  0.45594000000E+02  0.51100000000E-03 0.  1.
         11   -1    0    0    0    0 -0.00000000000E+00 -0.00000000000E+00 -0.45593999997E+02  0.45594000000E+02  0.51100000000E-03 0. -1.
         23    2    1    2    0    0  0.35527136788E-14 -0.22204460493E-15 -0.35527136788E-14  0.91188000000E+02  0.91188000000E+02 0.  0.
    9900012    2    3    3    0    0  0.29215916722E+02 -0.11103512018E+01  0.22382571047E+02  0.54367052750E+02  0.39999928354E+02 0.  0.
         12    1    3    3    0    0 -0.29215916722E+02  0.11103512018E+01 -0.22382571047E+02  0.36820947250E+02  0.00000000000E+00 0. -1.
         11    1    4    4    0    0  0.10372576780E+02 -0.65380834932E+01  0.20842489359E+02  0.24181526994E+02  0.51100000000E-03 0. -1.
        -11    1    4    4    0    0  0.11198087434E+02  0.10664657654E+02  0.93463044988E+01  0.18068909572E+02  0.51100000000E-03 0.  1.
         12    1    4    4    0    0  0.76452525088E+01 -0.52369253630E+01 -0.78062228111E+01  0.12116616184E+02  0.00000000000E+00 0. -1.
</event>
<event>
 8    1  0.2484572E-006  0.9118800E+02  0.7816164E-02  0.1184000E+00
        -11   -1    0    0    0    0  0.00000000000E+00  0.00000000000E+00  0.45593999997E+02  0.45594000000E+02  0.51100000000E-03 0. -1.
         11   -1    0    0    0    0 -0.00000000000E+00 -0.00000000000E+00 -0.45593999997E+02  0.45594000000E+02  0.51100000000E-03 0.  1.
         23    2    1    2    0    0  0.00000000000E+00  0.00000000000E+00 -0.17763568394E-14  0.91188000000E+02  0.91188000000E+02 0.  0.
    9900012    2    3    3    0    0 -0.33499138184E+02 -0.13143172533E+02  0.78003541190E+01  0.54367071608E+02  0.39999971344E+02 0.  0.
         12    1    3    3    0    0  0.33499138184E+02  0.13143172533E+02 -0.78003541190E+01  0.36820928392E+02  0.00000000000E+00 0. -1.
         11    1    4    4    0    0 -0.32985910934E+00 -0.74299985809E+01  0.12915281531E+02  0.14903629868E+02  0.51100000000E-03 0. -1.
        -11    1    4    4    0    0 -0.32561245490E+02 -0.86505066543E-01 -0.12029625262E+01  0.32583574237E+02  0.51100000000E-03 0.  1.
        -12    1    4    4    0    0 -0.60803358455E+00 -0.56266688853E+01 -0.39119648858E+01  0.68798675026E+01  0.00000000000E+00 0.  1.
</event>
<event>
 8    1  0.2484572E-006  0.9118800E+02  0.7816164E-02  0.1184000E+00
        -11   -1    0    0    0    0  0.00000000000E+00  0.00000000000E+00  0.45593999997E+02  0.45594000000E+02  0.51100000000E-03 0. -1.
         11   -1    0    0    0    0 -0.00000000000E+00 -0.00000000000E+00 -0.45593999997E+02  0.45594000000E+02  0.51100000000E-03 0.  1.
         23    2    1    2    0    0  0.35527136788E-14  0.35527136788E-14 -0.17763568394E-14  0.91188000000E+02  0.91188000000E+02 0.  0.
    9900012    2    3    3    0    0 -0.28806911146E+02 -0.21563419487E+02  0.78077032130E+01  0.54367089919E+02  0.40000013088E+02 0.  0.
         12    1    3    3    0    0  0.28806911146E+02  0.21563419487E+02 -0.78077032130E+01  0.36820910081E+02  0.00000000000E+00 0. -1.
         11    1    4    4    0    0 -0.27082410021E+01  0.63643795200E+01 -0.22326927223E+01  0.72680680413E+01  0.51100000000E-03 0. -1.
        -11    1    4    4    0    0 -0.91415183398E+01 -0.13713761716E+02  0.17220618952E+02  0.23836617531E+02  0.51100000000E-03 0.  1.
         12    1    4    4    0    0 -0.16957151804E+02 -0.14214037292E+02 -0.71802230170E+01  0.23262404347E+02  0.00000000000E+00 0. -1.
</event>
<event>
 8    1  0.2484572E-006  0.9118800E+02  0.7816164E-02  0.1184000E+00
        -11   -1    0    0    0    0  0.00000000000E+00  0.00000000000E+00  0.45593999997E+02  0.45594000000E+02  0.51100000000E-03 0.  1.
         11   -1    0    0    0    0 -0.00000000000E+00 -0.00000000000E+00 -0.45593999997E+02  0.45594000000E+02  0.51100000000E-03 0. -1.
         23    2    1    2    0    0 -0.88817841970E-15  0.00000000000E+00  0.00000000000E+00  0.91188000000E+02  0.91188000000E+02 0.  0.
    9900012    2    3    3    0    0  0.54571959616E+01  0.16682515832E+02  0.32368084859E+02  0.54367078777E+02  0.39999987688E+02 0.  0.
         12    1    3    3    0    0 -0.54571959616E+01 -0.16682515832E+02 -0.32368084859E+02  0.36820921223E+02  0.00000000000E+00 0. -1.
         11    1    4    4    0    0 -0.77211740144E+01 -0.21966582370E+01  0.40656432906E+01  0.89984049252E+01  0.51100000000E-03 0. -1.
        -11    1    4    4    0    0  0.16264932645E+02  0.48390407913E+01  0.25642857409E+02  0.30749316839E+02  0.51100000000E-03 0.  1.
        -12    1    4    4    0    0 -0.30865626691E+01  0.14040133277E+02  0.26595841597E+01  0.14619357012E+02  0.00000000000E+00 0.  1.
</event>
<event>
 8    1  0.2484572E-006  0.9118800E+02  0.7816164E-02  0.1184000E+00
        -11   -1    0    0    0    0  0.00000000000E+00  0.00000000000E+00  0.45593999997E+02  0.45594000000E+02  0.51100000000E-03 0.  1.
         11   -1    0    0    0    0 -0.00000000000E+00 -0.00000000000E+00 -0.45593999997E+02  0.45594000000E+02  0.51100000000E-03 0. -1.
         23    2    1    2    0    0  0.88817841970E-15 -0.71054273576E-14 -0.88817841970E-15  0.91188000000E+02  0.91188000000E+02 0.  0.
    9900012    2    3    3    0    0  0.44805500029E+01  0.36240638540E+02 -0.47248184390E+01  0.54367039673E+02  0.39999898543E+02 0.  0.
         12    1    3    3    0    0 -0.44805500029E+01 -0.36240638540E+02  0.47248184390E+01  0.36820960327E+02  0.00000000000E+00 0. -1.
         11    1    4    4    0    0  0.16487753489E+01  0.19586176423E+02 -0.10850805460E+02  0.22451653534E+02  0.51100000000E-03 0. -1.
        -11    1    4    4    0    0 -0.40932808298E+01  0.19070927146E+02  0.11662350629E+02  0.22725880239E+02  0.51100000000E-03 0.  1.
        -12    1    4    4    0    0  0.69250554838E+01 -0.24164650290E+01 -0.55363636087E+01  0.91895059006E+01  0.00000000000E+00 0.  1.
</event>
<event>
 8    1  0.2484572E-006  0.9118800E+02  0.7816164E-02  0.1184000E+00
        -11   -1    0    0    0    0  0.00000000000E+00  0.00000000000E+00  0.45593999997E+02  0.45594000000E+02  0.51100000000E-03 0.  1.
         11   -1    0    0    0    0 -0.00000000000E+00 -0.00000000000E+00 -0.45593999997E+02  0.45594000000E+02  0.51100000000E-03 0. -1.
         23    2    1    2    0    0 -0.17763568394E-14  0.00000000000E+00  0.17763568394E-14  0.91188000000E+02  0.91188000000E+02 0.  0.
    9900012    2    3    3    0    0  0.13622613897E+02 -0.30781883187E+02 -0.14922443428E+02  0.54367092083E+02  0.40000018022E+02 0.  0.
        -12    1    3    3    0    0 -0.13622613897E+02  0.30781883187E+02  0.14922443428E+02  0.36820907917E+02  0.00000000000E+00 0.  1.
         11    1    4    4    0    0  0.12623049133E+01 -0.10430180674E+02  0.13035050132E+01  0.10586841274E+02  0.51100000000E-03 0. -1.
        -11    1    4    4    0    0  0.16358099976E+02 -0.84879159827E+01  0.50373607931E+01  0.19105160469E+02  0.51100000000E-03 0.  1.
         12    1    4    4    0    0 -0.39977909923E+01 -0.11863786531E+02 -0.21263309234E+02  0.24675090339E+02  0.00000000000E+00 0. -1.
</event>
<event>
 8    1  0.2484572E-006  0.9118800E+02  0.7816164E-02  0.1184000E+00
        -11   -1    0    0    0    0  0.00000000000E+00  0.00000000000E+00  0.45593999997E+02  0.45594000000E+02  0.51100000000E-03 0.  1.
         11   -1    0    0    0    0 -0.00000000000E+00 -0.00000000000E+00 -0.45593999997E+02  0.45594000000E+02  0.51100000000E-03 0. -1.
         23    2    1    2    0    0  0.00000000000E+00  0.00000000000E+00  0.00000000000E+00  0.91188000000E+02  0.91188000000E+02 0.  0.
    9900012    2    3    3    0    0  0.10486907339E+02  0.18471517251E+02 -0.30076695773E+02  0.54367084698E+02  0.40000001185E+02 0.  0.
        -12    1    3    3    0    0 -0.10486907339E+02 -0.18471517251E+02  0.30076695773E+02  0.36820915302E+02  0.00000000000E+00 0.  1.
         11    1    4    4    0    0  0.39853153259E+01 -0.30480029042E+01 -0.20956955205E+02  0.21549177053E+02  0.51100000000E-03 0.  1.
        -11    1    4    4    0    0 -0.63831375116E+01  0.14033826476E+02 -0.91273366745E+01  0.17916500916E+02  0.51100000000E-03 0. -1.
        -12    1    4    4    0    0  0.12884729524E+02  0.74856936788E+01  0.75961062800E-02  0.14901406728E+02  0.00000000000E+00 0.  1.
</event>
<event>
 8    1  0.2484572E-006  0.9118800E+02  0.7816164E-02  0.1184000E+00
        -11   -1    0    0    0    0  0.00000000000E+00  0.00000000000E+00  0.45593999997E+02  0.45594000000E+02  0.51100000000E-03 0.  1.
         11   -1    0    0    0    0 -0.00000000000E+00 -0.00000000000E+00 -0.45593999997E+02  0.45594000000E+02  0.51100000000E-03 0. -1.
         23    2    1    2    0    0  0.00000000000E+00  0.00000000000E+00  0.00000000000E+00  0.91188000000E+02  0.91188000000E+02 0.  0.
    9900012    2    3    3    0    0  0.11150326069E+02 -0.10087689255E+02  0.33610851604E+02  0.54367074000E+02  0.39999976797E+02 0.  0.
         12    1    3    3    0    0 -0.11150326069E+02  0.10087689255E+02 -0.33610851604E+02  0.36820926000E+02  0.00000000000E+00 0. -1.
         11    1    4    4    0    0  0.70902559105E+01 -0.17131053749E+02  0.44983057370E+01  0.19078246413E+02  0.51100000000E-03 0. -1.
        -11    1    4    4    0    0  0.37022799278E+01  0.12073927637E+02  0.27025848003E+02  0.29830907894E+02  0.51100000000E-03 0.  1.
        -12    1    4    4    0    0  0.35779023099E+00 -0.50305631437E+01  0.20866978642E+01  0.54579196924E+01  0.00000000000E+00 0.  1.
</event>
<event>
 8    1  0.2484572E-006  0.9118800E+02  0.7816164E-02  0.1184000E+00
        -11   -1    0    0    0    0  0.00000000000E+00  0.00000000000E+00  0.45593999997E+02  0.45594000000E+02  0.51100000000E-03 0. -1.
         11   -1    0    0    0    0 -0.00000000000E+00 -0.00000000000E+00 -0.45593999997E+02  0.45594000000E+02  0.51100000000E-03 0.  1.
         23    2    1    2    0    0  0.00000000000E+00  0.00000000000E+00  0.35527136788E-14  0.91188000000E+02  0.91188000000E+02 0.  0.
    9900012    2    3    3    0    0 -0.65768234387E+01 -0.20399077960E+02  0.29939985163E+02  0.54367086110E+02  0.40000004404E+02 0.  0.
        -12    1    3    3    0    0  0.65768234387E+01  0.20399077960E+02 -0.29939985163E+02  0.36820913890E+02  0.00000000000E+00 0.  1.
         11    1    4    4    0    0  0.10518464294E+02  0.32665185086E+01  0.59853811645E+01  0.12535271127E+02  0.51100000000E-03 0. -1.
        -11    1    4    4    0    0 -0.33447602084E+01  0.28533280135E+01  0.36277584308E+01  0.56999590435E+01  0.51100000000E-03 0.  1.
        -12    1    4    4    0    0 -0.13750527525E+02 -0.26518924482E+02  0.20326845568E+02  0.36131855939E+02  0.00000000000E+00 0.  1.
</event>
<event>
 8    1  0.2484572E-006  0.9118800E+02  0.7816164E-02  0.1184000E+00
        -11   -1    0    0    0    0  0.00000000000E+00  0.00000000000E+00  0.45593999997E+02  0.45594000000E+02  0.51100000000E-03 0. -1.
         11   -1    0    0    0    0 -0.00000000000E+00 -0.00000000000E+00 -0.45593999997E+02  0.45594000000E+02  0.51100000000E-03 0.  1.
         23    2    1    2    0    0  0.00000000000E+00  0.00000000000E+00  0.00000000000E+00  0.91188000000E+02  0.91188000000E+02 0.  0.
    9900012    2    3    3    0    0  0.21603428827E+02 -0.22627590649E+02 -0.19418136204E+02  0.54367081906E+02  0.39999994822E+02 0.  0.
         12    1    3    3    0    0 -0.21603428827E+02  0.22627590649E+02  0.19418136204E+02  0.36820918094E+02  0.00000000000E+00 0. -1.
         11    1    4    4    0    0  0.89399910441E-01 -0.65821915251E+01  0.76848845633E+01  0.10118828422E+02  0.51100000000E-03 0. -1.
        -11    1    4    4    0    0 -0.71189833381E+00 -0.10762696834E+02 -0.14762440290E+02  0.18283109308E+02  0.51100000000E-03 0.  1.
        -12    1    4    4    0    0  0.22225927250E+02 -0.52827022895E+01 -0.12340580477E+02  0.25965144177E+02  0.00000000000E+00 0.  1.
</event>
<event>
 8    1  0.2484572E-006  0.9118800E+02  0.7816164E-02  0.1184000E+00
        -11   -1    0    0    0    0  0.00000000000E+00  0.00000000000E+00  0.45593999997E+02  0.45594000000E+02  0.51100000000E-03 0. -1.
         11   -1    0    0    0    0 -0.00000000000E+00 -0.00000000000E+00 -0.45593999997E+02  0.45594000000E+02  0.51100000000E-03 0.  1.
         23    2    1    2    0    0  0.00000000000E+00  0.35527136788E-14  0.71054273576E-14  0.91188000000E+02  0.91188000000E+02 0.  0.
    9900012    2    3    3    0    0 -0.53553418063E+01 -0.23811541538E+02 -0.27570108991E+02  0.54367080592E+02  0.39999991826E+02 0.  0.
         12    1    3    3    0    0  0.53553418063E+01  0.23811541538E+02  0.27570108991E+02  0.36820919408E+02  0.00000000000E+00 0. -1.
         11    1    4    4    0    0 -0.20091043085E+01  0.65895340385E+01 -0.15809745584E+02  0.17245478093E+02  0.51100000000E-03 0.  1.
        -11    1    4    4    0    0  0.49054885525E+00  0.21341209681E+01 -0.19272005843E+01  0.29170555084E+01  0.51100000000E-03 0. -1.
        -12    1    4    4    0    0 -0.38367863530E+01 -0.32535196545E+02 -0.98331628221E+01  0.34204546990E+02  0.00000000000E+00 0.  1.
</event>
<event>
 8    1  0.2484572E-006  0.9118800E+02  0.7816164E-02  0.1184000E+00
        -11   -1    0    0    0    0  0.00000000000E+00  0.00000000000E+00  0.45593999997E+02  0.45594000000E+02  0.51100000000E-03 0.  1.
         11   -1    0    0    0    0 -0.00000000000E+00 -0.00000000000E+00 -0.45593999997E+02  0.45594000000E+02  0.51100000000E-03 0. -1.
         23    2    1    2    0    0  0.00000000000E+00  0.00000000000E+00 -0.35527136788E-14  0.91188000000E+02  0.91188000000E+02 0.  0.
    9900012    2    3    3    0    0  0.21100532342E+02 -0.39056303191E+01  0.29921448394E+02  0.54367088994E+02  0.40000010981E+02 0.  0.
         12    1    3    3    0    0 -0.21100532342E+02  0.39056303191E+01 -0.29921448394E+02  0.36820911006E+02  0.00000000000E+00 0. -1.
         11    1    4    4    0    0  0.15443578703E+02 -0.13771302145E+01 -0.52562501689E+01  0.16371584434E+02  0.51100000000E-03 0. -1.
        -11    1    4    4    0    0  0.62269193966E+01  0.22257090688E+01  0.79073801824E+01  0.10308005027E+02  0.51100000000E-03 0.  1.
         12    1    4    4    0    0 -0.56996575803E+00 -0.47542091734E+01  0.27270318380E+02  0.27687499533E+02  0.00000000000E+00 0. -1.
</event>
<event>
 8    1  0.2484572E-006  0.9118800E+02  0.7816164E-02  0.1184000E+00
        -11   -1    0    0    0    0  0.00000000000E+00  0.00000000000E+00  0.45593999997E+02  0.45594000000E+02  0.51100000000E-03 0.  1.
         11   -1    0    0    0    0 -0.00000000000E+00 -0.00000000000E+00 -0.45593999997E+02  0.45594000000E+02  0.51100000000E-03 0. -1.
         23    2    1    2    0    0  0.71054273576E-14  0.44408920985E-15  0.00000000000E+00  0.91188000000E+02  0.91188000000E+02 0.  0.
    9900012    2    3    3    0    0  0.35076695969E+02 -0.24839506006E+01 -0.10919512813E+02  0.54367076998E+02  0.39999983632E+02 0.  0.
        -12    1    3    3    0    0 -0.35076695969E+02  0.24839506006E+01  0.10919512813E+02  0.36820923002E+02  0.00000000000E+00 0.  1.
         11    1    4    4    0    0  0.15393879200E+02  0.11021675888E+02  0.10297300218E+02  0.21551873428E+02  0.51100000000E-03 0. -1.
        -11    1    4    4    0    0  0.16484190780E+02 -0.14203225375E+02 -0.18525146134E+02  0.28576934690E+02  0.51100000000E-03 0.  1.
         12    1    4    4    0    0  0.31986259886E+01  0.69759888618E+00 -0.26916668963E+01  0.42382688803E+01  0.00000000000E+00 0. -1.
</event>
<event>
 8    1  0.2484572E-006  0.9118800E+02  0.7816164E-02  0.1184000E+00
        -11   -1    0    0    0    0  0.00000000000E+00  0.00000000000E+00  0.45593999997E+02  0.45594000000E+02  0.51100000000E-03 0.  1.
         11   -1    0    0    0    0 -0.00000000000E+00 -0.00000000000E+00 -0.45593999997E+02  0.45594000000E+02  0.51100000000E-03 0. -1.
         23    2    1    2    0    0 -0.35527136788E-14  0.00000000000E+00 -0.88817841970E-15  0.91188000000E+02  0.91188000000E+02 0.  0.
    9900012    2    3    3    0    0 -0.21646264538E+02 -0.29739643251E+02  0.16651825143E+01  0.54367082277E+02  0.39999995667E+02 0.  0.
         12    1    3    3    0    0  0.21646264538E+02  0.29739643251E+02 -0.16651825143E+01  0.36820917723E+02  0.00000000000E+00 0. -1.
         11    1    4    4    0    0 -0.17773281338E+02 -0.19039014755E+02 -0.87516830366E+01  0.27476636777E+02  0.51100000000E-03 0. -1.
        -11    1    4    4    0    0 -0.90473062027E+01 -0.45330403298E+01 -0.35878877365E+01  0.10736626231E+02  0.51100000000E-03 0.  1.
         12    1    4    4    0    0  0.51743230021E+01 -0.61675881666E+01  0.14004753287E+02  0.16153819269E+02  0.00000000000E+00 0. -1.
</event>
<event>
 8    1  0.2484572E-006  0.9118800E+02  0.7816164E-02  0.1184000E+00
        -11   -1    0    0    0    0  0.00000000000E+00  0.00000000000E+00  0.45593999997E+02  0.45594000000E+02  0.51100000000E-03 0. -1.
         11   -1    0    0    0    0 -0.00000000000E+00 -0.00000000000E+00 -0.45593999997E+02  0.45594000000E+02  0.51100000000E-03 0.  1.
         23    2    1    2    0    0  0.35527136788E-14  0.00000000000E+00  0.00000000000E+00  0.91188000000E+02  0.91188000000E+02 0.  0.
    9900012    2    3    3    0    0  0.31633803245E+02  0.15797634389E+02 -0.10272123324E+02  0.54367091841E+02  0.40000017470E+02 0.  0.
         12    1    3    3    0    0 -0.31633803245E+02 -0.15797634389E+02  0.10272123324E+02  0.36820908159E+02  0.00000000000E+00 0. -1.
         11    1    4    4    0    0  0.16528365139E+02 -0.47265357596E+01 -0.77037737258E+01  0.18838129534E+02  0.51100000000E-03 0. -1.
        -11    1    4    4    0    0  0.12217124035E+02  0.22687538633E+02 -0.97025419027E+01  0.27534012576E+02  0.51100000000E-03 0.  1.
         12    1    4    4    0    0  0.28883140713E+01 -0.21633684842E+01  0.71341923045E+01  0.79949497316E+01  0.00000000000E+00 0. -1.
</event>
<event>
 8    1  0.2484572E-006  0.9118800E+02  0.7816164E-02  0.1184000E+00
        -11   -1    0    0    0    0  0.00000000000E+00  0.00000000000E+00  0.45593999997E+02  0.45594000000E+02  0.51100000000E-03 0. -1.
         11   -1    0    0    0    0 -0.00000000000E+00 -0.00000000000E+00 -0.45593999997E+02  0.45594000000E+02  0.51100000000E-03 0.  1.
         23    2    1    2    0    0  0.00000000000E+00  0.00000000000E+00  0.00000000000E+00  0.91188000000E+02  0.91188000000E+02 0.  0.
    9900012    2    3    3    0    0 -0.28270981652E+02  0.15524912076E+01  0.23539777376E+02  0.54367085408E+02  0.40000002804E+02 0.  0.
        -12    1    3    3    0    0  0.28270981652E+02 -0.15524912076E+01 -0.23539777376E+02  0.36820914592E+02  0.00000000000E+00 0.  1.
         11    1    4    4    0    0 -0.81925391338E+01 -0.15162656300E+02  0.56987075770E+01  0.18152110396E+02  0.51100000000E-03 0. -1.
        -11    1    4    4    0    0 -0.14836970189E+02  0.11155429727E+02  0.20541566062E+01  0.18676157432E+02  0.51100000000E-03 0.  1.
         12    1    4    4    0    0 -0.52414723286E+01  0.55597177805E+01  0.15786913192E+02  0.17538817580E+02  0.00000000000E+00 0. -1.
</event>
<event>
 8    1  0.2484572E-006  0.9118800E+02  0.7816164E-02  0.1184000E+00
        -11   -1    0    0    0    0  0.00000000000E+00  0.00000000000E+00  0.45593999997E+02  0.45594000000E+02  0.51100000000E-03 0. -1.
         11   -1    0    0    0    0 -0.00000000000E+00 -0.00000000000E+00 -0.45593999997E+02  0.45594000000E+02  0.51100000000E-03 0.  1.
         23    2    1    2    0    0 -0.88817841970E-15  0.00000000000E+00 -0.35527136788E-14  0.91188000000E+02  0.91188000000E+02 0.  0.
    9900012    2    3    3    0    0  0.62042590112E+01  0.17753471101E+02  0.31655987355E+02  0.54367080654E+02  0.39999991968E+02 0.  0.
        -12    1    3    3    0    0 -0.62042590112E+01 -0.17753471101E+02 -0.31655987355E+02  0.36820919346E+02  0.00000000000E+00 0.  1.
         11    1    4    4    0    0 -0.17493745688E+01 -0.12455880699E+01  0.49806548309E+01  0.54239030068E+01  0.51100000000E-03 0. -1.
        -11    1    4    4    0    0  0.14973666033E+02  0.25357914030E+02  0.26269069971E+02  0.39462621756E+02  0.51100000000E-03 0.  1.
        -12    1    4    4    0    0 -0.70200324527E+01 -0.63588548588E+01  0.40626255290E+00  0.94805558917E+01  0.00000000000E+00 0.  1.
</event>
<event>
 8    1  0.2484572E-006  0.9118800E+02  0.7816164E-02  0.1184000E+00
        -11   -1    0    0    0    0  0.00000000000E+00  0.00000000000E+00  0.45593999997E+02  0.45594000000E+02  0.51100000000E-03 0. -1.
         11   -1    0    0    0    0 -0.00000000000E+00 -0.00000000000E+00 -0.45593999997E+02  0.45594000000E+02  0.51100000000E-03 0.  1.
         23    2    1    2    0    0 -0.35527136788E-14  0.17763568394E-14  0.00000000000E+00  0.91188000000E+02  0.91188000000E+02 0.  0.
    9900012    2    3    3    0    0 -0.29908042386E+02  0.10854246292E+02 -0.18533061848E+02  0.54367081443E+02  0.39999993766E+02 0.  0.
         12    1    3    3    0    0  0.29908042386E+02 -0.10854246292E+02  0.18533061848E+02  0.36820918557E+02  0.00000000000E+00 0. -1.
         11    1    4    4    0    0 -0.99094501611E+01 -0.80086392440E+01 -0.12078284076E+02  0.17556208347E+02  0.51100000000E-03 0. -1.
        -11    1    4    4    0    0 -0.24888497587E+02  0.18830275634E+02 -0.66782391820E+01  0.31915755850E+02  0.51100000000E-03 0.  1.
         12    1    4    4    0    0  0.48899053624E+01  0.32609901574E-01  0.22346140978E+00  0.48951172469E+01  0.00000000000E+00 0. -1.
</event>
<event>
 8    1  0.2484572E-006  0.9118800E+02  0.7816164E-02  0.1184000E+00
        -11   -1    0    0    0    0  0.00000000000E+00  0.00000000000E+00  0.45593999997E+02  0.45594000000E+02  0.51100000000E-03 0. -1.
         11   -1    0    0    0    0 -0.00000000000E+00 -0.00000000000E+00 -0.45593999997E+02  0.45594000000E+02  0.51100000000E-03 0.  1.
         23    2    1    2    0    0 -0.35527136788E-14 -0.35527136788E-14  0.35527136788E-14  0.91188000000E+02  0.91188000000E+02 0.  0.
    9900012    2    3    3    0    0 -0.24338726553E+02 -0.19890614080E+02  0.19177343953E+02  0.54367073073E+02  0.39999974685E+02 0.  0.
        -12    1    3    3    0    0  0.24338726553E+02  0.19890614080E+02 -0.19177343953E+02  0.36820926927E+02  0.00000000000E+00 0.  1.
         11    1    4    4    0    0 -0.41267836069E+01 -0.19664187644E+02  0.91159838300E+01  0.22063811550E+02  0.51100000000E-03 0. -1.
        -11    1    4    4    0    0 -0.96374345907E+01 -0.66156082077E+01 -0.50929766753E+01  0.12750875622E+02  0.51100000000E-03 0.  1.
        -12    1    4    4    0    0 -0.10574508355E+02  0.63891817721E+01  0.15154336798E+02  0.19552385902E+02  0.00000000000E+00 0.  1.
</event>
<event>
 8    1  0.2484572E-006  0.9118800E+02  0.7816164E-02  0.1184000E+00
        -11   -1    0    0    0    0  0.00000000000E+00  0.00000000000E+00  0.45593999997E+02  0.45594000000E+02  0.51100000000E-03 0. -1.
         11   -1    0    0    0    0 -0.00000000000E+00 -0.00000000000E+00 -0.45593999997E+02  0.45594000000E+02  0.51100000000E-03 0.  1.
         23    2    1    2    0    0  0.44408920985E-15  0.00000000000E+00  0.00000000000E+00  0.91188000000E+02  0.91188000000E+02 0.  0.
    9900012    2    3    3    0    0  0.16284100194E+01  0.33609355185E+01 -0.36631125014E+02  0.54366987975E+02  0.39999780685E+02 0.  0.
         12    1    3    3    0    0 -0.16284100194E+01 -0.33609355185E+01  0.36631125014E+02  0.36821012025E+02  0.00000000000E+00 0. -1.
         11    1    4    4    0    0 -0.97464406262E+01  0.20026855709E+00 -0.28940701105E+01  0.10169014428E+02  0.51100000000E-03 0. -1.
        -11    1    4    4    0    0 -0.81999305575E+01  0.31915117474E+00 -0.61611173841E+01  0.10261583031E+02  0.51100000000E-03 0.  1.
        -12    1    4    4    0    0  0.19574781203E+02  0.28415157866E+01 -0.27575937520E+02  0.33936390515E+02  0.00000000000E+00 0.  1.
</event>
<event>
 8    1  0.2484572E-006  0.9118800E+02  0.7816164E-02  0.1184000E+00
        -11   -1    0    0    0    0  0.00000000000E+00  0.00000000000E+00  0.45593999997E+02  0.45594000000E+02  0.51100000000E-03 0.  1.
         11   -1    0    0    0    0 -0.00000000000E+00 -0.00000000000E+00 -0.45593999997E+02  0.45594000000E+02  0.51100000000E-03 0. -1.
         23    2    1    2    0    0  0.00000000000E+00 -0.35527136788E-14  0.00000000000E+00  0.91188000000E+02  0.91188000000E+02 0.  0.
    9900012    2    3    3    0    0 -0.18391138708E+02  0.30807800647E+02 -0.82718537424E+01  0.54367107452E+02  0.40000053059E+02 0.  0.
        -12    1    3    3    0    0  0.18391138708E+02 -0.30807800647E+02  0.82718537424E+01  0.36820892548E+02  0.00000000000E+00 0.  1.
         11    1    4    4    0    0 -0.22238877785E+01 -0.85798875829E+01 -0.38137489440E+01  0.96490843636E+01  0.51100000000E-03 0.  1.
        -11    1    4    4    0    0 -0.13197095968E+02  0.23825920770E+02 -0.81906285966E+01  0.28441593479E+02  0.51100000000E-03 0. -1.
        -12    1    4    4    0    0 -0.29701549617E+01  0.15561767459E+02  0.37325237983E+01  0.16276429610E+02  0.00000000000E+00 0.  1.
</event>
<event>
 8    1  0.2484572E-006  0.9118800E+02  0.7816164E-02  0.1184000E+00
        -11   -1    0    0    0    0  0.00000000000E+00  0.00000000000E+00  0.45593999997E+02  0.45594000000E+02  0.51100000000E-03 0.  1.
         11   -1    0    0    0    0 -0.00000000000E+00 -0.00000000000E+00 -0.45593999997E+02  0.45594000000E+02  0.51100000000E-03 0. -1.
         23    2    1    2    0    0  0.17763568394E-14  0.00000000000E+00 -0.35527136788E-14  0.91188000000E+02  0.91188000000E+02 0.  0.
    9900012    2    3    3    0    0  0.11495520705E+02  0.28624130946E+02 -0.20107039617E+02  0.54367069663E+02  0.39999966911E+02 0.  0.
        -12    1    3    3    0    0 -0.11495520705E+02 -0.28624130946E+02  0.20107039617E+02  0.36820930337E+02  0.00000000000E+00 0.  1.
         11    1    4    4    0    0  0.11492887621E+02  0.36890565555E+02 -0.10569479266E+02  0.40058883972E+02  0.51100000000E-03 0. -1.
        -11    1    4    4    0    0 -0.18972232310E+01 -0.85210823313E+01 -0.74791957645E+01  0.11495506497E+02  0.51100000000E-03 0.  1.
        -12    1    4    4    0    0  0.18998563150E+01  0.25464772240E+00 -0.20583645863E+01  0.28126791944E+01  0.00000000000E+00 0.  1.
</event>
<event>
 8    1  0.2484572E-006  0.9118800E+02  0.7816164E-02  0.1184000E+00
        -11   -1    0    0    0    0  0.00000000000E+00  0.00000000000E+00  0.45593999997E+02  0.45594000000E+02  0.51100000000E-03 0.  1.
         11   -1    0    0    0    0 -0.00000000000E+00 -0.00000000000E+00 -0.45593999997E+02  0.45594000000E+02  0.51100000000E-03 0. -1.
         23    2    1    2    0    0 -0.17763568394E-14  0.17763568394E-14  0.00000000000E+00  0.91188000000E+02  0.91188000000E+02 0.  0.
    9900012    2    3    3    0    0 -0.12084874744E+02  0.14830378197E+02 -0.31461149829E+02  0.54366969819E+02  0.39999739295E+02 0.  0.
        -12    1    3    3    0    0  0.12084874744E+02 -0.14830378197E+02  0.31461149829E+02  0.36821030181E+02  0.00000000000E+00 0.  1.
         11    1    4    4    0    0 -0.89412485083E+01  0.45234539939E+01  0.58831798717E+01  0.11619783414E+02  0.51100000000E-03 0. -1.
        -11    1    4    4    0    0  0.70048594878E+01  0.46360058962E+01 -0.10169777348E+02  0.13190336564E+02  0.51100000000E-03 0.  1.
         12    1    4    4    0    0 -0.10148485723E+02  0.56709183074E+01 -0.27174552353E+02  0.29556849841E+02  0.00000000000E+00 0. -1.
</event>
<event>
 8    1  0.2484572E-006  0.9118800E+02  0.7816164E-02  0.1184000E+00
        -11   -1    0    0    0    0  0.00000000000E+00  0.00000000000E+00  0.45593999997E+02  0.45594000000E+02  0.51100000000E-03 0.  1.
         11   -1    0    0    0    0 -0.00000000000E+00 -0.00000000000E+00 -0.45593999997E+02  0.45594000000E+02  0.51100000000E-03 0. -1.
         23    2    1    2    0    0 -0.17763568394E-14 -0.35527136788E-14  0.00000000000E+00  0.91188000000E+02  0.91188000000E+02 0.  0.
    9900012    2    3    3    0    0  0.10449057128E+02 -0.24266561916E+02  0.25646274935E+02  0.54367078772E+02  0.39999987676E+02 0.  0.
         12    1    3    3    0    0 -0.10449057128E+02  0.24266561916E+02 -0.25646274935E+02  0.36820921228E+02  0.00000000000E+00 0. -1.
         11    1    4    4    0    0  0.34472489918E+01 -0.19144997002E+02  0.19263711727E+02  0.27377089429E+02  0.51100000000E-03 0. -1.
        -11    1    4    4    0    0 -0.22529054421E+01 -0.94724432397E+01  0.11895493837E+02  0.15372232686E+02  0.51100000000E-03 0.  1.
         12    1    4    4    0    0  0.92547135784E+01  0.43508783253E+01 -0.55129306297E+01  0.11617756657E+02  0.00000000000E+00 0. -1.
</event>
<event>
 8    1  0.2484572E-006  0.9118800E+02  0.7816164E-02  0.1184000E+00
        -11   -1    0    0    0    0  0.00000000000E+00  0.00000000000E+00  0.45593999997E+02  0.45594000000E+02  0.51100000000E-03 0.  1.
         11   -1    0    0    0    0 -0.00000000000E+00 -0.00000000000E+00 -0.45593999997E+02  0.45594000000E+02  0.51100000000E-03 0. -1.
         23    2    1    2    0    0  0.00000000000E+00  0.00000000000E+00  0.00000000000E+00  0.91188000000E+02  0.91188000000E+02 0.  0.
    9900012    2    3    3    0    0  0.16283127045E+02 -0.31224542484E+02  0.10754809758E+02  0.54367106303E+02  0.40000050439E+02 0.  0.
         12    1    3    3    0    0 -0.16283127045E+02  0.31224542484E+02 -0.10754809758E+02  0.36820893697E+02  0.00000000000E+00 0. -1.
         11    1    4    4    0    0  0.14555671664E+02 -0.86896115346E+01  0.12693479051E+02  0.21177850148E+02  0.51100000000E-03 0. -1.
        -11    1    4    4    0    0  0.76347867058E+01 -0.95979675902E+01  0.90291402144E+01  0.15229455774E+02  0.51100000000E-03 0.  1.
         12    1    4    4    0    0 -0.59073313247E+01 -0.12936963359E+02 -0.10967809507E+02  0.17959800381E+02  0.00000000000E+00 0. -1.
</event>
<event>
 8    1  0.2484572E-006  0.9118800E+02  0.7816164E-02  0.1184000E+00
        -11   -1    0    0    0    0  0.00000000000E+00  0.00000000000E+00  0.45593999997E+02  0.45594000000E+02  0.51100000000E-03 0.  1.
         11   -1    0    0    0    0 -0.00000000000E+00 -0.00000000000E+00 -0.45593999997E+02  0.45594000000E+02  0.51100000000E-03 0. -1.
         23    2    1    2    0    0  0.00000000000E+00 -0.94368957093E-15 -0.71054273576E-14  0.91188000000E+02  0.91188000000E+02 0.  0.
    9900012    2    3    3    0    0 -0.24014733449E+01 -0.64511118739E-01 -0.36742429844E+02  0.54367117518E+02  0.40000076006E+02 0.  0.
        -12    1    3    3    0    0  0.24014733449E+01  0.64511118739E-01  0.36742429844E+02  0.36820882482E+02  0.00000000000E+00 0.  1.
         11    1    4    4    0    0 -0.54307994650E+00 -0.13494237041E+01 -0.11938523361E+02  0.12026812565E+02  0.51100000000E-03 0. -1.
        -11    1    4    4    0    0 -0.11145072432E+01 -0.14624850794E+02 -0.24158541081E+01  0.14864882727E+02  0.51100000000E-03 0.  1.
        -12    1    4    4    0    0 -0.74388615525E+00  0.15909763380E+02 -0.22388052374E+02  0.27475422226E+02  0.00000000000E+00 0.  1.
</event>
<event>
 8    1  0.2484572E-006  0.9118800E+02  0.7816164E-02  0.1184000E+00
        -11   -1    0    0    0    0  0.00000000000E+00  0.00000000000E+00  0.45593999997E+02  0.45594000000E+02  0.51100000000E-03 0.  1.
         11   -1    0    0    0    0 -0.00000000000E+00 -0.00000000000E+00 -0.45593999997E+02  0.45594000000E+02  0.51100000000E-03 0. -1.
         23    2    1    2    0    0  0.00000000000E+00  0.00000000000E+00 -0.17763568394E-14  0.91188000000E+02  0.91188000000E+02 0.  0.
    9900012    2    3    3    0    0  0.22818644664E+02  0.28613688276E+02 -0.40428751878E+01  0.54367101846E+02  0.40000040279E+02 0.  0.
         12    1    3    3    0    0 -0.22818644664E+02 -0.28613688276E+02  0.40428751878E+01  0.36820898154E+02  0.00000000000E+00 0. -1.
         11    1    4    4    0    0 -0.21954918043E+01  0.42985777572E+01 -0.36456561145E+01  0.60488646674E+01  0.51100000000E-03 0. -1.
        -11    1    4    4    0    0  0.28748267163E+01  0.17022488234E+02 -0.13193052312E+02  0.21727548502E+02  0.51100000000E-03 0.  1.
        -12    1    4    4    0    0  0.22139309752E+02  0.72926222846E+01  0.12795833238E+02  0.26590688677E+02  0.00000000000E+00 0.  1.
</event>
<event>
 8    1  0.2484572E-006  0.9118800E+02  0.7816164E-02  0.1184000E+00
        -11   -1    0    0    0    0  0.00000000000E+00  0.00000000000E+00  0.45593999997E+02  0.45594000000E+02  0.51100000000E-03 0.  1.
         11   -1    0    0    0    0 -0.00000000000E+00 -0.00000000000E+00 -0.45593999997E+02  0.45594000000E+02  0.51100000000E-03 0. -1.
         23    2    1    2    0    0 -0.66613381478E-15  0.00000000000E+00  0.00000000000E+00  0.91188000000E+02  0.91188000000E+02 0.  0.
    9900012    2    3    3    0    0 -0.44902405537E+00  0.31814918357E+02 -0.18530788975E+02  0.54367071268E+02  0.39999970570E+02 0.  0.
         12    1    3    3    0    0  0.44902405537E+00 -0.31814918357E+02  0.18530788975E+02  0.36820928732E+02  0.00000000000E+00 0. -1.
         11    1    4    4    0    0 -0.70840622897E+01  0.84862536166E+01 -0.15828228878E+02  0.19306301268E+02  0.51100000000E-03 0. -1.
        -11    1    4    4    0    0  0.49235201225E+01  0.14600657268E+02 -0.13906287043E+02  0.20755844060E+02  0.51100000000E-03 0.  1.
        -12    1    4    4    0    0  0.17115181119E+01  0.87280074721E+01  0.11203726946E+02  0.14304925940E+02  0.00000000000E+00 0.  1.
</event>
<event>
 8    1  0.2484572E-006  0.9118800E+02  0.7816164E-02  0.1184000E+00
        -11   -1    0    0    0    0  0.00000000000E+00  0.00000000000E+00  0.45593999997E+02  0.45594000000E+02  0.51100000000E-03 0.  1.
         11   -1    0    0    0    0 -0.00000000000E+00 -0.00000000000E+00 -0.45593999997E+02  0.45594000000E+02  0.51100000000E-03 0. -1.
         23    2    1    2    0    0  0.00000000000E+00  0.00000000000E+00 -0.71054273576E-14  0.91188000000E+02  0.91188000000E+02 0.  0.
    9900012    2    3    3    0    0  0.95390969385E+01  0.83821100910E+01 -0.34561922350E+02  0.54367073661E+02  0.39999976024E+02 0.  0.
        -12    1    3    3    0    0 -0.95390969385E+01 -0.83821100910E+01  0.34561922350E+02  0.36820926339E+02  0.00000000000E+00 0.  1.
         11    1    4    4    0    0  0.71977123765E+01  0.88706105902E+01  0.54869149423E+01  0.12672846229E+02  0.51100000000E-03 0. -1.
        -11    1    4    4    0    0 -0.15197001065E+01 -0.50356879111E+01 -0.24074185503E+02  0.24642119411E+02  0.51100000000E-03 0.  1.
         12    1    4    4    0    0  0.38610846686E+01  0.45471874118E+01 -0.15974651789E+02  0.17052108021E+02  0.00000000000E+00 0. -1.
</event>
<event>
 8    1  0.2484572E-006  0.9118800E+02  0.7816164E-02  0.1184000E+00
        -11   -1    0    0    0    0  0.00000000000E+00  0.00000000000E+00  0.45593999997E+02  0.45594000000E+02  0.51100000000E-03 0. -1.
         11   -1    0    0    0    0 -0.00000000000E+00 -0.00000000000E+00 -0.45593999997E+02  0.45594000000E+02  0.51100000000E-03 0.  1.
         23    2    1    2    0    0  0.35527136788E-14  0.35527136788E-14 -0.88817841970E-15  0.91188000000E+02  0.91188000000E+02 0.  0.
    9900012    2    3    3    0    0  0.27618911846E+02  0.23858671260E+02 -0.48731058950E+01  0.54366978193E+02  0.39999758385E+02 0.  0.
         12    1    3    3    0    0 -0.27618911846E+02 -0.23858671260E+02  0.48731058950E+01  0.36821021807E+02  0.00000000000E+00 0. -1.
         11    1    4    4    0    0  0.41876411244E+01  0.11251037099E+02 -0.50566435639E+01  0.13026581224E+02  0.51100000000E-03 0. -1.
        -11    1    4    4    0    0  0.24364087232E+02 -0.67468202486E+00 -0.80701497972E+01  0.25674720261E+02  0.51100000000E-03 0.  1.
         12    1    4    4    0    0 -0.93281651017E+00  0.13282316187E+02  0.82536874662E+01  0.15665676708E+02  0.00000000000E+00 0. -1.
</event>
<event>
 8    1  0.2484572E-006  0.9118800E+02  0.7816164E-02  0.1184000E+00
        -11   -1    0    0    0    0  0.00000000000E+00  0.00000000000E+00  0.45593999997E+02  0.45594000000E+02  0.51100000000E-03 0.  1.
         11   -1    0    0    0    0 -0.00000000000E+00 -0.00000000000E+00 -0.45593999997E+02  0.45594000000E+02  0.51100000000E-03 0. -1.
         23    2    1    2    0    0  0.88817841970E-15  0.00000000000E+00  0.00000000000E+00  0.91188000000E+02  0.91188000000E+02 0.  0.
    9900012    2    3    3    0    0  0.70452558169E+01  0.35704448191E+02 -0.55978904725E+01  0.54367087085E+02  0.40000006628E+02 0.  0.
        -12    1    3    3    0    0 -0.70452558169E+01 -0.35704448191E+02  0.55978904725E+01  0.36820912915E+02  0.00000000000E+00 0.  1.
         11    1    4    4    0    0  0.25695984817E+01 -0.22572648851E+01 -0.51236676150E+01  0.61603612888E+01  0.51100000000E-03 0. -1.
        -11    1    4    4    0    0  0.24579558034E+01  0.20880763797E+02  0.14386886710E+02  0.25476074128E+02  0.51100000000E-03 0.  1.
        -12    1    4    4    0    0  0.20177015318E+01  0.17080949278E+02 -0.14861109567E+02  0.22730651669E+02  0.00000000000E+00 0.  1.
</event>
<event>
 8    1  0.2484572E-006  0.9118800E+02  0.7816164E-02  0.1184000E+00
        -11   -1    0    0    0    0  0.00000000000E+00  0.00000000000E+00  0.45593999997E+02  0.45594000000E+02  0.51100000000E-03 0. -1.
         11   -1    0    0    0    0 -0.00000000000E+00 -0.00000000000E+00 -0.45593999997E+02  0.45594000000E+02  0.51100000000E-03 0.  1.
         23    2    1    2    0    0  0.00000000000E+00  0.17763568394E-14  0.71054273576E-14  0.91188000000E+02  0.91188000000E+02 0.  0.
    9900012    2    3    3    0    0  0.11685500336E+02  0.10093454268E+02  0.33426951511E+02  0.54366948623E+02  0.39999690976E+02 0.  0.
        -12    1    3    3    0    0 -0.11685500336E+02 -0.10093454268E+02 -0.33426951511E+02  0.36821051377E+02  0.00000000000E+00 0.  1.
         11    1    4    4    0    0  0.61657811107E+01 -0.60908183568E+01  0.35130364887E+01  0.93518100169E+01  0.51100000000E-03 0. -1.
        -11    1    4    4    0    0  0.36969934573E+01 -0.32332224163E+01 -0.37027353796E+01  0.61507509598E+01  0.51100000000E-03 0.  1.
         12    1    4    4    0    0  0.18227257675E+01  0.19417495041E+02  0.33616650402E+02  0.38864387647E+02  0.00000000000E+00 0. -1.
</event>
<event>
 8    1  0.2484572E-006  0.9118800E+02  0.7816164E-02  0.1184000E+00
        -11   -1    0    0    0    0  0.00000000000E+00  0.00000000000E+00  0.45593999997E+02  0.45594000000E+02  0.51100000000E-03 0. -1.
         11   -1    0    0    0    0 -0.00000000000E+00 -0.00000000000E+00 -0.45593999997E+02  0.45594000000E+02  0.51100000000E-03 0.  1.
         23    2    1    2    0    0  0.00000000000E+00  0.00000000000E+00 -0.17763568394E-14  0.91188000000E+02  0.91188000000E+02 0.  0.
    9900012    2    3    3    0    0  0.34891894357E+02  0.11743928257E+02 -0.64440779391E+00  0.54367090123E+02  0.40000013554E+02 0.  0.
         12    1    3    3    0    0 -0.34891894357E+02 -0.11743928257E+02  0.64440779391E+00  0.36820909877E+02  0.00000000000E+00 0. -1.
         11    1    4    4    0    0 -0.82432834305E+00 -0.31554821316E+01 -0.15760535206E+01  0.36222271686E+01  0.51100000000E-03 0. -1.
        -11    1    4    4    0    0  0.28878285856E+02  0.78537904148E+01 -0.13868286162E+02  0.32984341425E+02  0.51100000000E-03 0.  1.
        -12    1    4    4    0    0  0.68379368440E+01  0.70456199740E+01  0.14799931889E+02  0.17760521530E+02  0.00000000000E+00 0.  1.
</event>
<event>
 8    1  0.2484572E-006  0.9118800E+02  0.7816164E-02  0.1184000E+00
        -11   -1    0    0    0    0  0.00000000000E+00  0.00000000000E+00  0.45593999997E+02  0.45594000000E+02  0.51100000000E-03 0. -1.
         11   -1    0    0    0    0 -0.00000000000E+00 -0.00000000000E+00 -0.45593999997E+02  0.45594000000E+02  0.51100000000E-03 0.  1.
         23    2    1    2    0    0  0.00000000000E+00  0.00000000000E+00  0.17763568394E-14  0.91188000000E+02  0.91188000000E+02 0.  0.
    9900012    2    3    3    0    0  0.36508360588E+01 -0.34777377367E+02 -0.11531926846E+02  0.54367083156E+02  0.39999997671E+02 0.  0.
         12    1    3    3    0    0 -0.36508360588E+01  0.34777377367E+02  0.11531926846E+02  0.36820916844E+02  0.00000000000E+00 0. -1.
         11    1    4    4    0    0  0.37904478615E+00 -0.32975275252E+02 -0.18911404189E+02  0.38015176727E+02  0.51100000000E-03 0. -1.
        -11    1    4    4    0    0  0.55843947469E+01 -0.86404991795E+00 -0.24875754425E+01  0.61741459971E+01  0.51100000000E-03 0.  1.
         12    1    4    4    0    0 -0.23126034742E+01 -0.93805219701E+00  0.98670527851E+01  0.10177760432E+02  0.00000000000E+00 0. -1.
</event>
<event>
 8    1  0.2484572E-006  0.9118800E+02  0.7816164E-02  0.1184000E+00
        -11   -1    0    0    0    0  0.00000000000E+00  0.00000000000E+00  0.45593999997E+02  0.45594000000E+02  0.51100000000E-03 0. -1.
         11   -1    0    0    0    0 -0.00000000000E+00 -0.00000000000E+00 -0.45593999997E+02  0.45594000000E+02  0.51100000000E-03 0.  1.
         23    2    1    2    0    0  0.00000000000E+00  0.35527136788E-14  0.88817841970E-15  0.91188000000E+02  0.91188000000E+02 0.  0.
    9900012    2    3    3    0    0  0.35495518709E+02  0.59022661815E+01 -0.78109109405E+01  0.54367096640E+02  0.40000028410E+02 0.  0.
         12    1    3    3    0    0 -0.35495518709E+02 -0.59022661815E+01  0.78109109405E+01  0.36820903360E+02  0.00000000000E+00 0. -1.
         11    1    4    4    0    0 -0.13582646477E+00 -0.59631948646E+01  0.89674032390E+01  0.10769979709E+02  0.51100000000E-03 0. -1.
        -11    1    4    4    0    0  0.21282398413E+02  0.93278856515E+01 -0.17373148043E+02  0.29013379778E+02  0.51100000000E-03 0.  1.
         12    1    4    4    0    0  0.14348946761E+02  0.25375753947E+01  0.59483386362E+00  0.14583737153E+02  0.00000000000E+00 0. -1.
</event>
<event>
 8    1  0.2484572E-006  0.9118800E+02  0.7816164E-02  0.1184000E+00
        -11   -1    0    0    0    0  0.00000000000E+00  0.00000000000E+00  0.45593999997E+02  0.45594000000E+02  0.51100000000E-03 0. -1.
         11   -1    0    0    0    0 -0.00000000000E+00 -0.00000000000E+00 -0.45593999997E+02  0.45594000000E+02  0.51100000000E-03 0.  1.
         23    2    1    2    0    0  0.35527136788E-14 -0.35527136788E-14  0.35527136788E-14  0.91188000000E+02  0.91188000000E+02 0.  0.
    9900012    2    3    3    0    0  0.18496368483E+02 -0.29829832621E+02  0.11128560919E+02  0.54367089780E+02  0.40000012773E+02 0.  0.
        -12    1    3    3    0    0 -0.18496368483E+02  0.29829832621E+02 -0.11128560919E+02  0.36820910220E+02  0.00000000000E+00 0.  1.
         11    1    4    4    0    0  0.15070577060E+02 -0.17583646692E+02  0.16159422409E+02  0.28238871379E+02  0.51100000000E-03 0. -1.
        -11    1    4    4    0    0 -0.69992896425E+01 -0.41328730132E+01 -0.91993885563E+01  0.12275970223E+02  0.51100000000E-03 0.  1.
        -12    1    4    4    0    0  0.10425081066E+02 -0.81133129165E+01  0.41685270656E+01  0.13852248179E+02  0.00000000000E+00 0.  1.
</event>
<event>
 8    1  0.2484572E-006  0.9118800E+02  0.7816164E-02  0.1184000E+00
        -11   -1    0    0    0    0  0.00000000000E+00  0.00000000000E+00  0.45593999997E+02  0.45594000000E+02  0.51100000000E-03 0.  1.
         11   -1    0    0    0    0 -0.00000000000E+00 -0.00000000000E+00 -0.45593999997E+02  0.45594000000E+02  0.51100000000E-03 0. -1.
         23    2    1    2    0    0  0.00000000000E+00  0.66613381478E-15  0.00000000000E+00  0.91188000000E+02  0.91188000000E+02 0.  0.
    9900012    2    3    3    0    0  0.18062572759E+02 -0.10851013909E+01  0.32067841035E+02  0.54367076487E+02  0.39999982467E+02 0.  0.
         12    1    3    3    0    0 -0.18062572759E+02  0.10851013909E+01 -0.32067841035E+02  0.36820923513E+02  0.00000000000E+00 0. -1.
         11    1    4    4    0    0 -0.42282531742E+01  0.48411634342E+01  0.42192390546E+00  0.64415066828E+01  0.51100000000E-03 0. -1.
        -11    1    4    4    0    0  0.22834022699E+02  0.61834113172E+01  0.23331525484E+02  0.33226303583E+02  0.51100000000E-03 0.  1.
        -12    1    4    4    0    0 -0.54319676512E+00 -0.12109676142E+02  0.83143916453E+01  0.14699266221E+02  0.00000000000E+00 0.  1.
</event>
<event>
 8    1  0.2484572E-006  0.9118800E+02  0.7816164E-02  0.1184000E+00
        -11   -1    0    0    0    0  0.00000000000E+00  0.00000000000E+00  0.45593999997E+02  0.45594000000E+02  0.51100000000E-03 0.  1.
         11   -1    0    0    0    0 -0.00000000000E+00 -0.00000000000E+00 -0.45593999997E+02  0.45594000000E+02  0.51100000000E-03 0. -1.
         23    2    1    2    0    0  0.00000000000E+00  0.00000000000E+00  0.35527136788E-14  0.91188000000E+02  0.91188000000E+02 0.  0.
    9900012    2    3    3    0    0 -0.24238434865E+02  0.23099324172E+02 -0.15319900924E+02  0.54367083849E+02  0.39999999251E+02 0.  0.
        -12    1    3    3    0    0  0.24238434865E+02 -0.23099324172E+02  0.15319900924E+02  0.36820916151E+02  0.00000000000E+00 0.  1.
         11    1    4    4    0    0 -0.92887955920E+01  0.85626478080E+01 -0.17526729189E+02  0.21605251616E+02  0.51100000000E-03 0. -1.
        -11    1    4    4    0    0 -0.19052431260E+02  0.24540179401E+01 -0.20295578280E+01  0.19316740051E+02  0.51100000000E-03 0.  1.
        -12    1    4    4    0    0  0.41027919868E+01  0.12082658424E+02  0.42363860934E+01  0.13445092183E+02  0.00000000000E+00 0.  1.
</event>
<event>
 8    1  0.2484572E-006  0.9118800E+02  0.7816164E-02  0.1184000E+00
        -11   -1    0    0    0    0  0.00000000000E+00  0.00000000000E+00  0.45593999997E+02  0.45594000000E+02  0.51100000000E-03 0. -1.
         11   -1    0    0    0    0 -0.00000000000E+00 -0.00000000000E+00 -0.45593999997E+02  0.45594000000E+02  0.51100000000E-03 0.  1.
         23    2    1    2    0    0  0.00000000000E+00  0.00000000000E+00  0.35527136788E-14  0.91188000000E+02  0.91188000000E+02 0.  0.
    9900012    2    3    3    0    0 -0.16689187141E+02 -0.27072094352E+02  0.18556619648E+02  0.54367144595E+02  0.40000137732E+02 0.  0.
        -12    1    3    3    0    0  0.16689187141E+02  0.27072094352E+02 -0.18556619648E+02  0.36820855405E+02  0.00000000000E+00 0.  1.
         11    1    4    4    0    0 -0.79656286924E+01 -0.24317080046E+02  0.88842293536E+01  0.27086918501E+02  0.51100000000E-03 0. -1.
        -11    1    4    4    0    0  0.43538248223E+01 -0.85843271285E+01 -0.62263411678E+00  0.96454204852E+01  0.51100000000E-03 0.  1.
        -12    1    4    4    0    0 -0.13077383271E+02  0.58293128228E+01  0.10295024411E+02  0.17634805608E+02  0.00000000000E+00 0.  1.
</event>
<event>
 8    1  0.2484572E-006  0.9118800E+02  0.7816164E-02  0.1184000E+00
        -11   -1    0    0    0    0  0.00000000000E+00  0.00000000000E+00  0.45593999997E+02  0.45594000000E+02  0.51100000000E-03 0. -1.
         11   -1    0    0    0    0 -0.00000000000E+00 -0.00000000000E+00 -0.45593999997E+02  0.45594000000E+02  0.51100000000E-03 0.  1.
         23    2    1    2    0    0  0.35527136788E-14  0.35527136788E-14  0.88817841970E-15  0.91188000000E+02  0.91188000000E+02 0.  0.
    9900012    2    3    3    0    0 -0.19297152099E+02 -0.30946925361E+02  0.50682904359E+01  0.54367084254E+02  0.40000000173E+02 0.  0.
        -12    1    3    3    0    0  0.19297152099E+02  0.30946925361E+02 -0.50682904359E+01  0.36820915746E+02  0.00000000000E+00 0.  1.
         11    1    4    4    0    0 -0.62236994325E+01 -0.99934987655E+01 -0.61878929947E+01  0.13300168126E+02  0.51100000000E-03 0. -1.
        -11    1    4    4    0    0 -0.61701736137E+01 -0.96236953454E+01 -0.10540783701E+02  0.15549748416E+02  0.51100000000E-03 0.  1.
         12    1    4    4    0    0 -0.69032790532E+01 -0.11329731250E+02  0.21796967132E+02  0.25517167712E+02  0.00000000000E+00 0. -1.
</event>
<event>
 8    1  0.2484572E-006  0.9118800E+02  0.7816164E-02  0.1184000E+00
        -11   -1    0    0    0    0  0.00000000000E+00  0.00000000000E+00  0.45593999997E+02  0.45594000000E+02  0.51100000000E-03 0.  1.
         11   -1    0    0    0    0 -0.00000000000E+00 -0.00000000000E+00 -0.45593999997E+02  0.45594000000E+02  0.51100000000E-03 0. -1.
         23    2    1    2    0    0  0.31502578324E-14 -0.35527136788E-14  0.00000000000E+00  0.91188000000E+02  0.91188000000E+02 0.  0.
    9900012    2    3    3    0    0  0.33699240175E-01 -0.22573582701E+02 -0.29089700133E+02  0.54367103414E+02  0.40000043852E+02 0.  0.
        -12    1    3    3    0    0 -0.33699240175E-01  0.22573582701E+02  0.29089700133E+02  0.36820896586E+02  0.00000000000E+00 0.  1.
         11    1    4    4    0    0 -0.12718152622E+02 -0.16837382315E+02 -0.23627724569E+02  0.31678355669E+02  0.51100000000E-03 0. -1.
        -11    1    4    4    0    0  0.49422185450E+01  0.45745990969E+01  0.28511257287E+01  0.73130977859E+01  0.51100000000E-03 0.  1.
         12    1    4    4    0    0  0.78096333174E+01 -0.10310799483E+02 -0.83131012924E+01  0.15375649958E+02  0.00000000000E+00 0. -1.
</event>
<event>
 8    1  0.2484572E-006  0.9118800E+02  0.7816164E-02  0.1184000E+00
        -11   -1    0    0    0    0  0.00000000000E+00  0.00000000000E+00  0.45593999997E+02  0.45594000000E+02  0.51100000000E-03 0. -1.
         11   -1    0    0    0    0 -0.00000000000E+00 -0.00000000000E+00 -0.45593999997E+02  0.45594000000E+02  0.51100000000E-03 0.  1.
         23    2    1    2    0    0  0.71054273576E-14  0.00000000000E+00  0.00000000000E+00  0.91188000000E+02  0.91188000000E+02 0.  0.
    9900012    2    3    3    0    0 -0.30543787254E+02  0.40941550509E+01  0.20151757672E+02  0.54367103994E+02  0.40000045175E+02 0.  0.
        -12    1    3    3    0    0  0.30543787254E+02 -0.40941550509E+01 -0.20151757672E+02  0.36820896006E+02  0.00000000000E+00 0.  1.
         11    1    4    4    0    0  0.61364044640E+01  0.32445885299E+01  0.19552528069E+01  0.72115066577E+01  0.51100000000E-03 0. -1.
        -11    1    4    4    0    0  0.60761205784E+00  0.34826361876E+00  0.86280357521E+01  0.86564127190E+01  0.51100000000E-03 0.  1.
         12    1    4    4    0    0 -0.37287803776E+02  0.50130290220E+00  0.95684691126E+01  0.38499184617E+02  0.00000000000E+00 0. -1.
</event>
<event>
 8    1  0.2484572E-006  0.9118800E+02  0.7816164E-02  0.1184000E+00
        -11   -1    0    0    0    0  0.00000000000E+00  0.00000000000E+00  0.45593999997E+02  0.45594000000E+02  0.51100000000E-03 0. -1.
         11   -1    0    0    0    0 -0.00000000000E+00 -0.00000000000E+00 -0.45593999997E+02  0.45594000000E+02  0.51100000000E-03 0.  1.
         23    2    1    2    0    0  0.00000000000E+00  0.00000000000E+00  0.44408920985E-15  0.91188000000E+02  0.91188000000E+02 0.  0.
    9900012    2    3    3    0    0  0.23322384674E+02  0.28350973038E+02  0.28404461223E+01  0.54367089728E+02  0.40000012652E+02 0.  0.
        -12    1    3    3    0    0 -0.23322384674E+02 -0.28350973038E+02 -0.28404461223E+01  0.36820910272E+02  0.00000000000E+00 0.  1.
         11    1    4    4    0    0 -0.52742390313E+01  0.29998104607E+01  0.76757574080E+01  0.97843605926E+01  0.51100000000E-03 0.  1.
        -11    1    4    4    0    0  0.12013140606E+02  0.63692961356E+01  0.85315330422E+01  0.16052119386E+02  0.51100000000E-03 0. -1.
         12    1    4    4    0    0  0.16583483100E+02  0.18981866442E+02 -0.13366844328E+02  0.28530609749E+02  0.00000000000E+00 0. -1.
</event>
<event>
 8    1  0.2484572E-006  0.9118800E+02  0.7816164E-02  0.1184000E+00
        -11   -1    0    0    0    0  0.00000000000E+00  0.00000000000E+00  0.45593999997E+02  0.45594000000E+02  0.51100000000E-03 0. -1.
         11   -1    0    0    0    0 -0.00000000000E+00 -0.00000000000E+00 -0.45593999997E+02  0.45594000000E+02  0.51100000000E-03 0.  1.
         23    2    1    2    0    0 -0.17763568394E-14  0.00000000000E+00  0.00000000000E+00  0.91188000000E+02  0.91188000000E+02 0.  0.
    9900012    2    3    3    0    0 -0.11923487451E+02  0.85087865785E+01 -0.33781835449E+02  0.54367062908E+02  0.39999951512E+02 0.  0.
         12    1    3    3    0    0  0.11923487451E+02 -0.85087865785E+01  0.33781835449E+02  0.36820937092E+02  0.00000000000E+00 0. -1.
         11    1    4    4    0    0 -0.50858769021E+01 -0.60869634945E+01 -0.12400599778E+01  0.80283882229E+01  0.51100000000E-03 0. -1.
        -11    1    4    4    0    0 -0.10809506829E+02  0.72496312021E+00 -0.29725388622E+02  0.31638105797E+02  0.51100000000E-03 0.  1.
         12    1    4    4    0    0  0.39718962809E+01  0.13870786953E+02 -0.28163868485E+01  0.14700568888E+02  0.00000000000E+00 0. -1.
</event>
<event>
 8    1  0.2484572E-006  0.9118800E+02  0.7816164E-02  0.1184000E+00
        -11   -1    0    0    0    0  0.00000000000E+00  0.00000000000E+00  0.45593999997E+02  0.45594000000E+02  0.51100000000E-03 0. -1.
         11   -1    0    0    0    0 -0.00000000000E+00 -0.00000000000E+00 -0.45593999997E+02  0.45594000000E+02  0.51100000000E-03 0.  1.
         23    2    1    2    0    0  0.00000000000E+00  0.00000000000E+00  0.00000000000E+00  0.91188000000E+02  0.91188000000E+02 0.  0.
    9900012    2    3    3    0    0 -0.16253681018E+02 -0.48964584977E+01  0.32674503213E+02  0.54367073713E+02  0.39999976143E+02 0.  0.
        -12    1    3    3    0    0  0.16253681018E+02  0.48964584977E+01 -0.32674503213E+02  0.36820926287E+02  0.00000000000E+00 0.  1.
         11    1    4    4    0    0 -0.10978860826E+02  0.12290934855E+01  0.19980220107E+02  0.22831015125E+02  0.51100000000E-03 0. -1.
        -11    1    4    4    0    0 -0.63145570246E+01  0.78147831866E+01 -0.30322585115E+01  0.10494715747E+02  0.51100000000E-03 0.  1.
        -12    1    4    4    0    0  0.10397368323E+01 -0.13940335170E+02  0.15726541617E+02  0.21041342841E+02  0.00000000000E+00 0.  1.
</event>
<event>
 8    1  0.2484572E-006  0.9118800E+02  0.7816164E-02  0.1184000E+00
        -11   -1    0    0    0    0  0.00000000000E+00  0.00000000000E+00  0.45593999997E+02  0.45594000000E+02  0.51100000000E-03 0. -1.
         11   -1    0    0    0    0 -0.00000000000E+00 -0.00000000000E+00 -0.45593999997E+02  0.45594000000E+02  0.51100000000E-03 0.  1.
         23    2    1    2    0    0  0.00000000000E+00  0.14210854715E-13 -0.88817841970E-15  0.91188000000E+02  0.91188000000E+02 0.  0.
    9900012    2    3    3    0    0  0.33624314085E+01  0.36210544945E+02 -0.57680725263E+01  0.54367079712E+02  0.39999989819E+02 0.  0.
        -12    1    3    3    0    0 -0.33624314085E+01 -0.36210544945E+02  0.57680725263E+01  0.36820920288E+02  0.00000000000E+00 0.  1.
         11    1    4    4    0    0 -0.58800413585E+01  0.51310474334E+01 -0.26672378522E+01  0.82472233002E+01  0.51100000000E-03 0. -1.
        -11    1    4    4    0    0  0.71268862585E+00 -0.33686723936E+01  0.81852327236E+01  0.88799726224E+01  0.51100000000E-03 0.  1.
        -12    1    4    4    0    0  0.85297841412E+01  0.34448169905E+02 -0.11286067398E+02  0.37239883789E+02  0.00000000000E+00 0.  1.
</event>
<event>
 8    1  0.2484572E-006  0.9118800E+02  0.7816164E-02  0.1184000E+00
        -11   -1    0    0    0    0  0.00000000000E+00  0.00000000000E+00  0.45593999997E+02  0.45594000000E+02  0.51100000000E-03 0. -1.
         11   -1    0    0    0    0 -0.00000000000E+00 -0.00000000000E+00 -0.45593999997E+02  0.45594000000E+02  0.51100000000E-03 0.  1.
         23    2    1    2    0    0  0.35527136788E-14  0.00000000000E+00  0.00000000000E+00  0.91188000000E+02  0.91188000000E+02 0.  0.
    9900012    2    3    3    0    0 -0.30690537666E+02 -0.74096831209E+01  0.18946152307E+02  0.54367228777E+02  0.40000329642E+02 0.  0.
         12    1    3    3    0    0  0.30690537666E+02  0.74096831209E+01 -0.18946152307E+02  0.36820771223E+02  0.00000000000E+00 0. -1.
         11    1    4    4    0    0 -0.99846504642E+01 -0.49099006068E+00 -0.69240134536E+01  0.12160439083E+02  0.51100000000E-03 0. -1.
        -11    1    4    4    0    0 -0.24254205986E+02 -0.44358477984E+01  0.11515452118E+02  0.27213027972E+02  0.51100000000E-03 0.  1.
         12    1    4    4    0    0  0.35483187836E+01 -0.24828452618E+01  0.14354713643E+02  0.14993761721E+02  0.00000000000E+00 0. -1.
</event>
<event>
 8    1  0.2484572E-006  0.9118800E+02  0.7816164E-02  0.1184000E+00
        -11   -1    0    0    0    0  0.00000000000E+00  0.00000000000E+00  0.45593999997E+02  0.45594000000E+02  0.51100000000E-03 0.  1.
         11   -1    0    0    0    0 -0.00000000000E+00 -0.00000000000E+00 -0.45593999997E+02  0.45594000000E+02  0.51100000000E-03 0. -1.
         23    2    1    2    0    0  0.00000000000E+00  0.00000000000E+00  0.00000000000E+00  0.91188000000E+02  0.91188000000E+02 0.  0.
    9900012    2    3    3    0    0 -0.10865745721E+02 -0.32685322772E+02 -0.13014830032E+02  0.54367074488E+02  0.39999977911E+02 0.  0.
        -12    1    3    3    0    0  0.10865745721E+02  0.32685322772E+02  0.13014830032E+02  0.36820925512E+02  0.00000000000E+00 0.  1.
         11    1    4    4    0    0 -0.13493083506E+02 -0.26000607241E+02 -0.15904632399E+02  0.33332449826E+02  0.51100000000E-03 0. -1.
        -11    1    4    4    0    0 -0.17298109141E+01  0.22924226714E+01 -0.66412243070E+01  0.72355585866E+01  0.51100000000E-03 0.  1.
         12    1    4    4    0    0  0.43571486998E+01 -0.89771382026E+01  0.95310266743E+01  0.13799066076E+02  0.00000000000E+00 0. -1.
</event>
<event>
 8    1  0.2484572E-006  0.9118800E+02  0.7816164E-02  0.1184000E+00
        -11   -1    0    0    0    0  0.00000000000E+00  0.00000000000E+00  0.45593999997E+02  0.45594000000E+02  0.51100000000E-03 0.  1.
         11   -1    0    0    0    0 -0.00000000000E+00 -0.00000000000E+00 -0.45593999997E+02  0.45594000000E+02  0.51100000000E-03 0. -1.
         23    2    1    2    0    0  0.22204460493E-14  0.00000000000E+00  0.00000000000E+00  0.91188000000E+02  0.91188000000E+02 0.  0.
    9900012    2    3    3    0    0 -0.25954217851E+01  0.33484065816E+02  0.15095079013E+02  0.54367078118E+02  0.39999986186E+02 0.  0.
         12    1    3    3    0    0  0.25954217851E+01 -0.33484065816E+02 -0.15095079013E+02  0.36820921882E+02  0.00000000000E+00 0. -1.
         11    1    4    4    0    0  0.89835796231E+01  0.75469048171E+01  0.13408342092E+02  0.17816961387E+02  0.51100000000E-03 0. -1.
        -11    1    4    4    0    0 -0.14318973806E+02  0.19073634535E+02 -0.72741523289E+01  0.24934912023E+02  0.51100000000E-03 0.  1.
        -12    1    4    4    0    0  0.27399723974E+01  0.68635264645E+01  0.89608892497E+01  0.11615204708E+02  0.00000000000E+00 0.  1.
</event>
<event>
 8    1  0.2484572E-006  0.9118800E+02  0.7816164E-02  0.1184000E+00
        -11   -1    0    0    0    0  0.00000000000E+00  0.00000000000E+00  0.45593999997E+02  0.45594000000E+02  0.51100000000E-03 0.  1.
         11   -1    0    0    0    0 -0.00000000000E+00 -0.00000000000E+00 -0.45593999997E+02  0.45594000000E+02  0.51100000000E-03 0. -1.
         23    2    1    2    0    0  0.35527136788E-14 -0.88817841970E-15  0.00000000000E+00  0.91188000000E+02  0.91188000000E+02 0.  0.
    9900012    2    3    3    0    0 -0.31277906851E+02 -0.76400055474E+01 -0.17863512170E+02  0.54367052038E+02  0.39999926732E+02 0.  0.
        -12    1    3    3    0    0  0.31277906851E+02  0.76400055474E+01  0.17863512170E+02  0.36820947962E+02  0.00000000000E+00 0.  1.
         11    1    4    4    0    0 -0.14208697776E+02 -0.18049036926E+02 -0.13059034877E+02  0.26423346091E+02  0.51100000000E-03 0. -1.
        -11    1    4    4    0    0  0.32795340767E+01  0.57932548436E+01 -0.93940483466E+00  0.67230667963E+01  0.51100000000E-03 0.  1.
         12    1    4    4    0    0 -0.20348743152E+02  0.46157765350E+01 -0.38650724579E+01  0.21220639151E+02  0.00000000000E+00 0. -1.
</event>
<event>
 8    1  0.2484572E-006  0.9118800E+02  0.7816164E-02  0.1184000E+00
        -11   -1    0    0    0    0  0.00000000000E+00  0.00000000000E+00  0.45593999997E+02  0.45594000000E+02  0.51100000000E-03 0. -1.
         11   -1    0    0    0    0 -0.00000000000E+00 -0.00000000000E+00 -0.45593999997E+02  0.45594000000E+02  0.51100000000E-03 0.  1.
         23    2    1    2    0    0  0.00000000000E+00  0.35527136788E-14  0.00000000000E+00  0.91188000000E+02  0.91188000000E+02 0.  0.
    9900012    2    3    3    0    0  0.29789569030E+02 -0.17366475029E+02  0.12913452490E+02  0.54367216017E+02  0.40000300553E+02 0.  0.
        -12    1    3    3    0    0 -0.29789569030E+02  0.17366475029E+02 -0.12913452490E+02  0.36820783983E+02  0.00000000000E+00 0.  1.
         11    1    4    4    0    0  0.18397950097E+02 -0.31759385239E+00  0.59228206247E+00  0.18410220855E+02  0.51100000000E-03 0. -1.
        -11    1    4    4    0    0  0.11022203299E+02 -0.67309217412E+00 -0.49959999578E+01  0.12120314950E+02  0.51100000000E-03 0.  1.
         12    1    4    4    0    0  0.36941563305E+00 -0.16375789002E+02  0.17317170386E+02  0.23836680212E+02  0.00000000000E+00 0. -1.
</event>
<event>
 8    1  0.2484572E-006  0.9118800E+02  0.7816164E-02  0.1184000E+00
        -11   -1    0    0    0    0  0.00000000000E+00  0.00000000000E+00  0.45593999997E+02  0.45594000000E+02  0.51100000000E-03 0.  1.
         11   -1    0    0    0    0 -0.00000000000E+00 -0.00000000000E+00 -0.45593999997E+02  0.45594000000E+02  0.51100000000E-03 0. -1.
         23    2    1    2    0    0 -0.71054273576E-14  0.00000000000E+00  0.00000000000E+00  0.91188000000E+02  0.91188000000E+02 0.  0.
    9900012    2    3    3    0    0  0.29837744737E+02 -0.18617383036E+02  0.10903318849E+02  0.54367077632E+02  0.39999985078E+02 0.  0.
         12    1    3    3    0    0 -0.29837744737E+02  0.18617383036E+02 -0.10903318849E+02  0.36820922368E+02  0.00000000000E+00 0. -1.
         11    1    4    4    0    0  0.57157530386E+01 -0.11219177744E+02  0.18555508872E+02  0.22424243395E+02  0.51100000000E-03 0. -1.
        -11    1    4    4    0    0  0.47851312862E+01 -0.19502772621E+01  0.57979281646E+01  0.77664041930E+01  0.51100000000E-03 0.  1.
         12    1    4    4    0    0  0.19336860412E+02 -0.54479280291E+01 -0.13450118188E+02  0.24176430044E+02  0.00000000000E+00 0. -1.
</event>
<event>
 8    1  0.2484572E-006  0.9118800E+02  0.7816164E-02  0.1184000E+00
        -11   -1    0    0    0    0  0.00000000000E+00  0.00000000000E+00  0.45593999997E+02  0.45594000000E+02  0.51100000000E-03 0. -1.
         11   -1    0    0    0    0 -0.00000000000E+00 -0.00000000000E+00 -0.45593999997E+02  0.45594000000E+02  0.51100000000E-03 0.  1.
         23    2    1    2    0    0 -0.15543122345E-14 -0.17763568394E-14 -0.71054273576E-14  0.91188000000E+02  0.91188000000E+02 0.  0.
    9900012    2    3    3    0    0  0.15417011163E+01  0.11397612047E+02  0.34978527419E+02  0.54367084977E+02  0.40000001823E+02 0.  0.
        -12    1    3    3    0    0 -0.15417011163E+01 -0.11397612047E+02 -0.34978527419E+02  0.36820915023E+02  0.00000000000E+00 0.  1.
         11    1    4    4    0    0  0.12191774770E+02  0.10764321773E+02  0.11111435987E+02  0.19697055750E+02  0.51100000000E-03 0. -1.
        -11    1    4    4    0    0  0.41652081742E+01 -0.56275963703E+01  0.15665226764E+01  0.71744542370E+01  0.51100000000E-03 0.  1.
         12    1    4    4    0    0 -0.14815281828E+02  0.62608866438E+01  0.22300568756E+02  0.27495574990E+02  0.00000000000E+00 0. -1.
</event>
<event>
 8    1  0.2484572E-006  0.9118800E+02  0.7816164E-02  0.1184000E+00
        -11   -1    0    0    0    0  0.00000000000E+00  0.00000000000E+00  0.45593999997E+02  0.45594000000E+02  0.51100000000E-03 0. -1.
         11   -1    0    0    0    0 -0.00000000000E+00 -0.00000000000E+00 -0.45593999997E+02  0.45594000000E+02  0.51100000000E-03 0.  1.
         23    2    1    2    0    0  0.00000000000E+00  0.88817841970E-15  0.00000000000E+00  0.91188000000E+02  0.91188000000E+02 0.  0.
    9900012    2    3    3    0    0  0.31945385620E+02 -0.33873853749E+01 -0.17994387696E+02  0.54367081616E+02  0.39999994161E+02 0.  0.
         12    1    3    3    0    0 -0.31945385620E+02  0.33873853749E+01  0.17994387696E+02  0.36820918384E+02  0.00000000000E+00 0. -1.
         11    1    4    4    0    0 -0.11636545039E+01 -0.65009902227E+00  0.10519964911E+01  0.16980628438E+01  0.51100000000E-03 0. -1.
        -11    1    4    4    0    0  0.19594484127E+02  0.10169678904E+02  0.45788218963E+01  0.22546214481E+02  0.51100000000E-03 0.  1.
        -12    1    4    4    0    0  0.13514555996E+02 -0.12906965256E+02 -0.23625206083E+02  0.30122804291E+02  0.00000000000E+00 0.  1.
</event>
<event>
 8    1  0.2484572E-006  0.9118800E+02  0.7816164E-02  0.1184000E+00
        -11   -1    0    0    0    0  0.00000000000E+00  0.00000000000E+00  0.45593999997E+02  0.45594000000E+02  0.51100000000E-03 0.  1.
         11   -1    0    0    0    0 -0.00000000000E+00 -0.00000000000E+00 -0.45593999997E+02  0.45594000000E+02  0.51100000000E-03 0. -1.
         23    2    1    2    0    0 -0.35527136788E-14  0.00000000000E+00  0.53290705182E-14  0.91188000000E+02  0.91188000000E+02 0.  0.
    9900012    2    3    3    0    0 -0.22136926682E+02  0.25838727550E+02  0.14074655040E+02  0.54367091825E+02  0.40000017435E+02 0.  0.
         12    1    3    3    0    0  0.22136926682E+02 -0.25838727550E+02 -0.14074655040E+02  0.36820908175E+02  0.00000000000E+00 0. -1.
         11    1    4    4    0    0 -0.47117315468E+01 -0.19676420527E+00 -0.73084307249E+01  0.86978325026E+01  0.51100000000E-03 0. -1.
        -11    1    4    4    0    0  0.83909104179E+00 -0.46047396165E+01  0.23153397970E+01  0.52219248701E+01  0.51100000000E-03 0.  1.
        -12    1    4    4    0    0 -0.18264286177E+02  0.30640231371E+02  0.19067745968E+02  0.40447334453E+02  0.00000000000E+00 0.  1.
</event>
<event>
 8    1  0.2484572E-006  0.9118800E+02  0.7816164E-02  0.1184000E+00
        -11   -1    0    0    0    0  0.00000000000E+00  0.00000000000E+00  0.45593999997E+02  0.45594000000E+02  0.51100000000E-03 0.  1.
         11   -1    0    0    0    0 -0.00000000000E+00 -0.00000000000E+00 -0.45593999997E+02  0.45594000000E+02  0.51100000000E-03 0. -1.
         23    2    1    2    0    0  0.00000000000E+00 -0.35527136788E-14  0.00000000000E+00  0.91188000000E+02  0.91188000000E+02 0.  0.
    9900012    2    3    3    0    0 -0.77101046955E+01  0.19044643498E+02  0.30555449517E+02  0.54367086709E+02  0.40000005770E+02 0.  0.
         12    1    3    3    0    0  0.77101046955E+01 -0.19044643498E+02 -0.30555449517E+02  0.36820913291E+02  0.00000000000E+00 0. -1.
         11    1    4    4    0    0 -0.14478391302E+02  0.24199403705E+01  0.13460677648E+02  0.19916570215E+02  0.51100000000E-03 0. -1.
        -11    1    4    4    0    0  0.48261673988E+01 -0.57174543865E+01  0.41268639674E+01  0.85447166652E+01  0.51100000000E-03 0.  1.
         12    1    4    4    0    0  0.19421192082E+01  0.22342157514E+02  0.12967907902E+02  0.25905799829E+02  0.00000000000E+00 0. -1.
</event>
<event>
 8    1  0.2484572E-006  0.9118800E+02  0.7816164E-02  0.1184000E+00
        -11   -1    0    0    0    0  0.00000000000E+00  0.00000000000E+00  0.45593999997E+02  0.45594000000E+02  0.51100000000E-03 0.  1.
         11   -1    0    0    0    0 -0.00000000000E+00 -0.00000000000E+00 -0.45593999997E+02  0.45594000000E+02  0.51100000000E-03 0. -1.
         23    2    1    2    0    0 -0.17763568394E-14  0.00000000000E+00  0.17763568394E-14  0.91188000000E+02  0.91188000000E+02 0.  0.
    9900012    2    3    3    0    0 -0.13793898897E+02  0.33609190172E+02  0.59942423156E+01  0.54367078614E+02  0.39999987316E+02 0.  0.
        -12    1    3    3    0    0  0.13793898897E+02 -0.33609190172E+02 -0.59942423156E+01  0.36820921386E+02  0.00000000000E+00 0.  1.
         11    1    4    4    0    0 -0.19168293040E+02  0.21033858277E+02 -0.45724253031E+01  0.28822798711E+02  0.51100000000E-03 0. -1.
        -11    1    4    4    0    0  0.44947327068E+01  0.46294842327E+01 -0.49211238773E+01  0.81149372667E+01  0.51100000000E-03 0.  1.
        -12    1    4    4    0    0  0.87966143635E+00  0.79458476617E+01  0.15487791496E+02  0.17429342636E+02  0.00000000000E+00 0.  1.
</event>
<event>
 8    1  0.2484572E-006  0.9118800E+02  0.7816164E-02  0.1184000E+00
        -11   -1    0    0    0    0  0.00000000000E+00  0.00000000000E+00  0.45593999997E+02  0.45594000000E+02  0.51100000000E-03 0.  1.
         11   -1    0    0    0    0 -0.00000000000E+00 -0.00000000000E+00 -0.45593999997E+02  0.45594000000E+02  0.51100000000E-03 0. -1.
         23    2    1    2    0    0 -0.35527136788E-14  0.00000000000E+00  0.17763568394E-14  0.91188000000E+02  0.91188000000E+02 0.  0.
    9900012    2    3    3    0    0 -0.23206670843E+02  0.24933881079E+02 -0.13983270974E+02  0.54367083873E+02  0.39999999306E+02 0.  0.
        -12    1    3    3    0    0  0.23206670843E+02 -0.24933881079E+02  0.13983270974E+02  0.36820916127E+02  0.00000000000E+00 0.  1.
         11    1    4    4    0    0  0.68953776651E+01  0.67667701859E+01 -0.14023169307E+02  0.17028936830E+02  0.51100000000E-03 0. -1.
        -11    1    4    4    0    0 -0.15719367520E+02  0.36685615071E+01  0.37745022853E+01  0.16577205027E+02  0.51100000000E-03 0.  1.
        -12    1    4    4    0    0 -0.14382680989E+02  0.14498549386E+02 -0.37346039524E+01  0.20760942016E+02  0.00000000000E+00 0.  1.
</event>
<event>
 8    1  0.2484572E-006  0.9118800E+02  0.7816164E-02  0.1184000E+00
        -11   -1    0    0    0    0  0.00000000000E+00  0.00000000000E+00  0.45593999997E+02  0.45594000000E+02  0.51100000000E-03 0.  1.
         11   -1    0    0    0    0 -0.00000000000E+00 -0.00000000000E+00 -0.45593999997E+02  0.45594000000E+02  0.51100000000E-03 0. -1.
         23    2    1    2    0    0  0.00000000000E+00 -0.35527136788E-14  0.13322676296E-14  0.91188000000E+02  0.91188000000E+02 0.  0.
    9900012    2    3    3    0    0  0.26608491834E+02  0.25168307754E+02 -0.37846912502E+01  0.54367089627E+02  0.40000012422E+02 0.  0.
         12    1    3    3    0    0 -0.26608491834E+02 -0.25168307754E+02  0.37846912502E+01  0.36820910373E+02  0.00000000000E+00 0. -1.
         11    1    4    4    0    0 -0.23885837147E+01  0.17049969042E+01 -0.94837822965E+00  0.30841154539E+01  0.51100000000E-03 0. -1.
        -11    1    4    4    0    0  0.28776547308E+02  0.20237988023E+02 -0.15331721442E+02  0.38376132125E+02  0.51100000000E-03 0.  1.
         12    1    4    4    0    0  0.22052824076E+00  0.32253228261E+01  0.12495408421E+02  0.12906842048E+02  0.00000000000E+00 0. -1.
</event>
<event>
 8    1  0.2484572E-006  0.9118800E+02  0.7816164E-02  0.1184000E+00
        -11   -1    0    0    0    0  0.00000000000E+00  0.00000000000E+00  0.45593999997E+02  0.45594000000E+02  0.51100000000E-03 0. -1.
         11   -1    0    0    0    0 -0.00000000000E+00 -0.00000000000E+00 -0.45593999997E+02  0.45594000000E+02  0.51100000000E-03 0.  1.
         23    2    1    2    0    0 -0.44408920985E-15  0.00000000000E+00  0.71054273576E-14  0.91188000000E+02  0.91188000000E+02 0.  0.
    9900012    2    3    3    0    0 -0.39037189673E+01 -0.27498752226E+02  0.24173524399E+02  0.54367086410E+02  0.40000005088E+02 0.  0.
        -12    1    3    3    0    0  0.39037189673E+01  0.27498752226E+02 -0.24173524399E+02  0.36820913590E+02  0.00000000000E+00 0.  1.
         11    1    4    4    0    0 -0.75666864051E+01 -0.17505235060E+02  0.13644336528E+02  0.23449006743E+02  0.51100000000E-03 0. -1.
        -11    1    4    4    0    0 -0.20041515703E+01  0.25718667256E+01 -0.75263617254E+01  0.82022706036E+01  0.51100000000E-03 0.  1.
        -12    1    4    4    0    0  0.56671190081E+01 -0.12565383891E+02  0.18055549596E+02  0.22715809064E+02  0.00000000000E+00 0.  1.
</event>
<event>
 8    1  0.2484572E-006  0.9118800E+02  0.7816164E-02  0.1184000E+00
        -11   -1    0    0    0    0  0.00000000000E+00  0.00000000000E+00  0.45593999997E+02  0.45594000000E+02  0.51100000000E-03 0.  1.
         11   -1    0    0    0    0 -0.00000000000E+00 -0.00000000000E+00 -0.45593999997E+02  0.45594000000E+02  0.51100000000E-03 0. -1.
         23    2    1    2    0    0  0.00000000000E+00  0.35527136788E-14  0.00000000000E+00  0.91188000000E+02  0.91188000000E+02 0.  0.
    9900012    2    3    3    0    0 -0.23543152978E+02 -0.26276452141E+02 -0.10537913975E+02  0.54367087190E+02  0.40000006866E+02 0.  0.
        -12    1    3    3    0    0  0.23543152978E+02  0.26276452141E+02  0.10537913975E+02  0.36820912810E+02  0.00000000000E+00 0.  1.
         11    1    4    4    0    0 -0.86284009818E+01 -0.15683388837E+01 -0.14955495730E+02  0.17337123267E+02  0.51100000000E-03 0. -1.
        -11    1    4    4    0    0 -0.25938960148E+01 -0.25804492745E+01  0.10384273260E+02  0.11010002106E+02  0.51100000000E-03 0.  1.
         12    1    4    4    0    0 -0.12320855982E+02 -0.22127663982E+02 -0.59666915037E+01  0.26019961817E+02  0.00000000000E+00 0. -1.
</event>
<event>
 8    1  0.2484572E-006  0.9118800E+02  0.7816164E-02  0.1184000E+00
        -11   -1    0    0    0    0  0.00000000000E+00  0.00000000000E+00  0.45593999997E+02  0.45594000000E+02  0.51100000000E-03 0. -1.
         11   -1    0    0    0    0 -0.00000000000E+00 -0.00000000000E+00 -0.45593999997E+02  0.45594000000E+02  0.51100000000E-03 0.  1.
         23    2    1    2    0    0 -0.17763568394E-14 -0.17763568394E-14 -0.71054273576E-14  0.91188000000E+02  0.91188000000E+02 0.  0.
    9900012    2    3    3    0    0  0.11181153426E+02  0.11388216694E+02  0.33182385713E+02  0.54367076695E+02  0.39999982942E+02 0.  0.
        -12    1    3    3    0    0 -0.11181153426E+02 -0.11388216694E+02 -0.33182385713E+02  0.36820923305E+02  0.00000000000E+00 0.  1.
         11    1    4    4    0    0  0.76158552193E+01  0.59127539436E+01 -0.37534433089E-01  0.96417487529E+01  0.51100000000E-03 0. -1.
        -11    1    4    4    0    0 -0.81084092967E-01 -0.11184093556E+02  0.20840363633E+02  0.23651876880E+02  0.51100000000E-03 0.  1.
        -12    1    4    4    0    0  0.36463822994E+01  0.16659556307E+02  0.12379556513E+02  0.21073451062E+02  0.00000000000E+00 0.  1.
</event>
<event>
 8    1  0.2484572E-006  0.9118800E+02  0.7816164E-02  0.1184000E+00
        -11   -1    0    0    0    0  0.00000000000E+00  0.00000000000E+00  0.45593999997E+02  0.45594000000E+02  0.51100000000E-03 0. -1.
         11   -1    0    0    0    0 -0.00000000000E+00 -0.00000000000E+00 -0.45593999997E+02  0.45594000000E+02  0.51100000000E-03 0.  1.
         23    2    1    2    0    0  0.00000000000E+00  0.00000000000E+00 -0.17763568394E-14  0.91188000000E+02  0.91188000000E+02 0.  0.
    9900012    2    3    3    0    0  0.31575862986E+02 -0.16006619298E+02  0.10125745208E+02  0.54367113255E+02  0.40000066288E+02 0.  0.
        -12    1    3    3    0    0 -0.31575862986E+02  0.16006619298E+02 -0.10125745208E+02  0.36820886745E+02  0.00000000000E+00 0.  1.
         11    1    4    4    0    0  0.57997682631E+00  0.20625336127E+00  0.70859575483E+01  0.71126442485E+01  0.51100000000E-03 0. -1.
        -11    1    4    4    0    0 -0.55471647877E+01  0.13384502788E+01 -0.26962310218E+01  0.63112715291E+01  0.51100000000E-03 0.  1.
        -12    1    4    4    0    0  0.36543050947E+02 -0.17551322938E+02  0.57360186811E+01  0.40943197478E+02  0.00000000000E+00 0.  1.
</event>
<event>
 8    1  0.2484572E-006  0.9118800E+02  0.7816164E-02  0.1184000E+00
        -11   -1    0    0    0    0  0.00000000000E+00  0.00000000000E+00  0.45593999997E+02  0.45594000000E+02  0.51100000000E-03 0. -1.
         11   -1    0    0    0    0 -0.00000000000E+00 -0.00000000000E+00 -0.45593999997E+02  0.45594000000E+02  0.51100000000E-03 0.  1.
         23    2    1    2    0    0 -0.88817841970E-15  0.11102230246E-15  0.00000000000E+00  0.91188000000E+02  0.91188000000E+02 0.  0.
    9900012    2    3    3    0    0  0.52546873134E+01  0.80764802771E+00 -0.36435095624E+02  0.54367078947E+02  0.39999988075E+02 0.  0.
         12    1    3    3    0    0 -0.52546873134E+01 -0.80764802771E+00  0.36435095624E+02  0.36820921053E+02  0.00000000000E+00 0. -1.
         11    1    4    4    0    0 -0.93257389759E+01 -0.39389760446E+01 -0.12191831775E+02  0.15846946141E+02  0.51100000000E-03 0. -1.
        -11    1    4    4    0    0 -0.64550303060E+01 -0.16771300730E+01 -0.14102901430E+01  0.68168247801E+01  0.51100000000E-03 0.  1.
         12    1    4    4    0    0  0.21035456595E+02  0.64237541454E+01 -0.22832973706E+02  0.31703308025E+02  0.00000000000E+00 0. -1.
</event>
<event>
 8    1  0.2484572E-006  0.9118800E+02  0.7816164E-02  0.1184000E+00
        -11   -1    0    0    0    0  0.00000000000E+00  0.00000000000E+00  0.45593999997E+02  0.45594000000E+02  0.51100000000E-03 0. -1.
         11   -1    0    0    0    0 -0.00000000000E+00 -0.00000000000E+00 -0.45593999997E+02  0.45594000000E+02  0.51100000000E-03 0.  1.
         23    2    1    2    0    0  0.22898349883E-15  0.00000000000E+00  0.00000000000E+00  0.91188000000E+02  0.91188000000E+02 0.  0.
    9900012    2    3    3    0    0  0.34269922017E-01  0.22394905232E+02  0.29227490886E+02  0.54367093190E+02  0.40000020546E+02 0.  0.
        -12    1    3    3    0    0 -0.34269922017E-01 -0.22394905232E+02 -0.29227490886E+02  0.36820906810E+02  0.00000000000E+00 0.  1.
         11    1    4    4    0    0 -0.28441920013E+01  0.65266571540E+01  0.34138694605E+02  0.34873158035E+02  0.51100000000E-03 0. -1.
        -11    1    4    4    0    0  0.34927237475E+00  0.25189163686E+01 -0.53247422043E+01  0.59008313538E+01  0.51100000000E-03 0.  1.
         12    1    4    4    0    0  0.25291895486E+01  0.13349331710E+02  0.41353848463E+00  0.13593103801E+02  0.00000000000E+00 0. -1.
</event>
<event>
 8    1  0.2484572E-006  0.9118800E+02  0.7816164E-02  0.1184000E+00
        -11   -1    0    0    0    0  0.00000000000E+00  0.00000000000E+00  0.45593999997E+02  0.45594000000E+02  0.51100000000E-03 0.  1.
         11   -1    0    0    0    0 -0.00000000000E+00 -0.00000000000E+00 -0.45593999997E+02  0.45594000000E+02  0.51100000000E-03 0. -1.
         23    2    1    2    0    0 -0.17763568394E-14  0.00000000000E+00  0.00000000000E+00  0.91188000000E+02  0.91188000000E+02 0.  0.
    9900012    2    3    3    0    0  0.14518925510E+02  0.24662854811E+02 -0.23167322118E+02  0.54367076336E+02  0.39999982123E+02 0.  0.
        -12    1    3    3    0    0 -0.14518925510E+02 -0.24662854811E+02  0.23167322118E+02  0.36820923664E+02  0.00000000000E+00 0.  1.
         11    1    4    4    0    0  0.21480283334E+02  0.31478974856E+02 -0.18658049870E+02  0.42431724633E+02  0.51100000000E-03 0. -1.
        -11    1    4    4    0    0 -0.17835622110E+01 -0.30170494563E+01 -0.42491115680E+01  0.55080514668E+01  0.51100000000E-03 0.  1.
         12    1    4    4    0    0 -0.51777956125E+01 -0.37990705895E+01 -0.26016068011E+00  0.64273002363E+01  0.00000000000E+00 0. -1.
</event>
<event>
 8    1  0.2484572E-006  0.9118800E+02  0.7816164E-02  0.1184000E+00
        -11   -1    0    0    0    0  0.00000000000E+00  0.00000000000E+00  0.45593999997E+02  0.45594000000E+02  0.51100000000E-03 0.  1.
         11   -1    0    0    0    0 -0.00000000000E+00 -0.00000000000E+00 -0.45593999997E+02  0.45594000000E+02  0.51100000000E-03 0. -1.
         23    2    1    2    0    0  0.17763568394E-14  0.00000000000E+00  0.88817841970E-15  0.91188000000E+02  0.91188000000E+02 0.  0.
    9900012    2    3    3    0    0 -0.13539875225E+02  0.33963333484E+02  0.43524006834E+01  0.54367087000E+02  0.40000006433E+02 0.  0.
        -12    1    3    3    0    0  0.13539875225E+02 -0.33963333484E+02 -0.43524006834E+01  0.36820913000E+02  0.00000000000E+00 0.  1.
         11    1    4    4    0    0 -0.41678953001E+01  0.11975461068E+02  0.11522013986E+02  0.17133003986E+02  0.51100000000E-03 0. -1.
        -11    1    4    4    0    0  0.57701179343E+01  0.17251850305E+02  0.29315654243E+01  0.18425924020E+02  0.51100000000E-03 0.  1.
         12    1    4    4    0    0 -0.15142097859E+02  0.47360221111E+01 -0.10101178727E+02  0.18808158993E+02  0.00000000000E+00 0. -1.
</event>
<event>
 8    1  0.2484572E-006  0.9118800E+02  0.7816164E-02  0.1184000E+00
        -11   -1    0    0    0    0  0.00000000000E+00  0.00000000000E+00  0.45593999997E+02  0.45594000000E+02  0.51100000000E-03 0.  1.
         11   -1    0    0    0    0 -0.00000000000E+00 -0.00000000000E+00 -0.45593999997E+02  0.45594000000E+02  0.51100000000E-03 0. -1.
         23    2    1    2    0    0  0.00000000000E+00 -0.17763568394E-14  0.00000000000E+00  0.91188000000E+02  0.91188000000E+02 0.  0.
    9900012    2    3    3    0    0 -0.27047794745E+02 -0.86868246178E+01 -0.23425433727E+02  0.54366877423E+02  0.39999528659E+02 0.  0.
         12    1    3    3    0    0  0.27047794745E+02  0.86868246178E+01  0.23425433727E+02  0.36821122577E+02  0.00000000000E+00 0. -1.
         11    1    4    4    0    0  0.59114137387E+01 -0.21970993380E+01 -0.25433333434E+01  0.68000443122E+01  0.51100000000E-03 0. -1.
        -11    1    4    4    0    0 -0.21094703166E+01  0.36338499345E+01  0.46462803925E+01  0.62643955902E+01  0.51100000000E-03 0.  1.
         12    1    4    4    0    0 -0.30849738167E+02 -0.10123575214E+02 -0.25528380777E+02  0.41302437521E+02  0.00000000000E+00 0. -1.
</event>
<event>
 8    1  0.2484572E-006  0.9118800E+02  0.7816164E-02  0.1184000E+00
        -11   -1    0    0    0    0  0.00000000000E+00  0.00000000000E+00  0.45593999997E+02  0.45594000000E+02  0.51100000000E-03 0. -1.
         11   -1    0    0    0    0 -0.00000000000E+00 -0.00000000000E+00 -0.45593999997E+02  0.45594000000E+02  0.51100000000E-03 0.  1.
         23    2    1    2    0    0 -0.23869795029E-14 -0.35527136788E-14  0.00000000000E+00  0.91188000000E+02  0.91188000000E+02 0.  0.
    9900012    2    3    3    0    0 -0.30776462574E+00  0.26754545819E+02  0.25295874963E+02  0.54367058524E+02  0.39999941517E+02 0.  0.
        -12    1    3    3    0    0  0.30776462574E+00 -0.26754545819E+02 -0.25295874963E+02  0.36820941476E+02  0.00000000000E+00 0.  1.
         11    1    4    4    0    0  0.63203125680E+01  0.12316182797E+02  0.12473075728E+02  0.18633634322E+02  0.51100000000E-03 0. -1.
        -11    1    4    4    0    0 -0.16337940660E+02  0.95370161805E+01 -0.14247466426E-02  0.18917795456E+02  0.51100000000E-03 0.  1.
        -12    1    4    4    0    0  0.97098634664E+01  0.49013468415E+01  0.12824223981E+02  0.16815628746E+02  0.00000000000E+00 0.  1.
</event>
<event>
 8    1  0.2484572E-006  0.9118800E+02  0.7816164E-02  0.1184000E+00
        -11   -1    0    0    0    0  0.00000000000E+00  0.00000000000E+00  0.45593999997E+02  0.45594000000E+02  0.51100000000E-03 0.  1.
         11   -1    0    0    0    0 -0.00000000000E+00 -0.00000000000E+00 -0.45593999997E+02  0.45594000000E+02  0.51100000000E-03 0. -1.
         23    2    1    2    0    0  0.17763568394E-14  0.00000000000E+00  0.00000000000E+00  0.91188000000E+02  0.91188000000E+02 0.  0.
    9900012    2    3    3    0    0 -0.14914180042E+02 -0.19649481089E+02  0.27335865735E+02  0.54367021891E+02  0.39999858005E+02 0.  0.
         12    1    3    3    0    0  0.14914180042E+02  0.19649481089E+02 -0.27335865735E+02  0.36820978109E+02  0.00000000000E+00 0. -1.
         11    1    4    4    0    0 -0.98189017210E+01 -0.72685808098E+01 -0.28757120309E+01  0.12550411067E+02  0.51100000000E-03 0. -1.
        -11    1    4    4    0    0  0.14598037681E+01 -0.19111586041E+02  0.17100555615E+02  0.25686820563E+02  0.51100000000E-03 0.  1.
        -12    1    4    4    0    0 -0.65550820892E+01  0.67306857616E+01  0.13111022151E+02  0.16129790261E+02  0.00000000000E+00 0.  1.
</event>
<event>
 8    1  0.2484572E-006  0.9118800E+02  0.7816164E-02  0.1184000E+00
        -11   -1    0    0    0    0  0.00000000000E+00  0.00000000000E+00  0.45593999997E+02  0.45594000000E+02  0.51100000000E-03 0.  1.
         11   -1    0    0    0    0 -0.00000000000E+00 -0.00000000000E+00 -0.45593999997E+02  0.45594000000E+02  0.51100000000E-03 0. -1.
         23    2    1    2    0    0 -0.35527136788E-14  0.00000000000E+00  0.00000000000E+00  0.91188000000E+02  0.91188000000E+02 0.  0.
    9900012    2    3    3    0    0 -0.25586228071E+02  0.13378732587E+02 -0.22850238029E+02  0.54367096554E+02  0.40000028215E+02 0.  0.
        -12    1    3    3    0    0  0.25586228071E+02 -0.13378732587E+02  0.22850238029E+02  0.36820903446E+02  0.00000000000E+00 0.  1.
         11    1    4    4    0    0 -0.76354632578E+01  0.22165643936E+01 -0.20109000230E+02  0.21623721867E+02  0.51100000000E-03 0. -1.
        -11    1    4    4    0    0 -0.20338482844E+02  0.11190761390E+00  0.20963807635E+01  0.20446545436E+02  0.51100000000E-03 0.  1.
         12    1    4    4    0    0  0.23877180303E+01  0.11050260580E+02 -0.48376185630E+01  0.12296829251E+02  0.00000000000E+00 0. -1.
</event>
<event>
 8    1  0.2484572E-006  0.9118800E+02  0.7816164E-02  0.1184000E+00
        -11   -1    0    0    0    0  0.00000000000E+00  0.00000000000E+00  0.45593999997E+02  0.45594000000E+02  0.51100000000E-03 0.  1.
         11   -1    0    0    0    0 -0.00000000000E+00 -0.00000000000E+00 -0.45593999997E+02  0.45594000000E+02  0.51100000000E-03 0. -1.
         23    2    1    2    0    0  0.00000000000E+00 -0.35527136788E-14 -0.35527136788E-14  0.91188000000E+02  0.91188000000E+02 0.  0.
    9900012    2    3    3    0    0 -0.97076058327E+01 -0.17514601918E+02 -0.30899531328E+02  0.54367083015E+02  0.39999997349E+02 0.  0.
        -12    1    3    3    0    0  0.97076058327E+01  0.17514601918E+02  0.30899531328E+02  0.36820916985E+02  0.00000000000E+00 0.  1.
         11    1    4    4    0    0 -0.12790631241E+02 -0.80872057973E+01 -0.30725248604E+02  0.34249730615E+02  0.51100000000E-03 0. -1.
        -11    1    4    4    0    0 -0.61552361982E+01 -0.37495660875E+01  0.42936406876E+01  0.83893700071E+01  0.51100000000E-03 0.  1.
        -12    1    4    4    0    0  0.92382616069E+01 -0.56778300331E+01 -0.44679234117E+01  0.11727982393E+02  0.00000000000E+00 0.  1.
</event>
<event>
 8    1  0.2484572E-006  0.9118800E+02  0.7816164E-02  0.1184000E+00
        -11   -1    0    0    0    0  0.00000000000E+00  0.00000000000E+00  0.45593999997E+02  0.45594000000E+02  0.51100000000E-03 0.  1.
         11   -1    0    0    0    0 -0.00000000000E+00 -0.00000000000E+00 -0.45593999997E+02  0.45594000000E+02  0.51100000000E-03 0. -1.
         23    2    1    2    0    0  0.00000000000E+00  0.26645352591E-14  0.00000000000E+00  0.91188000000E+02  0.91188000000E+02 0.  0.
    9900012    2    3    3    0    0 -0.29585366750E+02 -0.55522540627E+01 -0.21205044314E+02  0.54367145104E+02  0.40000138893E+02 0.  0.
        -12    1    3    3    0    0  0.29585366750E+02  0.55522540627E+01  0.21205044314E+02  0.36820854896E+02  0.00000000000E+00 0.  1.
         11    1    4    4    0    0 -0.10101200594E+02 -0.37503800913E+01 -0.16229727668E+02  0.19480853798E+02  0.51100000000E-03 0. -1.
        -11    1    4    4    0    0  0.66504585536E+01  0.32915417914E+01  0.12925727617E+01  0.75321704006E+01  0.51100000000E-03 0.  1.
        -12    1    4    4    0    0 -0.26134624710E+02 -0.50934157628E+01 -0.62678894083E+01  0.27354120905E+02  0.00000000000E+00 0.  1.
</event>
<event>
 8    1  0.2484572E-006  0.9118800E+02  0.7816164E-02  0.1184000E+00
        -11   -1    0    0    0    0  0.00000000000E+00  0.00000000000E+00  0.45593999997E+02  0.45594000000E+02  0.51100000000E-03 0. -1.
         11   -1    0    0    0    0 -0.00000000000E+00 -0.00000000000E+00 -0.45593999997E+02  0.45594000000E+02  0.51100000000E-03 0.  1.
         23    2    1    2    0    0 -0.88817841970E-15  0.17763568394E-14  0.00000000000E+00  0.91188000000E+02  0.91188000000E+02 0.  0.
    9900012    2    3    3    0    0 -0.39010852519E+01  0.48141879268E+01 -0.36295796214E+02  0.54367086183E+02  0.40000004571E+02 0.  0.
         12    1    3    3    0    0  0.39010852519E+01 -0.48141879268E+01  0.36295796214E+02  0.36820913817E+02  0.00000000000E+00 0. -1.
         11    1    4    4    0    0  0.13203743717E+01  0.44070115648E+01 -0.19940953893E+02  0.20464769284E+02  0.51100000000E-03 0. -1.
        -11    1    4    4    0    0 -0.68970781380E+01  0.11414279367E+02 -0.18254889364E+02  0.22607442276E+02  0.51100000000E-03 0.  1.
         12    1    4    4    0    0  0.16756185144E+01 -0.11007103005E+02  0.19000470434E+01  0.11294874623E+02  0.00000000000E+00 0. -1.
</event>
<event>
 8    1  0.2484572E-006  0.9118800E+02  0.7816164E-02  0.1184000E+00
        -11   -1    0    0    0    0  0.00000000000E+00  0.00000000000E+00  0.45593999997E+02  0.45594000000E+02  0.51100000000E-03 0. -1.
         11   -1    0    0    0    0 -0.00000000000E+00 -0.00000000000E+00 -0.45593999997E+02  0.45594000000E+02  0.51100000000E-03 0.  1.
         23    2    1    2    0    0  0.00000000000E+00  0.13322676296E-14 -0.44408920985E-15  0.91188000000E+02  0.91188000000E+02 0.  0.
    9900012    2    3    3    0    0 -0.36651533929E+02 -0.28743011025E+01 -0.20453306529E+01  0.54367083069E+02  0.39999997473E+02 0.  0.
         12    1    3    3    0    0  0.36651533929E+02  0.28743011025E+01  0.20453306529E+01  0.36820916931E+02  0.00000000000E+00 0. -1.
         11    1    4    4    0    0 -0.29044177819E+01  0.10808826625E+02  0.30150027039E+01  0.11591230186E+02  0.51100000000E-03 0. -1.
        -11    1    4    4    0    0 -0.30511426750E+02 -0.39038960755E+01  0.10887516343E+01  0.30779424089E+02  0.51100000000E-03 0.  1.
        -12    1    4    4    0    0 -0.32356893970E+01 -0.97792316522E+01 -0.61490849911E+01  0.11996428794E+02  0.00000000000E+00 0.  1.
</event>
<event>
 8    1  0.2484572E-006  0.9118800E+02  0.7816164E-02  0.1184000E+00
        -11   -1    0    0    0    0  0.00000000000E+00  0.00000000000E+00  0.45593999997E+02  0.45594000000E+02  0.51100000000E-03 0. -1.
         11   -1    0    0    0    0 -0.00000000000E+00 -0.00000000000E+00 -0.45593999997E+02  0.45594000000E+02  0.51100000000E-03 0.  1.
         23    2    1    2    0    0 -0.35527136788E-14  0.00000000000E+00 -0.35527136788E-14  0.91188000000E+02  0.91188000000E+02 0.  0.
    9900012    2    3    3    0    0 -0.22836721525E+02  0.17104261466E+02 -0.23274629809E+02  0.54367081990E+02  0.39999995013E+02 0.  0.
         12    1    3    3    0    0  0.22836721525E+02 -0.17104261466E+02  0.23274629809E+02  0.36820918010E+02  0.00000000000E+00 0. -1.
         11    1    4    4    0    0  0.23930538287E+01  0.12155425878E+02 -0.65818849374E+01  0.14028624113E+02  0.51100000000E-03 0. -1.
        -11    1    4    4    0    0 -0.10578410647E+02 -0.96269597941E+01 -0.90578890864E+00  0.14331838001E+02  0.51100000000E-03 0.  1.
        -12    1    4    4    0    0 -0.14651364707E+02  0.14575795382E+02 -0.15786955963E+02  0.26006619876E+02  0.00000000000E+00 0.  1.
</event>
<event>
 8    1  0.2484572E-006  0.9118800E+02  0.7816164E-02  0.1184000E+00
        -11   -1    0    0    0    0  0.00000000000E+00  0.00000000000E+00  0.45593999997E+02  0.45594000000E+02  0.51100000000E-03 0.  1.
         11   -1    0    0    0    0 -0.00000000000E+00 -0.00000000000E+00 -0.45593999997E+02  0.45594000000E+02  0.51100000000E-03 0. -1.
         23    2    1    2    0    0 -0.71054273576E-14 -0.17763568394E-14  0.35527136788E-14  0.91188000000E+02  0.91188000000E+02 0.  0.
    9900012    2    3    3    0    0 -0.30197291014E+02  0.11696649444E+02  0.17523996552E+02  0.54367103108E+02  0.40000043155E+02 0.  0.
         12    1    3    3    0    0  0.30197291014E+02 -0.11696649444E+02 -0.17523996552E+02  0.36820896892E+02  0.00000000000E+00 0. -1.
         11    1    4    4    0    0  0.10287642456E+01  0.26182281292E+01  0.24148650067E+01  0.37074314116E+01  0.51100000000E-03 0. -1.
        -11    1    4    4    0    0  0.81046520220E+00  0.15622124470E+02  0.43422449847E+01  0.16234614827E+02  0.51100000000E-03 0.  1.
         12    1    4    4    0    0 -0.32036520461E+02 -0.65437031554E+01  0.10766886561E+02  0.34425056870E+02  0.00000000000E+00 0. -1.
</event>
<event>
 8    1  0.2484572E-006  0.9118800E+02  0.7816164E-02  0.1184000E+00
        -11   -1    0    0    0    0  0.00000000000E+00  0.00000000000E+00  0.45593999997E+02  0.45594000000E+02  0.51100000000E-03 0. -1.
         11   -1    0    0    0    0 -0.00000000000E+00 -0.00000000000E+00 -0.45593999997E+02  0.45594000000E+02  0.51100000000E-03 0.  1.
         23    2    1    2    0    0 -0.88817841970E-15  0.00000000000E+00 -0.88817841970E-15  0.91188000000E+02  0.91188000000E+02 0.  0.
    9900012    2    3    3    0    0 -0.44683523841E+01  0.36286270043E+02 -0.43730838699E+01  0.54367035466E+02  0.39999888951E+02 0.  0.
        -12    1    3    3    0    0  0.44683523841E+01 -0.36286270043E+02  0.43730838699E+01  0.36820964534E+02  0.00000000000E+00 0.  1.
         11    1    4    4    0    0 -0.46038694666E+01  0.14403096725E+02 -0.70409892489E+01  0.16679938226E+02  0.51100000000E-03 0.  1.
        -11    1    4    4    0    0  0.62438228939E+01  0.28076695835E+02  0.71399662394E+00  0.28771443564E+02  0.51100000000E-03 0. -1.
        -12    1    4    4    0    0 -0.61083058114E+01 -0.61935225165E+01  0.19539087551E+01  0.89156536760E+01  0.00000000000E+00 0.  1.
</event>
<event>
 8    1  0.2484572E-006  0.9118800E+02  0.7816164E-02  0.1184000E+00
        -11   -1    0    0    0    0  0.00000000000E+00  0.00000000000E+00  0.45593999997E+02  0.45594000000E+02  0.51100000000E-03 0.  1.
         11   -1    0    0    0    0 -0.00000000000E+00 -0.00000000000E+00 -0.45593999997E+02  0.45594000000E+02  0.51100000000E-03 0. -1.
         23    2    1    2    0    0  0.00000000000E+00 -0.22204460493E-15  0.00000000000E+00  0.91188000000E+02  0.91188000000E+02 0.  0.
    9900012    2    3    3    0    0  0.22009294483E+02  0.16214090076E+01  0.29474441029E+02  0.54367072733E+02  0.39999973911E+02 0.  0.
         12    1    3    3    0    0 -0.22009294483E+02 -0.16214090076E+01 -0.29474441029E+02  0.36820927267E+02  0.00000000000E+00 0. -1.
         11    1    4    4    0    0 -0.44553938151E+01 -0.40440903331E+01  0.53534582341E+01  0.80538634204E+01  0.51100000000E-03 0. -1.
        -11    1    4    4    0    0 -0.21739890256E+01 -0.76331468824E+01  0.42136661700E+01  0.89858857363E+01  0.51100000000E-03 0.  1.
        -12    1    4    4    0    0  0.28638677324E+02  0.13298646223E+02  0.19907316625E+02  0.37327323577E+02  0.00000000000E+00 0.  1.
</event>
<event>
 8    1  0.2484572E-006  0.9118800E+02  0.7816164E-02  0.1184000E+00
        -11   -1    0    0    0    0  0.00000000000E+00  0.00000000000E+00  0.45593999997E+02  0.45594000000E+02  0.51100000000E-03 0.  1.
         11   -1    0    0    0    0 -0.00000000000E+00 -0.00000000000E+00 -0.45593999997E+02  0.45594000000E+02  0.51100000000E-03 0. -1.
         23    2    1    2    0    0  0.88817841970E-15  0.00000000000E+00  0.35527136788E-14  0.91188000000E+02  0.91188000000E+02 0.  0.
    9900012    2    3    3    0    0  0.76384353365E+01 -0.23593296982E+02 -0.27217365444E+02  0.54367158910E+02  0.40000170366E+02 0.  0.
         12    1    3    3    0    0 -0.76384353365E+01  0.23593296982E+02  0.27217365444E+02  0.36820841090E+02  0.00000000000E+00 0. -1.
         11    1    4    4    0    0  0.11367279392E+02 -0.17283072971E+02 -0.13537009218E+02  0.24721858161E+02  0.51100000000E-03 0. -1.
        -11    1    4    4    0    0 -0.49963945628E+01 -0.98287516684E+01 -0.19690057138E+02  0.22566937505E+02  0.51100000000E-03 0.  1.
         12    1    4    4    0    0  0.12675505069E+01  0.35185276572E+01  0.60097009119E+01  0.70783632439E+01  0.00000000000E+00 0. -1.
</event>
<event>
 8    1  0.2484572E-006  0.9118800E+02  0.7816164E-02  0.1184000E+00
        -11   -1    0    0    0    0  0.00000000000E+00  0.00000000000E+00  0.45593999997E+02  0.45594000000E+02  0.51100000000E-03 0. -1.
         11   -1    0    0    0    0 -0.00000000000E+00 -0.00000000000E+00 -0.45593999997E+02  0.45594000000E+02  0.51100000000E-03 0.  1.
         23    2    1    2    0    0  0.00000000000E+00  0.17763568394E-14  0.88817841970E-15  0.91188000000E+02  0.91188000000E+02 0.  0.
    9900012    2    3    3    0    0  0.35849120669E+02 -0.72832795265E+01 -0.41920296714E+01  0.54367099330E+02  0.40000034543E+02 0.  0.
        -12    1    3    3    0    0 -0.35849120669E+02  0.72832795265E+01  0.41920296714E+01  0.36820900670E+02  0.00000000000E+00 0.  1.
         11    1    4    4    0    0  0.11181724523E+02 -0.70662767727E+01 -0.47272396124E+01  0.14046708701E+02  0.51100000000E-03 0. -1.
        -11    1    4    4    0    0  0.16599256047E+01 -0.11830237054E+02  0.68704214943E+01  0.13780876371E+02  0.51100000000E-03 0.  1.
        -12    1    4    4    0    0  0.23007470541E+02  0.11613234300E+02 -0.63352115533E+01  0.26539514258E+02  0.00000000000E+00 0.  1.
</event>
<event>
 8    1  0.2484572E-006  0.9118800E+02  0.7816164E-02  0.1184000E+00
        -11   -1    0    0    0    0  0.00000000000E+00  0.00000000000E+00  0.45593999997E+02  0.45594000000E+02  0.51100000000E-03 0.  1.
         11   -1    0    0    0    0 -0.00000000000E+00 -0.00000000000E+00 -0.45593999997E+02  0.45594000000E+02  0.51100000000E-03 0. -1.
         23    2    1    2    0    0  0.00000000000E+00 -0.88817841970E-15  0.17763568394E-14  0.91188000000E+02  0.91188000000E+02 0.  0.
    9900012    2    3    3    0    0  0.34556889118E+02  0.50118126986E+01 -0.11682556315E+02  0.54367095963E+02  0.40000026868E+02 0.  0.
        -12    1    3    3    0    0 -0.34556889118E+02 -0.50118126986E+01  0.11682556315E+02  0.36820904037E+02  0.00000000000E+00 0.  1.
         11    1    4    4    0    0  0.25172321890E+02 -0.11493912158E+02 -0.59411859868E+01  0.28302888496E+02  0.51100000000E-03 0. -1.
        -11    1    4    4    0    0  0.48188766394E+01  0.27114181542E+00 -0.76987946212E+01  0.90866126158E+01  0.51100000000E-03 0.  1.
         12    1    4    4    0    0  0.45656905882E+01  0.16234583042E+02  0.19574242927E+01  0.16977594852E+02  0.00000000000E+00 0. -1.
</event>
<event>
 8    1  0.2484572E-006  0.9118800E+02  0.7816164E-02  0.1184000E+00
        -11   -1    0    0    0    0  0.00000000000E+00  0.00000000000E+00  0.45593999997E+02  0.45594000000E+02  0.51100000000E-03 0. -1.
         11   -1    0    0    0    0 -0.00000000000E+00 -0.00000000000E+00 -0.45593999997E+02  0.45594000000E+02  0.51100000000E-03 0.  1.
         23    2    1    2    0    0  0.35527136788E-14  0.00000000000E+00  0.00000000000E+00  0.91188000000E+02  0.91188000000E+02 0.  0.
    9900012    2    3    3    0    0  0.18402556350E+02  0.76681273333E+01 -0.30956790871E+02  0.54367120624E+02  0.40000083087E+02 0.  0.
         12    1    3    3    0    0 -0.18402556350E+02 -0.76681273333E+01  0.30956790871E+02  0.36820879376E+02  0.00000000000E+00 0. -1.
         11    1    4    4    0    0 -0.76659189885E+01 -0.75508387142E+01 -0.22106629224E+01  0.10984921941E+02  0.51100000000E-03 0. -1.
        -11    1    4    4    0    0  0.70891215301E+01  0.49731293318E+01 -0.16359687557E+02  0.18510187375E+02  0.51100000000E-03 0.  1.
         12    1    4    4    0    0  0.18979353808E+02  0.10245836716E+02 -0.12386440392E+02  0.24872011309E+02  0.00000000000E+00 0. -1.
</event>
<event>
 8    1  0.2484572E-006  0.9118800E+02  0.7816164E-02  0.1184000E+00
        -11   -1    0    0    0    0  0.00000000000E+00  0.00000000000E+00  0.45593999997E+02  0.45594000000E+02  0.51100000000E-03 0. -1.
         11   -1    0    0    0    0 -0.00000000000E+00 -0.00000000000E+00 -0.45593999997E+02  0.45594000000E+02  0.51100000000E-03 0.  1.
         23    2    1    2    0    0  0.00000000000E+00  0.00000000000E+00 -0.35527136788E-14  0.91188000000E+02  0.91188000000E+02 0.  0.
    9900012    2    3    3    0    0  0.18646747527E+02  0.21053219537E+02  0.23766311419E+02  0.54367125422E+02  0.40000094025E+02 0.  0.
        -12    1    3    3    0    0 -0.18646747527E+02 -0.21053219537E+02 -0.23766311419E+02  0.36820874578E+02  0.00000000000E+00 0.  1.
         11    1    4    4    0    0  0.65864312466E+01  0.55411312709E+01  0.75151283013E+01  0.11426389017E+02  0.51100000000E-03 0. -1.
        -11    1    4    4    0    0  0.76041828231E+01  0.85314806864E+01  0.27030602238E+02  0.29347286360E+02  0.51100000000E-03 0.  1.
        -12    1    4    4    0    0  0.44561334569E+01  0.69806075795E+01 -0.10779419120E+02  0.13593450045E+02  0.00000000000E+00 0.  1.
</event>
<event>
 8    1  0.2484572E-006  0.9118800E+02  0.7816164E-02  0.1184000E+00
        -11   -1    0    0    0    0  0.00000000000E+00  0.00000000000E+00  0.45593999997E+02  0.45594000000E+02  0.51100000000E-03 0. -1.
         11   -1    0    0    0    0 -0.00000000000E+00 -0.00000000000E+00 -0.45593999997E+02  0.45594000000E+02  0.51100000000E-03 0.  1.
         23    2    1    2    0    0  0.35527136788E-14  0.00000000000E+00  0.00000000000E+00  0.91188000000E+02  0.91188000000E+02 0.  0.
    9900012    2    3    3    0    0 -0.28205727666E+02 -0.14716228778E+02  0.18537764754E+02  0.54367093103E+02  0.40000020348E+02 0.  0.
        -12    1    3    3    0    0  0.28205727666E+02  0.14716228778E+02 -0.18537764754E+02  0.36820906897E+02  0.00000000000E+00 0.  1.
         11    1    4    4    0    0  0.23658991776E+01  0.62325403898E+00  0.73504592634E+01  0.77469462474E+01  0.51100000000E-03 0. -1.
        -11    1    4    4    0    0 -0.12825407337E+01 -0.11276564785E+02 -0.55592928695E+01  0.12637703966E+02  0.51100000000E-03 0.  1.
        -12    1    4    4    0    0 -0.29289086110E+02 -0.40629180321E+01  0.16746598361E+02  0.33982442889E+02  0.00000000000E+00 0.  1.
</event>
<event>
 8    1  0.2484572E-006  0.9118800E+02  0.7816164E-02  0.1184000E+00
        -11   -1    0    0    0    0  0.00000000000E+00  0.00000000000E+00  0.45593999997E+02  0.45594000000E+02  0.51100000000E-03 0.  1.
         11   -1    0    0    0    0 -0.00000000000E+00 -0.00000000000E+00 -0.45593999997E+02  0.45594000000E+02  0.51100000000E-03 0. -1.
         23    2    1    2    0    0  0.00000000000E+00  0.17763568394E-14  0.00000000000E+00  0.91188000000E+02  0.91188000000E+02 0.  0.
    9900012    2    3    3    0    0  0.21913790387E+02  0.15215262701E+02  0.25378369279E+02  0.54367081279E+02  0.39999993392E+02 0.  0.
         12    1    3    3    0    0 -0.21913790387E+02 -0.15215262701E+02 -0.25378369279E+02  0.36820918721E+02  0.00000000000E+00 0. -1.
         11    1    4    4    0    0  0.18594659501E+01  0.22023615297E+01 -0.79358048487E+01  0.84430449948E+01  0.51100000000E-03 0. -1.
        -11    1    4    4    0    0  0.23066420024E+02  0.14595451870E+02  0.32468399879E+02  0.42417967172E+02  0.51100000000E-03 0.  1.
        -12    1    4    4    0    0 -0.30120955872E+01 -0.15825506990E+01  0.84577424838E+00  0.35060691123E+01  0.00000000000E+00 0.  1.
</event>
<event>
 8    1  0.2484572E-006  0.9118800E+02  0.7816164E-02  0.1184000E+00
        -11   -1    0    0    0    0  0.00000000000E+00  0.00000000000E+00  0.45593999997E+02  0.45594000000E+02  0.51100000000E-03 0. -1.
         11   -1    0    0    0    0 -0.00000000000E+00 -0.00000000000E+00 -0.45593999997E+02  0.45594000000E+02  0.51100000000E-03 0.  1.
         23    2    1    2    0    0 -0.35527136788E-14  0.00000000000E+00  0.00000000000E+00  0.91188000000E+02  0.91188000000E+02 0.  0.
    9900012    2    3    3    0    0  0.66959733702E+01  0.19994446450E+02 -0.30185541727E+02  0.54367070116E+02  0.39999967943E+02 0.  0.
         12    1    3    3    0    0 -0.66959733702E+01 -0.19994446450E+02  0.30185541727E+02  0.36820929884E+02  0.00000000000E+00 0. -1.
         11    1    4    4    0    0  0.16642102181E+02  0.75141487464E+01 -0.53431677527E+01  0.19025546991E+02  0.51100000000E-03 0. -1.
        -11    1    4    4    0    0  0.16435504266E+01  0.10924342286E+02 -0.46050747513E+01  0.11968676873E+02  0.51100000000E-03 0.  1.
         12    1    4    4    0    0 -0.11589679238E+02  0.15559554176E+01 -0.20237299223E+02  0.23372846252E+02  0.00000000000E+00 0. -1.
</event>
<event>
 8    1  0.2484572E-006  0.9118800E+02  0.7816164E-02  0.1184000E+00
        -11   -1    0    0    0    0  0.00000000000E+00  0.00000000000E+00  0.45593999997E+02  0.45594000000E+02  0.51100000000E-03 0.  1.
         11   -1    0    0    0    0 -0.00000000000E+00 -0.00000000000E+00 -0.45593999997E+02  0.45594000000E+02  0.51100000000E-03 0. -1.
         23    2    1    2    0    0  0.00000000000E+00 -0.88817841970E-15  0.00000000000E+00  0.91188000000E+02  0.91188000000E+02 0.  0.
    9900012    2    3    3    0    0  0.33345103362E+02  0.62806117105E+01  0.14298211466E+02  0.54367070451E+02  0.39999968708E+02 0.  0.
         12    1    3    3    0    0 -0.33345103362E+02 -0.62806117105E+01 -0.14298211466E+02  0.36820929549E+02  0.00000000000E+00 0. -1.
         11    1    4    4    0    0  0.15844392358E+02 -0.78446337983E+01  0.13285243752E+02  0.22115170142E+02  0.51100000000E-03 0.  1.
        -11    1    4    4    0    0  0.16736221989E+02  0.18532087285E+02 -0.42664031678E+01  0.25332618930E+02  0.51100000000E-03 0. -1.
         12    1    4    4    0    0  0.76448901612E+00 -0.44068417765E+01  0.52793708816E+01  0.69192813792E+01  0.00000000000E+00 0. -1.
</event>
<event>
 8    1  0.2484572E-006  0.9118800E+02  0.7816164E-02  0.1184000E+00
        -11   -1    0    0    0    0  0.00000000000E+00  0.00000000000E+00  0.45593999997E+02  0.45594000000E+02  0.51100000000E-03 0.  1.
         11   -1    0    0    0    0 -0.00000000000E+00 -0.00000000000E+00 -0.45593999997E+02  0.45594000000E+02  0.51100000000E-03 0. -1.
         23    2    1    2    0    0 -0.35527136788E-14 -0.35527136788E-14 -0.35527136788E-14  0.91188000000E+02  0.91188000000E+02 0.  0.
    9900012    2    3    3    0    0 -0.19181905690E+02 -0.22426973242E+02 -0.22019685910E+02  0.54367065706E+02  0.39999957890E+02 0.  0.
        -12    1    3    3    0    0  0.19181905690E+02  0.22426973242E+02  0.22019685910E+02  0.36820934294E+02  0.00000000000E+00 0.  1.
         11    1    4    4    0    0 -0.30616086559E+01 -0.28048121213E+02 -0.14421351888E+02  0.31686683981E+02  0.51100000000E-03 0. -1.
        -11    1    4    4    0    0 -0.46305335052E+01 -0.24821282571E+01  0.20379752157E+01  0.56352590419E+01  0.51100000000E-03 0.  1.
         12    1    4    4    0    0 -0.11489763529E+02  0.81032762280E+01 -0.96363092374E+01  0.17045122684E+02  0.00000000000E+00 0. -1.
</event>
<event>
 8    1  0.2484572E-006  0.9118800E+02  0.7816164E-02  0.1184000E+00
        -11   -1    0    0    0    0  0.00000000000E+00  0.00000000000E+00  0.45593999997E+02  0.45594000000E+02  0.51100000000E-03 0.  1.
         11   -1    0    0    0    0 -0.00000000000E+00 -0.00000000000E+00 -0.45593999997E+02  0.45594000000E+02  0.51100000000E-03 0. -1.
         23    2    1    2    0    0  0.00000000000E+00  0.00000000000E+00 -0.35527136788E-14  0.91188000000E+02  0.91188000000E+02 0.  0.
    9900012    2    3    3    0    0  0.18784782686E+02  0.92296579638E+01  0.30293976715E+02  0.54367086487E+02  0.40000005264E+02 0.  0.
         12    1    3    3    0    0 -0.18784782686E+02 -0.92296579638E+01 -0.30293976715E+02  0.36820913513E+02  0.00000000000E+00 0. -1.
         11    1    4    4    0    0  0.14040990451E+01 -0.86332785696E+00 -0.34889488821E+01  0.38587036269E+01  0.51100000000E-03 0. -1.
        -11    1    4    4    0    0  0.14100642776E+02  0.76853379488E+01  0.39985793437E+02  0.43090094258E+02  0.51100000000E-03 0.  1.
        -12    1    4    4    0    0  0.32800408657E+01  0.24076478721E+01 -0.62028678396E+01  0.74182886026E+01  0.00000000000E+00 0.  1.
</event>
<event>
 8    1  0.2484572E-006  0.9118800E+02  0.7816164E-02  0.1184000E+00
        -11   -1    0    0    0    0  0.00000000000E+00  0.00000000000E+00  0.45593999997E+02  0.45594000000E+02  0.51100000000E-03 0. -1.
         11   -1    0    0    0    0 -0.00000000000E+00 -0.00000000000E+00 -0.45593999997E+02  0.45594000000E+02  0.51100000000E-03 0.  1.
         23    2    1    2    0    0  0.35527136788E-14  0.35527136788E-14  0.35527136788E-14  0.91188000000E+02  0.91188000000E+02 0.  0.
    9900012    2    3    3    0    0 -0.21421347268E+02  0.11712865639E+02 -0.27562926323E+02  0.54367078668E+02  0.39999987439E+02 0.  0.
         12    1    3    3    0    0  0.21421347268E+02 -0.11712865639E+02  0.27562926323E+02  0.36820921332E+02  0.00000000000E+00 0. -1.
         11    1    4    4    0    0  0.53526690811E+01  0.16361967569E+01 -0.18233805830E+02  0.19073538775E+02  0.51100000000E-03 0. -1.
        -11    1    4    4    0    0 -0.44102266231E+01  0.87969849536E+01 -0.82933812865E+01  0.12869235275E+02  0.51100000000E-03 0.  1.
         12    1    4    4    0    0 -0.22363789726E+02  0.12796839290E+01 -0.10357392066E+01  0.22424304617E+02  0.00000000000E+00 0. -1.
</event>
<event>
 8    1  0.2484572E-006  0.9118800E+02  0.7816164E-02  0.1184000E+00
        -11   -1    0    0    0    0  0.00000000000E+00  0.00000000000E+00  0.45593999997E+02  0.45594000000E+02  0.51100000000E-03 0.  1.
         11   -1    0    0    0    0 -0.00000000000E+00 -0.00000000000E+00 -0.45593999997E+02  0.45594000000E+02  0.51100000000E-03 0. -1.
         23    2    1    2    0    0  0.00000000000E+00 -0.17763568394E-14  0.00000000000E+00  0.91188000000E+02  0.91188000000E+02 0.  0.
    9900012    2    3    3    0    0 -0.23595600344E+02 -0.10935120134E+02  0.26066278265E+02  0.54367081074E+02  0.39999992924E+02 0.  0.
         12    1    3    3    0    0  0.23595600344E+02  0.10935120134E+02 -0.26066278265E+02  0.36820918926E+02  0.00000000000E+00 0. -1.
         11    1    4    4    0    0  0.24444011121E+01  0.77985128784E+00 -0.69581434537E+01  0.74161327800E+01  0.51100000000E-03 0. -1.
        -11    1    4    4    0    0 -0.83822001904E+01 -0.12470700745E+02  0.19905754401E+02  0.24940303039E+02  0.51100000000E-03 0.  1.
        -12    1    4    4    0    0 -0.17657801266E+02  0.75572932284E+00  0.13118667318E+02  0.22010645255E+02  0.00000000000E+00 0.  1.
</event>
<event>
 8    1  0.2484572E-006  0.9118800E+02  0.7816164E-02  0.1184000E+00
        -11   -1    0    0    0    0  0.00000000000E+00  0.00000000000E+00  0.45593999997E+02  0.45594000000E+02  0.51100000000E-03 0.  1.
         11   -1    0    0    0    0 -0.00000000000E+00 -0.00000000000E+00 -0.45593999997E+02  0.45594000000E+02  0.51100000000E-03 0. -1.
         23    2    1    2    0    0  0.00000000000E+00  0.66613381478E-15  0.00000000000E+00  0.91188000000E+02  0.91188000000E+02 0.  0.
    9900012    2    3    3    0    0 -0.35860219066E+02 -0.30326732980E+00  0.83507728126E+01  0.54367045516E+02  0.39999911863E+02 0.  0.
        -12    1    3    3    0    0  0.35860219066E+02  0.30326732980E+00 -0.83507728126E+01  0.36820954484E+02  0.00000000000E+00 0.  1.
         11    1    4    4    0    0  0.51613550844E+01  0.23914555866E+01 -0.52735127460E+01  0.77568410499E+01  0.51100000000E-03 0. -1.
        -11    1    4    4    0    0 -0.24236863472E+02 -0.32122932229E+01  0.16605672126E+02  0.29554910349E+02  0.51100000000E-03 0.  1.
         12    1    4    4    0    0 -0.16784710678E+02  0.51757030656E+00 -0.29813865672E+01  0.17055294117E+02  0.00000000000E+00 0. -1.
</event>
<event>
 8    1  0.2484572E-006  0.9118800E+02  0.7816164E-02  0.1184000E+00
        -11   -1    0    0    0    0  0.00000000000E+00  0.00000000000E+00  0.45593999997E+02  0.45594000000E+02  0.51100000000E-03 0. -1.
         11   -1    0    0    0    0 -0.00000000000E+00 -0.00000000000E+00 -0.45593999997E+02  0.45594000000E+02  0.51100000000E-03 0.  1.
         23    2    1    2    0    0  0.00000000000E+00  0.00000000000E+00  0.00000000000E+00  0.91188000000E+02  0.91188000000E+02 0.  0.
    9900012    2    3    3    0    0  0.85289900936E+01  0.28188647651E+02 -0.22100592118E+02  0.54367086101E+02  0.40000004385E+02 0.  0.
         12    1    3    3    0    0 -0.85289900936E+01 -0.28188647651E+02  0.22100592118E+02  0.36820913899E+02  0.00000000000E+00 0. -1.
         11    1    4    4    0    0  0.21865467005E+02  0.26727540675E+02 -0.19207826599E+02  0.39514562895E+02  0.51100000000E-03 0. -1.
        -11    1    4    4    0    0 -0.11281677949E+02  0.29746197372E+01 -0.35897735564E+01  0.12207010050E+02  0.51100000000E-03 0.  1.
         12    1    4    4    0    0 -0.20547989623E+01 -0.15135127614E+01  0.69700803779E+00  0.26455131561E+01  0.00000000000E+00 0. -1.
</event>
<event>
 8    1  0.2484572E-006  0.9118800E+02  0.7816164E-02  0.1184000E+00
        -11   -1    0    0    0    0  0.00000000000E+00  0.00000000000E+00  0.45593999997E+02  0.45594000000E+02  0.51100000000E-03 0.  1.
         11   -1    0    0    0    0 -0.00000000000E+00 -0.00000000000E+00 -0.45593999997E+02  0.45594000000E+02  0.51100000000E-03 0. -1.
         23    2    1    2    0    0  0.00000000000E+00  0.00000000000E+00  0.35527136788E-14  0.91188000000E+02  0.91188000000E+02 0.  0.
    9900012    2    3    3    0    0 -0.16920431480E+02 -0.17958269515E+02 -0.27330926233E+02  0.54367082382E+02  0.39999995907E+02 0.  0.
        -12    1    3    3    0    0  0.16920431480E+02  0.17958269515E+02  0.27330926233E+02  0.36820917618E+02  0.00000000000E+00 0.  1.
         11    1    4    4    0    0  0.42777691894E+01 -0.13084354880E+02 -0.12800971195E+02  0.18797992330E+02  0.51100000000E-03 0. -1.
        -11    1    4    4    0    0 -0.54889614123E+01 -0.11317328364E+02  0.92114303095E+00  0.12611864391E+02  0.51100000000E-03 0.  1.
         12    1    4    4    0    0 -0.15709239257E+02  0.64434137281E+01 -0.15451098070E+02  0.22957225661E+02  0.00000000000E+00 0. -1.
</event>
<event>
 8    1  0.2484572E-006  0.9118800E+02  0.7816164E-02  0.1184000E+00
        -11   -1    0    0    0    0  0.00000000000E+00  0.00000000000E+00  0.45593999997E+02  0.45594000000E+02  0.51100000000E-03 0.  1.
         11   -1    0    0    0    0 -0.00000000000E+00 -0.00000000000E+00 -0.45593999997E+02  0.45594000000E+02  0.51100000000E-03 0. -1.
         23    2    1    2    0    0 -0.88817841970E-15  0.00000000000E+00  0.00000000000E+00  0.91188000000E+02  0.91188000000E+02 0.  0.
    9900012    2    3    3    0    0 -0.47174890343E+01  0.11795557774E+02  0.34559947177E+02  0.54367084275E+02  0.40000000222E+02 0.  0.
         12    1    3    3    0    0  0.47174890343E+01 -0.11795557774E+02 -0.34559947177E+02  0.36820915725E+02  0.00000000000E+00 0. -1.
         11    1    4    4    0    0  0.25882445771E+01  0.20796105380E+00 -0.52753756192E+01  0.58797828170E+01  0.51100000000E-03 0. -1.
        -11    1    4    4    0    0  0.72416807550E+00  0.12498760039E+02  0.38256633016E+02  0.40253116549E+02  0.51100000000E-03 0.  1.
        -12    1    4    4    0    0 -0.80299016869E+01 -0.91116331957E+00  0.15786897801E+01  0.82341849091E+01  0.00000000000E+00 0.  1.
</event>
<event>
 8    1  0.2484572E-006  0.9118800E+02  0.7816164E-02  0.1184000E+00
        -11   -1    0    0    0    0  0.00000000000E+00  0.00000000000E+00  0.45593999997E+02  0.45594000000E+02  0.51100000000E-03 0.  1.
         11   -1    0    0    0    0 -0.00000000000E+00 -0.00000000000E+00 -0.45593999997E+02  0.45594000000E+02  0.51100000000E-03 0. -1.
         23    2    1    2    0    0  0.35527136788E-14 -0.35527136788E-14  0.00000000000E+00  0.91188000000E+02  0.91188000000E+02 0.  0.
    9900012    2    3    3    0    0 -0.21306371562E+02  0.29754887995E+02  0.40576039366E+01  0.54367095904E+02  0.40000026733E+02 0.  0.
        -12    1    3    3    0    0  0.21306371562E+02 -0.29754887995E+02 -0.40576039366E+01  0.36820904096E+02  0.00000000000E+00 0.  1.
         11    1    4    4    0    0 -0.21965367382E+02  0.16845293288E+02  0.40187278126E+01  0.27971261031E+02  0.51100000000E-03 0. -1.
        -11    1    4    4    0    0  0.50279292473E+01  0.17374452257E+02  0.45975759745E+01  0.18662512394E+02  0.51100000000E-03 0.  1.
        -12    1    4    4    0    0 -0.43689334271E+01 -0.44648575504E+01 -0.45586998504E+01  0.77333224788E+01  0.00000000000E+00 0.  1.
</event>
<event>
 8    1  0.2484572E-006  0.9118800E+02  0.7816164E-02  0.1184000E+00
        -11   -1    0    0    0    0  0.00000000000E+00  0.00000000000E+00  0.45593999997E+02  0.45594000000E+02  0.51100000000E-03 0. -1.
         11   -1    0    0    0    0 -0.00000000000E+00 -0.00000000000E+00 -0.45593999997E+02  0.45594000000E+02  0.51100000000E-03 0.  1.
         23    2    1    2    0    0  0.00000000000E+00  0.17763568394E-14 -0.35527136788E-14  0.91188000000E+02  0.91188000000E+02 0.  0.
    9900012    2    3    3    0    0 -0.18222540589E+02  0.13833426738E+02 -0.28850565363E+02  0.54367084713E+02  0.40000001220E+02 0.  0.
         12    1    3    3    0    0  0.18222540589E+02 -0.13833426738E+02  0.28850565363E+02  0.36820915287E+02  0.00000000000E+00 0. -1.
         11    1    4    4    0    0 -0.91520595331E+01  0.21325204366E+01 -0.21763562029E+02  0.23705705422E+02  0.51100000000E-03 0. -1.
        -11    1    4    4    0    0 -0.13235558931E+02 -0.16178628114E+01 -0.96675572192E+01  0.16469947272E+02  0.51100000000E-03 0.  1.
         12    1    4    4    0    0  0.41650778755E+01  0.13318769113E+02  0.25805538852E+01  0.14191432019E+02  0.00000000000E+00 0. -1.
</event>
<event>
 8    1  0.2484572E-006  0.9118800E+02  0.7816164E-02  0.1184000E+00
        -11   -1    0    0    0    0  0.00000000000E+00  0.00000000000E+00  0.45593999997E+02  0.45594000000E+02  0.51100000000E-03 0.  1.
         11   -1    0    0    0    0 -0.00000000000E+00 -0.00000000000E+00 -0.45593999997E+02  0.45594000000E+02  0.51100000000E-03 0. -1.
         23    2    1    2    0    0 -0.17763568394E-14 -0.88817841970E-15  0.71054273576E-14  0.91188000000E+02  0.91188000000E+02 0.  0.
    9900012    2    3    3    0    0 -0.12569038310E+02 -0.10940492987E+01  0.34591926303E+02  0.54367095160E+02  0.40000025036E+02 0.  0.
         12    1    3    3    0    0  0.12569038310E+02  0.10940492987E+01 -0.34591926303E+02  0.36820904840E+02  0.00000000000E+00 0. -1.
         11    1    4    4    0    0  0.59467536900E+01 -0.56876708797E+01  0.15919293422E+01  0.83813912197E+01  0.51100000000E-03 0. -1.
        -11    1    4    4    0    0 -0.40300668814E+01 -0.71894186048E+01  0.23765691369E+02  0.25154269329E+02  0.51100000000E-03 0.  1.
         12    1    4    4    0    0 -0.14485725118E+02  0.11783040186E+02  0.92343055914E+01  0.20831434612E+02  0.00000000000E+00 0. -1.
</event>
<event>
 8    1  0.2484572E-006  0.9118800E+02  0.7816164E-02  0.1184000E+00
        -11   -1    0    0    0    0  0.00000000000E+00  0.00000000000E+00  0.45593999997E+02  0.45594000000E+02  0.51100000000E-03 0.  1.
         11   -1    0    0    0    0 -0.00000000000E+00 -0.00000000000E+00 -0.45593999997E+02  0.45594000000E+02  0.51100000000E-03 0. -1.
         23    2    1    2    0    0 -0.35527136788E-14  0.00000000000E+00  0.00000000000E+00  0.91188000000E+02  0.91188000000E+02 0.  0.
    9900012    2    3    3    0    0 -0.22765839203E+02 -0.16135828713E+02 -0.24023577757E+02  0.54367072647E+02  0.39999973713E+02 0.  0.
         12    1    3    3    0    0  0.22765839203E+02  0.16135828713E+02  0.24023577757E+02  0.36820927353E+02  0.00000000000E+00 0. -1.
         11    1    4    4    0    0  0.26794252076E+01 -0.16916466548E+02 -0.48663570901E+01  0.17805268645E+02  0.51100000000E-03 0. -1.
        -11    1    4    4    0    0 -0.57295274116E+01  0.81708349704E+01 -0.75939631367E+01  0.12540267336E+02  0.51100000000E-03 0.  1.
        -12    1    4    4    0    0 -0.19715736999E+02 -0.73901971358E+01 -0.11563257531E+02  0.24021536667E+02  0.00000000000E+00 0.  1.
</event>
<event>
 8    1  0.2484572E-006  0.9118800E+02  0.7816164E-02  0.1184000E+00
        -11   -1    0    0    0    0  0.00000000000E+00  0.00000000000E+00  0.45593999997E+02  0.45594000000E+02  0.51100000000E-03 0. -1.
         11   -1    0    0    0    0 -0.00000000000E+00 -0.00000000000E+00 -0.45593999997E+02  0.45594000000E+02  0.51100000000E-03 0.  1.
         23    2    1    2    0    0  0.00000000000E+00  0.33306690739E-15  0.71054273576E-14  0.91188000000E+02  0.91188000000E+02 0.  0.
    9900012    2    3    3    0    0 -0.15239035417E+02  0.99269184390E+00 -0.33504515923E+02  0.54367269090E+02  0.40000421542E+02 0.  0.
         12    1    3    3    0    0  0.15239035417E+02 -0.99269184390E+00  0.33504515923E+02  0.36820730910E+02  0.00000000000E+00 0. -1.
         11    1    4    4    0    0  0.65169266265E+01 -0.70973552821E+01 -0.84554257277E+01  0.12819399719E+02  0.51100000000E-03 0. -1.
        -11    1    4    4    0    0  0.32192896079E+01  0.33948393516E+01 -0.12210594670E+02  0.13076214371E+02  0.51100000000E-03 0.  1.
        -12    1    4    4    0    0 -0.24975251652E+02  0.46952077744E+01 -0.12838495525E+02  0.28471655000E+02  0.00000000000E+00 0.  1.
</event>
<event>
 8    1  0.2484572E-006  0.9118800E+02  0.7816164E-02  0.1184000E+00
        -11   -1    0    0    0    0  0.00000000000E+00  0.00000000000E+00  0.45593999997E+02  0.45594000000E+02  0.51100000000E-03 0.  1.
         11   -1    0    0    0    0 -0.00000000000E+00 -0.00000000000E+00 -0.45593999997E+02  0.45594000000E+02  0.51100000000E-03 0. -1.
         23    2    1    2    0    0 -0.22204460493E-15  0.00000000000E+00  0.00000000000E+00  0.91188000000E+02  0.91188000000E+02 0.  0.
    9900012    2    3    3    0    0 -0.30690020013E+00 -0.36240336977E+02 -0.65057734810E+01  0.54367064372E+02  0.39999954849E+02 0.  0.
        -12    1    3    3    0    0  0.30690020013E+00  0.36240336977E+02  0.65057734810E+01  0.36820935628E+02  0.00000000000E+00 0.  1.
         11    1    4    4    0    0 -0.56636730280E+01 -0.22800566497E+02  0.73677457259E+00  0.23505017800E+02  0.51100000000E-03 0. -1.
        -11    1    4    4    0    0  0.31992371571E+01  0.18597769820E+01 -0.13644444021E+02  0.14137352713E+02  0.51100000000E-03 0.  1.
        -12    1    4    4    0    0  0.21575356708E+01 -0.15299547462E+02  0.64018959676E+01  0.16724693860E+02  0.00000000000E+00 0.  1.
</event>
<event>
 8    1  0.2484572E-006  0.9118800E+02  0.7816164E-02  0.1184000E+00
        -11   -1    0    0    0    0  0.00000000000E+00  0.00000000000E+00  0.45593999997E+02  0.45594000000E+02  0.51100000000E-03 0.  1.
         11   -1    0    0    0    0 -0.00000000000E+00 -0.00000000000E+00 -0.45593999997E+02  0.45594000000E+02  0.51100000000E-03 0. -1.
         23    2    1    2    0    0  0.00000000000E+00  0.22204460493E-14  0.35527136788E-14  0.91188000000E+02  0.91188000000E+02 0.  0.
    9900012    2    3    3    0    0  0.29369885049E+02 -0.28426028107E+01  0.22025184659E+02  0.54367091567E+02  0.40000016846E+02 0.  0.
         12    1    3    3    0    0 -0.29369885049E+02  0.28426028107E+01 -0.22025184659E+02  0.36820908433E+02  0.00000000000E+00 0. -1.
         11    1    4    4    0    0 -0.17304156140E+01 -0.11436882673E+02  0.14213269524E+02  0.18325219079E+02  0.51100000000E-03 0. -1.
        -11    1    4    4    0    0  0.14769594143E+02  0.10696940606E+02  0.11272960264E+01  0.18271186225E+02  0.51100000000E-03 0.  1.
         12    1    4    4    0    0  0.16330706521E+02 -0.21026607438E+01  0.66846191086E+01  0.17770686264E+02  0.00000000000E+00 0. -1.
</event>
<event>
 8    1  0.2484572E-006  0.9118800E+02  0.7816164E-02  0.1184000E+00
        -11   -1    0    0    0    0  0.00000000000E+00  0.00000000000E+00  0.45593999997E+02  0.45594000000E+02  0.51100000000E-03 0. -1.
         11   -1    0    0    0    0 -0.00000000000E+00 -0.00000000000E+00 -0.45593999997E+02  0.45594000000E+02  0.51100000000E-03 0.  1.
         23    2    1    2    0    0  0.88817841970E-15  0.44408920985E-15 -0.71054273576E-14  0.91188000000E+02  0.91188000000E+02 0.  0.
    9900012    2    3    3    0    0 -0.54821386625E+01 -0.34385537290E+01  0.36247801013E+02  0.54367074233E+02  0.39999977328E+02 0.  0.
        -12    1    3    3    0    0  0.54821386625E+01  0.34385537290E+01 -0.36247801013E+02  0.36820925767E+02  0.00000000000E+00 0.  1.
         11    1    4    4    0    0  0.43705475485E+01  0.14160600073E+02  0.10100858427E+02  0.17934648631E+02  0.51100000000E-03 0. -1.
        -11    1    4    4    0    0 -0.45273166419E+01 -0.18205419614E+01  0.16457406980E+02  0.17165582244E+02  0.51100000000E-03 0.  1.
        -12    1    4    4    0    0 -0.53253695691E+01 -0.15778611841E+02  0.96895356062E+01  0.19266843357E+02  0.00000000000E+00 0.  1.
</event>
<event>
 8    1  0.2484572E-006  0.9118800E+02  0.7816164E-02  0.1184000E+00
        -11   -1    0    0    0    0  0.00000000000E+00  0.00000000000E+00  0.45593999997E+02  0.45594000000E+02  0.51100000000E-03 0. -1.
         11   -1    0    0    0    0 -0.00000000000E+00 -0.00000000000E+00 -0.45593999997E+02  0.45594000000E+02  0.51100000000E-03 0.  1.
         23    2    1    2    0    0  0.16653345369E-15 -0.71054273576E-14  0.17763568394E-14  0.91188000000E+02  0.91188000000E+02 0.  0.
    9900012    2    3    3    0    0 -0.13727999254E+00  0.34103808475E+02 -0.13881345323E+02  0.54367077330E+02  0.39999984389E+02 0.  0.
         12    1    3    3    0    0  0.13727999254E+00 -0.34103808475E+02  0.13881345323E+02  0.36820922670E+02  0.00000000000E+00 0. -1.
         11    1    4    4    0    0 -0.10215400970E+02  0.33677073902E+01  0.36004938371E+01  0.11342813856E+02  0.51100000000E-03 0. -1.
        -11    1    4    4    0    0 -0.29176141344E+01  0.78163028528E+00 -0.87035288842E+01  0.92127538466E+01  0.51100000000E-03 0.  1.
        -12    1    4    4    0    0  0.12995735112E+02  0.29954470799E+02 -0.87783102760E+01  0.33811509627E+02  0.00000000000E+00 0.  1.
</event>
<event>
 8    1  0.2484572E-006  0.9118800E+02  0.7816164E-02  0.1184000E+00
        -11   -1    0    0    0    0  0.00000000000E+00  0.00000000000E+00  0.45593999997E+02  0.45594000000E+02  0.51100000000E-03 0.  1.
         11   -1    0    0    0    0 -0.00000000000E+00 -0.00000000000E+00 -0.45593999997E+02  0.45594000000E+02  0.51100000000E-03 0. -1.
         23    2    1    2    0    0  0.00000000000E+00 -0.17763568394E-14  0.00000000000E+00  0.91188000000E+02  0.91188000000E+02 0.  0.
    9900012    2    3    3    0    0  0.28480314568E+02 -0.85692803372E+01  0.21707558541E+02  0.54367095866E+02  0.40000026646E+02 0.  0.
         12    1    3    3    0    0 -0.28480314568E+02  0.85692803372E+01 -0.21707558541E+02  0.36820904134E+02  0.00000000000E+00 0. -1.
         11    1    4    4    0    0  0.21789416599E+02 -0.12720201310E+02  0.77367337589E+01  0.26390135404E+02  0.51100000000E-03 0. -1.
        -11    1    4    4    0    0 -0.70713671084E+00 -0.26501349239E+01  0.17203405596E+02  0.17420689476E+02  0.51100000000E-03 0.  1.
        -12    1    4    4    0    0  0.73980346800E+01  0.68010558967E+01 -0.32325808134E+01  0.10556270987E+02  0.00000000000E+00 0.  1.
</event>
<event>
 8    1  0.2484572E-006  0.9118800E+02  0.7816164E-02  0.1184000E+00
        -11   -1    0    0    0    0  0.00000000000E+00  0.00000000000E+00  0.45593999997E+02  0.45594000000E+02  0.51100000000E-03 0.  1.
         11   -1    0    0    0    0 -0.00000000000E+00 -0.00000000000E+00 -0.45593999997E+02  0.45594000000E+02  0.51100000000E-03 0. -1.
         23    2    1    2    0    0 -0.17763568394E-14 -0.35527136788E-14 -0.35527136788E-14  0.91188000000E+02  0.91188000000E+02 0.  0.
    9900012    2    3    3    0    0 -0.12289835788E+02 -0.19295277283E+02 -0.28851909545E+02  0.54367075602E+02  0.39999980450E+02 0.  0.
        -12    1    3    3    0    0  0.12289835788E+02  0.19295277283E+02  0.28851909545E+02  0.36820924398E+02  0.00000000000E+00 0.  1.
         11    1    4    4    0    0 -0.11033398008E+02 -0.10769770431E+02 -0.78268691191E+01  0.17291145341E+02  0.51100000000E-03 0. -1.
        -11    1    4    4    0    0 -0.38994856493E+01 -0.14247867921E+02 -0.25413962933E+02  0.29395190777E+02  0.51100000000E-03 0.  1.
        -12    1    4    4    0    0  0.26430478693E+01  0.57223610693E+01  0.43889225066E+01  0.76807394836E+01  0.00000000000E+00 0.  1.
</event>
<event>
 8    1  0.2484572E-006  0.9118800E+02  0.7816164E-02  0.1184000E+00
        -11   -1    0    0    0    0  0.00000000000E+00  0.00000000000E+00  0.45593999997E+02  0.45594000000E+02  0.51100000000E-03 0.  1.
         11   -1    0    0    0    0 -0.00000000000E+00 -0.00000000000E+00 -0.45593999997E+02  0.45594000000E+02  0.51100000000E-03 0. -1.
         23    2    1    2    0    0  0.00000000000E+00 -0.22204460493E-15  0.00000000000E+00  0.91188000000E+02  0.91188000000E+02 0.  0.
    9900012    2    3    3    0    0 -0.31555413974E+02  0.18602416173E+01  0.18883243735E+02  0.54367061067E+02  0.39999947315E+02 0.  0.
         12    1    3    3    0    0  0.31555413974E+02 -0.18602416173E+01 -0.18883243735E+02  0.36820938933E+02  0.00000000000E+00 0. -1.
         11    1    4    4    0    0 -0.15027444787E+02 -0.30031538122E-02  0.58694640412E+01  0.16133031774E+02  0.51100000000E-03 0. -1.
        -11    1    4    4    0    0 -0.23934949814E+02  0.34054929455E+01  0.12006821304E+01  0.24205801839E+02  0.51100000000E-03 0.  1.
        -12    1    4    4    0    0  0.74069806276E+01 -0.15422481744E+01  0.11813097564E+02  0.14028227454E+02  0.00000000000E+00 0.  1.
</event>
<event>
 8    1  0.2484572E-006  0.9118800E+02  0.7816164E-02  0.1184000E+00
        -11   -1    0    0    0    0  0.00000000000E+00  0.00000000000E+00  0.45593999997E+02  0.45594000000E+02  0.51100000000E-03 0.  1.
         11   -1    0    0    0    0 -0.00000000000E+00 -0.00000000000E+00 -0.45593999997E+02  0.45594000000E+02  0.51100000000E-03 0. -1.
         23    2    1    2    0    0  0.17763568394E-14  0.00000000000E+00  0.00000000000E+00  0.91188000000E+02  0.91188000000E+02 0.  0.
    9900012    2    3    3    0    0 -0.91451676766E+01  0.25406261978E+02  0.25033351907E+02  0.54367069169E+02  0.39999965785E+02 0.  0.
         12    1    3    3    0    0  0.91451676766E+01 -0.25406261978E+02 -0.25033351907E+02  0.36820930831E+02  0.00000000000E+00 0. -1.
         11    1    4    4    0    0  0.14370792304E+01  0.80464183479E+01  0.13115748740E+02  0.15454219819E+02  0.51100000000E-03 0. -1.
        -11    1    4    4    0    0 -0.14136474347E+02  0.20665897670E+02 -0.10562773909E+01  0.25060625603E+02  0.51100000000E-03 0.  1.
        -12    1    4    4    0    0  0.35542274396E+01 -0.33060540392E+01  0.12973880558E+02  0.13852223747E+02  0.00000000000E+00 0.  1.
</event>
<event>
 8    1  0.2484572E-006  0.9118800E+02  0.7816164E-02  0.1184000E+00
        -11   -1    0    0    0    0  0.00000000000E+00  0.00000000000E+00  0.45593999997E+02  0.45594000000E+02  0.51100000000E-03 0. -1.
         11   -1    0    0    0    0 -0.00000000000E+00 -0.00000000000E+00 -0.45593999997E+02  0.45594000000E+02  0.51100000000E-03 0.  1.
         23    2    1    2    0    0  0.35527136788E-14 -0.17763568394E-14  0.00000000000E+00  0.91188000000E+02  0.91188000000E+02 0.  0.
    9900012    2    3    3    0    0  0.31988431748E+02  0.73786740699E+01 -0.16675625197E+02  0.54367067469E+02  0.39999961909E+02 0.  0.
         12    1    3    3    0    0 -0.31988431748E+02 -0.73786740699E+01  0.16675625197E+02  0.36820932531E+02  0.00000000000E+00 0. -1.
         11    1    4    4    0    0  0.73595812281E+01  0.13333000067E+02 -0.78228011409E+01  0.17120997184E+02  0.51100000000E-03 0. -1.
        -11    1    4    4    0    0  0.83522931360E+01  0.10166313358E+02 -0.46523725470E+01  0.13955618886E+02  0.51100000000E-03 0.  1.
         12    1    4    4    0    0  0.16276557384E+02 -0.16120639354E+02 -0.42004515095E+01  0.23290451399E+02  0.00000000000E+00 0. -1.
</event>
<event>
 8    1  0.2484572E-006  0.9118800E+02  0.7816164E-02  0.1184000E+00
        -11   -1    0    0    0    0  0.00000000000E+00  0.00000000000E+00  0.45593999997E+02  0.45594000000E+02  0.51100000000E-03 0. -1.
         11   -1    0    0    0    0 -0.00000000000E+00 -0.00000000000E+00 -0.45593999997E+02  0.45594000000E+02  0.51100000000E-03 0.  1.
         23    2    1    2    0    0  0.00000000000E+00 -0.17763568394E-14 -0.35527136788E-14  0.91188000000E+02  0.91188000000E+02 0.  0.
    9900012    2    3    3    0    0 -0.13844282943E+02 -0.13329144945E+02 -0.31407782953E+02  0.54367094183E+02  0.40000022808E+02 0.  0.
         12    1    3    3    0    0  0.13844282943E+02  0.13329144945E+02  0.31407782953E+02  0.36820905817E+02  0.00000000000E+00 0. -1.
         11    1    4    4    0    0 -0.45132615973E+01  0.31418330519E+01  0.15437864156E+01  0.57117354569E+01  0.51100000000E-03 0. -1.
        -11    1    4    4    0    0 -0.10563556257E+02 -0.23218962524E+02 -0.15366723749E+02  0.29779945274E+02  0.51100000000E-03 0.  1.
         12    1    4    4    0    0  0.12325349108E+01  0.67479845272E+01 -0.17584845620E+02  0.18875413452E+02  0.00000000000E+00 0. -1.
</event>
<event>
 8    1  0.2484572E-006  0.9118800E+02  0.7816164E-02  0.1184000E+00
        -11   -1    0    0    0    0  0.00000000000E+00  0.00000000000E+00  0.45593999997E+02  0.45594000000E+02  0.51100000000E-03 0. -1.
         11   -1    0    0    0    0 -0.00000000000E+00 -0.00000000000E+00 -0.45593999997E+02  0.45594000000E+02  0.51100000000E-03 0.  1.
         23    2    1    2    0    0  0.00000000000E+00  0.17763568394E-14  0.00000000000E+00  0.91188000000E+02  0.91188000000E+02 0.  0.
    9900012    2    3    3    0    0 -0.75911975496E+01 -0.92129187732E+01  0.34832117735E+02  0.54367074177E+02  0.39999977201E+02 0.  0.
        -12    1    3    3    0    0  0.75911975496E+01  0.92129187732E+01 -0.34832117735E+02  0.36820925823E+02  0.00000000000E+00 0.  1.
         11    1    4    4    0    0  0.49850925224E+01  0.93517587300E+01  0.20319815586E+02  0.22917273933E+02  0.51100000000E-03 0. -1.
        -11    1    4    4    0    0 -0.67135189390E+01 -0.98229334523E+01 -0.18030543380E+01  0.12033800869E+02  0.51100000000E-03 0.  1.
        -12    1    4    4    0    0 -0.58627711330E+01 -0.87417440510E+01  0.16315356487E+02  0.19415999374E+02  0.00000000000E+00 0.  1.
</event>
<event>
 8    1  0.2484572E-006  0.9118800E+02  0.7816164E-02  0.1184000E+00
        -11   -1    0    0    0    0  0.00000000000E+00  0.00000000000E+00  0.45593999997E+02  0.45594000000E+02  0.51100000000E-03 0.  1.
         11   -1    0    0    0    0 -0.00000000000E+00 -0.00000000000E+00 -0.45593999997E+02  0.45594000000E+02  0.51100000000E-03 0. -1.
         23    2    1    2    0    0 -0.88817841970E-15  0.00000000000E+00  0.00000000000E+00  0.91188000000E+02  0.91188000000E+02 0.  0.
    9900012    2    3    3    0    0 -0.25781239442E+01 -0.29041493308E+02  0.22488334147E+02  0.54367078918E+02  0.39999988009E+02 0.  0.
         12    1    3    3    0    0  0.25781239442E+01  0.29041493308E+02 -0.22488334147E+02  0.36820921082E+02  0.00000000000E+00 0. -1.
         11    1    4    4    0    0  0.63330000507E+01 -0.22346520412E+02  0.10901029397E+02  0.25657480515E+02  0.51100000000E-03 0.  1.
        -11    1    4    4    0    0  0.32010022985E+00 -0.12881491021E+02  0.32751258079E+00  0.12889629158E+02  0.51100000000E-03 0. -1.
        -12    1    4    4    0    0 -0.92312242247E+01  0.61865181258E+01  0.11259792169E+02  0.15819969245E+02  0.00000000000E+00 0.  1.
</event>
<event>
 8    1  0.2484572E-006  0.9118800E+02  0.7816164E-02  0.1184000E+00
        -11   -1    0    0    0    0  0.00000000000E+00  0.00000000000E+00  0.45593999997E+02  0.45594000000E+02  0.51100000000E-03 0. -1.
         11   -1    0    0    0    0 -0.00000000000E+00 -0.00000000000E+00 -0.45593999997E+02  0.45594000000E+02  0.51100000000E-03 0.  1.
         23    2    1    2    0    0  0.00000000000E+00 -0.71054273576E-14  0.00000000000E+00  0.91188000000E+02  0.91188000000E+02 0.  0.
    9900012    2    3    3    0    0  0.28665237285E+01 -0.29898880853E+02 -0.21298358659E+02  0.54367080455E+02  0.39999991514E+02 0.  0.
         12    1    3    3    0    0 -0.28665237285E+01  0.29898880853E+02  0.21298358659E+02  0.36820919545E+02  0.00000000000E+00 0. -1.
         11    1    4    4    0    0  0.42211989288E+01  0.25819586778E+01  0.18506184443E+01  0.52829745313E+01  0.51100000000E-03 0.  1.
        -11    1    4    4    0    0  0.73792428361E+01 -0.26043120016E+02 -0.44024535073E+01  0.27424057361E+02  0.51100000000E-03 0. -1.
        -12    1    4    4    0    0 -0.87339180365E+01 -0.64377195152E+01 -0.18746523596E+02  0.21660048563E+02  0.00000000000E+00 0.  1.
</event>
<event>
 8    1  0.2484572E-006  0.9118800E+02  0.7816164E-02  0.1184000E+00
        -11   -1    0    0    0    0  0.00000000000E+00  0.00000000000E+00  0.45593999997E+02  0.45594000000E+02  0.51100000000E-03 0.  1.
         11   -1    0    0    0    0 -0.00000000000E+00 -0.00000000000E+00 -0.45593999997E+02  0.45594000000E+02  0.51100000000E-03 0. -1.
         23    2    1    2    0    0  0.00000000000E+00  0.00000000000E+00  0.53290705182E-14  0.91188000000E+02  0.91188000000E+02 0.  0.
    9900012    2    3    3    0    0  0.11297590939E+02 -0.33176618231E+02 -0.11289685040E+02  0.54367074610E+02  0.39999978188E+02 0.  0.
        -12    1    3    3    0    0 -0.11297590939E+02  0.33176618231E+02  0.11289685040E+02  0.36820925390E+02  0.00000000000E+00 0.  1.
         11    1    4    4    0    0  0.12604570032E+01 -0.39461620514E+00 -0.11761059598E+02  0.11834990365E+02  0.51100000000E-03 0. -1.
        -11    1    4    4    0    0  0.80206486627E+01 -0.88611748071E+01  0.11069865463E+02  0.16290891491E+02  0.51100000000E-03 0.  1.
        -12    1    4    4    0    0  0.20164852736E+01 -0.23920827219E+02 -0.10598490905E+02  0.26241192754E+02  0.00000000000E+00 0.  1.
</event>
<event>
 8    1  0.2484572E-006  0.9118800E+02  0.7816164E-02  0.1184000E+00
        -11   -1    0    0    0    0  0.00000000000E+00  0.00000000000E+00  0.45593999997E+02  0.45594000000E+02  0.51100000000E-03 0. -1.
         11   -1    0    0    0    0 -0.00000000000E+00 -0.00000000000E+00 -0.45593999997E+02  0.45594000000E+02  0.51100000000E-03 0.  1.
         23    2    1    2    0    0  0.00000000000E+00  0.71054273576E-14 -0.17763568394E-14  0.91188000000E+02  0.91188000000E+02 0.  0.
    9900012    2    3    3    0    0  0.20346460278E+01  0.33765689675E+02 -0.14543660498E+02  0.54367086861E+02  0.40000006118E+02 0.  0.
         12    1    3    3    0    0 -0.20346460278E+01 -0.33765689675E+02  0.14543660498E+02  0.36820913139E+02  0.00000000000E+00 0. -1.
         11    1    4    4    0    0  0.10814428784E+02  0.21819489130E+02 -0.16982755528E+02  0.29689324031E+02  0.51100000000E-03 0. -1.
        -11    1    4    4    0    0  0.37167867778E+00  0.12506446638E+02  0.71067493498E+01  0.14389414134E+02  0.51100000000E-03 0.  1.
         12    1    4    4    0    0 -0.91514614337E+01 -0.56024609254E+00 -0.46676543192E+01  0.10288348697E+02  0.00000000000E+00 0. -1.
</event>
<event>
 8    1  0.2484572E-006  0.9118800E+02  0.7816164E-02  0.1184000E+00
        -11   -1    0    0    0    0  0.00000000000E+00  0.00000000000E+00  0.45593999997E+02  0.45594000000E+02  0.51100000000E-03 0.  1.
         11   -1    0    0    0    0 -0.00000000000E+00 -0.00000000000E+00 -0.45593999997E+02  0.45594000000E+02  0.51100000000E-03 0. -1.
         23    2    1    2    0    0 -0.35527136788E-14 -0.71054273576E-14  0.88817841970E-15  0.91188000000E+02  0.91188000000E+02 0.  0.
    9900012    2    3    3    0    0  0.17458773226E+02  0.32031595355E+02 -0.49945811304E+01  0.54367113207E+02  0.40000066178E+02 0.  0.
        -12    1    3    3    0    0 -0.17458773226E+02 -0.32031595355E+02  0.49945811304E+01  0.36820886793E+02  0.00000000000E+00 0.  1.
         11    1    4    4    0    0  0.23177617568E+02  0.11898783030E+02 -0.81526756647E+01  0.27299251171E+02  0.51100000000E-03 0. -1.
        -11    1    4    4    0    0  0.20297335925E+01 -0.77604927912E+00  0.42173432539E+01  0.47442655198E+01  0.51100000000E-03 0.  1.
        -12    1    4    4    0    0 -0.77485779343E+01  0.20908861604E+02 -0.10592487196E+01  0.22323596517E+02  0.00000000000E+00 0.  1.
</event>
<event>
 8    1  0.2484572E-006  0.9118800E+02  0.7816164E-02  0.1184000E+00
        -11   -1    0    0    0    0  0.00000000000E+00  0.00000000000E+00  0.45593999997E+02  0.45594000000E+02  0.51100000000E-03 0. -1.
         11   -1    0    0    0    0 -0.00000000000E+00 -0.00000000000E+00 -0.45593999997E+02  0.45594000000E+02  0.51100000000E-03 0.  1.
         23    2    1    2    0    0  0.44408920985E-15 -0.71054273576E-14  0.00000000000E+00  0.91188000000E+02  0.91188000000E+02 0.  0.
    9900012    2    3    3    0    0 -0.28079421548E+01 -0.22351237325E+02  0.29125902281E+02  0.54367074797E+02  0.39999978615E+02 0.  0.
        -12    1    3    3    0    0  0.28079421548E+01  0.22351237325E+02 -0.29125902281E+02  0.36820925203E+02  0.00000000000E+00 0.  1.
         11    1    4    4    0    0 -0.71147126395E+01  0.52406495577E+01  0.14710287911E+02  0.17160306361E+02  0.51100000000E-03 0. -1.
        -11    1    4    4    0    0 -0.20967732982E+01 -0.94278548252E+01 -0.40981163899E+01  0.10491685426E+02  0.51100000000E-03 0.  1.
         12    1    4    4    0    0  0.64035437829E+01 -0.18164032058E+02  0.18513730760E+02  0.26715083010E+02  0.00000000000E+00 0. -1.
</event>
<event>
 8    1  0.2484572E-006  0.9118800E+02  0.7816164E-02  0.1184000E+00
        -11   -1    0    0    0    0  0.00000000000E+00  0.00000000000E+00  0.45593999997E+02  0.45594000000E+02  0.51100000000E-03 0. -1.
         11   -1    0    0    0    0 -0.00000000000E+00 -0.00000000000E+00 -0.45593999997E+02  0.45594000000E+02  0.51100000000E-03 0.  1.
         23    2    1    2    0    0  0.44408920985E-15  0.88817841970E-15  0.71054273576E-14  0.91188000000E+02  0.91188000000E+02 0.  0.
    9900012    2    3    3    0    0 -0.20875239946E+01 -0.48039894822E+01  0.36446447450E+02  0.54367087421E+02  0.40000007394E+02 0.  0.
        -12    1    3    3    0    0  0.20875239946E+01  0.48039894822E+01 -0.36446447450E+02  0.36820912579E+02  0.00000000000E+00 0.  1.
         11    1    4    4    0    0  0.15998266691E+01 -0.10690411990E+02  0.23635787572E+02  0.25990282959E+02  0.51100000000E-03 0. -1.
        -11    1    4    4    0    0 -0.52804861871E+01 -0.12849681075E+01 -0.60520840102E+01  0.81340272029E+01  0.51100000000E-03 0.  1.
         12    1    4    4    0    0  0.15931355234E+01  0.71713906155E+01  0.18862743889E+02  0.20242777259E+02  0.00000000000E+00 0. -1.
</event>
<event>
 8    1  0.2484572E-006  0.9118800E+02  0.7816164E-02  0.1184000E+00
        -11   -1    0    0    0    0  0.00000000000E+00  0.00000000000E+00  0.45593999997E+02  0.45594000000E+02  0.51100000000E-03 0.  1.
         11   -1    0    0    0    0 -0.00000000000E+00 -0.00000000000E+00 -0.45593999997E+02  0.45594000000E+02  0.51100000000E-03 0. -1.
         23    2    1    2    0    0  0.35527136788E-14  0.00000000000E+00  0.17763568394E-14  0.91188000000E+02  0.91188000000E+02 0.  0.
    9900012    2    3    3    0    0  0.30272281378E+02 -0.13610967760E+02  0.15940871902E+02  0.54367070351E+02  0.39999968479E+02 0.  0.
        -12    1    3    3    0    0 -0.30272281378E+02  0.13610967760E+02 -0.15940871902E+02  0.36820929649E+02  0.00000000000E+00 0.  1.
         11    1    4    4    0    0  0.36159591772E+02 -0.85849657674E+01  0.13319020560E+02  0.39479286002E+02  0.51100000000E-03 0. -1.
        -11    1    4    4    0    0 -0.79047899421E+00  0.20798292907E+01 -0.35463277411E+01  0.41865245284E+01  0.51100000000E-03 0.  1.
         12    1    4    4    0    0 -0.50968313993E+01 -0.71058312834E+01  0.61681790831E+01  0.10701259820E+02  0.00000000000E+00 0. -1.
</event>
<event>
 8    1  0.2484572E-006  0.9118800E+02  0.7816164E-02  0.1184000E+00
        -11   -1    0    0    0    0  0.00000000000E+00  0.00000000000E+00  0.45593999997E+02  0.45594000000E+02  0.51100000000E-03 0.  1.
         11   -1    0    0    0    0 -0.00000000000E+00 -0.00000000000E+00 -0.45593999997E+02  0.45594000000E+02  0.51100000000E-03 0. -1.
         23    2    1    2    0    0 -0.17763568394E-14 -0.35527136788E-14  0.00000000000E+00  0.91188000000E+02  0.91188000000E+02 0.  0.
    9900012    2    3    3    0    0  0.25977814041E+01 -0.26048807095E+02  0.25893845917E+02  0.54367081005E+02  0.39999992767E+02 0.  0.
         12    1    3    3    0    0 -0.25977814041E+01  0.26048807095E+02 -0.25893845917E+02  0.36820918995E+02  0.00000000000E+00 0. -1.
         11    1    4    4    0    0  0.99635416971E+01  0.16976848186E+00  0.54946437876E+01  0.11379459350E+02  0.51100000000E-03 0. -1.
        -11    1    4    4    0    0  0.97392769711E+01 -0.63811074019E+01  0.60714210546E+01  0.13131420391E+02  0.51100000000E-03 0.  1.
        -12    1    4    4    0    0 -0.17105037264E+02 -0.19837468175E+02  0.14327781075E+02  0.29856201264E+02  0.00000000000E+00 0.  1.
</event>
<event>
 8    1  0.2484572E-006  0.9118800E+02  0.7816164E-02  0.1184000E+00
        -11   -1    0    0    0    0  0.00000000000E+00  0.00000000000E+00  0.45593999997E+02  0.45594000000E+02  0.51100000000E-03 0. -1.
         11   -1    0    0    0    0 -0.00000000000E+00 -0.00000000000E+00 -0.45593999997E+02  0.45594000000E+02  0.51100000000E-03 0.  1.
         23    2    1    2    0    0  0.00000000000E+00  0.88817841970E-15  0.00000000000E+00  0.91188000000E+02  0.91188000000E+02 0.  0.
    9900012    2    3    3    0    0 -0.45749956004E+01 -0.25811815138E+01  0.36444300556E+02  0.54367080324E+02  0.39999991216E+02 0.  0.
        -12    1    3    3    0    0  0.45749956004E+01  0.25811815138E+01 -0.36444300556E+02  0.36820919676E+02  0.00000000000E+00 0.  1.
         11    1    4    4    0    0 -0.84502724331E+01  0.34001170018E+01 -0.53104541729E+01  0.10543662722E+02  0.51100000000E-03 0. -1.
        -11    1    4    4    0    0  0.54599026907E+01 -0.65583821886E+01  0.17100150504E+02  0.19111202522E+02  0.51100000000E-03 0.  1.
         12    1    4    4    0    0 -0.15846258580E+01  0.57708367296E+00  0.24654604225E+02  0.24712215080E+02  0.00000000000E+00 0. -1.
</event>
<event>
 8    1  0.2484572E-006  0.9118800E+02  0.7816164E-02  0.1184000E+00
        -11   -1    0    0    0    0  0.00000000000E+00  0.00000000000E+00  0.45593999997E+02  0.45594000000E+02  0.51100000000E-03 0.  1.
         11   -1    0    0    0    0 -0.00000000000E+00 -0.00000000000E+00 -0.45593999997E+02  0.45594000000E+02  0.51100000000E-03 0. -1.
         23    2    1    2    0    0  0.88817841970E-15  0.00000000000E+00 -0.35527136788E-14  0.91188000000E+02  0.91188000000E+02 0.  0.
    9900012    2    3    3    0    0 -0.44224159081E+01  0.29038933556E+02  0.22202763666E+02  0.54367080145E+02  0.39999990806E+02 0.  0.
         12    1    3    3    0    0  0.44224159081E+01 -0.29038933556E+02 -0.22202763666E+02  0.36820919855E+02  0.00000000000E+00 0. -1.
         11    1    4    4    0    0  0.81707948825E+01  0.97754178105E+01  0.53729277273E+01  0.13827112316E+02  0.51100000000E-03 0. -1.
        -11    1    4    4    0    0 -0.21057288842E+02  0.12999513036E+02  0.16974942885E+02  0.30009089269E+02  0.51100000000E-03 0.  1.
        -12    1    4    4    0    0  0.84640780512E+01  0.62640027103E+01 -0.14510694654E+00  0.10530878560E+02  0.00000000000E+00 0.  1.
</event>
<event>
 8    1  0.2484572E-006  0.9118800E+02  0.7816164E-02  0.1184000E+00
        -11   -1    0    0    0    0  0.00000000000E+00  0.00000000000E+00  0.45593999997E+02  0.45594000000E+02  0.51100000000E-03 0. -1.
         11   -1    0    0    0    0 -0.00000000000E+00 -0.00000000000E+00 -0.45593999997E+02  0.45594000000E+02  0.51100000000E-03 0.  1.
         23    2    1    2    0    0 -0.71054273576E-14  0.44408920985E-15  0.00000000000E+00  0.91188000000E+02  0.91188000000E+02 0.  0.
    9900012    2    3    3    0    0 -0.36381196910E+02 -0.16611276237E+01 -0.54250632003E+01  0.54367052914E+02  0.39999928728E+02 0.  0.
         12    1    3    3    0    0  0.36381196910E+02  0.16611276237E+01  0.54250632003E+01  0.36820947086E+02  0.00000000000E+00 0. -1.
         11    1    4    4    0    0 -0.91618481785E+01  0.61890003043E+01 -0.40038922979E+00  0.11063611463E+02  0.51100000000E-03 0. -1.
        -11    1    4    4    0    0  0.55785244226E+01  0.40040808937E+01  0.30386000961E+01  0.75090405074E+01  0.51100000000E-03 0.  1.
         12    1    4    4    0    0 -0.32797873154E+02 -0.11854208822E+02 -0.80632740666E+01  0.35794400943E+02  0.00000000000E+00 0. -1.
</event>
<event>
 8    1  0.2484572E-006  0.9118800E+02  0.7816164E-02  0.1184000E+00
        -11   -1    0    0    0    0  0.00000000000E+00  0.00000000000E+00  0.45593999997E+02  0.45594000000E+02  0.51100000000E-03 0. -1.
         11   -1    0    0    0    0 -0.00000000000E+00 -0.00000000000E+00 -0.45593999997E+02  0.45594000000E+02  0.51100000000E-03 0.  1.
         23    2    1    2    0    0  0.88817841970E-15  0.00000000000E+00 -0.35527136788E-14  0.91188000000E+02  0.91188000000E+02 0.  0.
    9900012    2    3    3    0    0  0.12581450983E+01  0.32967663592E+02  0.16350250746E+02  0.54367075633E+02  0.39999980521E+02 0.  0.
         12    1    3    3    0    0 -0.12581450983E+01 -0.32967663592E+02 -0.16350250746E+02  0.36820924367E+02  0.00000000000E+00 0. -1.
         11    1    4    4    0    0 -0.70440195022E+01 -0.10044070487E+01  0.72244807291E+01  0.10140027926E+02  0.51100000000E-03 0. -1.
        -11    1    4    4    0    0  0.11816972473E+02  0.35285509961E+02  0.33803115307E+01  0.37364884022E+02  0.51100000000E-03 0.  1.
        -12    1    4    4    0    0 -0.35148078725E+01 -0.13134393208E+01  0.57454584864E+01  0.68621636857E+01  0.00000000000E+00 0.  1.
</event>
<event>
 8    1  0.2484572E-006  0.9118800E+02  0.7816164E-02  0.1184000E+00
        -11   -1    0    0    0    0  0.00000000000E+00  0.00000000000E+00  0.45593999997E+02  0.45594000000E+02  0.51100000000E-03 0. -1.
         11   -1    0    0    0    0 -0.00000000000E+00 -0.00000000000E+00 -0.45593999997E+02  0.45594000000E+02  0.51100000000E-03 0.  1.
         23    2    1    2    0    0  0.00000000000E+00 -0.35527136788E-14 -0.88817841970E-15  0.91188000000E+02  0.91188000000E+02 0.  0.
    9900012    2    3    3    0    0 -0.23841033512E+02 -0.27754201984E+02 -0.41339263413E+01  0.54367082661E+02  0.39999996542E+02 0.  0.
         12    1    3    3    0    0  0.23841033512E+02  0.27754201984E+02  0.41339263413E+01  0.36820917339E+02  0.00000000000E+00 0. -1.
         11    1    4    4    0    0 -0.51357533881E+01  0.61860001120E-01  0.66517276191E+01  0.84038842271E+01  0.51100000000E-03 0. -1.
        -11    1    4    4    0    0 -0.24406008422E+02 -0.18061588345E+02 -0.15049209216E+02  0.33887356328E+02  0.51100000000E-03 0.  1.
        -12    1    4    4    0    0  0.57007282987E+01 -0.97544736405E+01  0.42635552556E+01  0.12075842105E+02  0.00000000000E+00 0.  1.
</event>
<event>
 8    1  0.2484572E-006  0.9118800E+02  0.7816164E-02  0.1184000E+00
        -11   -1    0    0    0    0  0.00000000000E+00  0.00000000000E+00  0.45593999997E+02  0.45594000000E+02  0.51100000000E-03 0. -1.
         11   -1    0    0    0    0 -0.00000000000E+00 -0.00000000000E+00 -0.45593999997E+02  0.45594000000E+02  0.51100000000E-03 0.  1.
         23    2    1    2    0    0 -0.17763568394E-14  0.71054273576E-14 -0.35527136788E-14  0.91188000000E+02  0.91188000000E+02 0.  0.
    9900012    2    3    3    0    0  0.91305481359E+01 -0.32947512637E+02  0.13670246496E+02  0.54367066586E+02  0.39999959896E+02 0.  0.
        -12    1    3    3    0    0 -0.91305481359E+01  0.32947512637E+02 -0.13670246496E+02  0.36820933414E+02  0.00000000000E+00 0.  1.
         11    1    4    4    0    0 -0.48144224914E+01 -0.65514823315E+01 -0.51185292867E+01  0.96072850996E+01  0.51100000000E-03 0. -1.
        -11    1    4    4    0    0  0.63731997768E+01 -0.23219726825E+02 -0.19184170945E+00  0.24079248176E+02  0.51100000000E-03 0.  1.
         12    1    4    4    0    0  0.75717708505E+01 -0.31763034805E+01  0.18980617492E+02  0.20680533310E+02  0.00000000000E+00 0. -1.
</event>
<event>
 8    1  0.2484572E-006  0.9118800E+02  0.7816164E-02  0.1184000E+00
        -11   -1    0    0    0    0  0.00000000000E+00  0.00000000000E+00  0.45593999997E+02  0.45594000000E+02  0.51100000000E-03 0. -1.
         11   -1    0    0    0    0 -0.00000000000E+00 -0.00000000000E+00 -0.45593999997E+02  0.45594000000E+02  0.51100000000E-03 0.  1.
         23    2    1    2    0    0 -0.17763568394E-14  0.00000000000E+00  0.00000000000E+00  0.91188000000E+02  0.91188000000E+02 0.  0.
    9900012    2    3    3    0    0  0.41794458363E+01  0.25718100567E+02 -0.26016892139E+02  0.54367256650E+02  0.40000393184E+02 0.  0.
         12    1    3    3    0    0 -0.41794458363E+01 -0.25718100567E+02  0.26016892139E+02  0.36820743350E+02  0.00000000000E+00 0. -1.
         11    1    4    4    0    0 -0.41416739223E+01  0.62352140678E+01 -0.36861245147E+01  0.83437923961E+01  0.51100000000E-03 0. -1.
        -11    1    4    4    0    0  0.14464777888E+02  0.23838234026E+02 -0.25563261895E+02  0.37828184728E+02  0.51100000000E-03 0.  1.
        -12    1    4    4    0    0 -0.61436581295E+01 -0.43553475276E+01  0.32324942708E+01  0.81952795260E+01  0.00000000000E+00 0.  1.
</event>
<event>
 8    1  0.2484572E-006  0.9118800E+02  0.7816164E-02  0.1184000E+00
        -11   -1    0    0    0    0  0.00000000000E+00  0.00000000000E+00  0.45593999997E+02  0.45594000000E+02  0.51100000000E-03 0. -1.
         11   -1    0    0    0    0 -0.00000000000E+00 -0.00000000000E+00 -0.45593999997E+02  0.45594000000E+02  0.51100000000E-03 0.  1.
         23    2    1    2    0    0 -0.88817841970E-15  0.00000000000E+00  0.00000000000E+00  0.91188000000E+02  0.91188000000E+02 0.  0.
    9900012    2    3    3    0    0  0.76837138343E+01 -0.33893145577E+02 -0.12165344935E+02  0.54367076698E+02  0.39999982948E+02 0.  0.
         12    1    3    3    0    0 -0.76837138343E+01  0.33893145577E+02  0.12165344935E+02  0.36820923302E+02  0.00000000000E+00 0. -1.
         11    1    4    4    0    0 -0.45961791539E+01 -0.29061000936E+02 -0.31550301179E-01  0.29422230267E+02  0.51100000000E-03 0. -1.
        -11    1    4    4    0    0  0.10067119023E+02 -0.10810461056E+02 -0.55489102743E+01  0.15779840276E+02  0.51100000000E-03 0.  1.
         12    1    4    4    0    0  0.22127739656E+01  0.59783164146E+01 -0.65848843597E+01  0.91650061542E+01  0.00000000000E+00 0. -1.
</event>
<event>
 8    1  0.2484572E-006  0.9118800E+02  0.7816164E-02  0.1184000E+00
        -11   -1    0    0    0    0  0.00000000000E+00  0.00000000000E+00  0.45593999997E+02  0.45594000000E+02  0.51100000000E-03 0. -1.
         11   -1    0    0    0    0 -0.00000000000E+00 -0.00000000000E+00 -0.45593999997E+02  0.45594000000E+02  0.51100000000E-03 0.  1.
         23    2    1    2    0    0 -0.17763568394E-14 -0.11102230246E-15  0.00000000000E+00  0.91188000000E+02  0.91188000000E+02 0.  0.
    9900012    2    3    3    0    0 -0.99144521471E+01 -0.95583495500E+00  0.35448138927E+02  0.54367074764E+02  0.39999978539E+02 0.  0.
        -12    1    3    3    0    0  0.99144521471E+01  0.95583495500E+00 -0.35448138927E+02  0.36820925236E+02  0.00000000000E+00 0.  1.
         11    1    4    4    0    0  0.23716953516E+01  0.64236749031E+01  0.18877378566E+02  0.20080935235E+02  0.51100000000E-03 0. -1.
        -11    1    4    4    0    0 -0.10544219904E+02  0.68859587360E+01  0.15361606199E+02  0.19863935823E+02  0.51100000000E-03 0.  1.
        -12    1    4    4    0    0 -0.17419275943E+01 -0.14265468594E+02  0.12091541619E+01  0.14422203706E+02  0.00000000000E+00 0.  1.
</event>
<event>
 8    1  0.2484572E-006  0.9118800E+02  0.7816164E-02  0.1184000E+00
        -11   -1    0    0    0    0  0.00000000000E+00  0.00000000000E+00  0.45593999997E+02  0.45594000000E+02  0.51100000000E-03 0.  1.
         11   -1    0    0    0    0 -0.00000000000E+00 -0.00000000000E+00 -0.45593999997E+02  0.45594000000E+02  0.51100000000E-03 0. -1.
         23    2    1    2    0    0  0.00000000000E+00  0.35527136788E-14  0.00000000000E+00  0.91188000000E+02  0.91188000000E+02 0.  0.
    9900012    2    3    3    0    0  0.24362783817E+02 -0.26342324452E+02  0.82653096859E+01  0.54367100540E+02  0.40000037302E+02 0.  0.
         12    1    3    3    0    0 -0.24362783817E+02  0.26342324452E+02 -0.82653096859E+01  0.36820899460E+02  0.00000000000E+00 0. -1.
         11    1    4    4    0    0  0.61211960246E+01 -0.82453543924E-01 -0.68458589329E+01  0.91837696045E+01  0.51100000000E-03 0. -1.
        -11    1    4    4    0    0  0.85992042659E+01 -0.30029665591E+02  0.69503376134E+01  0.32000536288E+02  0.51100000000E-03 0.  1.
        -12    1    4    4    0    0  0.96423835261E+01  0.37697946835E+01  0.81608310055E+01  0.13182794648E+02  0.00000000000E+00 0.  1.
</event>
<event>
 8    1  0.2484572E-006  0.9118800E+02  0.7816164E-02  0.1184000E+00
        -11   -1    0    0    0    0  0.00000000000E+00  0.00000000000E+00  0.45593999997E+02  0.45594000000E+02  0.51100000000E-03 0.  1.
         11   -1    0    0    0    0 -0.00000000000E+00 -0.00000000000E+00 -0.45593999997E+02  0.45594000000E+02  0.51100000000E-03 0. -1.
         23    2    1    2    0    0  0.00000000000E+00  0.17763568394E-14 -0.71054273576E-14  0.91188000000E+02  0.91188000000E+02 0.  0.
    9900012    2    3    3    0    0 -0.13581651694E+02 -0.12672223504E+02 -0.31792037543E+02  0.54367079827E+02  0.39999990081E+02 0.  0.
        -12    1    3    3    0    0  0.13581651694E+02  0.12672223504E+02  0.31792037543E+02  0.36820920173E+02  0.00000000000E+00 0.  1.
         11    1    4    4    0    0 -0.98949425590E+01 -0.10638976947E+01  0.63007666371E+01  0.11778855081E+02  0.51100000000E-03 0. -1.
        -11    1    4    4    0    0  0.92944114238E+00 -0.18376341645E+01  0.80967045401E+00  0.22127644848E+01  0.51100000000E-03 0.  1.
         12    1    4    4    0    0 -0.46161502774E+01 -0.97706916452E+01 -0.38902474634E+02  0.40375460261E+02  0.00000000000E+00 0. -1.
</event>
<event>
 8    1  0.2484572E-006  0.9118800E+02  0.7816164E-02  0.1184000E+00
        -11   -1    0    0    0    0  0.00000000000E+00  0.00000000000E+00  0.45593999997E+02  0.45594000000E+02  0.51100000000E-03 0.  1.
         11   -1    0    0    0    0 -0.00000000000E+00 -0.00000000000E+00 -0.45593999997E+02  0.45594000000E+02  0.51100000000E-03 0. -1.
         23    2    1    2    0    0 -0.11102230246E-15  0.17763568394E-14  0.00000000000E+00  0.91188000000E+02  0.91188000000E+02 0.  0.
    9900012    2    3    3    0    0  0.80239672998E+00  0.10593490043E+02  0.35254973760E+02  0.54367094978E+02  0.40000024621E+02 0.  0.
         12    1    3    3    0    0 -0.80239672998E+00 -0.10593490043E+02 -0.35254973760E+02  0.36820905022E+02  0.00000000000E+00 0. -1.
         11    1    4    4    0    0  0.57718758982E+01  0.10914877842E+02  0.13336709513E+02  0.18174623259E+02  0.51100000000E-03 0. -1.
        -11    1    4    4    0    0 -0.86040197664E+01  0.17010006459E-01  0.27893571319E+02  0.29190422516E+02  0.51100000000E-03 0.  1.
        -12    1    4    4    0    0  0.36345405982E+01 -0.33839780542E+00 -0.59753070720E+01  0.70020492029E+01  0.00000000000E+00 0.  1.
</event>
<event>
 8    1  0.2484572E-006  0.9118800E+02  0.7816164E-02  0.1184000E+00
        -11   -1    0    0    0    0  0.00000000000E+00  0.00000000000E+00  0.45593999997E+02  0.45594000000E+02  0.51100000000E-03 0. -1.
         11   -1    0    0    0    0 -0.00000000000E+00 -0.00000000000E+00 -0.45593999997E+02  0.45594000000E+02  0.51100000000E-03 0.  1.
         23    2    1    2    0    0 -0.35527136788E-14 -0.35527136788E-14  0.00000000000E+00  0.91188000000E+02  0.91188000000E+02 0.  0.
    9900012    2    3    3    0    0  0.27957733423E+02  0.12163517198E+02  0.20644446408E+02  0.54367093218E+02  0.40000020609E+02 0.  0.
        -12    1    3    3    0    0 -0.27957733423E+02 -0.12163517198E+02 -0.20644446408E+02  0.36820906782E+02  0.00000000000E+00 0.  1.
         11    1    4    4    0    0  0.19990784974E+01  0.20893643131E+02  0.11714807119E+02  0.24036999485E+02  0.51100000000E-03 0. -1.
        -11    1    4    4    0    0  0.18899801786E+02 -0.24843909197E+01  0.85637743211E+01  0.20897677782E+02  0.51100000000E-03 0.  1.
         12    1    4    4    0    0  0.70588531395E+01 -0.62457350137E+01  0.36586496841E+00  0.94324159514E+01  0.00000000000E+00 0. -1.
</event>
<event>
 8    1  0.2484572E-006  0.9118800E+02  0.7816164E-02  0.1184000E+00
        -11   -1    0    0    0    0  0.00000000000E+00  0.00000000000E+00  0.45593999997E+02  0.45594000000E+02  0.51100000000E-03 0.  1.
         11   -1    0    0    0    0 -0.00000000000E+00 -0.00000000000E+00 -0.45593999997E+02  0.45594000000E+02  0.51100000000E-03 0. -1.
         23    2    1    2    0    0  0.00000000000E+00  0.00000000000E+00  0.35527136788E-14  0.91188000000E+02  0.91188000000E+02 0.  0.
    9900012    2    3    3    0    0  0.16836455458E+02 -0.18783629713E+02 -0.26823604974E+02  0.54366854426E+02  0.39999476232E+02 0.  0.
        -12    1    3    3    0    0 -0.16836455458E+02  0.18783629713E+02  0.26823604974E+02  0.36821145574E+02  0.00000000000E+00 0.  1.
         11    1    4    4    0    0  0.40478887773E+00  0.46991428019E+01  0.36976120800E+01  0.59931738222E+01  0.51100000000E-03 0. -1.
        -11    1    4    4    0    0 -0.27935081688E+01  0.46859249358E+00  0.21326854269E+01  0.35456472195E+01  0.51100000000E-03 0.  1.
         12    1    4    4    0    0  0.19225174749E+02 -0.23951365008E+02 -0.32653902481E+02  0.44828033384E+02  0.00000000000E+00 0. -1.
</event>
<event>
 8    1  0.2484572E-006  0.9118800E+02  0.7816164E-02  0.1184000E+00
        -11   -1    0    0    0    0  0.00000000000E+00  0.00000000000E+00  0.45593999997E+02  0.45594000000E+02  0.51100000000E-03 0.  1.
         11   -1    0    0    0    0 -0.00000000000E+00 -0.00000000000E+00 -0.45593999997E+02  0.45594000000E+02  0.51100000000E-03 0. -1.
         23    2    1    2    0    0  0.00000000000E+00  0.00000000000E+00  0.35527136788E-14  0.91188000000E+02  0.91188000000E+02 0.  0.
    9900012    2    3    3    0    0  0.21802293667E+02 -0.86754149226E+01  0.28375630694E+02  0.54367092210E+02  0.40000018310E+02 0.  0.
         12    1    3    3    0    0 -0.21802293667E+02  0.86754149226E+01 -0.28375630694E+02  0.36820907790E+02  0.00000000000E+00 0. -1.
         11    1    4    4    0    0  0.57479748089E+01 -0.42120104244E+01 -0.62069470883E+01  0.94502083912E+01  0.51100000000E-03 0. -1.
        -11    1    4    4    0    0  0.65234657277E+01 -0.13834094403E+02  0.18730035471E+02  0.24181645975E+02  0.51100000000E-03 0.  1.
        -12    1    4    4    0    0  0.95308531301E+01  0.93706899050E+01  0.15852542311E+02  0.20735237843E+02  0.00000000000E+00 0.  1.
</event>
<event>
 8    1  0.2484572E-006  0.9118800E+02  0.7816164E-02  0.1184000E+00
        -11   -1    0    0    0    0  0.00000000000E+00  0.00000000000E+00  0.45593999997E+02  0.45594000000E+02  0.51100000000E-03 0.  1.
         11   -1    0    0    0    0 -0.00000000000E+00 -0.00000000000E+00 -0.45593999997E+02  0.45594000000E+02  0.51100000000E-03 0. -1.
         23    2    1    2    0    0  0.00000000000E+00  0.17763568394E-14  0.00000000000E+00  0.91188000000E+02  0.91188000000E+02 0.  0.
    9900012    2    3    3    0    0 -0.88763415057E+01 -0.12992313249E+02 -0.33289495776E+02  0.54367079708E+02  0.39999989811E+02 0.  0.
        -12    1    3    3    0    0  0.88763415057E+01  0.12992313249E+02  0.33289495776E+02  0.36820920292E+02  0.00000000000E+00 0.  1.
         11    1    4    4    0    0 -0.19311823958E+02 -0.11891531021E+02 -0.24328226997E+02  0.33259850927E+02  0.51100000000E-03 0. -1.
        -11    1    4    4    0    0 -0.77603878075E+00  0.26948493962E+01  0.31191498679E+01  0.41944660706E+01  0.51100000000E-03 0.  1.
        -12    1    4    4    0    0  0.11211521234E+02 -0.37956316244E+01 -0.12080418647E+02  0.16912762710E+02  0.00000000000E+00 0.  1.
</event>
<event>
 8    1  0.2484572E-006  0.9118800E+02  0.7816164E-02  0.1184000E+00
        -11   -1    0    0    0    0  0.00000000000E+00  0.00000000000E+00  0.45593999997E+02  0.45594000000E+02  0.51100000000E-03 0.  1.
         11   -1    0    0    0    0 -0.00000000000E+00 -0.00000000000E+00 -0.45593999997E+02  0.45594000000E+02  0.51100000000E-03 0. -1.
         23    2    1    2    0    0  0.00000000000E+00  0.00000000000E+00  0.00000000000E+00  0.91188000000E+02  0.91188000000E+02 0.  0.
    9900012    2    3    3    0    0 -0.27852203244E+02 -0.16660827430E+02  0.17391125393E+02  0.54367086939E+02  0.40000006296E+02 0.  0.
         12    1    3    3    0    0  0.27852203244E+02  0.16660827430E+02 -0.17391125393E+02  0.36820913061E+02  0.00000000000E+00 0. -1.
         11    1    4    4    0    0 -0.94650899297E+01 -0.15198149698E+02 -0.68970727901E+01  0.19187008494E+02  0.51100000000E-03 0. -1.
        -11    1    4    4    0    0 -0.21495145189E+02  0.79256428480E+00  0.21666520700E+02  0.30530436361E+02  0.51100000000E-03 0.  1.
         12    1    4    4    0    0  0.31080318752E+01 -0.22552420163E+01  0.26216774829E+01  0.46496420845E+01  0.00000000000E+00 0. -1.
</event>
<event>
 8    1  0.2484572E-006  0.9118800E+02  0.7816164E-02  0.1184000E+00
        -11   -1    0    0    0    0  0.00000000000E+00  0.00000000000E+00  0.45593999997E+02  0.45594000000E+02  0.51100000000E-03 0.  1.
         11   -1    0    0    0    0 -0.00000000000E+00 -0.00000000000E+00 -0.45593999997E+02  0.45594000000E+02  0.51100000000E-03 0. -1.
         23    2    1    2    0    0  0.17763568394E-14  0.00000000000E+00  0.00000000000E+00  0.91188000000E+02  0.91188000000E+02 0.  0.
    9900012    2    3    3    0    0  0.11996559162E+02 -0.23227414027E+02 -0.25929681605E+02  0.54367101284E+02  0.40000038997E+02 0.  0.
        -12    1    3    3    0    0 -0.11996559162E+02  0.23227414027E+02  0.25929681605E+02  0.36820898716E+02  0.00000000000E+00 0.  1.
         11    1    4    4    0    0  0.71903468398E+01 -0.99274397360E+01 -0.59649556045E+01  0.13632162081E+02  0.51100000000E-03 0.  1.
        -11    1    4    4    0    0  0.27283726071E+01  0.10431779065E+02 -0.21671269337E+01  0.10998294002E+02  0.51100000000E-03 0. -1.
         12    1    4    4    0    0  0.20778397149E+01 -0.23731753356E+02 -0.17797599067E+02  0.29736645201E+02  0.00000000000E+00 0. -1.
</event>
<event>
 8    1  0.2484572E-006  0.9118800E+02  0.7816164E-02  0.1184000E+00
        -11   -1    0    0    0    0  0.00000000000E+00  0.00000000000E+00  0.45593999997E+02  0.45594000000E+02  0.51100000000E-03 0.  1.
         11   -1    0    0    0    0 -0.00000000000E+00 -0.00000000000E+00 -0.45593999997E+02  0.45594000000E+02  0.51100000000E-03 0. -1.
         23    2    1    2    0    0  0.00000000000E+00  0.00000000000E+00  0.00000000000E+00  0.91188000000E+02  0.91188000000E+02 0.  0.
    9900012    2    3    3    0    0  0.74517620121E+01 -0.22164940128E+02  0.28442343602E+02  0.54367078807E+02  0.39999987756E+02 0.  0.
         12    1    3    3    0    0 -0.74517620121E+01  0.22164940128E+02 -0.28442343602E+02  0.36820921193E+02  0.00000000000E+00 0. -1.
         11    1    4    4    0    0  0.14863120145E+02 -0.40078465939E+01 -0.32811004072E+01  0.15739783827E+02  0.51100000000E-03 0. -1.
        -11    1    4    4    0    0  0.92436047502E+00 -0.53125307515E+01  0.15062735312E+02  0.15998856853E+02  0.51100000000E-03 0.  1.
         12    1    4    4    0    0 -0.83357186081E+01 -0.12844562782E+02  0.16660708697E+02  0.22628438127E+02  0.00000000000E+00 0. -1.
</event>
<event>
 8    1  0.2484572E-006  0.9118800E+02  0.7816164E-02  0.1184000E+00
        -11   -1    0    0    0    0  0.00000000000E+00  0.00000000000E+00  0.45593999997E+02  0.45594000000E+02  0.51100000000E-03 0. -1.
         11   -1    0    0    0    0 -0.00000000000E+00 -0.00000000000E+00 -0.45593999997E+02  0.45594000000E+02  0.51100000000E-03 0.  1.
         23    2    1    2    0    0  0.17763568394E-14  0.71054273576E-14  0.00000000000E+00  0.91188000000E+02  0.91188000000E+02 0.  0.
    9900012    2    3    3    0    0  0.12595030172E+02  0.28932410765E+02 -0.18975394689E+02  0.54367017106E+02  0.39999847096E+02 0.  0.
         12    1    3    3    0    0 -0.12595030172E+02 -0.28932410765E+02  0.18975394689E+02  0.36820982894E+02  0.00000000000E+00 0. -1.
         11    1    4    4    0    0  0.44519782642E+01 -0.27628211884E+01 -0.17383413778E+01  0.55204277363E+01  0.51100000000E-03 0. -1.
        -11    1    4    4    0    0  0.14263647055E+02  0.35573577961E+02 -0.15820708523E+02  0.41463548988E+02  0.51100000000E-03 0.  1.
        -12    1    4    4    0    0 -0.61205951470E+01 -0.38783460081E+01 -0.14163447880E+01  0.73830403812E+01  0.00000000000E+00 0.  1.
</event>
<event>
 8    1  0.2484572E-006  0.9118800E+02  0.7816164E-02  0.1184000E+00
        -11   -1    0    0    0    0  0.00000000000E+00  0.00000000000E+00  0.45593999997E+02  0.45594000000E+02  0.51100000000E-03 0.  1.
         11   -1    0    0    0    0 -0.00000000000E+00 -0.00000000000E+00 -0.45593999997E+02  0.45594000000E+02  0.51100000000E-03 0. -1.
         23    2    1    2    0    0  0.00000000000E+00  0.00000000000E+00  0.00000000000E+00  0.91188000000E+02  0.91188000000E+02 0.  0.
    9900012    2    3    3    0    0  0.19917792551E+02 -0.28026894670E+02  0.13173514335E+02  0.54367261756E+02  0.40000404823E+02 0.  0.
         12    1    3    3    0    0 -0.19917792551E+02  0.28026894670E+02 -0.13173514335E+02  0.36820738244E+02  0.00000000000E+00 0. -1.
         11    1    4    4    0    0  0.95518771664E+01 -0.32152172138E+02  0.12346582151E+02  0.35741273364E+02  0.51100000000E-03 0. -1.
        -11    1    4    4    0    0 -0.23901849438E+01  0.49167765721E+01 -0.14222968800E+01  0.56489472118E+01  0.51100000000E-03 0.  1.
         12    1    4    4    0    0  0.12756100328E+02 -0.79149910398E+00  0.22492290639E+01  0.12977041180E+02  0.00000000000E+00 0. -1.
</event>
<event>
 8    1  0.2484572E-006  0.9118800E+02  0.7816164E-02  0.1184000E+00
        -11   -1    0    0    0    0  0.00000000000E+00  0.00000000000E+00  0.45593999997E+02  0.45594000000E+02  0.51100000000E-03 0. -1.
         11   -1    0    0    0    0 -0.00000000000E+00 -0.00000000000E+00 -0.45593999997E+02  0.45594000000E+02  0.51100000000E-03 0.  1.
         23    2    1    2    0    0 -0.88817841970E-15  0.00000000000E+00  0.00000000000E+00  0.91188000000E+02  0.91188000000E+02 0.  0.
    9900012    2    3    3    0    0  0.49714171956E+01  0.16249823401E+02  0.32665077173E+02  0.54367095391E+02  0.40000025564E+02 0.  0.
        -12    1    3    3    0    0 -0.49714171956E+01 -0.16249823401E+02 -0.32665077173E+02  0.36820904609E+02  0.00000000000E+00 0.  1.
         11    1    4    4    0    0  0.82819937433E+01  0.15311871348E+02  0.16784735267E+02  0.24182062832E+02  0.51100000000E-03 0. -1.
        -11    1    4    4    0    0 -0.40607582493E+01  0.28319517190E+01  0.22614203595E+02  0.23149771330E+02  0.51100000000E-03 0.  1.
        -12    1    4    4    0    0  0.75018170155E+00 -0.18939996656E+01 -0.67338616900E+01  0.70352612303E+01  0.00000000000E+00 0.  1.
</event>
<event>
 8    1  0.2484572E-006  0.9118800E+02  0.7816164E-02  0.1184000E+00
        -11   -1    0    0    0    0  0.00000000000E+00  0.00000000000E+00  0.45593999997E+02  0.45594000000E+02  0.51100000000E-03 0. -1.
         11   -1    0    0    0    0 -0.00000000000E+00 -0.00000000000E+00 -0.45593999997E+02  0.45594000000E+02  0.51100000000E-03 0.  1.
         23    2    1    2    0    0  0.17763568394E-14  0.17763568394E-14  0.35527136788E-14  0.91188000000E+02  0.91188000000E+02 0.  0.
    9900012    2    3    3    0    0 -0.13031951885E+02  0.15277469345E+02  0.30863395556E+02  0.54367054538E+02  0.39999932429E+02 0.  0.
        -12    1    3    3    0    0  0.13031951885E+02 -0.15277469345E+02 -0.30863395556E+02  0.36820945462E+02  0.00000000000E+00 0.  1.
         11    1    4    4    0    0  0.43843868594E+01  0.83235997139E+01  0.19681012177E+02  0.21813926765E+02  0.51100000000E-03 0. -1.
        -11    1    4    4    0    0  0.48853909868E+01 -0.13348507716E+01  0.66073594156E+01  0.83250267498E+01  0.51100000000E-03 0.  1.
        -12    1    4    4    0    0 -0.22301729731E+02  0.82887204025E+01  0.45750239631E+01  0.24228101023E+02  0.00000000000E+00 0.  1.
</event>
<event>
 8    1  0.2484572E-006  0.9118800E+02  0.7816164E-02  0.1184000E+00
        -11   -1    0    0    0    0  0.00000000000E+00  0.00000000000E+00  0.45593999997E+02  0.45594000000E+02  0.51100000000E-03 0.  1.
         11   -1    0    0    0    0 -0.00000000000E+00 -0.00000000000E+00 -0.45593999997E+02  0.45594000000E+02  0.51100000000E-03 0. -1.
         23    2    1    2    0    0  0.35527136788E-14 -0.17763568394E-14 -0.35527136788E-14  0.91188000000E+02  0.91188000000E+02 0.  0.
    9900012    2    3    3    0    0 -0.31761914606E+02 -0.58322540987E+01  0.17690257183E+02  0.54367087375E+02  0.40000007289E+02 0.  0.
         12    1    3    3    0    0  0.31761914606E+02  0.58322540987E+01 -0.17690257183E+02  0.36820912625E+02  0.00000000000E+00 0. -1.
         11    1    4    4    0    0 -0.89759279293E+00 -0.15436393382E+02  0.95953647606E+00  0.15492211720E+02  0.51100000000E-03 0. -1.
        -11    1    4    4    0    0 -0.67695847520E+01  0.65778216753E+01  0.98329611808E+01  0.13630192279E+02  0.51100000000E-03 0.  1.
         12    1    4    4    0    0 -0.24094737062E+02  0.30263176077E+01  0.68977595258E+01  0.25244683377E+02  0.00000000000E+00 0. -1.
</event>
<event>
 8    1  0.2484572E-006  0.9118800E+02  0.7816164E-02  0.1184000E+00
        -11   -1    0    0    0    0  0.00000000000E+00  0.00000000000E+00  0.45593999997E+02  0.45594000000E+02  0.51100000000E-03 0.  1.
         11   -1    0    0    0    0 -0.00000000000E+00 -0.00000000000E+00 -0.45593999997E+02  0.45594000000E+02  0.51100000000E-03 0. -1.
         23    2    1    2    0    0  0.35527136788E-14 -0.35527136788E-14  0.44408920985E-15  0.91188000000E+02  0.91188000000E+02 0.  0.
    9900012    2    3    3    0    0 -0.26460041383E+02 -0.25422616491E+02 -0.30554801975E+01  0.54367093188E+02  0.40000020541E+02 0.  0.
         12    1    3    3    0    0  0.26460041383E+02  0.25422616491E+02  0.30554801975E+01  0.36820906812E+02  0.00000000000E+00 0. -1.
         11    1    4    4    0    0 -0.27776594510E+01 -0.10366422944E+02 -0.79411801367E+01  0.13350672601E+02  0.51100000000E-03 0. -1.
        -11    1    4    4    0    0  0.68351390376E+01 -0.42385505299E+00  0.21608298977E+00  0.68516765021E+01  0.51100000000E-03 0.  1.
        -12    1    4    4    0    0 -0.30517520970E+02 -0.14632338494E+02  0.46696169494E+01  0.34164744085E+02  0.00000000000E+00 0.  1.
</event>
<event>
 8    1  0.2484572E-006  0.9118800E+02  0.7816164E-02  0.1184000E+00
        -11   -1    0    0    0    0  0.00000000000E+00  0.00000000000E+00  0.45593999997E+02  0.45594000000E+02  0.51100000000E-03 0. -1.
         11   -1    0    0    0    0 -0.00000000000E+00 -0.00000000000E+00 -0.45593999997E+02  0.45594000000E+02  0.51100000000E-03 0.  1.
         23    2    1    2    0    0  0.00000000000E+00  0.00000000000E+00  0.17763568394E-14  0.91188000000E+02  0.91188000000E+02 0.  0.
    9900012    2    3    3    0    0  0.41829383987E+01  0.33375898260E+02  0.14977717897E+02  0.54367087576E+02  0.40000007747E+02 0.  0.
        -12    1    3    3    0    0 -0.41829383987E+01 -0.33375898260E+02 -0.14977717897E+02  0.36820912424E+02  0.00000000000E+00 0.  1.
         11    1    4    4    0    0 -0.35215698309E+01  0.17500754258E+02  0.92410216697E+01  0.20101600320E+02  0.51100000000E-03 0. -1.
        -11    1    4    4    0    0  0.66636332007E+01 -0.36036456019E+01  0.11637420650E+02  0.13885957969E+02  0.51100000000E-03 0.  1.
        -12    1    4    4    0    0  0.10408750288E+01  0.19478789604E+02 -0.59007244222E+01  0.20379529288E+02  0.00000000000E+00 0.  1.
</event>
<event>
 8    1  0.2484572E-006  0.9118800E+02  0.7816164E-02  0.1184000E+00
        -11   -1    0    0    0    0  0.00000000000E+00  0.00000000000E+00  0.45593999997E+02  0.45594000000E+02  0.51100000000E-03 0.  1.
         11   -1    0    0    0    0 -0.00000000000E+00 -0.00000000000E+00 -0.45593999997E+02  0.45594000000E+02  0.51100000000E-03 0. -1.
         23    2    1    2    0    0  0.35527136788E-14 -0.35527136788E-14  0.17763568394E-14  0.91188000000E+02  0.91188000000E+02 0.  0.
    9900012    2    3    3    0    0  0.29479462178E+02 -0.18786004005E+02  0.11568384908E+02  0.54367079776E+02  0.39999989966E+02 0.  0.
         12    1    3    3    0    0 -0.29479462178E+02  0.18786004005E+02 -0.11568384908E+02  0.36820920224E+02  0.00000000000E+00 0. -1.
         11    1    4    4    0    0  0.20100432604E+02 -0.82724195324E+01  0.62918687632E+00  0.21745256774E+02  0.51100000000E-03 0.  1.
        -11    1    4    4    0    0  0.11717551809E+01 -0.17830591334E+02  0.11597018768E+01  0.17906644192E+02  0.51100000000E-03 0. -1.
         12    1    4    4    0    0  0.82072743929E+01  0.73170068618E+01  0.97794961546E+01  0.14715178810E+02  0.00000000000E+00 0. -1.
</event>
<event>
 8    1  0.2484572E-006  0.9118800E+02  0.7816164E-02  0.1184000E+00
        -11   -1    0    0    0    0  0.00000000000E+00  0.00000000000E+00  0.45593999997E+02  0.45594000000E+02  0.51100000000E-03 0.  1.
         11   -1    0    0    0    0 -0.00000000000E+00 -0.00000000000E+00 -0.45593999997E+02  0.45594000000E+02  0.51100000000E-03 0. -1.
         23    2    1    2    0    0  0.17763568394E-14  0.17763568394E-14  0.00000000000E+00  0.91188000000E+02  0.91188000000E+02 0.  0.
    9900012    2    3    3    0    0 -0.83318656223E+01  0.12588040922E+02 -0.33584236678E+02  0.54367085940E+02  0.40000004016E+02 0.  0.
        -12    1    3    3    0    0  0.83318656223E+01 -0.12588040922E+02  0.33584236678E+02  0.36820914060E+02  0.00000000000E+00 0.  1.
         11    1    4    4    0    0 -0.87711312936E+01  0.55019329872E+01 -0.25013940223E+02  0.27072148354E+02  0.51100000000E-03 0. -1.
        -11    1    4    4    0    0 -0.47292374300E+01 -0.11797592317E+01  0.72357354975E+01  0.87242986517E+01  0.51100000000E-03 0.  1.
         12    1    4    4    0    0  0.51685031013E+01  0.82658671666E+01 -0.15806031953E+02  0.18570638934E+02  0.00000000000E+00 0. -1.
</event>
<event>
 8    1  0.2484572E-006  0.9118800E+02  0.7816164E-02  0.1184000E+00
        -11   -1    0    0    0    0  0.00000000000E+00  0.00000000000E+00  0.45593999997E+02  0.45594000000E+02  0.51100000000E-03 0.  1.
         11   -1    0    0    0    0 -0.00000000000E+00 -0.00000000000E+00 -0.45593999997E+02  0.45594000000E+02  0.51100000000E-03 0. -1.
         23    2    1    2    0    0 -0.12212453271E-14  0.00000000000E+00  0.00000000000E+00  0.91188000000E+02  0.91188000000E+02 0.  0.
    9900012    2    3    3    0    0  0.80591481857E+00  0.10995609857E+02  0.35131570940E+02  0.54367079160E+02  0.39999988561E+02 0.  0.
         12    1    3    3    0    0 -0.80591481857E+00 -0.10995609857E+02 -0.35131570940E+02  0.36820920840E+02  0.00000000000E+00 0. -1.
         11    1    4    4    0    0 -0.84577568037E+01  0.71584293129E+01  0.29468799690E+01  0.11465638325E+02  0.51100000000E-03 0. -1.
        -11    1    4    4    0    0  0.85190151711E+01 -0.62773768813E+01  0.16291087921E+01  0.10706683694E+02  0.51100000000E-03 0.  1.
        -12    1    4    4    0    0  0.74465645110E+00  0.10114557425E+02  0.30555582179E+02  0.32194757142E+02  0.00000000000E+00 0.  1.
</event>
<event>
 8    1  0.2484572E-006  0.9118800E+02  0.7816164E-02  0.1184000E+00
        -11   -1    0    0    0    0  0.00000000000E+00  0.00000000000E+00  0.45593999997E+02  0.45594000000E+02  0.51100000000E-03 0. -1.
         11   -1    0    0    0    0 -0.00000000000E+00 -0.00000000000E+00 -0.45593999997E+02  0.45594000000E+02  0.51100000000E-03 0.  1.
         23    2    1    2    0    0  0.00000000000E+00  0.17763568394E-14  0.00000000000E+00  0.91188000000E+02  0.91188000000E+02 0.  0.
    9900012    2    3    3    0    0 -0.24181272823E+02  0.15630059831E+02  0.22951041889E+02  0.54367040623E+02  0.39999900708E+02 0.  0.
        -12    1    3    3    0    0  0.24181272823E+02 -0.15630059831E+02 -0.22951041889E+02  0.36820959377E+02  0.00000000000E+00 0.  1.
         11    1    4    4    0    0 -0.17229694854E+02  0.16795697273E+02  0.59988424483E+01  0.24798063284E+02  0.51100000000E-03 0. -1.
        -11    1    4    4    0    0 -0.13606097561E+02 -0.45296971582E+01  0.44550523153E+01  0.15016375680E+02  0.51100000000E-03 0.  1.
        -12    1    4    4    0    0  0.66545195916E+01  0.33640597160E+01  0.12497147125E+02  0.14552601659E+02  0.00000000000E+00 0.  1.
</event>
<event>
 8    1  0.2484572E-006  0.9118800E+02  0.7816164E-02  0.1184000E+00
        -11   -1    0    0    0    0  0.00000000000E+00  0.00000000000E+00  0.45593999997E+02  0.45594000000E+02  0.51100000000E-03 0.  1.
         11   -1    0    0    0    0 -0.00000000000E+00 -0.00000000000E+00 -0.45593999997E+02  0.45594000000E+02  0.51100000000E-03 0. -1.
         23    2    1    2    0    0  0.17763568394E-14  0.00000000000E+00 -0.17763568394E-14  0.91188000000E+02  0.91188000000E+02 0.  0.
    9900012    2    3    3    0    0  0.11048227457E+02 -0.33268777329E+02  0.11265065081E+02  0.54367128661E+02  0.40000101409E+02 0.  0.
         12    1    3    3    0    0 -0.11048227457E+02  0.33268777329E+02 -0.11265065081E+02  0.36820871339E+02  0.00000000000E+00 0. -1.
         11    1    4    4    0    0  0.61676618970E+01  0.50554705010E+01  0.52211123827E+01  0.95319384197E+01  0.51100000000E-03 0. -1.
        -11    1    4    4    0    0 -0.74890298483E+01 -0.13066590339E+02  0.71880156675E+01  0.16687987316E+02  0.51100000000E-03 0.  1.
         12    1    4    4    0    0  0.12369595408E+02 -0.25257657491E+02 -0.11440629696E+01  0.28147202926E+02  0.00000000000E+00 0. -1.
</event>
<event>
 8    1  0.2484572E-006  0.9118800E+02  0.7816164E-02  0.1184000E+00
        -11   -1    0    0    0    0  0.00000000000E+00  0.00000000000E+00  0.45593999997E+02  0.45594000000E+02  0.51100000000E-03 0.  1.
         11   -1    0    0    0    0 -0.00000000000E+00 -0.00000000000E+00 -0.45593999997E+02  0.45594000000E+02  0.51100000000E-03 0. -1.
         23    2    1    2    0    0 -0.35527136788E-14 -0.17763568394E-14  0.35527136788E-14  0.91188000000E+02  0.91188000000E+02 0.  0.
    9900012    2    3    3    0    0  0.17041400024E+02  0.15344022491E+02 -0.28808543792E+02  0.54367074748E+02  0.39999978503E+02 0.  0.
        -12    1    3    3    0    0 -0.17041400024E+02 -0.15344022491E+02  0.28808543792E+02  0.36820925252E+02  0.00000000000E+00 0.  1.
         11    1    4    4    0    0  0.64790188336E+01  0.15702720318E+02 -0.24885248270E+01  0.17168164331E+02  0.51100000000E-03 0. -1.
        -11    1    4    4    0    0  0.32738880136E+00  0.35649386789E+01  0.37553531032E+01  0.51883184562E+01  0.51100000000E-03 0.  1.
        -12    1    4    4    0    0  0.10234992389E+02 -0.39236365053E+01 -0.30075372069E+02  0.32010591961E+02  0.00000000000E+00 0.  1.
</event>
<event>
 8    1  0.2484572E-006  0.9118800E+02  0.7816164E-02  0.1184000E+00
        -11   -1    0    0    0    0  0.00000000000E+00  0.00000000000E+00  0.45593999997E+02  0.45594000000E+02  0.51100000000E-03 0. -1.
         11   -1    0    0    0    0 -0.00000000000E+00 -0.00000000000E+00 -0.45593999997E+02  0.45594000000E+02  0.51100000000E-03 0.  1.
         23    2    1    2    0    0  0.35527136788E-14  0.00000000000E+00  0.35527136788E-14  0.91188000000E+02  0.91188000000E+02 0.  0.
    9900012    2    3    3    0    0  0.24879422420E+02 -0.94930053169E+00  0.27127339323E+02  0.54367090584E+02  0.40000014605E+02 0.  0.
        -12    1    3    3    0    0 -0.24879422420E+02  0.94930053169E+00 -0.27127339323E+02  0.36820909416E+02  0.00000000000E+00 0.  1.
         11    1    4    4    0    0 -0.41121710819E+01  0.21542851742E+01  0.12313074526E+02  0.13159129917E+02  0.51100000000E-03 0. -1.
        -11    1    4    4    0    0 -0.12077402811E+01 -0.15566183143E+01 -0.47837624526E+01  0.51735945557E+01  0.51100000000E-03 0.  1.
        -12    1    4    4    0    0  0.30199333783E+02 -0.15469673916E+01  0.19598027250E+02  0.36034366112E+02  0.00000000000E+00 0.  1.
</event>
<event>
 8    1  0.2484572E-006  0.9118800E+02  0.7816164E-02  0.1184000E+00
        -11   -1    0    0    0    0  0.00000000000E+00  0.00000000000E+00  0.45593999997E+02  0.45594000000E+02  0.51100000000E-03 0.  1.
         11   -1    0    0    0    0 -0.00000000000E+00 -0.00000000000E+00 -0.45593999997E+02  0.45594000000E+02  0.51100000000E-03 0. -1.
         23    2    1    2    0    0  0.00000000000E+00  0.00000000000E+00  0.26645352591E-14  0.91188000000E+02  0.91188000000E+02 0.  0.
    9900012    2    3    3    0    0  0.34825713886E+02 -0.99630388260E+01  0.66095858146E+01  0.54367094050E+02  0.40000022506E+02 0.  0.
         12    1    3    3    0    0 -0.34825713886E+02  0.99630388260E+01 -0.66095858146E+01  0.36820905950E+02  0.00000000000E+00 0. -1.
         11    1    4    4    0    0  0.38777565774E+01 -0.36249290451E+01 -0.48924138031E+01  0.72189209538E+01  0.51100000000E-03 0. -1.
        -11    1    4    4    0    0  0.46857191688E+01 -0.21080420904E+00  0.18665163570E+02  0.19245486066E+02  0.51100000000E-03 0.  1.
        -12    1    4    4    0    0  0.26262238140E+02 -0.61273055719E+01 -0.71631639527E+01  0.27902687030E+02  0.00000000000E+00 0.  1.
</event>
<event>
 8    1  0.2484572E-006  0.9118800E+02  0.7816164E-02  0.1184000E+00
        -11   -1    0    0    0    0  0.00000000000E+00  0.00000000000E+00  0.45593999997E+02  0.45594000000E+02  0.51100000000E-03 0.  1.
         11   -1    0    0    0    0 -0.00000000000E+00 -0.00000000000E+00 -0.45593999997E+02  0.45594000000E+02  0.51100000000E-03 0. -1.
         23    2    1    2    0    0  0.00000000000E+00  0.00000000000E+00  0.00000000000E+00  0.91188000000E+02  0.91188000000E+02 0.  0.
    9900012    2    3    3    0    0  0.29271507819E+02  0.16262272389E+02 -0.15313314189E+02  0.54367078437E+02  0.39999986913E+02 0.  0.
        -12    1    3    3    0    0 -0.29271507819E+02 -0.16262272389E+02  0.15313314189E+02  0.36820921563E+02  0.00000000000E+00 0.  1.
         11    1    4    4    0    0  0.27365349377E+01 -0.66961183333E+01 -0.49513782208E+01  0.87660008410E+01  0.51100000000E-03 0. -1.
        -11    1    4    4    0    0  0.25250195593E+02  0.26552455813E+02 -0.23385742244E+01  0.36716130200E+02  0.51100000000E-03 0.  1.
        -12    1    4    4    0    0  0.12847772884E+01 -0.35940650908E+01 -0.80233617442E+01  0.88849473964E+01  0.00000000000E+00 0.  1.
</event>
<event>
 8    1  0.2484572E-006  0.9118800E+02  0.7816164E-02  0.1184000E+00
        -11   -1    0    0    0    0  0.00000000000E+00  0.00000000000E+00  0.45593999997E+02  0.45594000000E+02  0.51100000000E-03 0.  1.
         11   -1    0    0    0    0 -0.00000000000E+00 -0.00000000000E+00 -0.45593999997E+02  0.45594000000E+02  0.51100000000E-03 0. -1.
         23    2    1    2    0    0  0.00000000000E+00  0.00000000000E+00  0.00000000000E+00  0.91188000000E+02  0.91188000000E+02 0.  0.
    9900012    2    3    3    0    0 -0.29615893080E+02 -0.49058936173E+01  0.21321615965E+02  0.54367079011E+02  0.39999988221E+02 0.  0.
         12    1    3    3    0    0  0.29615893080E+02  0.49058936173E+01 -0.21321615965E+02  0.36820920989E+02  0.00000000000E+00 0. -1.
         11    1    4    4    0    0 -0.27105702377E+02  0.11539895738E+02  0.30464648810E+01  0.29617043125E+02  0.51100000000E-03 0. -1.
        -11    1    4    4    0    0 -0.63449772673E+00 -0.82690698278E+01  0.86941750281E+01  0.12015356127E+02  0.51100000000E-03 0.  1.
         12    1    4    4    0    0 -0.18756929771E+01 -0.81767195271E+01  0.95809760556E+01  0.12734679758E+02  0.00000000000E+00 0. -1.
</event>
<event>
 8    1  0.2484572E-006  0.9118800E+02  0.7816164E-02  0.1184000E+00
        -11   -1    0    0    0    0  0.00000000000E+00  0.00000000000E+00  0.45593999997E+02  0.45594000000E+02  0.51100000000E-03 0.  1.
         11   -1    0    0    0    0 -0.00000000000E+00 -0.00000000000E+00 -0.45593999997E+02  0.45594000000E+02  0.51100000000E-03 0. -1.
         23    2    1    2    0    0  0.00000000000E+00 -0.35527136788E-14  0.00000000000E+00  0.91188000000E+02  0.91188000000E+02 0.  0.
    9900012    2    3    3    0    0 -0.13261151244E+02  0.28106560733E+02  0.19746980034E+02  0.54367080551E+02  0.39999991733E+02 0.  0.
         12    1    3    3    0    0  0.13261151244E+02 -0.28106560733E+02 -0.19746980034E+02  0.36820919449E+02  0.00000000000E+00 0. -1.
         11    1    4    4    0    0 -0.12161864748E+02  0.30726792340E+02  0.25776978379E+02  0.41910611261E+02  0.51100000000E-03 0. -1.
        -11    1    4    4    0    0 -0.35647232093E+01  0.14982463028E+01 -0.65727940333E+01  0.76258517694E+01  0.51100000000E-03 0.  1.
         12    1    4    4    0    0  0.24654367133E+01 -0.41184779094E+01  0.54279568826E+00  0.48306175212E+01  0.00000000000E+00 0. -1.
</event>
<event>
 8    1  0.2484572E-006  0.9118800E+02  0.7816164E-02  0.1184000E+00
        -11   -1    0    0    0    0  0.00000000000E+00  0.00000000000E+00  0.45593999997E+02  0.45594000000E+02  0.51100000000E-03 0. -1.
         11   -1    0    0    0    0 -0.00000000000E+00 -0.00000000000E+00 -0.45593999997E+02  0.45594000000E+02  0.51100000000E-03 0.  1.
         23    2    1    2    0    0  0.00000000000E+00  0.66613381478E-15  0.88817841970E-15  0.91188000000E+02  0.91188000000E+02 0.  0.
    9900012    2    3    3    0    0  0.36556327684E+02 -0.18726511753E+01 -0.39886132002E+01  0.54367069112E+02  0.39999965655E+02 0.  0.
         12    1    3    3    0    0 -0.36556327684E+02  0.18726511753E+01  0.39886132002E+01  0.36820930888E+02  0.00000000000E+00 0. -1.
         11    1    4    4    0    0  0.14772464437E+02  0.11401110577E+02 -0.87246994418E+01  0.20599306021E+02  0.51100000000E-03 0.  1.
        -11    1    4    4    0    0  0.18903318564E+02 -0.18333668438E+02  0.11409420777E+00  0.26333854046E+02  0.51100000000E-03 0. -1.
         12    1    4    4    0    0  0.28805446832E+01  0.50599066861E+01  0.46219920339E+01  0.74339090460E+01  0.00000000000E+00 0. -1.
</event>
<event>
 8    1  0.2484572E-006  0.9118800E+02  0.7816164E-02  0.1184000E+00
        -11   -1    0    0    0    0  0.00000000000E+00  0.00000000000E+00  0.45593999997E+02  0.45594000000E+02  0.51100000000E-03 0. -1.
         11   -1    0    0    0    0 -0.00000000000E+00 -0.00000000000E+00 -0.45593999997E+02  0.45594000000E+02  0.51100000000E-03 0.  1.
         23    2    1    2    0    0  0.00000000000E+00  0.35527136788E-14  0.35527136788E-14  0.91188000000E+02  0.91188000000E+02 0.  0.
    9900012    2    3    3    0    0  0.20492968408E+02  0.17010805528E+02 -0.25425416004E+02  0.54367067939E+02  0.39999962980E+02 0.  0.
         12    1    3    3    0    0 -0.20492968408E+02 -0.17010805528E+02  0.25425416004E+02  0.36820932061E+02  0.00000000000E+00 0. -1.
         11    1    4    4    0    0 -0.28393888762E+01  0.14991064182E+01  0.30619671765E+00  0.32254001200E+01  0.51100000000E-03 0. -1.
        -11    1    4    4    0    0  0.56982671547E+01  0.18217809301E+02  0.87402283881E+00  0.19108185169E+02  0.51100000000E-03 0.  1.
        -12    1    4    4    0    0  0.17634090129E+02 -0.27061101908E+01 -0.26605635561E+02  0.32033482649E+02  0.00000000000E+00 0.  1.
</event>
<event>
 8    1  0.2484572E-006  0.9118800E+02  0.7816164E-02  0.1184000E+00
        -11   -1    0    0    0    0  0.00000000000E+00  0.00000000000E+00  0.45593999997E+02  0.45594000000E+02  0.51100000000E-03 0.  1.
         11   -1    0    0    0    0 -0.00000000000E+00 -0.00000000000E+00 -0.45593999997E+02  0.45594000000E+02  0.51100000000E-03 0. -1.
         23    2    1    2    0    0  0.00000000000E+00  0.22204460493E-15  0.00000000000E+00  0.91188000000E+02  0.91188000000E+02 0.  0.
    9900012    2    3    3    0    0  0.35972789807E+02 -0.56082190493E+00 -0.78374623433E+01  0.54367055638E+02  0.39999934938E+02 0.  0.
        -12    1    3    3    0    0 -0.35972789807E+02  0.56082190493E+00  0.78374623433E+01  0.36820944362E+02  0.00000000000E+00 0.  1.
         11    1    4    4    0    0  0.36469928797E+02  0.60206191293E+01 -0.93598117143E+01  0.38130167017E+02  0.51100000000E-03 0. -1.
        -11    1    4    4    0    0  0.56344876595E+00 -0.27402517331E+00  0.74739645732E+01  0.75001807319E+01  0.51100000000E-03 0.  1.
         12    1    4    4    0    0 -0.10605877553E+01 -0.63074158610E+01 -0.59516152023E+01  0.87367078895E+01  0.00000000000E+00 0. -1.
</event>
<event>
 8    1  0.2484572E-006  0.9118800E+02  0.7816164E-02  0.1184000E+00
        -11   -1    0    0    0    0  0.00000000000E+00  0.00000000000E+00  0.45593999997E+02  0.45594000000E+02  0.51100000000E-03 0. -1.
         11   -1    0    0    0    0 -0.00000000000E+00 -0.00000000000E+00 -0.45593999997E+02  0.45594000000E+02  0.51100000000E-03 0.  1.
         23    2    1    2    0    0  0.66613381478E-15 -0.17763568394E-14  0.71054273576E-14  0.91188000000E+02  0.91188000000E+02 0.  0.
    9900012    2    3    3    0    0  0.15379606715E+01 -0.14649160911E+02  0.33746369685E+02  0.54367072455E+02  0.39999973275E+02 0.  0.
        -12    1    3    3    0    0 -0.15379606715E+01  0.14649160911E+02 -0.33746369685E+02  0.36820927545E+02  0.00000000000E+00 0.  1.
         11    1    4    4    0    0  0.67212433633E+01  0.24918272061E+00 -0.27222989438E+01  0.72559021615E+01  0.51100000000E-03 0. -1.
        -11    1    4    4    0    0  0.55321157068E+01 -0.53520846739E+01 -0.23574969183E+00  0.77009540142E+01  0.51100000000E-03 0.  1.
         12    1    4    4    0    0 -0.10715398399E+02 -0.95462589572E+01  0.36704418320E+02  0.39410216279E+02  0.00000000000E+00 0. -1.
</event>
<event>
 8    1  0.2484572E-006  0.9118800E+02  0.7816164E-02  0.1184000E+00
        -11   -1    0    0    0    0  0.00000000000E+00  0.00000000000E+00  0.45593999997E+02  0.45594000000E+02  0.51100000000E-03 0.  1.
         11   -1    0    0    0    0 -0.00000000000E+00 -0.00000000000E+00 -0.45593999997E+02  0.45594000000E+02  0.51100000000E-03 0. -1.
         23    2    1    2    0    0  0.00000000000E+00  0.00000000000E+00  0.00000000000E+00  0.91188000000E+02  0.91188000000E+02 0.  0.
    9900012    2    3    3    0    0 -0.44984201441E+01 -0.84192777953E+01 -0.35562052861E+02  0.54367087109E+02  0.40000006683E+02 0.  0.
        -12    1    3    3    0    0  0.44984201441E+01  0.84192777953E+01  0.35562052861E+02  0.36820912891E+02  0.00000000000E+00 0.  1.
         11    1    4    4    0    0  0.76018391774E+01  0.11233253486E+02 -0.12935019287E+02  0.18742696363E+02  0.51100000000E-03 0.  1.
        -11    1    4    4    0    0 -0.10164432437E+02 -0.15821482634E+02 -0.24546892782E+02  0.30922240297E+02  0.51100000000E-03 0. -1.
        -12    1    4    4    0    0 -0.19358268841E+01 -0.38310486475E+01  0.19198592073E+01  0.47021504485E+01  0.00000000000E+00 0.  1.
</event>
<event>
 8    1  0.2484572E-006  0.9118800E+02  0.7816164E-02  0.1184000E+00
        -11   -1    0    0    0    0  0.00000000000E+00  0.00000000000E+00  0.45593999997E+02  0.45594000000E+02  0.51100000000E-03 0.  1.
         11   -1    0    0    0    0 -0.00000000000E+00 -0.00000000000E+00 -0.45593999997E+02  0.45594000000E+02  0.51100000000E-03 0. -1.
         23    2    1    2    0    0  0.35527136788E-14  0.00000000000E+00  0.35527136788E-14  0.91188000000E+02  0.91188000000E+02 0.  0.
    9900012    2    3    3    0    0  0.26157927507E+02  0.94160264251E+01  0.24142944035E+02  0.54367075626E+02  0.39999980504E+02 0.  0.
         12    1    3    3    0    0 -0.26157927507E+02 -0.94160264251E+01 -0.24142944035E+02  0.36820924374E+02  0.00000000000E+00 0. -1.
         11    1    4    4    0    0 -0.41594618624E+01  0.13174512139E+01 -0.64115105282E+01  0.77552735735E+01  0.51100000000E-03 0. -1.
        -11    1    4    4    0    0  0.70931626624E+01  0.78818948680E+01  0.39985069874E+01  0.11332487885E+02  0.51100000000E-03 0.  1.
         12    1    4    4    0    0  0.23224226707E+02  0.21668034320E+00  0.26555947575E+02  0.35279314168E+02  0.00000000000E+00 0. -1.
</event>
<event>
 8    1  0.2484572E-006  0.9118800E+02  0.7816164E-02  0.1184000E+00
        -11   -1    0    0    0    0  0.00000000000E+00  0.00000000000E+00  0.45593999997E+02  0.45594000000E+02  0.51100000000E-03 0. -1.
         11   -1    0    0    0    0 -0.00000000000E+00 -0.00000000000E+00 -0.45593999997E+02  0.45594000000E+02  0.51100000000E-03 0.  1.
         23    2    1    2    0    0  0.00000000000E+00 -0.17763568394E-14 -0.71054273576E-14  0.91188000000E+02  0.91188000000E+02 0.  0.
    9900012    2    3    3    0    0 -0.10611835405E+02  0.13160486278E+02  0.32710403563E+02  0.54367082697E+02  0.39999996625E+02 0.  0.
        -12    1    3    3    0    0  0.10611835405E+02 -0.13160486278E+02 -0.32710403563E+02  0.36820917303E+02  0.00000000000E+00 0.  1.
         11    1    4    4    0    0 -0.59491016935E+01  0.32169543471E+01  0.21948561905E+02  0.22966932233E+02  0.51100000000E-03 0. -1.
        -11    1    4    4    0    0 -0.41264619939E+00  0.79795929015E+01  0.19728277512E+02  0.21284950402E+02  0.51100000000E-03 0.  1.
        -12    1    4    4    0    0 -0.42500875119E+01  0.19639390291E+01 -0.89664358541E+01  0.10115200062E+02  0.00000000000E+00 0.  1.
</event>
<event>
 8    1  0.2484572E-006  0.9118800E+02  0.7816164E-02  0.1184000E+00
        -11   -1    0    0    0    0  0.00000000000E+00  0.00000000000E+00  0.45593999997E+02  0.45594000000E+02  0.51100000000E-03 0. -1.
         11   -1    0    0    0    0 -0.00000000000E+00 -0.00000000000E+00 -0.45593999997E+02  0.45594000000E+02  0.51100000000E-03 0.  1.
         23    2    1    2    0    0  0.77715611724E-15  0.35527136788E-14  0.00000000000E+00  0.91188000000E+02  0.91188000000E+02 0.  0.
    9900012    2    3    3    0    0 -0.99259543474E+00  0.30166487175E+02 -0.21089514461E+02  0.54367220345E+02  0.40000310420E+02 0.  0.
         12    1    3    3    0    0  0.99259543474E+00 -0.30166487175E+02  0.21089514461E+02  0.36820779655E+02  0.00000000000E+00 0. -1.
         11    1    4    4    0    0  0.25133112483E+00 -0.62395257565E+01 -0.25999586454E+01  0.67642171919E+01  0.51100000000E-03 0. -1.
        -11    1    4    4    0    0 -0.99773756772E+01  0.32249085200E+02 -0.17067966083E+02  0.37826802510E+02  0.51100000000E-03 0.  1.
        -12    1    4    4    0    0  0.87334491176E+01  0.41569277312E+01 -0.14215897323E+01  0.97762006434E+01  0.00000000000E+00 0.  1.
</event>
<event>
 8    1  0.2484572E-006  0.9118800E+02  0.7816164E-02  0.1184000E+00
        -11   -1    0    0    0    0  0.00000000000E+00  0.00000000000E+00  0.45593999997E+02  0.45594000000E+02  0.51100000000E-03 0. -1.
         11   -1    0    0    0    0 -0.00000000000E+00 -0.00000000000E+00 -0.45593999997E+02  0.45594000000E+02  0.51100000000E-03 0.  1.
         23    2    1    2    0    0  0.00000000000E+00  0.00000000000E+00  0.00000000000E+00  0.91188000000E+02  0.91188000000E+02 0.  0.
    9900012    2    3    3    0    0  0.23885758279E+02  0.77157611460E+01  0.26939158026E+02  0.54367073154E+02  0.39999974869E+02 0.  0.
        -12    1    3    3    0    0 -0.23885758279E+02 -0.77157611460E+01 -0.26939158026E+02  0.36820926846E+02  0.00000000000E+00 0.  1.
         11    1    4    4    0    0  0.15467407577E+02 -0.96967648152E+01  0.69879989066E+01  0.19547380234E+02  0.51100000000E-03 0. -1.
        -11    1    4    4    0    0  0.11664168895E+02  0.87758462347E+01  0.21295585708E+01  0.14751384108E+02  0.51100000000E-03 0.  1.
        -12    1    4    4    0    0 -0.32458181930E+01  0.86366797264E+01  0.17821600549E+02  0.20068308812E+02  0.00000000000E+00 0.  1.
</event>
<event>
 8    1  0.2484572E-006  0.9118800E+02  0.7816164E-02  0.1184000E+00
        -11   -1    0    0    0    0  0.00000000000E+00  0.00000000000E+00  0.45593999997E+02  0.45594000000E+02  0.51100000000E-03 0.  1.
         11   -1    0    0    0    0 -0.00000000000E+00 -0.00000000000E+00 -0.45593999997E+02  0.45594000000E+02  0.51100000000E-03 0. -1.
         23    2    1    2    0    0  0.00000000000E+00  0.00000000000E+00 -0.17763568394E-14  0.91188000000E+02  0.91188000000E+02 0.  0.
    9900012    2    3    3    0    0  0.33097127424E+02 -0.95736185402E+01 -0.12988845663E+02  0.54367025986E+02  0.39999867341E+02 0.  0.
        -12    1    3    3    0    0 -0.33097127424E+02  0.95736185402E+01  0.12988845663E+02  0.36820974014E+02  0.00000000000E+00 0.  1.
         11    1    4    4    0    0  0.26478652209E+02 -0.83682690619E+00 -0.17900533253E+02  0.31972619428E+02  0.51100000000E-03 0. -1.
        -11    1    4    4    0    0  0.75968212313E+01 -0.14173788412E+02  0.21696224035E+01  0.16226990861E+02  0.51100000000E-03 0.  1.
        -12    1    4    4    0    0 -0.97834601651E+00  0.54369967782E+01  0.27420651863E+01  0.61674156971E+01  0.00000000000E+00 0.  1.
</event>
<event>
 8    1  0.2484572E-006  0.9118800E+02  0.7816164E-02  0.1184000E+00
        -11   -1    0    0    0    0  0.00000000000E+00  0.00000000000E+00  0.45593999997E+02  0.45594000000E+02  0.51100000000E-03 0. -1.
         11   -1    0    0    0    0 -0.00000000000E+00 -0.00000000000E+00 -0.45593999997E+02  0.45594000000E+02  0.51100000000E-03 0.  1.
         23    2    1    2    0    0 -0.35527136788E-14  0.35527136788E-14 -0.35527136788E-14  0.91188000000E+02  0.91188000000E+02 0.  0.
    9900012    2    3    3    0    0  0.22097540873E+02 -0.21605223307E+02  0.20017315348E+02  0.54367083383E+02  0.39999998188E+02 0.  0.
        -12    1    3    3    0    0 -0.22097540873E+02  0.21605223307E+02 -0.20017315348E+02  0.36820916617E+02  0.00000000000E+00 0.  1.
         11    1    4    4    0    0  0.19593491297E+02 -0.59722061662E+01 -0.48538353742E+01  0.21050697513E+02  0.51100000000E-03 0.  1.
        -11    1    4    4    0    0  0.74062496613E+01 -0.94599160460E+01  0.21731275994E+02  0.24831248503E+02  0.51100000000E-03 0. -1.
        -12    1    4    4    0    0 -0.49022000856E+01 -0.61731010950E+01  0.31398747283E+01  0.84851373659E+01  0.00000000000E+00 0.  1.
</event>
<event>
 8    1  0.2484572E-006  0.9118800E+02  0.7816164E-02  0.1184000E+00
        -11   -1    0    0    0    0  0.00000000000E+00  0.00000000000E+00  0.45593999997E+02  0.45594000000E+02  0.51100000000E-03 0.  1.
         11   -1    0    0    0    0 -0.00000000000E+00 -0.00000000000E+00 -0.45593999997E+02  0.45594000000E+02  0.51100000000E-03 0. -1.
         23    2    1    2    0    0  0.66613381478E-15  0.00000000000E+00 -0.17763568394E-14  0.91188000000E+02  0.91188000000E+02 0.  0.
    9900012    2    3    3    0    0 -0.19975100220E+01 -0.36451226076E+02  0.48059408598E+01  0.54367095662E+02  0.40000026180E+02 0.  0.
        -12    1    3    3    0    0  0.19975100220E+01  0.36451226076E+02 -0.48059408598E+01  0.36820904338E+02  0.00000000000E+00 0.  1.
         11    1    4    4    0    0  0.24280283166E+01 -0.30510404860E+02  0.12903812893E+02  0.33215787115E+02  0.51100000000E-03 0.  1.
        -11    1    4    4    0    0  0.27563872608E+01 -0.49147069558E+01 -0.11748345969E+02  0.13029798481E+02  0.51100000000E-03 0. -1.
        -12    1    4    4    0    0 -0.71819255993E+01 -0.10261142600E+01  0.36504739358E+01  0.81215100655E+01  0.00000000000E+00 0.  1.
</event>
<event>
 8    1  0.2484572E-006  0.9118800E+02  0.7816164E-02  0.1184000E+00
        -11   -1    0    0    0    0  0.00000000000E+00  0.00000000000E+00  0.45593999997E+02  0.45594000000E+02  0.51100000000E-03 0.  1.
         11   -1    0    0    0    0 -0.00000000000E+00 -0.00000000000E+00 -0.45593999997E+02  0.45594000000E+02  0.51100000000E-03 0. -1.
         23    2    1    2    0    0  0.00000000000E+00  0.00000000000E+00 -0.35527136788E-14  0.91188000000E+02  0.91188000000E+02 0.  0.
    9900012    2    3    3    0    0  0.19802735320E+02 -0.18985809261E+02 -0.24559511541E+02  0.54367097151E+02  0.40000029576E+02 0.  0.
        -12    1    3    3    0    0 -0.19802735320E+02  0.18985809261E+02  0.24559511541E+02  0.36820902849E+02  0.00000000000E+00 0.  1.
         11    1    4    4    0    0  0.35885780044E+01 -0.19817617835E+01 -0.93168387772E+01  0.10178838682E+02  0.51100000000E-03 0. -1.
        -11    1    4    4    0    0  0.22880520264E+02 -0.17507154938E+01 -0.15230474973E+02  0.27541796972E+02  0.51100000000E-03 0.  1.
        -12    1    4    4    0    0 -0.66663629487E+01 -0.15253331984E+02 -0.12197790874E-01  0.16646461496E+02  0.00000000000E+00 0.  1.
</event>
<event>
 8    1  0.2484572E-006  0.9118800E+02  0.7816164E-02  0.1184000E+00
        -11   -1    0    0    0    0  0.00000000000E+00  0.00000000000E+00  0.45593999997E+02  0.45594000000E+02  0.51100000000E-03 0. -1.
         11   -1    0    0    0    0 -0.00000000000E+00 -0.00000000000E+00 -0.45593999997E+02  0.45594000000E+02  0.51100000000E-03 0.  1.
         23    2    1    2    0    0  0.00000000000E+00 -0.35527136788E-14  0.00000000000E+00  0.91188000000E+02  0.91188000000E+02 0.  0.
    9900012    2    3    3    0    0 -0.20215654640E+02 -0.26528137658E+02  0.15600170032E+02  0.54367080875E+02  0.39999992471E+02 0.  0.
         12    1    3    3    0    0  0.20215654640E+02  0.26528137658E+02 -0.15600170032E+02  0.36820919125E+02  0.00000000000E+00 0. -1.
         11    1    4    4    0    0 -0.95735037839E+01 -0.32553212782E+00  0.77760474502E+01  0.12337943916E+02  0.51100000000E-03 0. -1.
        -11    1    4    4    0    0 -0.10172193841E+02  0.40936872188E+01  0.13800934791E+01  0.11051536584E+02  0.51100000000E-03 0.  1.
         12    1    4    4    0    0 -0.46995701527E+00 -0.30296292749E+02  0.64440291028E+01  0.30977600375E+02  0.00000000000E+00 0. -1.
</event>
<event>
 8    1  0.2484572E-006  0.9118800E+02  0.7816164E-02  0.1184000E+00
        -11   -1    0    0    0    0  0.00000000000E+00  0.00000000000E+00  0.45593999997E+02  0.45594000000E+02  0.51100000000E-03 0. -1.
         11   -1    0    0    0    0 -0.00000000000E+00 -0.00000000000E+00 -0.45593999997E+02  0.45594000000E+02  0.51100000000E-03 0.  1.
         23    2    1    2    0    0  0.00000000000E+00  0.35527136788E-14  0.17763568394E-14  0.91188000000E+02  0.91188000000E+02 0.  0.
    9900012    2    3    3    0    0  0.32141304623E+02 -0.16513072871E+02  0.70732077827E+01  0.54367145762E+02  0.40000140393E+02 0.  0.
        -12    1    3    3    0    0 -0.32141304623E+02  0.16513072871E+02 -0.70732077827E+01  0.36820854238E+02  0.00000000000E+00 0.  1.
         11    1    4    4    0    0  0.27071799157E+02 -0.94116716909E+01  0.11103749789E+02  0.30736869282E+02  0.51100000000E-03 0. -1.
        -11    1    4    4    0    0  0.13485285075E+01  0.41363262281E+01 -0.96059764862E+01  0.10545259993E+02  0.51100000000E-03 0.  1.
         12    1    4    4    0    0  0.37209769579E+01 -0.11237727408E+02  0.55754344803E+01  0.13085016487E+02  0.00000000000E+00 0. -1.
</event>
<event>
 8    1  0.2484572E-006  0.9118800E+02  0.7816164E-02  0.1184000E+00
        -11   -1    0    0    0    0  0.00000000000E+00  0.00000000000E+00  0.45593999997E+02  0.45594000000E+02  0.51100000000E-03 0.  1.
         11   -1    0    0    0    0 -0.00000000000E+00 -0.00000000000E+00 -0.45593999997E+02  0.45594000000E+02  0.51100000000E-03 0. -1.
         23    2    1    2    0    0 -0.13322676296E-14 -0.13322676296E-14  0.71054273576E-14  0.91188000000E+02  0.91188000000E+02 0.  0.
    9900012    2    3    3    0    0 -0.10072426196E+01  0.32220085723E+01 -0.36665838866E+02  0.54367087237E+02  0.40000006974E+02 0.  0.
        -12    1    3    3    0    0  0.10072426196E+01 -0.32220085723E+01  0.36665838866E+02  0.36820912763E+02  0.00000000000E+00 0.  1.
         11    1    4    4    0    0  0.84861384620E+01 -0.55161177499E+01 -0.30175294712E+01  0.10561609034E+02  0.51100000000E-03 0. -1.
        -11    1    4    4    0    0 -0.90464164715E+01  0.12068505079E+02 -0.64559226250E+01  0.16406261092E+02  0.51100000000E-03 0.  1.
         12    1    4    4    0    0 -0.44696461013E+00 -0.33303787569E+01 -0.27192386770E+02  0.27399217111E+02  0.00000000000E+00 0. -1.
</event>
<event>
 8    1  0.2484572E-006  0.9118800E+02  0.7816164E-02  0.1184000E+00
        -11   -1    0    0    0    0  0.00000000000E+00  0.00000000000E+00  0.45593999997E+02  0.45594000000E+02  0.51100000000E-03 0.  1.
         11   -1    0    0    0    0 -0.00000000000E+00 -0.00000000000E+00 -0.45593999997E+02  0.45594000000E+02  0.51100000000E-03 0. -1.
         23    2    1    2    0    0  0.00000000000E+00  0.00000000000E+00  0.00000000000E+00  0.91188000000E+02  0.91188000000E+02 0.  0.
    9900012    2    3    3    0    0 -0.28506639583E+02  0.10761197712E+02 -0.20672359605E+02  0.54367104734E+02  0.40000046863E+02 0.  0.
         12    1    3    3    0    0  0.28506639583E+02 -0.10761197712E+02  0.20672359605E+02  0.36820895266E+02  0.00000000000E+00 0. -1.
         11    1    4    4    0    0  0.22570336018E+01  0.10520628709E+01 -0.26997540494E+01  0.36728339401E+01  0.51100000000E-03 0. -1.
        -11    1    4    4    0    0 -0.67077509646E+01  0.13478858999E+02 -0.21336407628E+02  0.26113518599E+02  0.51100000000E-03 0.  1.
        -12    1    4    4    0    0 -0.24055922221E+02 -0.37697241576E+01  0.33638020719E+01  0.24580752195E+02  0.00000000000E+00 0.  1.
</event>
<event>
 8    1  0.2484572E-006  0.9118800E+02  0.7816164E-02  0.1184000E+00
        -11   -1    0    0    0    0  0.00000000000E+00  0.00000000000E+00  0.45593999997E+02  0.45594000000E+02  0.51100000000E-03 0. -1.
         11   -1    0    0    0    0 -0.00000000000E+00 -0.00000000000E+00 -0.45593999997E+02  0.45594000000E+02  0.51100000000E-03 0.  1.
         23    2    1    2    0    0  0.00000000000E+00  0.00000000000E+00  0.00000000000E+00  0.91188000000E+02  0.91188000000E+02 0.  0.
    9900012    2    3    3    0    0  0.35188514892E+02 -0.73077922441E+01  0.80090135682E+01  0.54367086022E+02  0.40000004205E+02 0.  0.
         12    1    3    3    0    0 -0.35188514892E+02  0.73077922441E+01 -0.80090135682E+01  0.36820913978E+02  0.00000000000E+00 0. -1.
         11    1    4    4    0    0 -0.86435875938E+01 -0.24019642448E+01  0.11248467683E+01  0.90413671111E+01  0.51100000000E-03 0.  1.
        -11    1    4    4    0    0  0.16860169027E+02 -0.57358230161E+01  0.31017649922E+01  0.18077220794E+02  0.51100000000E-03 0. -1.
        -12    1    4    4    0    0  0.26971933459E+02  0.82999501681E+00  0.37824018077E+01  0.27248498118E+02  0.00000000000E+00 0.  1.
</event>
<event>
 8    1  0.2484572E-006  0.9118800E+02  0.7816164E-02  0.1184000E+00
        -11   -1    0    0    0    0  0.00000000000E+00  0.00000000000E+00  0.45593999997E+02  0.45594000000E+02  0.51100000000E-03 0.  1.
         11   -1    0    0    0    0 -0.00000000000E+00 -0.00000000000E+00 -0.45593999997E+02  0.45594000000E+02  0.51100000000E-03 0. -1.
         23    2    1    2    0    0  0.00000000000E+00  0.00000000000E+00  0.00000000000E+00  0.91188000000E+02  0.91188000000E+02 0.  0.
    9900012    2    3    3    0    0  0.26291982981E+02  0.18651857294E+02  0.17793820602E+02  0.54367079300E+02  0.39999988881E+02 0.  0.
         12    1    3    3    0    0 -0.26291982981E+02 -0.18651857294E+02 -0.17793820602E+02  0.36820920700E+02  0.00000000000E+00 0. -1.
         11    1    4    4    0    0 -0.17924321803E+01  0.72090863562E+01  0.43607331142E+01  0.86139266752E+01  0.51100000000E-03 0. -1.
        -11    1    4    4    0    0  0.28349205660E+02  0.19386659079E+02  0.15285089779E+02  0.37591940381E+02  0.51100000000E-03 0.  1.
        -12    1    4    4    0    0 -0.26479049891E+00 -0.79438881413E+01 -0.18520022912E+01  0.81612122443E+01  0.00000000000E+00 0.  1.
</event>
<event>
 8    1  0.2484572E-006  0.9118800E+02  0.7816164E-02  0.1184000E+00
        -11   -1    0    0    0    0  0.00000000000E+00  0.00000000000E+00  0.45593999997E+02  0.45594000000E+02  0.51100000000E-03 0.  1.
         11   -1    0    0    0    0 -0.00000000000E+00 -0.00000000000E+00 -0.45593999997E+02  0.45594000000E+02  0.51100000000E-03 0. -1.
         23    2    1    2    0    0  0.17763568394E-14  0.35527136788E-14  0.00000000000E+00  0.91188000000E+02  0.91188000000E+02 0.  0.
    9900012    2    3    3    0    0 -0.13648658334E+02 -0.18632912587E+02 -0.28675934545E+02  0.54367074864E+02  0.39999978768E+02 0.  0.
        -12    1    3    3    0    0  0.13648658334E+02  0.18632912587E+02  0.28675934545E+02  0.36820925136E+02  0.00000000000E+00 0.  1.
         11    1    4    4    0    0 -0.62452492949E+01  0.15751648677E+01 -0.74676937831E+00  0.64839762401E+01  0.51100000000E-03 0.  1.
        -11    1    4    4    0    0  0.20515626158E+01 -0.21482364953E+02 -0.31078614656E+02  0.37836241916E+02  0.51100000000E-03 0. -1.
        -12    1    4    4    0    0 -0.94549716549E+01  0.12742874977E+01  0.31494494892E+01  0.10046856708E+02  0.00000000000E+00 0.  1.
</event>
<event>
 8    1  0.2484572E-006  0.9118800E+02  0.7816164E-02  0.1184000E+00
        -11   -1    0    0    0    0  0.00000000000E+00  0.00000000000E+00  0.45593999997E+02  0.45594000000E+02  0.51100000000E-03 0.  1.
         11   -1    0    0    0    0 -0.00000000000E+00 -0.00000000000E+00 -0.45593999997E+02  0.45594000000E+02  0.51100000000E-03 0. -1.
         23    2    1    2    0    0  0.00000000000E+00  0.35527136788E-14  0.00000000000E+00  0.91188000000E+02  0.91188000000E+02 0.  0.
    9900012    2    3    3    0    0 -0.84305111712E+01 -0.19863673885E+02 -0.29835221945E+02  0.54367088451E+02  0.40000009741E+02 0.  0.
        -12    1    3    3    0    0  0.84305111712E+01  0.19863673885E+02  0.29835221945E+02  0.36820911549E+02  0.00000000000E+00 0.  1.
         11    1    4    4    0    0  0.75612978724E+01  0.55422908227E+01 -0.23735882357E+01  0.96707876852E+01  0.51100000000E-03 0. -1.
        -11    1    4    4    0    0  0.70822155011E+00 -0.16131709283E+02 -0.13236388621E+02  0.20879071007E+02  0.51100000000E-03 0.  1.
         12    1    4    4    0    0 -0.16700030594E+02 -0.92742554247E+01 -0.14225245089E+02  0.23817229758E+02  0.00000000000E+00 0. -1.
</event>
<event>
 8    1  0.2484572E-006  0.9118800E+02  0.7816164E-02  0.1184000E+00
        -11   -1    0    0    0    0  0.00000000000E+00  0.00000000000E+00  0.45593999997E+02  0.45594000000E+02  0.51100000000E-03 0. -1.
         11   -1    0    0    0    0 -0.00000000000E+00 -0.00000000000E+00 -0.45593999997E+02  0.45594000000E+02  0.51100000000E-03 0.  1.
         23    2    1    2    0    0  0.00000000000E+00 -0.17763568394E-14  0.00000000000E+00  0.91188000000E+02  0.91188000000E+02 0.  0.
    9900012    2    3    3    0    0 -0.28909452845E+02  0.82537510503E+01  0.21257752720E+02  0.54367178161E+02  0.40000214252E+02 0.  0.
        -12    1    3    3    0    0  0.28909452845E+02 -0.82537510503E+01 -0.21257752720E+02  0.36820821839E+02  0.00000000000E+00 0.  1.
         11    1    4    4    0    0 -0.17249580498E+02 -0.68932461976E+01  0.35975676480E+01  0.18921082520E+02  0.51100000000E-03 0. -1.
        -11    1    4    4    0    0  0.15940339131E+01  0.15130021716E+01  0.16229718696E+02  0.16377847505E+02  0.51100000000E-03 0.  1.
         12    1    4    4    0    0 -0.13253906261E+02  0.13633995076E+02  0.14304663764E+01  0.19068248136E+02  0.00000000000E+00 0. -1.
</event>
<event>
 8    1  0.2484572E-006  0.9118800E+02  0.7816164E-02  0.1184000E+00
        -11   -1    0    0    0    0  0.00000000000E+00  0.00000000000E+00  0.45593999997E+02  0.45594000000E+02  0.51100000000E-03 0.  1.
         11   -1    0    0    0    0 -0.00000000000E+00 -0.00000000000E+00 -0.45593999997E+02  0.45594000000E+02  0.51100000000E-03 0. -1.
         23    2    1    2    0    0  0.35527136788E-14  0.00000000000E+00  0.00000000000E+00  0.91188000000E+02  0.91188000000E+02 0.  0.
    9900012    2    3    3    0    0 -0.24637164733E+02  0.20662755890E+02 -0.17939919259E+02  0.54367081080E+02  0.39999992939E+02 0.  0.
         12    1    3    3    0    0  0.24637164733E+02 -0.20662755890E+02  0.17939919259E+02  0.36820918920E+02  0.00000000000E+00 0. -1.
         11    1    4    4    0    0 -0.20473289370E+02 -0.20480631650E+00  0.72941326011E+00  0.20487302585E+02  0.51100000000E-03 0. -1.
        -11    1    4    4    0    0  0.66417746217E+01  0.46265507847E+01 -0.23010775337E+01  0.84150520121E+01  0.51100000000E-03 0.  1.
         12    1    4    4    0    0 -0.10805649985E+02  0.16241011422E+02 -0.16368254986E+02  0.25464726484E+02  0.00000000000E+00 0. -1.
</event>
<event>
 8    1  0.2484572E-006  0.9118800E+02  0.7816164E-02  0.1184000E+00
        -11   -1    0    0    0    0  0.00000000000E+00  0.00000000000E+00  0.45593999997E+02  0.45594000000E+02  0.51100000000E-03 0.  1.
         11   -1    0    0    0    0 -0.00000000000E+00 -0.00000000000E+00 -0.45593999997E+02  0.45594000000E+02  0.51100000000E-03 0. -1.
         23    2    1    2    0    0  0.35527136788E-14  0.00000000000E+00  0.00000000000E+00  0.91188000000E+02  0.91188000000E+02 0.  0.
    9900012    2    3    3    0    0  0.26297273165E+02 -0.88077759420E+01 -0.24220987605E+02  0.54367085651E+02  0.40000003358E+02 0.  0.
        -12    1    3    3    0    0 -0.26297273165E+02  0.88077759420E+01  0.24220987605E+02  0.36820914349E+02  0.00000000000E+00 0.  1.
         11    1    4    4    0    0  0.24461210478E+02 -0.16405820221E+02 -0.36981708981E+01  0.29684646257E+02  0.51100000000E-03 0. -1.
        -11    1    4    4    0    0 -0.27434808459E+01 -0.12320683155E+01 -0.18651693941E+01  0.35388609207E+01  0.51100000000E-03 0.  1.
         12    1    4    4    0    0  0.45795435330E+01  0.88301125945E+01 -0.18657647313E+02  0.21143578473E+02  0.00000000000E+00 0. -1.
</event>
<event>
 8    1  0.2484572E-006  0.9118800E+02  0.7816164E-02  0.1184000E+00
        -11   -1    0    0    0    0  0.00000000000E+00  0.00000000000E+00  0.45593999997E+02  0.45594000000E+02  0.51100000000E-03 0.  1.
         11   -1    0    0    0    0 -0.00000000000E+00 -0.00000000000E+00 -0.45593999997E+02  0.45594000000E+02  0.51100000000E-03 0. -1.
         23    2    1    2    0    0 -0.35527136788E-14  0.00000000000E+00  0.17763568394E-14  0.91188000000E+02  0.91188000000E+02 0.  0.
    9900012    2    3    3    0    0 -0.23281940042E+02 -0.26785594348E+02 -0.98113847085E+01  0.54367081128E+02  0.39999993048E+02 0.  0.
         12    1    3    3    0    0  0.23281940042E+02  0.26785594348E+02  0.98113847085E+01  0.36820918872E+02  0.00000000000E+00 0. -1.
         11    1    4    4    0    0 -0.20063837222E+02 -0.49301251861E+01 -0.77977437573E+01  0.22083217754E+02  0.51100000000E-03 0. -1.
        -11    1    4    4    0    0 -0.51360738675E+01  0.85252960196E+00 -0.72262625456E+01  0.89064545210E+01  0.51100000000E-03 0.  1.
        -12    1    4    4    0    0  0.19179710475E+01 -0.22707998763E+02  0.52126215944E+01  0.23377408853E+02  0.00000000000E+00 0.  1.
</event>
<event>
 8    1  0.2484572E-006  0.9118800E+02  0.7816164E-02  0.1184000E+00
        -11   -1    0    0    0    0  0.00000000000E+00  0.00000000000E+00  0.45593999997E+02  0.45594000000E+02  0.51100000000E-03 0.  1.
         11   -1    0    0    0    0 -0.00000000000E+00 -0.00000000000E+00 -0.45593999997E+02  0.45594000000E+02  0.51100000000E-03 0. -1.
         23    2    1    2    0    0  0.00000000000E+00  0.00000000000E+00  0.00000000000E+00  0.91188000000E+02  0.91188000000E+02 0.  0.
    9900012    2    3    3    0    0 -0.12820616076E+02 -0.27787483117E+02  0.20476033713E+02  0.54367076992E+02  0.39999983619E+02 0.  0.
         12    1    3    3    0    0  0.12820616076E+02  0.27787483117E+02 -0.20476033713E+02  0.36820923008E+02  0.00000000000E+00 0. -1.
         11    1    4    4    0    0 -0.12136520960E+02 -0.12196439385E+02  0.51284136478E+01  0.17954077573E+02  0.51100000000E-03 0. -1.
        -11    1    4    4    0    0 -0.10637834500E+02 -0.12607173931E+02  0.19215897304E+02  0.25324988980E+02  0.51100000000E-03 0.  1.
         12    1    4    4    0    0  0.99537393841E+01 -0.29838698007E+01 -0.38682772389E+01  0.11088010440E+02  0.00000000000E+00 0. -1.
</event>
<event>
 8    1  0.2484572E-006  0.9118800E+02  0.7816164E-02  0.1184000E+00
        -11   -1    0    0    0    0  0.00000000000E+00  0.00000000000E+00  0.45593999997E+02  0.45594000000E+02  0.51100000000E-03 0.  1.
         11   -1    0    0    0    0 -0.00000000000E+00 -0.00000000000E+00 -0.45593999997E+02  0.45594000000E+02  0.51100000000E-03 0. -1.
         23    2    1    2    0    0  0.00000000000E+00  0.00000000000E+00  0.00000000000E+00  0.91188000000E+02  0.91188000000E+02 0.  0.
    9900012    2    3    3    0    0  0.32315222341E+02 -0.10227167437E+02 -0.14384454341E+02  0.54367067429E+02  0.39999961817E+02 0.  0.
        -12    1    3    3    0    0 -0.32315222341E+02  0.10227167437E+02  0.14384454341E+02  0.36820932571E+02  0.00000000000E+00 0.  1.
         11    1    4    4    0    0  0.10627389490E+02  0.50555879029E+01  0.78934917985E+01  0.14170659457E+02  0.51100000000E-03 0. -1.
        -11    1    4    4    0    0 -0.32238872562E+01 -0.52078997862E+01 -0.17179554630E+01  0.63613709574E+01  0.51100000000E-03 0.  1.
        -12    1    4    4    0    0  0.24911720107E+02 -0.10074855553E+02 -0.20559990677E+02  0.33835037014E+02  0.00000000000E+00 0.  1.
</event>
<event>
 8    1  0.2484572E-006  0.9118800E+02  0.7816164E-02  0.1184000E+00
        -11   -1    0    0    0    0  0.00000000000E+00  0.00000000000E+00  0.45593999997E+02  0.45594000000E+02  0.51100000000E-03 0.  1.
         11   -1    0    0    0    0 -0.00000000000E+00 -0.00000000000E+00 -0.45593999997E+02  0.45594000000E+02  0.51100000000E-03 0. -1.
         23    2    1    2    0    0  0.00000000000E+00  0.00000000000E+00  0.00000000000E+00  0.91188000000E+02  0.91188000000E+02 0.  0.
    9900012    2    3    3    0    0  0.33739772856E+02 -0.11263438541E+02  0.95153609552E+01  0.54367089986E+02  0.40000013241E+02 0.  0.
        -12    1    3    3    0    0 -0.33739772856E+02  0.11263438541E+02 -0.95153609552E+01  0.36820910014E+02  0.00000000000E+00 0.  1.
         11    1    4    4    0    0  0.13129113024E+02 -0.11054366774E+02  0.12540574807E+02  0.21256496662E+02  0.51100000000E-03 0. -1.
        -11    1    4    4    0    0  0.20166417163E+02  0.94003734501E+01  0.18490934456E+01  0.22326454018E+02  0.51100000000E-03 0.  1.
         12    1    4    4    0    0  0.44424266886E+00 -0.96094452168E+01 -0.48743072978E+01  0.10784139305E+02  0.00000000000E+00 0. -1.
</event>
<event>
 8    1  0.2484572E-006  0.9118800E+02  0.7816164E-02  0.1184000E+00
        -11   -1    0    0    0    0  0.00000000000E+00  0.00000000000E+00  0.45593999997E+02  0.45594000000E+02  0.51100000000E-03 0.  1.
         11   -1    0    0    0    0 -0.00000000000E+00 -0.00000000000E+00 -0.45593999997E+02  0.45594000000E+02  0.51100000000E-03 0. -1.
         23    2    1    2    0    0  0.13322676296E-14 -0.35527136788E-14  0.00000000000E+00  0.91188000000E+02  0.91188000000E+02 0.  0.
    9900012    2    3    3    0    0 -0.38217540448E+01  0.22568173461E+02  0.28841823016E+02  0.54367095445E+02  0.40000025687E+02 0.  0.
         12    1    3    3    0    0  0.38217540448E+01 -0.22568173461E+02 -0.28841823016E+02  0.36820904555E+02  0.00000000000E+00 0. -1.
         11    1    4    4    0    0 -0.14215925094E+02  0.22986305063E+01  0.23604685024E+02  0.27650630803E+02  0.51100000000E-03 0. -1.
        -11    1    4    4    0    0  0.29251193182E+01  0.13507847046E+02  0.83794609352E+01  0.16162723182E+02  0.51100000000E-03 0.  1.
        -12    1    4    4    0    0  0.74690517306E+01  0.67616959087E+01 -0.31423229436E+01  0.10553741460E+02  0.00000000000E+00 0.  1.
</event>
<event>
 8    1  0.2484572E-006  0.9118800E+02  0.7816164E-02  0.1184000E+00
        -11   -1    0    0    0    0  0.00000000000E+00  0.00000000000E+00  0.45593999997E+02  0.45594000000E+02  0.51100000000E-03 0.  1.
         11   -1    0    0    0    0 -0.00000000000E+00 -0.00000000000E+00 -0.45593999997E+02  0.45594000000E+02  0.51100000000E-03 0. -1.
         23    2    1    2    0    0  0.00000000000E+00  0.00000000000E+00  0.00000000000E+00  0.91188000000E+02  0.91188000000E+02 0.  0.
    9900012    2    3    3    0    0  0.77996411910E+01  0.25408451040E+02 -0.25482456475E+02  0.54367090519E+02  0.40000014457E+02 0.  0.
        -12    1    3    3    0    0 -0.77996411910E+01 -0.25408451040E+02  0.25482456475E+02  0.36820909481E+02  0.00000000000E+00 0.  1.
         11    1    4    4    0    0  0.36481782486E+01 -0.22401464032E+01  0.34785347034E+01  0.55161276622E+01  0.51100000000E-03 0. -1.
        -11    1    4    4    0    0  0.16060583881E+02  0.15227297109E+02 -0.16447140510E+02  0.27573925420E+02  0.51100000000E-03 0.  1.
         12    1    4    4    0    0 -0.11909120939E+02  0.12421300334E+02 -0.12513850669E+02  0.21277037437E+02  0.00000000000E+00 0. -1.
</event>
<event>
 8    1  0.2484572E-006  0.9118800E+02  0.7816164E-02  0.1184000E+00
        -11   -1    0    0    0    0  0.00000000000E+00  0.00000000000E+00  0.45593999997E+02  0.45594000000E+02  0.51100000000E-03 0.  1.
         11   -1    0    0    0    0 -0.00000000000E+00 -0.00000000000E+00 -0.45593999997E+02  0.45594000000E+02  0.51100000000E-03 0. -1.
         23    2    1    2    0    0 -0.71054273576E-14 -0.17763568394E-14 -0.17763568394E-14  0.91188000000E+02  0.91188000000E+02 0.  0.
    9900012    2    3    3    0    0  0.30994431901E+02  0.12171894588E+02  0.15715307837E+02  0.54367072158E+02  0.39999972599E+02 0.  0.
        -12    1    3    3    0    0 -0.30994431901E+02 -0.12171894588E+02 -0.15715307837E+02  0.36820927842E+02  0.00000000000E+00 0.  1.
         11    1    4    4    0    0  0.29723434033E+02  0.70487464992E+01  0.19195038417E+02  0.36077927574E+02  0.51100000000E-03 0.  1.
        -11    1    4    4    0    0  0.62562472865E+01  0.18571592733E+01 -0.83462819129E+01  0.10594814425E+02  0.51100000000E-03 0. -1.
        -12    1    4    4    0    0 -0.49852494195E+01  0.32659888159E+01  0.48665513330E+01  0.76943301591E+01  0.00000000000E+00 0.  1.
</event>
<event>
 8    1  0.2484572E-006  0.9118800E+02  0.7816164E-02  0.1184000E+00
        -11   -1    0    0    0    0  0.00000000000E+00  0.00000000000E+00  0.45593999997E+02  0.45594000000E+02  0.51100000000E-03 0. -1.
         11   -1    0    0    0    0 -0.00000000000E+00 -0.00000000000E+00 -0.45593999997E+02  0.45594000000E+02  0.51100000000E-03 0.  1.
         23    2    1    2    0    0  0.71054273576E-14  0.00000000000E+00 -0.83266726847E-15  0.91188000000E+02  0.91188000000E+02 0.  0.
    9900012    2    3    3    0    0  0.34913446711E+02 -0.11686947427E+02  0.49701360260E+00  0.54367074918E+02  0.39999978890E+02 0.  0.
         12    1    3    3    0    0 -0.34913446711E+02  0.11686947427E+02 -0.49701360260E+00  0.36820925082E+02  0.00000000000E+00 0. -1.
         11    1    4    4    0    0  0.16200431628E+02 -0.26535460991E+01 -0.92808601886E+01  0.18858145665E+02  0.51100000000E-03 0. -1.
        -11    1    4    4    0    0  0.98210412483E+01 -0.10121678428E+02 -0.75539369131E+01  0.15998849601E+02  0.51100000000E-03 0.  1.
         12    1    4    4    0    0  0.88919738343E+01  0.10882770999E+01  0.17331810704E+02  0.19510079652E+02  0.00000000000E+00 0. -1.
</event>
<event>
 8    1  0.2484572E-006  0.9118800E+02  0.7816164E-02  0.1184000E+00
        -11   -1    0    0    0    0  0.00000000000E+00  0.00000000000E+00  0.45593999997E+02  0.45594000000E+02  0.51100000000E-03 0.  1.
         11   -1    0    0    0    0 -0.00000000000E+00 -0.00000000000E+00 -0.45593999997E+02  0.45594000000E+02  0.51100000000E-03 0. -1.
         23    2    1    2    0    0 -0.35527136788E-14  0.00000000000E+00  0.35527136788E-14  0.91188000000E+02  0.91188000000E+02 0.  0.
    9900012    2    3    3    0    0  0.21712535276E+02  0.17206951655E+02 -0.24254232687E+02  0.54367066055E+02  0.39999958685E+02 0.  0.
         12    1    3    3    0    0 -0.21712535276E+02 -0.17206951655E+02  0.24254232687E+02  0.36820933945E+02  0.00000000000E+00 0. -1.
         11    1    4    4    0    0 -0.97677248954E+00  0.10053040902E+02  0.34712786231E+01  0.10680238360E+02  0.51100000000E-03 0. -1.
        -11    1    4    4    0    0  0.27669093692E+02  0.43457309453E+01 -0.22246985209E+02  0.35768596203E+02  0.51100000000E-03 0.  1.
         12    1    4    4    0    0 -0.49797859272E+01  0.28081798073E+01 -0.54785261019E+01  0.79182314920E+01  0.00000000000E+00 0. -1.
</event>
<event>
 8    1  0.2484572E-006  0.9118800E+02  0.7816164E-02  0.1184000E+00
        -11   -1    0    0    0    0  0.00000000000E+00  0.00000000000E+00  0.45593999997E+02  0.45594000000E+02  0.51100000000E-03 0.  1.
         11   -1    0    0    0    0 -0.00000000000E+00 -0.00000000000E+00 -0.45593999997E+02  0.45594000000E+02  0.51100000000E-03 0. -1.
         23    2    1    2    0    0 -0.35527136788E-14  0.00000000000E+00  0.00000000000E+00  0.91188000000E+02  0.91188000000E+02 0.  0.
    9900012    2    3    3    0    0 -0.21953236322E+02 -0.15862996081E+02  0.24943967270E+02  0.54367072081E+02  0.39999972422E+02 0.  0.
         12    1    3    3    0    0  0.21953236322E+02  0.15862996081E+02 -0.24943967270E+02  0.36820927919E+02  0.00000000000E+00 0. -1.
         11    1    4    4    0    0  0.31756994672E+01 -0.92809974042E+01  0.20803232793E+02  0.22999923366E+02  0.51100000000E-03 0. -1.
        -11    1    4    4    0    0 -0.59218850248E+01 -0.98784354987E+01  0.26762797388E+01  0.11824325928E+02  0.51100000000E-03 0.  1.
         12    1    4    4    0    0 -0.19207050764E+02  0.32964368218E+01  0.14644547378E+01  0.19542822787E+02  0.00000000000E+00 0. -1.
</event>
<event>
 8    1  0.2484572E-006  0.9118800E+02  0.7816164E-02  0.1184000E+00
        -11   -1    0    0    0    0  0.00000000000E+00  0.00000000000E+00  0.45593999997E+02  0.45594000000E+02  0.51100000000E-03 0.  1.
         11   -1    0    0    0    0 -0.00000000000E+00 -0.00000000000E+00 -0.45593999997E+02  0.45594000000E+02  0.51100000000E-03 0. -1.
         23    2    1    2    0    0 -0.35527136788E-14  0.44408920985E-15  0.71054273576E-14  0.91188000000E+02  0.91188000000E+02 0.  0.
    9900012    2    3    3    0    0 -0.12621424871E+02 -0.33958661702E+01  0.34423011097E+02  0.54367136814E+02  0.40000119994E+02 0.  0.
         12    1    3    3    0    0  0.12621424871E+02  0.33958661702E+01 -0.34423011097E+02  0.36820863186E+02  0.00000000000E+00 0. -1.
         11    1    4    4    0    0 -0.18176641509E+02 -0.68877590252E+01  0.96172889682E+01  0.21686949262E+02  0.51100000000E-03 0. -1.
        -11    1    4    4    0    0  0.22430693167E+00 -0.64396469460E+01  0.18872465654E+02  0.19942149496E+02  0.51100000000E-03 0.  1.
        -12    1    4    4    0    0  0.53309097063E+01  0.99315398010E+01  0.59332564741E+01  0.12738038055E+02  0.00000000000E+00 0.  1.
</event>
<event>
 8    1  0.2484572E-006  0.9118800E+02  0.7816164E-02  0.1184000E+00
        -11   -1    0    0    0    0  0.00000000000E+00  0.00000000000E+00  0.45593999997E+02  0.45594000000E+02  0.51100000000E-03 0.  1.
         11   -1    0    0    0    0 -0.00000000000E+00 -0.00000000000E+00 -0.45593999997E+02  0.45594000000E+02  0.51100000000E-03 0. -1.
         23    2    1    2    0    0  0.00000000000E+00  0.00000000000E+00 -0.35527136788E-14  0.91188000000E+02  0.91188000000E+02 0.  0.
    9900012    2    3    3    0    0 -0.10210763470E+02 -0.19301322088E+02  0.29647600240E+02  0.54367069472E+02  0.39999966475E+02 0.  0.
         12    1    3    3    0    0  0.10210763470E+02  0.19301322088E+02 -0.29647600240E+02  0.36820930528E+02  0.00000000000E+00 0. -1.
         11    1    4    4    0    0  0.18499410205E+01  0.34584547119E+01  0.16276602939E+02  0.16742490683E+02  0.51100000000E-03 0. -1.
        -11    1    4    4    0    0 -0.19195571830E+02 -0.16167486993E+02  0.71742900796E+01  0.26102261434E+02  0.51100000000E-03 0.  1.
        -12    1    4    4    0    0  0.71348673396E+01 -0.65922898073E+01  0.61967072214E+01  0.11522317356E+02  0.00000000000E+00 0.  1.
</event>
<event>
 8    1  0.2484572E-006  0.9118800E+02  0.7816164E-02  0.1184000E+00
        -11   -1    0    0    0    0  0.00000000000E+00  0.00000000000E+00  0.45593999997E+02  0.45594000000E+02  0.51100000000E-03 0. -1.
         11   -1    0    0    0    0 -0.00000000000E+00 -0.00000000000E+00 -0.45593999997E+02  0.45594000000E+02  0.51100000000E-03 0.  1.
         23    2    1    2    0    0 -0.17763568394E-14  0.11102230246E-15 -0.71054273576E-14  0.91188000000E+02  0.91188000000E+02 0.  0.
    9900012    2    3    3    0    0  0.13327032663E+02  0.76205360219E+00 -0.34316021145E+02  0.54367084306E+02  0.40000000293E+02 0.  0.
         12    1    3    3    0    0 -0.13327032663E+02 -0.76205360219E+00  0.34316021145E+02  0.36820915694E+02  0.00000000000E+00 0. -1.
         11    1    4    4    0    0  0.33909000284E+01 -0.29674432276E+00  0.81464010219E+01  0.88289359533E+01  0.51100000000E-03 0. -1.
        -11    1    4    4    0    0  0.37511387143E+01 -0.44304562012E+01 -0.30166963943E+02  0.30720444294E+02  0.51100000000E-03 0.  1.
         12    1    4    4    0    0  0.61849939200E+01  0.54892541261E+01 -0.12295458223E+02  0.14817704059E+02  0.00000000000E+00 0. -1.
</event>
<event>
 8    1  0.2484572E-006  0.9118800E+02  0.7816164E-02  0.1184000E+00
        -11   -1    0    0    0    0  0.00000000000E+00  0.00000000000E+00  0.45593999997E+02  0.45594000000E+02  0.51100000000E-03 0.  1.
         11   -1    0    0    0    0 -0.00000000000E+00 -0.00000000000E+00 -0.45593999997E+02  0.45594000000E+02  0.51100000000E-03 0. -1.
         23    2    1    2    0    0  0.00000000000E+00  0.00000000000E+00  0.00000000000E+00  0.91188000000E+02  0.91188000000E+02 0.  0.
    9900012    2    3    3    0    0 -0.18184484731E+02 -0.20072904464E+02  0.24943486782E+02  0.54367156563E+02  0.40000165017E+02 0.  0.
         12    1    3    3    0    0  0.18184484731E+02  0.20072904464E+02 -0.24943486782E+02  0.36820843437E+02  0.00000000000E+00 0. -1.
         11    1    4    4    0    0 -0.19020689753E+01 -0.55160945005E+01  0.11512779678E+01  0.59473192402E+01  0.51100000000E-03 0. -1.
        -11    1    4    4    0    0 -0.73928175177E+01 -0.96568781566E+01  0.32716610630E+02  0.34903949031E+02  0.51100000000E-03 0.  1.
        -12    1    4    4    0    0 -0.88895982377E+01 -0.48999318070E+01 -0.89244018161E+01  0.13515888292E+02  0.00000000000E+00 0.  1.
</event>
