<event>
 8    1  0.2534787E-006  0.9118800E+02  0.7816164E-02  0.1184000E+00
        -11   -1    0    0    0    0  0.00000000000E+00  0.00000000000E+00  0.45593999997E+02  0.45594000000E+02  0.51100000000E-03 0.  1.
         11   -1    0    0    0    0 -0.00000000000E+00 -0.00000000000E+00 -0.45593999997E+02  0.45594000000E+02  0.51100000000E-03 0. -1.
         23    2    1    2    0    0  0.00000000000E+00  0.00000000000E+00  0.00000000000E+00  0.91188000000E+02  0.91188000000E+02 0.  0.
    9900012    2    3    3    0    0 -0.16721650661E+02 -0.92328064341E+01  0.31478923322E+02  0.54367069417E+02  0.39999966350E+02 0.  0.
         12    1    3    3    0    0  0.16721650661E+02  0.92328064341E+01 -0.31478923322E+02  0.36820930583E+02  0.00000000000E+00 0. -1.
         11    1    4    4    0    0 -0.73899164886E+01  0.66401705383E+01 -0.54317235881E+01  0.11322824378E+02  0.51100000000E-03 0. -1.
        -11    1    4    4    0    0 -0.14433313315E+01 -0.11569726512E+02  0.28261750740E+02  0.30572345871E+02  0.51100000000E-03 0.  1.
        -12    1    4    4    0    0 -0.78884028409E+01 -0.43032504603E+01  0.86488961708E+01  0.12471899169E+02  0.00000000000E+00 0.  1.
</event>
<event>
 8    1  0.2534787E-006  0.9118800E+02  0.7816164E-02  0.1184000E+00
        -11   -1    0    0    0    0  0.00000000000E+00  0.00000000000E+00  0.45593999997E+02  0.45594000000E+02  0.51100000000E-03 0. -1.
         11   -1    0    0    0    0 -0.00000000000E+00 -0.00000000000E+00 -0.45593999997E+02  0.45594000000E+02  0.51100000000E-03 0.  1.
         23    2    1    2    0    0  0.00000000000E+00  0.00000000000E+00  0.71054273576E-14  0.91188000000E+02  0.91188000000E+02 0.  0.
    9900012    2    3    3    0    0  0.40078969773E+01 -0.27179449587E+02 -0.24515185235E+02  0.54367081691E+02  0.39999994330E+02 0.  0.
         12    1    3    3    0    0 -0.40078969773E+01  0.27179449587E+02  0.24515185235E+02  0.36820918309E+02  0.00000000000E+00 0. -1.
         11    1    4    4    0    0  0.14059504911E+02 -0.23501633875E+02 -0.32806514595E+01  0.27581862653E+02  0.51100000000E-03 0. -1.
        -11    1    4    4    0    0 -0.36333612101E+01  0.22192674879E+01 -0.49201831195E+00  0.42858539577E+01  0.51100000000E-03 0.  1.
        -12    1    4    4    0    0 -0.64182467235E+01 -0.58970832001E+01 -0.20742515464E+02  0.22499365081E+02  0.00000000000E+00 0.  1.
</event>
<event>
 8    1  0.2534787E-006  0.9118800E+02  0.7816164E-02  0.1184000E+00
        -11   -1    0    0    0    0  0.00000000000E+00  0.00000000000E+00  0.45593999997E+02  0.45594000000E+02  0.51100000000E-03 0.  1.
         11   -1    0    0    0    0 -0.00000000000E+00 -0.00000000000E+00 -0.45593999997E+02  0.45594000000E+02  0.51100000000E-03 0. -1.
         23    2    1    2    0    0  0.00000000000E+00 -0.17763568394E-14  0.00000000000E+00  0.91188000000E+02  0.91188000000E+02 0.  0.
    9900012    2    3    3    0    0 -0.30619578628E+02  0.68066036702E+01  0.19284494271E+02  0.54367079749E+02  0.39999989903E+02 0.  0.
         12    1    3    3    0    0  0.30619578628E+02 -0.68066036702E+01 -0.19284494271E+02  0.36820920251E+02  0.00000000000E+00 0. -1.
         11    1    4    4    0    0  0.93543709790E+00  0.37965878245E+01 -0.12765746876E+01  0.41132426221E+01  0.51100000000E-03 0. -1.
        -11    1    4    4    0    0 -0.12962814463E+02  0.14140671094E+01  0.27428003903E+02  0.30369878876E+02  0.51100000000E-03 0.  1.
        -12    1    4    4    0    0 -0.18592201263E+02  0.15959487362E+01 -0.68669349445E+01  0.19883958250E+02  0.00000000000E+00 0.  1.
</event>
<event>
 8    1  0.2534787E-006  0.9118800E+02  0.7816164E-02  0.1184000E+00
        -11   -1    0    0    0    0  0.00000000000E+00  0.00000000000E+00  0.45593999997E+02  0.45594000000E+02  0.51100000000E-03 0.  1.
         11   -1    0    0    0    0 -0.00000000000E+00 -0.00000000000E+00 -0.45593999997E+02  0.45594000000E+02  0.51100000000E-03 0. -1.
         23    2    1    2    0    0  0.00000000000E+00  0.00000000000E+00  0.00000000000E+00  0.91188000000E+02  0.91188000000E+02 0.  0.
    9900012    2    3    3    0    0  0.18225716197E+02  0.19650767785E+02 -0.25247775054E+02  0.54367088135E+02  0.40000009021E+02 0.  0.
        -12    1    3    3    0    0 -0.18225716197E+02 -0.19650767785E+02  0.25247775054E+02  0.36820911865E+02  0.00000000000E+00 0.  1.
         11    1    4    4    0    0 -0.21525753957E+01  0.96390610656E+01 -0.15231724224E+02  0.18153525888E+02  0.51100000000E-03 0. -1.
        -11    1    4    4    0    0  0.52282368716E+01  0.34314714356E+01 -0.17125126852E+02  0.18231276065E+02  0.51100000000E-03 0.  1.
        -12    1    4    4    0    0  0.15150054721E+02  0.65802352841E+01  0.71090760225E+01  0.17982286182E+02  0.00000000000E+00 0.  1.
</event>
<event>
 8    1  0.2534787E-006  0.9118800E+02  0.7816164E-02  0.1184000E+00
        -11   -1    0    0    0    0  0.00000000000E+00  0.00000000000E+00  0.45593999997E+02  0.45594000000E+02  0.51100000000E-03 0.  1.
         11   -1    0    0    0    0 -0.00000000000E+00 -0.00000000000E+00 -0.45593999997E+02  0.45594000000E+02  0.51100000000E-03 0. -1.
         23    2    1    2    0    0  0.00000000000E+00 -0.17763568394E-14  0.00000000000E+00  0.91188000000E+02  0.91188000000E+02 0.  0.
    9900012    2    3    3    0    0 -0.14245102659E+02  0.13764084977E+02  0.31038845776E+02  0.54367042216E+02  0.39999904340E+02 0.  0.
         12    1    3    3    0    0  0.14245102659E+02 -0.13764084977E+02 -0.31038845776E+02  0.36820957784E+02  0.00000000000E+00 0. -1.
         11    1    4    4    0    0  0.84965064955E+01 -0.22791650187E+01  0.62585519015E+00  0.88191218832E+01  0.51100000000E-03 0. -1.
        -11    1    4    4    0    0 -0.25491263110E+02  0.15987935808E+02  0.23730851734E+02  0.38321950768E+02  0.51100000000E-03 0.  1.
        -12    1    4    4    0    0  0.27496539554E+01  0.55314187686E-01  0.66821388512E+01  0.72259695655E+01  0.00000000000E+00 0.  1.
</event>
<event>
 8    1  0.2534787E-006  0.9118800E+02  0.7816164E-02  0.1184000E+00
        -11   -1    0    0    0    0  0.00000000000E+00  0.00000000000E+00  0.45593999997E+02  0.45594000000E+02  0.51100000000E-03 0. -1.
         11   -1    0    0    0    0 -0.00000000000E+00 -0.00000000000E+00 -0.45593999997E+02  0.45594000000E+02  0.51100000000E-03 0.  1.
         23    2    1    2    0    0  0.17763568394E-14  0.00000000000E+00  0.71054273576E-14  0.91188000000E+02  0.91188000000E+02 0.  0.
    9900012    2    3    3    0    0  0.11247492855E+02 -0.11297535781E+02 -0.33190943545E+02  0.54367093660E+02  0.40000021617E+02 0.  0.
        -12    1    3    3    0    0 -0.11247492855E+02  0.11297535781E+02  0.33190943545E+02  0.36820906340E+02  0.00000000000E+00 0.  1.
         11    1    4    4    0    0  0.99950294079E+01  0.85403447946E+01 -0.16394036052E+02  0.21014340827E+02  0.51100000000E-03 0. -1.
        -11    1    4    4    0    0 -0.70442356421E+01 -0.17254904762E+01 -0.98963192031E+01  0.12269299377E+02  0.51100000000E-03 0.  1.
         12    1    4    4    0    0  0.82966990890E+01 -0.18112390100E+02 -0.69005882906E+01  0.21083453456E+02  0.00000000000E+00 0. -1.
</event>
<event>
 8    1  0.2534787E-006  0.9118800E+02  0.7816164E-02  0.1184000E+00
        -11   -1    0    0    0    0  0.00000000000E+00  0.00000000000E+00  0.45593999997E+02  0.45594000000E+02  0.51100000000E-03 0. -1.
         11   -1    0    0    0    0 -0.00000000000E+00 -0.00000000000E+00 -0.45593999997E+02  0.45594000000E+02  0.51100000000E-03 0.  1.
         23    2    1    2    0    0  0.35527136788E-14  0.00000000000E+00  0.00000000000E+00  0.91188000000E+02  0.91188000000E+02 0.  0.
    9900012    2    3    3    0    0  0.19443386175E+02  0.21266821805E+02 -0.22922849614E+02  0.54367081896E+02  0.39999994797E+02 0.  0.
        -12    1    3    3    0    0 -0.19443386175E+02 -0.21266821805E+02  0.22922849614E+02  0.36820918104E+02  0.00000000000E+00 0.  1.
         11    1    4    4    0    0  0.12006482998E+02 -0.53410172116E+01  0.49062745991E+01  0.14026889518E+02  0.51100000000E-03 0. -1.
        -11    1    4    4    0    0  0.28703217481E+01  0.38944330847E+01 -0.99908252042E+01  0.11100538028E+02  0.51100000000E-03 0.  1.
         12    1    4    4    0    0  0.45665814290E+01  0.22713405932E+02 -0.17838299008E+02  0.29239654350E+02  0.00000000000E+00 0. -1.
</event>
<event>
 8    1  0.2534787E-006  0.9118800E+02  0.7816164E-02  0.1184000E+00
        -11   -1    0    0    0    0  0.00000000000E+00  0.00000000000E+00  0.45593999997E+02  0.45594000000E+02  0.51100000000E-03 0.  1.
         11   -1    0    0    0    0 -0.00000000000E+00 -0.00000000000E+00 -0.45593999997E+02  0.45594000000E+02  0.51100000000E-03 0. -1.
         23    2    1    2    0    0 -0.35527136788E-14  0.13322676296E-14  0.00000000000E+00  0.91188000000E+02  0.91188000000E+02 0.  0.
    9900012    2    3    3    0    0  0.25198076545E+02 -0.23330785199E+01 -0.26746848331E+02  0.54367079146E+02  0.39999988528E+02 0.  0.
        -12    1    3    3    0    0 -0.25198076545E+02  0.23330785199E+01  0.26746848331E+02  0.36820920854E+02  0.00000000000E+00 0.  1.
         11    1    4    4    0    0  0.12918315413E+02 -0.19017982619E+02 -0.12298967960E+02  0.26073571853E+02  0.51100000000E-03 0. -1.
        -11    1    4    4    0    0  0.22810170880E+01 -0.18222589138E+01 -0.28254880539E+00  0.29331724452E+01  0.51100000000E-03 0.  1.
        -12    1    4    4    0    0  0.99987440444E+01  0.18507163013E+02 -0.14165331565E+02  0.25360334848E+02  0.00000000000E+00 0.  1.
</event>
<event>
 8    1  0.2534787E-006  0.9118800E+02  0.7816164E-02  0.1184000E+00
        -11   -1    0    0    0    0  0.00000000000E+00  0.00000000000E+00  0.45593999997E+02  0.45594000000E+02  0.51100000000E-03 0. -1.
         11   -1    0    0    0    0 -0.00000000000E+00 -0.00000000000E+00 -0.45593999997E+02  0.45594000000E+02  0.51100000000E-03 0.  1.
         23    2    1    2    0    0  0.17763568394E-14  0.00000000000E+00  0.00000000000E+00  0.91188000000E+02  0.91188000000E+02 0.  0.
    9900012    2    3    3    0    0  0.93981228215E+01  0.30502145790E+02  0.18359590861E+02  0.54367079494E+02  0.39999989322E+02 0.  0.
        -12    1    3    3    0    0 -0.93981228215E+01 -0.30502145790E+02 -0.18359590861E+02  0.36820920506E+02  0.00000000000E+00 0.  1.
         11    1    4    4    0    0  0.17539428692E+02  0.95756073516E+01  0.11982910364E+02  0.23300514073E+02  0.51100000000E-03 0. -1.
        -11    1    4    4    0    0 -0.80741019639E+01  0.21087278625E+02  0.11911256826E+02  0.25529247576E+02  0.51100000000E-03 0.  1.
        -12    1    4    4    0    0 -0.67203906630E-01 -0.16074018677E+00 -0.55345763297E+01  0.55373178455E+01  0.00000000000E+00 0.  1.
</event>
<event>
 8    1  0.2534787E-006  0.9118800E+02  0.7816164E-02  0.1184000E+00
        -11   -1    0    0    0    0  0.00000000000E+00  0.00000000000E+00  0.45593999997E+02  0.45594000000E+02  0.51100000000E-03 0. -1.
         11   -1    0    0    0    0 -0.00000000000E+00 -0.00000000000E+00 -0.45593999997E+02  0.45594000000E+02  0.51100000000E-03 0.  1.
         23    2    1    2    0    0  0.17763568394E-14  0.00000000000E+00  0.35527136788E-14  0.91188000000E+02  0.91188000000E+02 0.  0.
    9900012    2    3    3    0    0  0.86463299579E+01  0.25075698049E+02  0.25538810161E+02  0.54367075530E+02  0.39999980287E+02 0.  0.
        -12    1    3    3    0    0 -0.86463299579E+01 -0.25075698049E+02 -0.25538810161E+02  0.36820924470E+02  0.00000000000E+00 0.  1.
         11    1    4    4    0    0  0.45540065428E+01  0.15481918527E+02 -0.43847321577E+00  0.16143761516E+02  0.51100000000E-03 0.  1.
        -11    1    4    4    0    0 -0.82902020643E+01 -0.42891741306E+01  0.71700874035E+01  0.11770073008E+02  0.51100000000E-03 0. -1.
         12    1    4    4    0    0  0.12382525479E+02  0.13882953653E+02  0.18807195973E+02  0.26453241006E+02  0.00000000000E+00 0. -1.
</event>
<event>
 8    1  0.2534787E-006  0.9118800E+02  0.7816164E-02  0.1184000E+00
        -11   -1    0    0    0    0  0.00000000000E+00  0.00000000000E+00  0.45593999997E+02  0.45594000000E+02  0.51100000000E-03 0. -1.
         11   -1    0    0    0    0 -0.00000000000E+00 -0.00000000000E+00 -0.45593999997E+02  0.45594000000E+02  0.51100000000E-03 0.  1.
         23    2    1    2    0    0  0.00000000000E+00  0.13322676296E-14  0.35527136788E-14  0.91188000000E+02  0.91188000000E+02 0.  0.
    9900012    2    3    3    0    0 -0.18513596509E+02 -0.25071366705E+01  0.31729182110E+02  0.54367082204E+02  0.39999995500E+02 0.  0.
        -12    1    3    3    0    0  0.18513596509E+02  0.25071366705E+01 -0.31729182110E+02  0.36820917796E+02  0.00000000000E+00 0.  1.
         11    1    4    4    0    0 -0.10354052880E+02 -0.16696070488E+02  0.15142449151E+02  0.24804413868E+02  0.51100000000E-03 0. -1.
        -11    1    4    4    0    0 -0.90542810655E+01  0.12374499240E+01  0.87343498595E+00  0.91800967785E+01  0.51100000000E-03 0.  1.
        -12    1    4    4    0    0  0.89473743715E+00  0.12951483893E+02  0.15713297973E+02  0.20382571558E+02  0.00000000000E+00 0.  1.
</event>
<event>
 8    1  0.2534787E-006  0.9118800E+02  0.7816164E-02  0.1184000E+00
        -11   -1    0    0    0    0  0.00000000000E+00  0.00000000000E+00  0.45593999997E+02  0.45594000000E+02  0.51100000000E-03 0.  1.
         11   -1    0    0    0    0 -0.00000000000E+00 -0.00000000000E+00 -0.45593999997E+02  0.45594000000E+02  0.51100000000E-03 0. -1.
         23    2    1    2    0    0  0.00000000000E+00 -0.35527136788E-14  0.00000000000E+00  0.91188000000E+02  0.91188000000E+02 0.  0.
    9900012    2    3    3    0    0  0.19652265462E+02  0.30877831778E+02 -0.40161936579E+01  0.54367056984E+02  0.39999938007E+02 0.  0.
        -12    1    3    3    0    0 -0.19652265462E+02 -0.30877831778E+02  0.40161936579E+01  0.36820943016E+02  0.00000000000E+00 0.  1.
         11    1    4    4    0    0 -0.51715504171E+01  0.61377152422E+01 -0.26892631215E+01  0.84645506974E+01  0.51100000000E-03 0. -1.
        -11    1    4    4    0    0  0.17463363564E+02  0.60034444922E+01 -0.13045379958E+02  0.22609563270E+02  0.51100000000E-03 0.  1.
        -12    1    4    4    0    0  0.73604523144E+01  0.18736672044E+02  0.11718449421E+02  0.23292943017E+02  0.00000000000E+00 0.  1.
</event>
<event>
 8    1  0.2534787E-006  0.9118800E+02  0.7816164E-02  0.1184000E+00
        -11   -1    0    0    0    0  0.00000000000E+00  0.00000000000E+00  0.45593999997E+02  0.45594000000E+02  0.51100000000E-03 0.  1.
         11   -1    0    0    0    0 -0.00000000000E+00 -0.00000000000E+00 -0.45593999997E+02  0.45594000000E+02  0.51100000000E-03 0. -1.
         23    2    1    2    0    0  0.00000000000E+00  0.00000000000E+00  0.00000000000E+00  0.91188000000E+02  0.91188000000E+02 0.  0.
    9900012    2    3    3    0    0 -0.13279561041E+01 -0.98179073575E+01  0.35463008663E+02  0.54367085349E+02  0.40000002671E+02 0.  0.
         12    1    3    3    0    0  0.13279561041E+01  0.98179073575E+01 -0.35463008663E+02  0.36820914651E+02  0.00000000000E+00 0. -1.
         11    1    4    4    0    0 -0.92676093473E+01 -0.69361790630E+01  0.48099871332E+01  0.12535355579E+02  0.51100000000E-03 0.  1.
        -11    1    4    4    0    0  0.32884077906E+01  0.24200084992E+01  0.33844873751E+02  0.34090255887E+02  0.51100000000E-03 0. -1.
         12    1    4    4    0    0  0.46512454526E+01 -0.53017367937E+01 -0.31918522214E+01  0.77414738837E+01  0.00000000000E+00 0. -1.
</event>
<event>
 8    1  0.2534787E-006  0.9118800E+02  0.7816164E-02  0.1184000E+00
        -11   -1    0    0    0    0  0.00000000000E+00  0.00000000000E+00  0.45593999997E+02  0.45594000000E+02  0.51100000000E-03 0.  1.
         11   -1    0    0    0    0 -0.00000000000E+00 -0.00000000000E+00 -0.45593999997E+02  0.45594000000E+02  0.51100000000E-03 0. -1.
         23    2    1    2    0    0 -0.44408920985E-15 -0.35527136788E-14  0.35527136788E-14  0.91188000000E+02  0.91188000000E+02 0.  0.
    9900012    2    3    3    0    0 -0.36490293610E+01  0.31260800288E+02 -0.19110885001E+02  0.54367095945E+02  0.40000026825E+02 0.  0.
        -12    1    3    3    0    0  0.36490293610E+01 -0.31260800288E+02  0.19110885001E+02  0.36820904055E+02  0.00000000000E+00 0.  1.
         11    1    4    4    0    0 -0.83347437106E+01  0.25070984525E+02 -0.42102638484E+01  0.26753477152E+02  0.51100000000E-03 0.  1.
        -11    1    4    4    0    0 -0.16877625615E+01 -0.48332989570E+01 -0.13933100784E+02  0.14843874797E+02  0.51100000000E-03 0. -1.
         12    1    4    4    0    0  0.63734769112E+01  0.11023114720E+02 -0.96752036874E+00  0.12769743996E+02  0.00000000000E+00 0. -1.
</event>
<event>
 8    1  0.2534787E-006  0.9118800E+02  0.7816164E-02  0.1184000E+00
        -11   -1    0    0    0    0  0.00000000000E+00  0.00000000000E+00  0.45593999997E+02  0.45594000000E+02  0.51100000000E-03 0.  1.
         11   -1    0    0    0    0 -0.00000000000E+00 -0.00000000000E+00 -0.45593999997E+02  0.45594000000E+02  0.51100000000E-03 0. -1.
         23    2    1    2    0    0  0.17763568394E-14  0.00000000000E+00  0.00000000000E+00  0.91188000000E+02  0.91188000000E+02 0.  0.
    9900012    2    3    3    0    0  0.89097792917E+01  0.16867624963E+02 -0.31494117825E+02  0.54367076648E+02  0.39999982834E+02 0.  0.
        -12    1    3    3    0    0 -0.89097792917E+01 -0.16867624963E+02  0.31494117825E+02  0.36820923352E+02  0.00000000000E+00 0.  1.
         11    1    4    4    0    0  0.93819524756E+01  0.12646573806E+02 -0.10512817107E+02  0.18933467328E+02  0.51100000000E-03 0. -1.
        -11    1    4    4    0    0  0.97853444544E+01 -0.50562045659E+01 -0.90107825675E+00  0.11051249386E+02  0.51100000000E-03 0.  1.
         12    1    4    4    0    0 -0.10257517638E+02  0.92772557235E+01 -0.20080222461E+02  0.24382359934E+02  0.00000000000E+00 0. -1.
</event>
<event>
 8    1  0.2534787E-006  0.9118800E+02  0.7816164E-02  0.1184000E+00
        -11   -1    0    0    0    0  0.00000000000E+00  0.00000000000E+00  0.45593999997E+02  0.45594000000E+02  0.51100000000E-03 0.  1.
         11   -1    0    0    0    0 -0.00000000000E+00 -0.00000000000E+00 -0.45593999997E+02  0.45594000000E+02  0.51100000000E-03 0. -1.
         23    2    1    2    0    0  0.00000000000E+00  0.00000000000E+00 -0.17763568394E-14  0.91188000000E+02  0.91188000000E+02 0.  0.
    9900012    2    3    3    0    0  0.18583035310E+02  0.31296134819E+02 -0.55677993736E+01  0.54367114001E+02  0.40000067987E+02 0.  0.
         12    1    3    3    0    0 -0.18583035310E+02 -0.31296134819E+02  0.55677993736E+01  0.36820885999E+02  0.00000000000E+00 0. -1.
         11    1    4    4    0    0 -0.24032647874E+01  0.55228562109E+01 -0.13911850813E+02  0.15159723469E+02  0.51100000000E-03 0. -1.
        -11    1    4    4    0    0 -0.28351690153E+01  0.78958644733E+01  0.48062304206E+00  0.84032052157E+01  0.51100000000E-03 0.  1.
        -12    1    4    4    0    0  0.23821469113E+02  0.17877414134E+02  0.78634283970E+01  0.30804185316E+02  0.00000000000E+00 0.  1.
</event>
<event>
 8    1  0.2534787E-006  0.9118800E+02  0.7816164E-02  0.1184000E+00
        -11   -1    0    0    0    0  0.00000000000E+00  0.00000000000E+00  0.45593999997E+02  0.45594000000E+02  0.51100000000E-03 0.  1.
         11   -1    0    0    0    0 -0.00000000000E+00 -0.00000000000E+00 -0.45593999997E+02  0.45594000000E+02  0.51100000000E-03 0. -1.
         23    2    1    2    0    0  0.00000000000E+00 -0.35527136788E-14 -0.35527136788E-14  0.91188000000E+02  0.91188000000E+02 0.  0.
    9900012    2    3    3    0    0 -0.21542414045E+02 -0.15369573580E+02 -0.25602353502E+02  0.54367083393E+02  0.39999998212E+02 0.  0.
        -12    1    3    3    0    0  0.21542414045E+02  0.15369573580E+02  0.25602353502E+02  0.36820916607E+02  0.00000000000E+00 0.  1.
         11    1    4    4    0    0  0.23262568899E+01  0.49914518481E+01 -0.73511298843E+01  0.91850516333E+01  0.51100000000E-03 0. -1.
        -11    1    4    4    0    0 -0.21411440823E+02 -0.14709026072E+01 -0.51762992981E+01  0.22077305707E+02  0.51100000000E-03 0.  1.
         12    1    4    4    0    0 -0.24572301115E+01 -0.18890122821E+02 -0.13074924320E+02  0.23104726053E+02  0.00000000000E+00 0. -1.
</event>
<event>
 8    1  0.2534787E-006  0.9118800E+02  0.7816164E-02  0.1184000E+00
        -11   -1    0    0    0    0  0.00000000000E+00  0.00000000000E+00  0.45593999997E+02  0.45594000000E+02  0.51100000000E-03 0. -1.
         11   -1    0    0    0    0 -0.00000000000E+00 -0.00000000000E+00 -0.45593999997E+02  0.45594000000E+02  0.51100000000E-03 0.  1.
         23    2    1    2    0    0  0.71054273576E-14  0.00000000000E+00  0.00000000000E+00  0.91188000000E+02  0.91188000000E+02 0.  0.
    9900012    2    3    3    0    0 -0.27014533321E+02  0.22956962305E+02 -0.99483991513E+01  0.54367112253E+02  0.40000064003E+02 0.  0.
         12    1    3    3    0    0  0.27014533321E+02 -0.22956962305E+02  0.99483991513E+01  0.36820887747E+02  0.00000000000E+00 0. -1.
         11    1    4    4    0    0 -0.91823290902E+01  0.18061487465E+02 -0.85836216653E+01  0.22004796253E+02  0.51100000000E-03 0. -1.
        -11    1    4    4    0    0 -0.14708441240E+02 -0.89589976299E+01 -0.45377739580E+01  0.17809920691E+02  0.51100000000E-03 0.  1.
         12    1    4    4    0    0 -0.31237629905E+01  0.13854472469E+02  0.31729964720E+01  0.14552395309E+02  0.00000000000E+00 0. -1.
</event>
<event>
 8    1  0.2534787E-006  0.9118800E+02  0.7816164E-02  0.1184000E+00
        -11   -1    0    0    0    0  0.00000000000E+00  0.00000000000E+00  0.45593999997E+02  0.45594000000E+02  0.51100000000E-03 0. -1.
         11   -1    0    0    0    0 -0.00000000000E+00 -0.00000000000E+00 -0.45593999997E+02  0.45594000000E+02  0.51100000000E-03 0.  1.
         23    2    1    2    0    0  0.00000000000E+00  0.00000000000E+00  0.00000000000E+00  0.91188000000E+02  0.91188000000E+02 0.  0.
    9900012    2    3    3    0    0 -0.21674183856E+01  0.16149198103E+02 -0.33019474346E+02  0.54367082196E+02  0.39999995482E+02 0.  0.
         12    1    3    3    0    0  0.21674183856E+01 -0.16149198103E+02  0.33019474346E+02  0.36820917804E+02  0.00000000000E+00 0. -1.
         11    1    4    4    0    0  0.23691062443E+01  0.50663592554E+01 -0.75437613853E+00  0.56435577538E+01  0.51100000000E-03 0. -1.
        -11    1    4    4    0    0 -0.45064749513E+01  0.24176249319E+01  0.69127709141E+01  0.85988155446E+01  0.51100000000E-03 0.  1.
        -12    1    4    4    0    0 -0.30049678551E-01  0.86652139161E+01 -0.39177869122E+02  0.40124708898E+02  0.00000000000E+00 0.  1.
</event>
<event>
 8    1  0.2534787E-006  0.9118800E+02  0.7816164E-02  0.1184000E+00
        -11   -1    0    0    0    0  0.00000000000E+00  0.00000000000E+00  0.45593999997E+02  0.45594000000E+02  0.51100000000E-03 0.  1.
         11   -1    0    0    0    0 -0.00000000000E+00 -0.00000000000E+00 -0.45593999997E+02  0.45594000000E+02  0.51100000000E-03 0. -1.
         23    2    1    2    0    0 -0.15126788711E-14  0.00000000000E+00  0.35527136788E-14  0.91188000000E+02  0.91188000000E+02 0.  0.
    9900012    2    3    3    0    0 -0.65519252719E-01  0.20011629478E+02 -0.30908075144E+02  0.54367099465E+02  0.40000034850E+02 0.  0.
        -12    1    3    3    0    0  0.65519252719E-01 -0.20011629478E+02  0.30908075144E+02  0.36820900535E+02  0.00000000000E+00 0.  1.
         11    1    4    4    0    0  0.62033252934E+01  0.70341435296E+01 -0.74913071328E+01  0.12003337149E+02  0.51100000000E-03 0. -1.
        -11    1    4    4    0    0 -0.21046957833E+01  0.23612798713E+02 -0.17741143446E+02  0.29609832462E+02  0.51100000000E-03 0.  1.
         12    1    4    4    0    0 -0.41641487629E+01 -0.10635312764E+02 -0.56756245652E+01  0.12753929854E+02  0.00000000000E+00 0. -1.
</event>
<event>
 8    1  0.2534787E-006  0.9118800E+02  0.7816164E-02  0.1184000E+00
        -11   -1    0    0    0    0  0.00000000000E+00  0.00000000000E+00  0.45593999997E+02  0.45594000000E+02  0.51100000000E-03 0.  1.
         11   -1    0    0    0    0 -0.00000000000E+00 -0.00000000000E+00 -0.45593999997E+02  0.45594000000E+02  0.51100000000E-03 0. -1.
         23    2    1    2    0    0 -0.88817841970E-15  0.00000000000E+00  0.00000000000E+00  0.91188000000E+02  0.91188000000E+02 0.  0.
    9900012    2    3    3    0    0 -0.16629217634E+01  0.23723233443E+02 -0.28110921354E+02  0.54367068274E+02  0.39999963745E+02 0.  0.
        -12    1    3    3    0    0  0.16629217634E+01 -0.23723233443E+02  0.28110921354E+02  0.36820931726E+02  0.00000000000E+00 0.  1.
         11    1    4    4    0    0  0.51120442038E+01  0.12397674742E+02 -0.94283494122E+01  0.16392959094E+02  0.51100000000E-03 0. -1.
        -11    1    4    4    0    0 -0.12933010439E+02 -0.26699755340E+01 -0.18441051236E+02  0.22681796651E+02  0.51100000000E-03 0.  1.
        -12    1    4    4    0    0  0.61580444723E+01  0.13995534235E+02 -0.24152070547E+00  0.15292312529E+02  0.00000000000E+00 0.  1.
</event>
<event>
 8    1  0.2534787E-006  0.9118800E+02  0.7816164E-02  0.1184000E+00
        -11   -1    0    0    0    0  0.00000000000E+00  0.00000000000E+00  0.45593999997E+02  0.45594000000E+02  0.51100000000E-03 0. -1.
         11   -1    0    0    0    0 -0.00000000000E+00 -0.00000000000E+00 -0.45593999997E+02  0.45594000000E+02  0.51100000000E-03 0.  1.
         23    2    1    2    0    0  0.35527136788E-14  0.88817841970E-15  0.71054273576E-14  0.91188000000E+02  0.91188000000E+02 0.  0.
    9900012    2    3    3    0    0 -0.15881285633E+02 -0.65928084675E+01 -0.32559165645E+02  0.54367087133E+02  0.40000006738E+02 0.  0.
         12    1    3    3    0    0  0.15881285633E+02  0.65928084675E+01  0.32559165645E+02  0.36820912867E+02  0.00000000000E+00 0. -1.
         11    1    4    4    0    0 -0.60582357757E+01 -0.89936788397E+00 -0.36268924258E+01  0.71179654561E+01  0.51100000000E-03 0. -1.
        -11    1    4    4    0    0 -0.21059962141E+02 -0.17542494375E+01 -0.28306896590E+02  0.35325342055E+02  0.51100000000E-03 0.  1.
         12    1    4    4    0    0  0.11236912284E+02 -0.39391911461E+01 -0.62537662866E+00  0.11923779622E+02  0.00000000000E+00 0. -1.
</event>
<event>
 8    1  0.2534787E-006  0.9118800E+02  0.7816164E-02  0.1184000E+00
        -11   -1    0    0    0    0  0.00000000000E+00  0.00000000000E+00  0.45593999997E+02  0.45594000000E+02  0.51100000000E-03 0. -1.
         11   -1    0    0    0    0 -0.00000000000E+00 -0.00000000000E+00 -0.45593999997E+02  0.45594000000E+02  0.51100000000E-03 0.  1.
         23    2    1    2    0    0 -0.88817841970E-15  0.00000000000E+00  0.35527136788E-14  0.91188000000E+02  0.91188000000E+02 0.  0.
    9900012    2    3    3    0    0 -0.37089216949E+01 -0.25582856286E+02  0.26220900236E+02  0.54367160179E+02  0.40000173260E+02 0.  0.
        -12    1    3    3    0    0  0.37089216949E+01  0.25582856286E+02 -0.26220900236E+02  0.36820839821E+02  0.00000000000E+00 0.  1.
         11    1    4    4    0    0  0.10546934923E+02 -0.77954991513E+00  0.24932091354E+01  0.10865616705E+02  0.51100000000E-03 0. -1.
        -11    1    4    4    0    0 -0.14571151775E+01  0.70253964025E-01  0.13711914657E+02  0.13789297447E+02  0.51100000000E-03 0.  1.
         12    1    4    4    0    0 -0.12798741440E+02 -0.24873560335E+02  0.10015776444E+02  0.29712246027E+02  0.00000000000E+00 0. -1.
</event>
<event>
 8    1  0.2534787E-006  0.9118800E+02  0.7816164E-02  0.1184000E+00
        -11   -1    0    0    0    0  0.00000000000E+00  0.00000000000E+00  0.45593999997E+02  0.45594000000E+02  0.51100000000E-03 0.  1.
         11   -1    0    0    0    0 -0.00000000000E+00 -0.00000000000E+00 -0.45593999997E+02  0.45594000000E+02  0.51100000000E-03 0. -1.
         23    2    1    2    0    0  0.00000000000E+00  0.00000000000E+00  0.00000000000E+00  0.91188000000E+02  0.91188000000E+02 0.  0.
    9900012    2    3    3    0    0 -0.19874316532E+02  0.22009858181E+02 -0.21825439268E+02  0.54367189118E+02  0.40000239231E+02 0.  0.
        -12    1    3    3    0    0  0.19874316532E+02 -0.22009858181E+02  0.21825439268E+02  0.36820810882E+02  0.00000000000E+00 0.  1.
         11    1    4    4    0    0 -0.14079613431E+02  0.11174540955E+01 -0.19641491232E+02  0.24192403685E+02  0.51100000000E-03 0. -1.
        -11    1    4    4    0    0  0.41490486517E+01 -0.47377478267E+00 -0.49159089435E+01  0.64502114896E+01  0.51100000000E-03 0.  1.
         12    1    4    4    0    0 -0.99437517533E+01  0.21366178868E+02  0.27319609074E+01  0.23724573943E+02  0.00000000000E+00 0. -1.
</event>
<event>
 8    1  0.2534787E-006  0.9118800E+02  0.7816164E-02  0.1184000E+00
        -11   -1    0    0    0    0  0.00000000000E+00  0.00000000000E+00  0.45593999997E+02  0.45594000000E+02  0.51100000000E-03 0. -1.
         11   -1    0    0    0    0 -0.00000000000E+00 -0.00000000000E+00 -0.45593999997E+02  0.45594000000E+02  0.51100000000E-03 0.  1.
         23    2    1    2    0    0  0.00000000000E+00  0.44408920985E-15 -0.17763568394E-14  0.91188000000E+02  0.91188000000E+02 0.  0.
    9900012    2    3    3    0    0 -0.33494934640E+02 -0.16709830901E+01  0.15201255000E+02  0.54367068662E+02  0.39999964628E+02 0.  0.
        -12    1    3    3    0    0  0.33494934640E+02  0.16709830901E+01 -0.15201255000E+02  0.36820931338E+02  0.00000000000E+00 0.  1.
         11    1    4    4    0    0 -0.16249673677E+02 -0.14040523702E+02  0.27118394016E+01  0.21645837328E+02  0.51100000000E-03 0.  1.
        -11    1    4    4    0    0 -0.13377795674E+02 -0.33380367670E+01  0.35448453344E+01  0.14236356109E+02  0.51100000000E-03 0. -1.
        -12    1    4    4    0    0 -0.38674652884E+01  0.15707577378E+02  0.89445702642E+01  0.18484875225E+02  0.00000000000E+00 0.  1.
</event>
<event>
 8    1  0.2534787E-006  0.9118800E+02  0.7816164E-02  0.1184000E+00
        -11   -1    0    0    0    0  0.00000000000E+00  0.00000000000E+00  0.45593999997E+02  0.45594000000E+02  0.51100000000E-03 0.  1.
         11   -1    0    0    0    0 -0.00000000000E+00 -0.00000000000E+00 -0.45593999997E+02  0.45594000000E+02  0.51100000000E-03 0. -1.
         23    2    1    2    0    0  0.00000000000E+00 -0.17763568394E-14  0.71054273576E-14  0.91188000000E+02  0.91188000000E+02 0.  0.
    9900012    2    3    3    0    0  0.14561248969E+02 -0.79865306603E+01 -0.32862863112E+02  0.54367049232E+02  0.39999920335E+02 0.  0.
        -12    1    3    3    0    0 -0.14561248969E+02  0.79865306603E+01  0.32862863112E+02  0.36820950768E+02  0.00000000000E+00 0.  1.
         11    1    4    4    0    0  0.12055298661E+02 -0.19491119524E+02 -0.26831982239E+02  0.35287239014E+02  0.51100000000E-03 0. -1.
        -11    1    4    4    0    0  0.97713236070E-01 -0.31773130469E+01 -0.15824754077E+01  0.35509287168E+01  0.51100000000E-03 0.  1.
        -12    1    4    4    0    0  0.24082370725E+01  0.14681901911E+02 -0.44484054650E+01  0.15528881502E+02  0.00000000000E+00 0.  1.
</event>
<event>
 8    1  0.2534787E-006  0.9118800E+02  0.7816164E-02  0.1184000E+00
        -11   -1    0    0    0    0  0.00000000000E+00  0.00000000000E+00  0.45593999997E+02  0.45594000000E+02  0.51100000000E-03 0.  1.
         11   -1    0    0    0    0 -0.00000000000E+00 -0.00000000000E+00 -0.45593999997E+02  0.45594000000E+02  0.51100000000E-03 0. -1.
         23    2    1    2    0    0  0.00000000000E+00  0.00000000000E+00  0.00000000000E+00  0.91188000000E+02  0.91188000000E+02 0.  0.
    9900012    2    3    3    0    0 -0.23625384858E+02 -0.28034197270E+02 -0.34211205078E+01  0.54367094365E+02  0.40000023224E+02 0.  0.
        -12    1    3    3    0    0  0.23625384858E+02  0.28034197270E+02  0.34211205078E+01  0.36820905635E+02  0.00000000000E+00 0.  1.
         11    1    4    4    0    0 -0.18408663866E+02 -0.93348746870E+01 -0.45455609225E+01  0.21134827066E+02  0.51100000000E-03 0. -1.
        -11    1    4    4    0    0 -0.14498485978E+02 -0.45727860658E+01 -0.37156182094E+01  0.15649993194E+02  0.51100000000E-03 0.  1.
        -12    1    4    4    0    0  0.92817649856E+01 -0.14126536517E+02  0.48400586241E+01  0.17582274105E+02  0.00000000000E+00 0.  1.
</event>
<event>
 8    1  0.2534787E-006  0.9118800E+02  0.7816164E-02  0.1184000E+00
        -11   -1    0    0    0    0  0.00000000000E+00  0.00000000000E+00  0.45593999997E+02  0.45594000000E+02  0.51100000000E-03 0. -1.
         11   -1    0    0    0    0 -0.00000000000E+00 -0.00000000000E+00 -0.45593999997E+02  0.45594000000E+02  0.51100000000E-03 0.  1.
         23    2    1    2    0    0  0.00000000000E+00  0.17763568394E-14  0.00000000000E+00  0.91188000000E+02  0.91188000000E+02 0.  0.
    9900012    2    3    3    0    0 -0.10036965596E+02 -0.14857567830E+02  0.32160407624E+02  0.54367084494E+02  0.40000000720E+02 0.  0.
        -12    1    3    3    0    0  0.10036965596E+02  0.14857567830E+02 -0.32160407624E+02  0.36820915506E+02  0.00000000000E+00 0.  1.
         11    1    4    4    0    0 -0.31473792347E+01  0.68353589125E+01  0.12052902874E+02  0.14209172934E+02  0.51100000000E-03 0. -1.
        -11    1    4    4    0    0 -0.41576485299E+01 -0.26694511259E+02  0.10495558489E+02  0.28983438735E+02  0.51100000000E-03 0.  1.
        -12    1    4    4    0    0 -0.27319378310E+01  0.50015845168E+01  0.96119462612E+01  0.11174472825E+02  0.00000000000E+00 0.  1.
</event>
<event>
 8    1  0.2534787E-006  0.9118800E+02  0.7816164E-02  0.1184000E+00
        -11   -1    0    0    0    0  0.00000000000E+00  0.00000000000E+00  0.45593999997E+02  0.45594000000E+02  0.51100000000E-03 0.  1.
         11   -1    0    0    0    0 -0.00000000000E+00 -0.00000000000E+00 -0.45593999997E+02  0.45594000000E+02  0.51100000000E-03 0. -1.
         23    2    1    2    0    0 -0.17763568394E-14  0.88817841970E-15  0.00000000000E+00  0.91188000000E+02  0.91188000000E+02 0.  0.
    9900012    2    3    3    0    0 -0.77865532133E+01 -0.75589767539E+01  0.35185380789E+02  0.54367087982E+02  0.40000008674E+02 0.  0.
         12    1    3    3    0    0  0.77865532133E+01  0.75589767539E+01 -0.35185380789E+02  0.36820912018E+02  0.00000000000E+00 0. -1.
         11    1    4    4    0    0 -0.25377253900E+01 -0.27903982347E+00 -0.16745972378E+01  0.30532260886E+01  0.51100000000E-03 0. -1.
        -11    1    4    4    0    0  0.11046820430E+02  0.71716069040E+01  0.19149586628E+02  0.23241576011E+02  0.51100000000E-03 0.  1.
        -12    1    4    4    0    0 -0.16295648253E+02 -0.14451543834E+02  0.17710391399E+02  0.28072285883E+02  0.00000000000E+00 0.  1.
</event>
<event>
 8    1  0.2534787E-006  0.9118800E+02  0.7816164E-02  0.1184000E+00
        -11   -1    0    0    0    0  0.00000000000E+00  0.00000000000E+00  0.45593999997E+02  0.45594000000E+02  0.51100000000E-03 0. -1.
         11   -1    0    0    0    0 -0.00000000000E+00 -0.00000000000E+00 -0.45593999997E+02  0.45594000000E+02  0.51100000000E-03 0.  1.
         23    2    1    2    0    0  0.71054273576E-14  0.17763568394E-14  0.17763568394E-14  0.91188000000E+02  0.91188000000E+02 0.  0.
    9900012    2    3    3    0    0 -0.35591662168E+02 -0.87876495675E+01 -0.34334074441E+01  0.54367116150E+02  0.40000072888E+02 0.  0.
         12    1    3    3    0    0  0.35591662168E+02  0.87876495675E+01  0.34334074441E+01  0.36820883850E+02  0.00000000000E+00 0. -1.
         11    1    4    4    0    0  0.35925947009E+01 -0.43254879740E+01  0.16146607638E+01  0.58501036351E+01  0.51100000000E-03 0. -1.
        -11    1    4    4    0    0 -0.18675478832E+02 -0.13010398726E+02 -0.11333383157E+02  0.25426158944E+02  0.51100000000E-03 0.  1.
         12    1    4    4    0    0 -0.20508778037E+02  0.85482371323E+01  0.62853149488E+01  0.23090853572E+02  0.00000000000E+00 0. -1.
</event>
<event>
 8    1  0.2534787E-006  0.9118800E+02  0.7816164E-02  0.1184000E+00
        -11   -1    0    0    0    0  0.00000000000E+00  0.00000000000E+00  0.45593999997E+02  0.45594000000E+02  0.51100000000E-03 0.  1.
         11   -1    0    0    0    0 -0.00000000000E+00 -0.00000000000E+00 -0.45593999997E+02  0.45594000000E+02  0.51100000000E-03 0. -1.
         23    2    1    2    0    0 -0.71054273576E-14  0.17763568394E-14 -0.35527136788E-14  0.91188000000E+02  0.91188000000E+02 0.  0.
    9900012    2    3    3    0    0  0.28747284237E+02 -0.12539366356E+02  0.19290845652E+02  0.54367098523E+02  0.40000032702E+02 0.  0.
         12    1    3    3    0    0 -0.28747284237E+02  0.12539366356E+02 -0.19290845652E+02  0.36820901477E+02  0.00000000000E+00 0. -1.
         11    1    4    4    0    0  0.11903928724E+02  0.31392015780E+01 -0.30214237276E+01  0.12676241841E+02  0.51100000000E-03 0. -1.
        -11    1    4    4    0    0  0.33781858546E+01  0.75764095636E+01  0.62262820035E+01  0.10372112099E+02  0.51100000000E-03 0.  1.
        -12    1    4    4    0    0  0.13465169659E+02 -0.23254977498E+02  0.16085987376E+02  0.31318744583E+02  0.00000000000E+00 0.  1.
</event>
<event>
 8    1  0.2534787E-006  0.9118800E+02  0.7816164E-02  0.1184000E+00
        -11   -1    0    0    0    0  0.00000000000E+00  0.00000000000E+00  0.45593999997E+02  0.45594000000E+02  0.51100000000E-03 0. -1.
         11   -1    0    0    0    0 -0.00000000000E+00 -0.00000000000E+00 -0.45593999997E+02  0.45594000000E+02  0.51100000000E-03 0.  1.
         23    2    1    2    0    0 -0.71054273576E-14  0.35527136788E-14  0.00000000000E+00  0.91188000000E+02  0.91188000000E+02 0.  0.
    9900012    2    3    3    0    0  0.23867683183E+02 -0.22359784864E+02 -0.16916079704E+02  0.54367081594E+02  0.39999994111E+02 0.  0.
         12    1    3    3    0    0 -0.23867683183E+02  0.22359784864E+02  0.16916079704E+02  0.36820918406E+02  0.00000000000E+00 0. -1.
         11    1    4    4    0    0  0.17119903412E+01  0.31878083651E+00 -0.84890147333E+01  0.86657892631E+01  0.51100000000E-03 0. -1.
        -11    1    4    4    0    0  0.15349312469E+02 -0.14540628648E+02 -0.20623908194E+02  0.29536026547E+02  0.51100000000E-03 0.  1.
         12    1    4    4    0    0  0.68063803735E+01 -0.81379370520E+01  0.12196843224E+02  0.16165265784E+02  0.00000000000E+00 0. -1.
</event>
<event>
 8    1  0.2534787E-006  0.9118800E+02  0.7816164E-02  0.1184000E+00
        -11   -1    0    0    0    0  0.00000000000E+00  0.00000000000E+00  0.45593999997E+02  0.45594000000E+02  0.51100000000E-03 0.  1.
         11   -1    0    0    0    0 -0.00000000000E+00 -0.00000000000E+00 -0.45593999997E+02  0.45594000000E+02  0.51100000000E-03 0. -1.
         23    2    1    2    0    0  0.35527136788E-14  0.00000000000E+00  0.00000000000E+00  0.91188000000E+02  0.91188000000E+02 0.  0.
    9900012    2    3    3    0    0  0.55034697499E+01  0.17038426643E+02 -0.32174277141E+02  0.54367078348E+02  0.39999986709E+02 0.  0.
        -12    1    3    3    0    0 -0.55034697499E+01 -0.17038426643E+02  0.32174277141E+02  0.36820921652E+02  0.00000000000E+00 0.  1.
         11    1    4    4    0    0  0.19897737458E+02  0.91719290533E+01 -0.24391397388E+02  0.32786956329E+02  0.51100000000E-03 0. -1.
        -11    1    4    4    0    0 -0.98726161981E+01  0.50652609231E+01 -0.10783686702E+02  0.15472986718E+02  0.51100000000E-03 0.  1.
        -12    1    4    4    0    0 -0.45216515097E+01  0.28012366671E+01  0.30008069494E+01  0.61071353012E+01  0.00000000000E+00 0.  1.
</event>
<event>
 8    1  0.2534787E-006  0.9118800E+02  0.7816164E-02  0.1184000E+00
        -11   -1    0    0    0    0  0.00000000000E+00  0.00000000000E+00  0.45593999997E+02  0.45594000000E+02  0.51100000000E-03 0. -1.
         11   -1    0    0    0    0 -0.00000000000E+00 -0.00000000000E+00 -0.45593999997E+02  0.45594000000E+02  0.51100000000E-03 0.  1.
         23    2    1    2    0    0  0.00000000000E+00  0.00000000000E+00  0.00000000000E+00  0.91188000000E+02  0.91188000000E+02 0.  0.
    9900012    2    3    3    0    0  0.19589434631E+02 -0.29629198032E+02 -0.97028772599E+01  0.54367066385E+02  0.39999959437E+02 0.  0.
         12    1    3    3    0    0 -0.19589434631E+02  0.29629198032E+02  0.97028772599E+01  0.36820933615E+02  0.00000000000E+00 0. -1.
         11    1    4    4    0    0  0.97071127099E+01  0.21163511802E+01 -0.67089869985E+01  0.11988222816E+02  0.51100000000E-03 0.  1.
        -11    1    4    4    0    0  0.14788412698E+02 -0.29229812636E+02  0.45103110172E+01  0.33066932161E+02  0.51100000000E-03 0. -1.
         12    1    4    4    0    0 -0.49060907763E+01 -0.25157365765E+01 -0.75042012786E+01  0.93119114073E+01  0.00000000000E+00 0. -1.
</event>
<event>
 8    1  0.2534787E-006  0.9118800E+02  0.7816164E-02  0.1184000E+00
        -11   -1    0    0    0    0  0.00000000000E+00  0.00000000000E+00  0.45593999997E+02  0.45594000000E+02  0.51100000000E-03 0.  1.
         11   -1    0    0    0    0 -0.00000000000E+00 -0.00000000000E+00 -0.45593999997E+02  0.45594000000E+02  0.51100000000E-03 0. -1.
         23    2    1    2    0    0  0.00000000000E+00  0.00000000000E+00  0.00000000000E+00  0.91188000000E+02  0.91188000000E+02 0.  0.
    9900012    2    3    3    0    0  0.27329002629E+02 -0.15620861692E+02  0.19102213038E+02  0.54367078669E+02  0.39999987441E+02 0.  0.
        -12    1    3    3    0    0 -0.27329002629E+02  0.15620861692E+02 -0.19102213038E+02  0.36820921331E+02  0.00000000000E+00 0.  1.
         11    1    4    4    0    0 -0.12452423054E+01 -0.54513295163E+01 -0.90161984415E+01  0.10609404153E+02  0.51100000000E-03 0. -1.
        -11    1    4    4    0    0  0.21017274072E+02 -0.12280961760E+02  0.15371618321E+02  0.28789485603E+02  0.51100000000E-03 0.  1.
        -12    1    4    4    0    0  0.75569708622E+01  0.21114295843E+01  0.12746793158E+02  0.14968188913E+02  0.00000000000E+00 0.  1.
</event>
<event>
 8    1  0.2534787E-006  0.9118800E+02  0.7816164E-02  0.1184000E+00
        -11   -1    0    0    0    0  0.00000000000E+00  0.00000000000E+00  0.45593999997E+02  0.45594000000E+02  0.51100000000E-03 0.  1.
         11   -1    0    0    0    0 -0.00000000000E+00 -0.00000000000E+00 -0.45593999997E+02  0.45594000000E+02  0.51100000000E-03 0. -1.
         23    2    1    2    0    0  0.00000000000E+00  0.00000000000E+00  0.00000000000E+00  0.91188000000E+02  0.91188000000E+02 0.  0.
    9900012    2    3    3    0    0 -0.52081672632E+01 -0.13798400111E+02  0.33738191995E+02  0.54366994433E+02  0.39999795408E+02 0.  0.
         12    1    3    3    0    0  0.52081672632E+01  0.13798400111E+02 -0.33738191995E+02  0.36821005567E+02  0.00000000000E+00 0. -1.
         11    1    4    4    0    0  0.13496480912E+02  0.29082335495E+01  0.30381450878E+01  0.14136588882E+02  0.51100000000E-03 0. -1.
        -11    1    4    4    0    0 -0.44312295797E+01 -0.83121008880E+01  0.10353435136E+02  0.13997158145E+02  0.51100000000E-03 0.  1.
         12    1    4    4    0    0 -0.14273418595E+02 -0.83945327725E+01  0.20346611772E+02  0.26233247406E+02  0.00000000000E+00 0. -1.
</event>
<event>
 8    1  0.2534787E-006  0.9118800E+02  0.7816164E-02  0.1184000E+00
        -11   -1    0    0    0    0  0.00000000000E+00  0.00000000000E+00  0.45593999997E+02  0.45594000000E+02  0.51100000000E-03 0. -1.
         11   -1    0    0    0    0 -0.00000000000E+00 -0.00000000000E+00 -0.45593999997E+02  0.45594000000E+02  0.51100000000E-03 0.  1.
         23    2    1    2    0    0  0.00000000000E+00  0.00000000000E+00  0.00000000000E+00  0.91188000000E+02  0.91188000000E+02 0.  0.
    9900012    2    3    3    0    0  0.18784072901E+02  0.30084773932E+02  0.98916515847E+01  0.54367084906E+02  0.40000001661E+02 0.  0.
        -12    1    3    3    0    0 -0.18784072901E+02 -0.30084773932E+02 -0.98916515847E+01  0.36820915094E+02  0.00000000000E+00 0.  1.
         11    1    4    4    0    0  0.10705404215E+02  0.97988347178E+01  0.16383958217E+02  0.21887369150E+02  0.51100000000E-03 0. -1.
        -11    1    4    4    0    0  0.31768281671E+01  0.24049535757E+02 -0.11089434980E+01  0.24283783957E+02  0.51100000000E-03 0.  1.
        -12    1    4    4    0    0  0.49018405192E+01 -0.37635965435E+01 -0.53833631338E+01  0.81959317986E+01  0.00000000000E+00 0.  1.
</event>
<event>
 8    1  0.2534787E-006  0.9118800E+02  0.7816164E-02  0.1184000E+00
        -11   -1    0    0    0    0  0.00000000000E+00  0.00000000000E+00  0.45593999997E+02  0.45594000000E+02  0.51100000000E-03 0.  1.
         11   -1    0    0    0    0 -0.00000000000E+00 -0.00000000000E+00 -0.45593999997E+02  0.45594000000E+02  0.51100000000E-03 0. -1.
         23    2    1    2    0    0 -0.35527136788E-14 -0.17763568394E-14  0.00000000000E+00  0.91188000000E+02  0.91188000000E+02 0.  0.
    9900012    2    3    3    0    0 -0.24825459883E+02 -0.86773452988E+01 -0.25771698543E+02  0.54367078968E+02  0.39999988123E+02 0.  0.
        -12    1    3    3    0    0  0.24825459883E+02  0.86773452988E+01  0.25771698543E+02  0.36820921032E+02  0.00000000000E+00 0.  1.
         11    1    4    4    0    0 -0.12363780330E+02  0.59275962255E-01 -0.12346651377E+02  0.17473018577E+02  0.51100000000E-03 0. -1.
        -11    1    4    4    0    0  0.25518677698E+01 -0.52475882272E+01  0.83676635263E+01  0.10201323663E+02  0.51100000000E-03 0.  1.
        -12    1    4    4    0    0 -0.15013547323E+02 -0.34890330338E+01 -0.21792710693E+02  0.26692736729E+02  0.00000000000E+00 0.  1.
</event>
<event>
 8    1  0.2534787E-006  0.9118800E+02  0.7816164E-02  0.1184000E+00
        -11   -1    0    0    0    0  0.00000000000E+00  0.00000000000E+00  0.45593999997E+02  0.45594000000E+02  0.51100000000E-03 0.  1.
         11   -1    0    0    0    0 -0.00000000000E+00 -0.00000000000E+00 -0.45593999997E+02  0.45594000000E+02  0.51100000000E-03 0. -1.
         23    2    1    2    0    0  0.00000000000E+00  0.35527136788E-14 -0.71054273576E-14  0.91188000000E+02  0.91188000000E+02 0.  0.
    9900012    2    3    3    0    0 -0.89984158351E+01 -0.14576121130E+02  0.32593629454E+02  0.54367089151E+02  0.40000011337E+02 0.  0.
         12    1    3    3    0    0  0.89984158351E+01  0.14576121130E+02 -0.32593629454E+02  0.36820910849E+02  0.00000000000E+00 0. -1.
         11    1    4    4    0    0 -0.87145311171E+01 -0.79130784716E+00 -0.54924973863E+00  0.87676049316E+01  0.51100000000E-03 0. -1.
        -11    1    4    4    0    0  0.21676136163E+00  0.77848729360E+00  0.30835434011E+02  0.30846021119E+02  0.51100000000E-03 0.  1.
         12    1    4    4    0    0 -0.50064607963E+00 -0.14563300577E+02  0.23074451818E+01  0.14753463100E+02  0.00000000000E+00 0. -1.
</event>
<event>
 8    1  0.2534787E-006  0.9118800E+02  0.7816164E-02  0.1184000E+00
        -11   -1    0    0    0    0  0.00000000000E+00  0.00000000000E+00  0.45593999997E+02  0.45594000000E+02  0.51100000000E-03 0.  1.
         11   -1    0    0    0    0 -0.00000000000E+00 -0.00000000000E+00 -0.45593999997E+02  0.45594000000E+02  0.51100000000E-03 0. -1.
         23    2    1    2    0    0  0.00000000000E+00 -0.35527136788E-14  0.35527136788E-14  0.91188000000E+02  0.91188000000E+02 0.  0.
    9900012    2    3    3    0    0 -0.12110033356E+02  0.29990489814E+02 -0.17598259665E+02  0.54367066682E+02  0.39999960114E+02 0.  0.
         12    1    3    3    0    0  0.12110033356E+02 -0.29990489814E+02  0.17598259665E+02  0.36820933318E+02  0.00000000000E+00 0. -1.
         11    1    4    4    0    0 -0.17854303522E+02  0.34779533437E+02 -0.20424464670E+02  0.44108398946E+02  0.51100000000E-03 0. -1.
        -11    1    4    4    0    0  0.28517622002E+01 -0.59971163340E+01  0.12778332681E+01  0.67624559217E+01  0.51100000000E-03 0.  1.
         12    1    4    4    0    0  0.28925079661E+01  0.12080727119E+01  0.15483717363E+01  0.34962118135E+01  0.00000000000E+00 0. -1.
</event>
<event>
 8    1  0.2534787E-006  0.9118800E+02  0.7816164E-02  0.1184000E+00
        -11   -1    0    0    0    0  0.00000000000E+00  0.00000000000E+00  0.45593999997E+02  0.45594000000E+02  0.51100000000E-03 0.  1.
         11   -1    0    0    0    0 -0.00000000000E+00 -0.00000000000E+00 -0.45593999997E+02  0.45594000000E+02  0.51100000000E-03 0. -1.
         23    2    1    2    0    0  0.00000000000E+00 -0.17763568394E-14  0.00000000000E+00  0.91188000000E+02  0.91188000000E+02 0.  0.
    9900012    2    3    3    0    0 -0.27925177226E+02  0.12480284173E+02  0.20498937416E+02  0.54367089483E+02  0.40000012094E+02 0.  0.
         12    1    3    3    0    0  0.27925177226E+02 -0.12480284173E+02 -0.20498937416E+02  0.36820910517E+02  0.00000000000E+00 0. -1.
         11    1    4    4    0    0 -0.90080716564E+01  0.10488232525E+01 -0.49728852146E+01  0.10342870627E+02  0.51100000000E-03 0. -1.
        -11    1    4    4    0    0 -0.98423380072E+01  0.37461076417E+01 -0.47456124726E+01  0.11551007658E+02  0.51100000000E-03 0.  1.
         12    1    4    4    0    0 -0.90747675625E+01  0.76853532783E+01  0.30217435103E+02  0.32473211198E+02  0.00000000000E+00 0. -1.
</event>
<event>
 8    1  0.2534787E-006  0.9118800E+02  0.7816164E-02  0.1184000E+00
        -11   -1    0    0    0    0  0.00000000000E+00  0.00000000000E+00  0.45593999997E+02  0.45594000000E+02  0.51100000000E-03 0.  1.
         11   -1    0    0    0    0 -0.00000000000E+00 -0.00000000000E+00 -0.45593999997E+02  0.45594000000E+02  0.51100000000E-03 0. -1.
         23    2    1    2    0    0 -0.35527136788E-14 -0.35527136788E-14  0.00000000000E+00  0.91188000000E+02  0.91188000000E+02 0.  0.
    9900012    2    3    3    0    0 -0.22550378546E+02 -0.28272706146E+02 -0.69222759234E+01  0.54367036007E+02  0.39999890186E+02 0.  0.
         12    1    3    3    0    0  0.22550378546E+02  0.28272706146E+02  0.69222759234E+01  0.36820963993E+02  0.00000000000E+00 0. -1.
         11    1    4    4    0    0 -0.65959499546E+01 -0.20979661333E+01  0.11598344218E+02  0.13506650456E+02  0.51100000000E-03 0. -1.
        -11    1    4    4    0    0 -0.18174119503E+02 -0.11394025089E+02 -0.11657781905E+02  0.24413650007E+02  0.51100000000E-03 0.  1.
         12    1    4    4    0    0  0.22196909119E+01 -0.14780714924E+02 -0.68628382364E+01  0.16446735544E+02  0.00000000000E+00 0. -1.
</event>
<event>
 8    1  0.2534787E-006  0.9118800E+02  0.7816164E-02  0.1184000E+00
        -11   -1    0    0    0    0  0.00000000000E+00  0.00000000000E+00  0.45593999997E+02  0.45594000000E+02  0.51100000000E-03 0.  1.
         11   -1    0    0    0    0 -0.00000000000E+00 -0.00000000000E+00 -0.45593999997E+02  0.45594000000E+02  0.51100000000E-03 0. -1.
         23    2    1    2    0    0  0.17763568394E-14  0.71054273576E-14 -0.17763568394E-14  0.91188000000E+02  0.91188000000E+02 0.  0.
    9900012    2    3    3    0    0 -0.10462728653E+02 -0.33526486590E+02  0.11058301161E+02  0.54367081781E+02  0.39999994536E+02 0.  0.
         12    1    3    3    0    0  0.10462728653E+02  0.33526486590E+02 -0.11058301161E+02  0.36820918219E+02  0.00000000000E+00 0. -1.
         11    1    4    4    0    0  0.43392112749E+01 -0.10597545653E+02 -0.10005382213E+02  0.15206722258E+02  0.51100000000E-03 0. -1.
        -11    1    4    4    0    0 -0.87232166299E+01 -0.92806196011E+01 -0.70661137210E+00  0.12756320333E+02  0.51100000000E-03 0.  1.
        -12    1    4    4    0    0 -0.60787232982E+01 -0.13648321336E+02  0.21770294745E+02  0.26404039190E+02  0.00000000000E+00 0.  1.
</event>
<event>
 8    1  0.2534787E-006  0.9118800E+02  0.7816164E-02  0.1184000E+00
        -11   -1    0    0    0    0  0.00000000000E+00  0.00000000000E+00  0.45593999997E+02  0.45594000000E+02  0.51100000000E-03 0.  1.
         11   -1    0    0    0    0 -0.00000000000E+00 -0.00000000000E+00 -0.45593999997E+02  0.45594000000E+02  0.51100000000E-03 0. -1.
         23    2    1    2    0    0  0.00000000000E+00  0.00000000000E+00  0.00000000000E+00  0.91188000000E+02  0.91188000000E+02 0.  0.
    9900012    2    3    3    0    0  0.22993795709E+02 -0.19053971894E+02  0.21540899897E+02  0.54367097588E+02  0.40000030571E+02 0.  0.
         12    1    3    3    0    0 -0.22993795709E+02  0.19053971894E+02 -0.21540899897E+02  0.36820902412E+02  0.00000000000E+00 0. -1.
         11    1    4    4    0    0  0.13661760239E+02 -0.30105761180E+01  0.45407326915E+01  0.14708008534E+02  0.51100000000E-03 0. -1.
        -11    1    4    4    0    0  0.46071718113E+01 -0.13440328858E+02  0.25732786817E+02  0.29394638789E+02  0.51100000000E-03 0.  1.
        -12    1    4    4    0    0  0.47248636589E+01 -0.26030669183E+01 -0.87326196110E+01  0.10264450265E+02  0.00000000000E+00 0.  1.
</event>
<event>
 8    1  0.2534787E-006  0.9118800E+02  0.7816164E-02  0.1184000E+00
        -11   -1    0    0    0    0  0.00000000000E+00  0.00000000000E+00  0.45593999997E+02  0.45594000000E+02  0.51100000000E-03 0.  1.
         11   -1    0    0    0    0 -0.00000000000E+00 -0.00000000000E+00 -0.45593999997E+02  0.45594000000E+02  0.51100000000E-03 0. -1.
         23    2    1    2    0    0  0.00000000000E+00  0.00000000000E+00  0.00000000000E+00  0.91188000000E+02  0.91188000000E+02 0.  0.
    9900012    2    3    3    0    0 -0.15262020507E+02  0.30104458172E+02 -0.14716371541E+02  0.54367092038E+02  0.40000017919E+02 0.  0.
        -12    1    3    3    0    0  0.15262020507E+02 -0.30104458172E+02  0.14716371541E+02  0.36820907962E+02  0.00000000000E+00 0.  1.
         11    1    4    4    0    0 -0.15939325362E+02  0.10480923929E+02 -0.15849636255E+02  0.24801669885E+02  0.51100000000E-03 0. -1.
        -11    1    4    4    0    0  0.97028428981E+01  0.25605473939E+01  0.20435090096E+01  0.10240971272E+02  0.51100000000E-03 0.  1.
        -12    1    4    4    0    0 -0.90255380434E+01  0.17062986849E+02 -0.91024429600E+00  0.19324450882E+02  0.00000000000E+00 0.  1.
</event>
<event>
 8    1  0.2534787E-006  0.9118800E+02  0.7816164E-02  0.1184000E+00
        -11   -1    0    0    0    0  0.00000000000E+00  0.00000000000E+00  0.45593999997E+02  0.45594000000E+02  0.51100000000E-03 0. -1.
         11   -1    0    0    0    0 -0.00000000000E+00 -0.00000000000E+00 -0.45593999997E+02  0.45594000000E+02  0.51100000000E-03 0.  1.
         23    2    1    2    0    0  0.16653345369E-14  0.00000000000E+00 -0.17763568394E-14  0.91188000000E+02  0.91188000000E+02 0.  0.
    9900012    2    3    3    0    0  0.54318958140E+00  0.35081131699E+02 -0.11171318198E+02  0.54367092807E+02  0.40000019673E+02 0.  0.
        -12    1    3    3    0    0 -0.54318958140E+00 -0.35081131699E+02  0.11171318198E+02  0.36820907193E+02  0.00000000000E+00 0.  1.
         11    1    4    4    0    0 -0.89430438247E+01 -0.50505405620E+01  0.76278161862E+00  0.10298923676E+02  0.51100000000E-03 0. -1.
        -11    1    4    4    0    0  0.59729771027E+01  0.93784156120E+01 -0.70601370012E+00  0.11141345990E+02  0.51100000000E-03 0.  1.
         12    1    4    4    0    0  0.35132563034E+01  0.30753256649E+02 -0.11228086117E+02  0.32926823142E+02  0.00000000000E+00 0. -1.
</event>
<event>
 8    1  0.2534787E-006  0.9118800E+02  0.7816164E-02  0.1184000E+00
        -11   -1    0    0    0    0  0.00000000000E+00  0.00000000000E+00  0.45593999997E+02  0.45594000000E+02  0.51100000000E-03 0. -1.
         11   -1    0    0    0    0 -0.00000000000E+00 -0.00000000000E+00 -0.45593999997E+02  0.45594000000E+02  0.51100000000E-03 0.  1.
         23    2    1    2    0    0  0.00000000000E+00  0.00000000000E+00  0.35527136788E-14  0.91188000000E+02  0.91188000000E+02 0.  0.
    9900012    2    3    3    0    0  0.19242920884E+02  0.48378598474E+01 -0.31017266186E+02  0.54367276301E+02  0.40000437981E+02 0.  0.
         12    1    3    3    0    0 -0.19242920884E+02 -0.48378598474E+01  0.31017266186E+02  0.36820723699E+02  0.00000000000E+00 0. -1.
         11    1    4    4    0    0  0.60736636313E+01 -0.13272029703E+02 -0.18599804631E+02  0.23642945986E+02  0.51100000000E-03 0. -1.
        -11    1    4    4    0    0  0.32736358481E+01  0.82090444442E+01 -0.14084049781E+02  0.16627253557E+02  0.51100000000E-03 0.  1.
         12    1    4    4    0    0  0.98956214044E+01  0.99008451059E+01  0.16665882261E+01  0.14097076757E+02  0.00000000000E+00 0. -1.
</event>
<event>
 8    1  0.2534787E-006  0.9118800E+02  0.7816164E-02  0.1184000E+00
        -11   -1    0    0    0    0  0.00000000000E+00  0.00000000000E+00  0.45593999997E+02  0.45594000000E+02  0.51100000000E-03 0. -1.
         11   -1    0    0    0    0 -0.00000000000E+00 -0.00000000000E+00 -0.45593999997E+02  0.45594000000E+02  0.51100000000E-03 0.  1.
         23    2    1    2    0    0  0.00000000000E+00  0.00000000000E+00 -0.13322676296E-14  0.91188000000E+02  0.91188000000E+02 0.  0.
    9900012    2    3    3    0    0 -0.92822525747E+01  0.35442912256E+02  0.36632175497E+01  0.54367090113E+02  0.40000013531E+02 0.  0.
         12    1    3    3    0    0  0.92822525747E+01 -0.35442912256E+02 -0.36632175497E+01  0.36820909887E+02  0.00000000000E+00 0. -1.
         11    1    4    4    0    0 -0.19100168020E+00 -0.16795087113E+01  0.14959951008E-01  0.16904009035E+01  0.51100000000E-03 0.  1.
        -11    1    4    4    0    0  0.99917968757E+01  0.25468388775E+02  0.10478853143E+02  0.29296436558E+02  0.51100000000E-03 0. -1.
        -12    1    4    4    0    0 -0.19083047770E+02  0.11654032193E+02 -0.68305955440E+01  0.23380252651E+02  0.00000000000E+00 0.  1.
</event>
<event>
 8    1  0.2534787E-006  0.9118800E+02  0.7816164E-02  0.1184000E+00
        -11   -1    0    0    0    0  0.00000000000E+00  0.00000000000E+00  0.45593999997E+02  0.45594000000E+02  0.51100000000E-03 0.  1.
         11   -1    0    0    0    0 -0.00000000000E+00 -0.00000000000E+00 -0.45593999997E+02  0.45594000000E+02  0.51100000000E-03 0. -1.
         23    2    1    2    0    0  0.35527136788E-14  0.00000000000E+00  0.17763568394E-14  0.91188000000E+02  0.91188000000E+02 0.  0.
    9900012    2    3    3    0    0 -0.23417933567E+02 -0.25836592339E+02  0.11825792537E+02  0.54367102599E+02  0.40000041995E+02 0.  0.
         12    1    3    3    0    0  0.23417933567E+02  0.25836592339E+02 -0.11825792537E+02  0.36820897401E+02  0.00000000000E+00 0. -1.
         11    1    4    4    0    0  0.19084047297E+01  0.75039806377E+01  0.54740825500E+01  0.94824740468E+01  0.51100000000E-03 0. -1.
        -11    1    4    4    0    0 -0.25778828488E+02 -0.31263459115E+02  0.89801125221E+01  0.41504147928E+02  0.51100000000E-03 0.  1.
        -12    1    4    4    0    0  0.45249019113E+00 -0.20771138618E+01 -0.26284025347E+01  0.33804806244E+01  0.00000000000E+00 0.  1.
</event>
<event>
 8    1  0.2534787E-006  0.9118800E+02  0.7816164E-02  0.1184000E+00
        -11   -1    0    0    0    0  0.00000000000E+00  0.00000000000E+00  0.45593999997E+02  0.45594000000E+02  0.51100000000E-03 0. -1.
         11   -1    0    0    0    0 -0.00000000000E+00 -0.00000000000E+00 -0.45593999997E+02  0.45594000000E+02  0.51100000000E-03 0.  1.
         23    2    1    2    0    0  0.00000000000E+00  0.00000000000E+00  0.44408920985E-15  0.91188000000E+02  0.91188000000E+02 0.  0.
    9900012    2    3    3    0    0 -0.32916080120E+02 -0.16222979822E+02  0.30211451654E+01  0.54367072216E+02  0.39999972730E+02 0.  0.
        -12    1    3    3    0    0  0.32916080120E+02  0.16222979822E+02 -0.30211451654E+01  0.36820927784E+02  0.00000000000E+00 0.  1.
         11    1    4    4    0    0  0.38336486188E+01 -0.53517931416E+01  0.84497796947E+01  0.10711551181E+02  0.51100000000E-03 0. -1.
        -11    1    4    4    0    0 -0.28709831298E+02 -0.16856888958E+02 -0.42604934077E+01  0.33564280461E+02  0.51100000000E-03 0.  1.
        -12    1    4    4    0    0 -0.80398974409E+01  0.59857022781E+01 -0.11681411217E+01  0.10091240573E+02  0.00000000000E+00 0.  1.
</event>
<event>
 8    1  0.2534787E-006  0.9118800E+02  0.7816164E-02  0.1184000E+00
        -11   -1    0    0    0    0  0.00000000000E+00  0.00000000000E+00  0.45593999997E+02  0.45594000000E+02  0.51100000000E-03 0.  1.
         11   -1    0    0    0    0 -0.00000000000E+00 -0.00000000000E+00 -0.45593999997E+02  0.45594000000E+02  0.51100000000E-03 0. -1.
         23    2    1    2    0    0  0.00000000000E+00  0.17763568394E-14  0.00000000000E+00  0.91188000000E+02  0.91188000000E+02 0.  0.
    9900012    2    3    3    0    0 -0.25759197644E+01  0.14040654201E+02 -0.33941199720E+02  0.54367076987E+02  0.39999983608E+02 0.  0.
        -12    1    3    3    0    0  0.25759197644E+01 -0.14040654201E+02  0.33941199720E+02  0.36820923013E+02  0.00000000000E+00 0.  1.
         11    1    4    4    0    0 -0.60861955753E+01  0.11894296310E+02 -0.37180383718E+02  0.39508188961E+02  0.51100000000E-03 0. -1.
        -11    1    4    4    0    0  0.83284180444E+01  0.30158176280E+01  0.43048005215E+01  0.98482998979E+01  0.51100000000E-03 0.  1.
        -12    1    4    4    0    0 -0.48181422334E+01 -0.86945973701E+00 -0.10656165236E+01  0.50105881283E+01  0.00000000000E+00 0.  1.
</event>
<event>
 8    1  0.2534787E-006  0.9118800E+02  0.7816164E-02  0.1184000E+00
        -11   -1    0    0    0    0  0.00000000000E+00  0.00000000000E+00  0.45593999997E+02  0.45594000000E+02  0.51100000000E-03 0. -1.
         11   -1    0    0    0    0 -0.00000000000E+00 -0.00000000000E+00 -0.45593999997E+02  0.45594000000E+02  0.51100000000E-03 0.  1.
         23    2    1    2    0    0  0.00000000000E+00 -0.88817841970E-15  0.00000000000E+00  0.91188000000E+02  0.91188000000E+02 0.  0.
    9900012    2    3    3    0    0  0.19335331490E+02 -0.77476886015E+01  0.30362761331E+02  0.54367095637E+02  0.40000026123E+02 0.  0.
        -12    1    3    3    0    0 -0.19335331490E+02  0.77476886015E+01 -0.30362761331E+02  0.36820904363E+02  0.00000000000E+00 0.  1.
         11    1    4    4    0    0  0.12687167908E+02 -0.11498190870E+02  0.12144286218E+02  0.20991815329E+02  0.51100000000E-03 0. -1.
        -11    1    4    4    0    0 -0.56593601884E+01  0.71233513742E+01  0.18494377101E+02  0.20610979529E+02  0.51100000000E-03 0.  1.
        -12    1    4    4    0    0  0.12307523771E+02 -0.33728491055E+01 -0.27590198742E+00  0.12764300779E+02  0.00000000000E+00 0.  1.
</event>
<event>
 8    1  0.2534787E-006  0.9118800E+02  0.7816164E-02  0.1184000E+00
        -11   -1    0    0    0    0  0.00000000000E+00  0.00000000000E+00  0.45593999997E+02  0.45594000000E+02  0.51100000000E-03 0.  1.
         11   -1    0    0    0    0 -0.00000000000E+00 -0.00000000000E+00 -0.45593999997E+02  0.45594000000E+02  0.51100000000E-03 0. -1.
         23    2    1    2    0    0  0.88817841970E-15  0.35527136788E-14 -0.35527136788E-14  0.91188000000E+02  0.91188000000E+02 0.  0.
    9900012    2    3    3    0    0 -0.25691726898E+01 -0.26445159743E+02  0.25491810086E+02  0.54367088773E+02  0.40000010476E+02 0.  0.
         12    1    3    3    0    0  0.25691726898E+01  0.26445159743E+02 -0.25491810086E+02  0.36820911227E+02  0.00000000000E+00 0. -1.
         11    1    4    4    0    0  0.49952498823E+01  0.66288540130E+01  0.37627680548E+01  0.91133226985E+01  0.51100000000E-03 0. -1.
        -11    1    4    4    0    0  0.42528319987E+01 -0.11939073185E+02  0.15926513383E+02  0.20353915528E+02  0.51100000000E-03 0.  1.
        -12    1    4    4    0    0 -0.11817254571E+02 -0.21134940571E+02  0.58025286482E+01  0.24899850546E+02  0.00000000000E+00 0.  1.
</event>
<event>
 8    1  0.2534787E-006  0.9118800E+02  0.7816164E-02  0.1184000E+00
        -11   -1    0    0    0    0  0.00000000000E+00  0.00000000000E+00  0.45593999997E+02  0.45594000000E+02  0.51100000000E-03 0. -1.
         11   -1    0    0    0    0 -0.00000000000E+00 -0.00000000000E+00 -0.45593999997E+02  0.45594000000E+02  0.51100000000E-03 0.  1.
         23    2    1    2    0    0  0.26645352591E-14  0.00000000000E+00  0.35527136788E-14  0.91188000000E+02  0.91188000000E+02 0.  0.
    9900012    2    3    3    0    0  0.43830992953E+01  0.24542978240E+02  0.27096298848E+02  0.54367098984E+02  0.40000033755E+02 0.  0.
        -12    1    3    3    0    0 -0.43830992953E+01 -0.24542978240E+02 -0.27096298848E+02  0.36820901016E+02  0.00000000000E+00 0.  1.
         11    1    4    4    0    0  0.83106352525E+01  0.19104842919E+02  0.32300167128E+01  0.21083042699E+02  0.51100000000E-03 0. -1.
        -11    1    4    4    0    0 -0.80190055795E+01  0.17383434156E+01 -0.57752474101E+00  0.82255591544E+01  0.51100000000E-03 0.  1.
        -12    1    4    4    0    0  0.40914696223E+01  0.36997919058E+01  0.24443806877E+02  0.25058497131E+02  0.00000000000E+00 0.  1.
</event>
<event>
 8    1  0.2534787E-006  0.9118800E+02  0.7816164E-02  0.1184000E+00
        -11   -1    0    0    0    0  0.00000000000E+00  0.00000000000E+00  0.45593999997E+02  0.45594000000E+02  0.51100000000E-03 0. -1.
         11   -1    0    0    0    0 -0.00000000000E+00 -0.00000000000E+00 -0.45593999997E+02  0.45594000000E+02  0.51100000000E-03 0.  1.
         23    2    1    2    0    0  0.00000000000E+00  0.00000000000E+00  0.00000000000E+00  0.91188000000E+02  0.91188000000E+02 0.  0.
    9900012    2    3    3    0    0 -0.24263173397E+02 -0.26833384835E+02  0.68591127102E+01  0.54367088113E+02  0.40000008972E+02 0.  0.
        -12    1    3    3    0    0  0.24263173397E+02  0.26833384835E+02 -0.68591127102E+01  0.36820911887E+02  0.00000000000E+00 0.  1.
         11    1    4    4    0    0 -0.12165530784E+02 -0.21266564158E+02  0.70195013731E+01  0.25486080321E+02  0.51100000000E-03 0. -1.
        -11    1    4    4    0    0 -0.52969101292E+01  0.18928115085E+01  0.11894749316E+02  0.13157699414E+02  0.51100000000E-03 0.  1.
         12    1    4    4    0    0 -0.68007324832E+01 -0.74596321856E+01 -0.12055137979E+02  0.15723308378E+02  0.00000000000E+00 0. -1.
</event>
<event>
 8    1  0.2534787E-006  0.9118800E+02  0.7816164E-02  0.1184000E+00
        -11   -1    0    0    0    0  0.00000000000E+00  0.00000000000E+00  0.45593999997E+02  0.45594000000E+02  0.51100000000E-03 0.  1.
         11   -1    0    0    0    0 -0.00000000000E+00 -0.00000000000E+00 -0.45593999997E+02  0.45594000000E+02  0.51100000000E-03 0. -1.
         23    2    1    2    0    0  0.00000000000E+00  0.12212453271E-14  0.17763568394E-14  0.91188000000E+02  0.91188000000E+02 0.  0.
    9900012    2    3    3    0    0  0.36688648049E+02 -0.91026098280E+00 -0.29824229593E+01  0.54367077722E+02  0.39999985283E+02 0.  0.
        -12    1    3    3    0    0 -0.36688648049E+02  0.91026098280E+00  0.29824229593E+01  0.36820922278E+02  0.00000000000E+00 0.  1.
         11    1    4    4    0    0  0.15905707554E+02  0.10067692661E+02  0.64012739903E+01  0.19882813616E+02  0.51100000000E-03 0. -1.
        -11    1    4    4    0    0  0.41983043717E+01  0.92467602467E+00 -0.13053561902E+02  0.13743226111E+02  0.51100000000E-03 0.  1.
         12    1    4    4    0    0  0.16584636123E+02 -0.11902629668E+02  0.36698649527E+01  0.20741037995E+02  0.00000000000E+00 0. -1.
</event>
<event>
 8    1  0.2534787E-006  0.9118800E+02  0.7816164E-02  0.1184000E+00
        -11   -1    0    0    0    0  0.00000000000E+00  0.00000000000E+00  0.45593999997E+02  0.45594000000E+02  0.51100000000E-03 0.  1.
         11   -1    0    0    0    0 -0.00000000000E+00 -0.00000000000E+00 -0.45593999997E+02  0.45594000000E+02  0.51100000000E-03 0. -1.
         23    2    1    2    0    0  0.00000000000E+00 -0.35527136788E-14  0.35527136788E-14  0.91188000000E+02  0.91188000000E+02 0.  0.
    9900012    2    3    3    0    0  0.16173900531E+02  0.21952600396E+02 -0.24744059637E+02  0.54367079183E+02  0.39999988613E+02 0.  0.
         12    1    3    3    0    0 -0.16173900531E+02 -0.21952600396E+02  0.24744059637E+02  0.36820920817E+02  0.00000000000E+00 0. -1.
         11    1    4    4    0    0  0.25649827390E+01  0.18673984429E+01 -0.21400925204E+02  0.21634831019E+02  0.51100000000E-03 0. -1.
        -11    1    4    4    0    0  0.56881092768E+01  0.37226789930E+01 -0.11060907184E+02  0.12982934723E+02  0.51100000000E-03 0.  1.
        -12    1    4    4    0    0  0.79208085155E+01  0.16362522960E+02  0.77177727508E+01  0.19749313441E+02  0.00000000000E+00 0.  1.
</event>
<event>
 8    1  0.2534787E-006  0.9118800E+02  0.7816164E-02  0.1184000E+00
        -11   -1    0    0    0    0  0.00000000000E+00  0.00000000000E+00  0.45593999997E+02  0.45594000000E+02  0.51100000000E-03 0.  1.
         11   -1    0    0    0    0 -0.00000000000E+00 -0.00000000000E+00 -0.45593999997E+02  0.45594000000E+02  0.51100000000E-03 0. -1.
         23    2    1    2    0    0 -0.22204460493E-15  0.35527136788E-14  0.00000000000E+00  0.91188000000E+02  0.91188000000E+02 0.  0.
    9900012    2    3    3    0    0  0.12080442348E+01  0.29955870217E+02  0.21376763650E+02  0.54367088069E+02  0.40000008870E+02 0.  0.
         12    1    3    3    0    0 -0.12080442348E+01 -0.29955870217E+02 -0.21376763650E+02  0.36820911931E+02  0.00000000000E+00 0. -1.
         11    1    4    4    0    0 -0.99354887012E+01  0.16140932158E+02  0.14258685188E+02  0.23718215157E+02  0.51100000000E-03 0.  1.
        -11    1    4    4    0    0  0.31863669016E+01 -0.68937917224E+01  0.12055185169E+01  0.76896406612E+01  0.51100000000E-03 0. -1.
        -12    1    4    4    0    0  0.79571660344E+01  0.20708729781E+02  0.59125599445E+01  0.22959232250E+02  0.00000000000E+00 0.  1.
</event>
<event>
 8    1  0.2534787E-006  0.9118800E+02  0.7816164E-02  0.1184000E+00
        -11   -1    0    0    0    0  0.00000000000E+00  0.00000000000E+00  0.45593999997E+02  0.45594000000E+02  0.51100000000E-03 0. -1.
         11   -1    0    0    0    0 -0.00000000000E+00 -0.00000000000E+00 -0.45593999997E+02  0.45594000000E+02  0.51100000000E-03 0.  1.
         23    2    1    2    0    0 -0.17763568394E-14  0.00000000000E+00  0.17763568394E-14  0.91188000000E+02  0.91188000000E+02 0.  0.
    9900012    2    3    3    0    0  0.12273670352E+02  0.33870447777E+02 -0.76111381380E+01  0.54367086917E+02  0.40000006244E+02 0.  0.
         12    1    3    3    0    0 -0.12273670352E+02 -0.33870447777E+02  0.76111381380E+01  0.36820913083E+02  0.00000000000E+00 0. -1.
         11    1    4    4    0    0  0.13616665431E+01  0.10719253475E+02  0.83692001965E+01  0.13667481225E+02  0.51100000000E-03 0. -1.
        -11    1    4    4    0    0  0.81438575881E+01  0.21157690071E+01 -0.17511022951E+02  0.19427681796E+02  0.51100000000E-03 0.  1.
         12    1    4    4    0    0  0.27681462209E+01  0.21035425295E+02  0.15306846167E+01  0.21271923896E+02  0.00000000000E+00 0. -1.
</event>
<event>
 8    1  0.2534787E-006  0.9118800E+02  0.7816164E-02  0.1184000E+00
        -11   -1    0    0    0    0  0.00000000000E+00  0.00000000000E+00  0.45593999997E+02  0.45594000000E+02  0.51100000000E-03 0.  1.
         11   -1    0    0    0    0 -0.00000000000E+00 -0.00000000000E+00 -0.45593999997E+02  0.45594000000E+02  0.51100000000E-03 0. -1.
         23    2    1    2    0    0 -0.35527136788E-14 -0.35527136788E-14  0.00000000000E+00  0.91188000000E+02  0.91188000000E+02 0.  0.
    9900012    2    3    3    0    0 -0.11028332218E+02 -0.27818335143E+02 -0.21454514792E+02  0.54367080856E+02  0.39999992428E+02 0.  0.
         12    1    3    3    0    0  0.11028332218E+02  0.27818335143E+02  0.21454514792E+02  0.36820919144E+02  0.00000000000E+00 0. -1.
         11    1    4    4    0    0 -0.27391895934E+01 -0.19301760638E+02 -0.25679188019E+02  0.32240995966E+02  0.51100000000E-03 0. -1.
        -11    1    4    4    0    0 -0.14370432193E+01  0.32810068197E+01  0.73082676782E+01  0.81388497763E+01  0.51100000000E-03 0.  1.
         12    1    4    4    0    0 -0.68520994056E+01 -0.11797581325E+02 -0.30835944516E+01  0.13987235114E+02  0.00000000000E+00 0. -1.
</event>
<event>
 8    1  0.2534787E-006  0.9118800E+02  0.7816164E-02  0.1184000E+00
        -11   -1    0    0    0    0  0.00000000000E+00  0.00000000000E+00  0.45593999997E+02  0.45594000000E+02  0.51100000000E-03 0. -1.
         11   -1    0    0    0    0 -0.00000000000E+00 -0.00000000000E+00 -0.45593999997E+02  0.45594000000E+02  0.51100000000E-03 0.  1.
         23    2    1    2    0    0  0.00000000000E+00  0.66613381478E-15  0.00000000000E+00  0.91188000000E+02  0.91188000000E+02 0.  0.
    9900012    2    3    3    0    0 -0.36395912503E+02 -0.14901637927E+01  0.53755568668E+01  0.54367086830E+02  0.40000006046E+02 0.  0.
        -12    1    3    3    0    0  0.36395912503E+02  0.14901637927E+01 -0.53755568668E+01  0.36820913170E+02  0.00000000000E+00 0.  1.
         11    1    4    4    0    0 -0.37601425316E+02 -0.81836975492E+00 -0.12451942035E+01  0.37630937056E+02  0.51100000000E-03 0. -1.
        -11    1    4    4    0    0 -0.13469553129E+01 -0.77202488018E+01  0.27984292603E+01  0.83215225027E+01  0.51100000000E-03 0.  1.
         12    1    4    4    0    0  0.25524681259E+01  0.70484547640E+01  0.38223218101E+01  0.84146272713E+01  0.00000000000E+00 0. -1.
</event>
<event>
 8    1  0.2534787E-006  0.9118800E+02  0.7816164E-02  0.1184000E+00
        -11   -1    0    0    0    0  0.00000000000E+00  0.00000000000E+00  0.45593999997E+02  0.45594000000E+02  0.51100000000E-03 0. -1.
         11   -1    0    0    0    0 -0.00000000000E+00 -0.00000000000E+00 -0.45593999997E+02  0.45594000000E+02  0.51100000000E-03 0.  1.
         23    2    1    2    0    0  0.00000000000E+00  0.00000000000E+00  0.17763568394E-14  0.91188000000E+02  0.91188000000E+02 0.  0.
    9900012    2    3    3    0    0 -0.28747718493E+02 -0.16920718841E+02  0.15589637070E+02  0.54367097939E+02  0.40000031371E+02 0.  0.
        -12    1    3    3    0    0  0.28747718493E+02  0.16920718841E+02 -0.15589637070E+02  0.36820902061E+02  0.00000000000E+00 0.  1.
         11    1    4    4    0    0  0.53881755427E+01  0.13506162647E+01 -0.62472267614E+00  0.55898907553E+01  0.51100000000E-03 0. -1.
        -11    1    4    4    0    0 -0.11232762406E+02 -0.42360490808E+01 -0.64532182871E+01  0.13629493373E+02  0.51100000000E-03 0.  1.
         12    1    4    4    0    0 -0.22903131630E+02 -0.14035286024E+02  0.22667578033E+02  0.35147713811E+02  0.00000000000E+00 0. -1.
</event>
<event>
 8    1  0.2534787E-006  0.9118800E+02  0.7816164E-02  0.1184000E+00
        -11   -1    0    0    0    0  0.00000000000E+00  0.00000000000E+00  0.45593999997E+02  0.45594000000E+02  0.51100000000E-03 0.  1.
         11   -1    0    0    0    0 -0.00000000000E+00 -0.00000000000E+00 -0.45593999997E+02  0.45594000000E+02  0.51100000000E-03 0. -1.
         23    2    1    2    0    0 -0.35527136788E-14 -0.35527136788E-14  0.35527136788E-14  0.91188000000E+02  0.91188000000E+02 0.  0.
    9900012    2    3    3    0    0  0.20028783473E+02  0.27558120459E+02 -0.13970603448E+02  0.54367082964E+02  0.39999997233E+02 0.  0.
        -12    1    3    3    0    0 -0.20028783473E+02 -0.27558120459E+02  0.13970603448E+02  0.36820917036E+02  0.00000000000E+00 0.  1.
         11    1    4    4    0    0  0.83251048334E+01  0.53711621419E+01 -0.41449763356E+01  0.10739533618E+02  0.51100000000E-03 0. -1.
        -11    1    4    4    0    0  0.19380059135E+02  0.79444590781E+01  0.51631494761E+01  0.21572186604E+02  0.51100000000E-03 0.  1.
        -12    1    4    4    0    0 -0.76763804947E+01  0.14242499239E+02 -0.14988776588E+02  0.22055362742E+02  0.00000000000E+00 0.  1.
</event>
<event>
 8    1  0.2534787E-006  0.9118800E+02  0.7816164E-02  0.1184000E+00
        -11   -1    0    0    0    0  0.00000000000E+00  0.00000000000E+00  0.45593999997E+02  0.45594000000E+02  0.51100000000E-03 0.  1.
         11   -1    0    0    0    0 -0.00000000000E+00 -0.00000000000E+00 -0.45593999997E+02  0.45594000000E+02  0.51100000000E-03 0. -1.
         23    2    1    2    0    0 -0.88817841970E-15 -0.17763568394E-14 -0.71054273576E-14  0.91188000000E+02  0.91188000000E+02 0.  0.
    9900012    2    3    3    0    0 -0.49302242351E+01  0.89983666285E+01  0.35362447134E+02  0.54367076868E+02  0.39999983337E+02 0.  0.
         12    1    3    3    0    0  0.49302242351E+01 -0.89983666285E+01 -0.35362447134E+02  0.36820923132E+02  0.00000000000E+00 0. -1.
         11    1    4    4    0    0 -0.43835292618E+01 -0.47731524383E+00  0.72739505359E+01  0.85060869553E+01  0.51100000000E-03 0. -1.
        -11    1    4    4    0    0 -0.13550145896E+02  0.53704007352E+01 -0.68623752678E-01  0.14575745859E+02  0.51100000000E-03 0.  1.
        -12    1    4    4    0    0  0.13003450923E+02  0.41052811371E+01  0.28157120350E+02  0.31285244054E+02  0.00000000000E+00 0.  1.
</event>
<event>
 8    1  0.2534787E-006  0.9118800E+02  0.7816164E-02  0.1184000E+00
        -11   -1    0    0    0    0  0.00000000000E+00  0.00000000000E+00  0.45593999997E+02  0.45594000000E+02  0.51100000000E-03 0.  1.
         11   -1    0    0    0    0 -0.00000000000E+00 -0.00000000000E+00 -0.45593999997E+02  0.45594000000E+02  0.51100000000E-03 0. -1.
         23    2    1    2    0    0  0.35527136788E-14  0.44408920985E-15  0.35527136788E-14  0.91188000000E+02  0.91188000000E+02 0.  0.
    9900012    2    3    3    0    0  0.31722168773E+02 -0.39066974719E+01  0.18281791826E+02  0.54367052305E+02  0.39999927339E+02 0.  0.
         12    1    3    3    0    0 -0.31722168773E+02  0.39066974719E+01 -0.18281791826E+02  0.36820947695E+02  0.00000000000E+00 0. -1.
         11    1    4    4    0    0  0.13015413793E+02 -0.48395836904E+01 -0.10286465104E+02  0.17281028068E+02  0.51100000000E-03 0. -1.
        -11    1    4    4    0    0  0.12138242058E+02 -0.46853001478E+01  0.93765591978E+01  0.16037731149E+02  0.51100000000E-03 0.  1.
         12    1    4    4    0    0  0.65685129216E+01  0.56181863664E+01  0.19191697733E+02  0.21048293088E+02  0.00000000000E+00 0. -1.
</event>
<event>
 8    1  0.2534787E-006  0.9118800E+02  0.7816164E-02  0.1184000E+00
        -11   -1    0    0    0    0  0.00000000000E+00  0.00000000000E+00  0.45593999997E+02  0.45594000000E+02  0.51100000000E-03 0.  1.
         11   -1    0    0    0    0 -0.00000000000E+00 -0.00000000000E+00 -0.45593999997E+02  0.45594000000E+02  0.51100000000E-03 0. -1.
         23    2    1    2    0    0  0.17763568394E-14  0.00000000000E+00  0.00000000000E+00  0.91188000000E+02  0.91188000000E+02 0.  0.
    9900012    2    3    3    0    0  0.90425831612E+01  0.11782593333E+02  0.33692460776E+02  0.54367085712E+02  0.40000003497E+02 0.  0.
         12    1    3    3    0    0 -0.90425831612E+01 -0.11782593333E+02 -0.33692460776E+02  0.36820914288E+02  0.00000000000E+00 0. -1.
         11    1    4    4    0    0 -0.86405116729E+01  0.10949105942E+02 -0.13437563568E+00  0.13948455828E+02  0.51100000000E-03 0. -1.
        -11    1    4    4    0    0  0.36717095129E+01 -0.21390236999E+01  0.67195432406E+00  0.43021385392E+01  0.51100000000E-03 0.  1.
         12    1    4    4    0    0  0.14011385321E+02  0.29725110912E+01  0.33154882088E+02  0.36116491345E+02  0.00000000000E+00 0. -1.
</event>
<event>
 8    1  0.2534787E-006  0.9118800E+02  0.7816164E-02  0.1184000E+00
        -11   -1    0    0    0    0  0.00000000000E+00  0.00000000000E+00  0.45593999997E+02  0.45594000000E+02  0.51100000000E-03 0. -1.
         11   -1    0    0    0    0 -0.00000000000E+00 -0.00000000000E+00 -0.45593999997E+02  0.45594000000E+02  0.51100000000E-03 0.  1.
         23    2    1    2    0    0  0.00000000000E+00  0.00000000000E+00  0.00000000000E+00  0.91188000000E+02  0.91188000000E+02 0.  0.
    9900012    2    3    3    0    0  0.34298620780E+02 -0.95948067088E+01 -0.93447562911E+01  0.54367079678E+02  0.39999989742E+02 0.  0.
         12    1    3    3    0    0 -0.34298620780E+02  0.95948067088E+01  0.93447562911E+01  0.36820920322E+02  0.00000000000E+00 0. -1.
         11    1    4    4    0    0  0.50233513844E+01 -0.60511656788E+01 -0.55586145929E+01  0.96306210421E+01  0.51100000000E-03 0.  1.
        -11    1    4    4    0    0  0.13895918064E+02 -0.12309727881E+02  0.11080637214E+02  0.21619585117E+02  0.51100000000E-03 0. -1.
        -12    1    4    4    0    0  0.15379351332E+02  0.87660868505E+01 -0.14866778912E+02  0.23116873519E+02  0.00000000000E+00 0.  1.
</event>
<event>
 8    1  0.2534787E-006  0.9118800E+02  0.7816164E-02  0.1184000E+00
        -11   -1    0    0    0    0  0.00000000000E+00  0.00000000000E+00  0.45593999997E+02  0.45594000000E+02  0.51100000000E-03 0.  1.
         11   -1    0    0    0    0 -0.00000000000E+00 -0.00000000000E+00 -0.45593999997E+02  0.45594000000E+02  0.51100000000E-03 0. -1.
         23    2    1    2    0    0 -0.88817841970E-15  0.00000000000E+00 -0.12620113288E-14  0.91188000000E+02  0.91188000000E+02 0.  0.
    9900012    2    3    3    0    0 -0.77782616867E+01  0.35989979304E+02  0.67220952591E-02  0.54367081891E+02  0.39999994787E+02 0.  0.
         12    1    3    3    0    0  0.77782616867E+01 -0.35989979304E+02 -0.67220952591E-02  0.36820918109E+02  0.00000000000E+00 0. -1.
         11    1    4    4    0    0 -0.42932915248E+01  0.67513197639E+01 -0.12731965714E+02  0.15037141413E+02  0.51100000000E-03 0. -1.
        -11    1    4    4    0    0  0.39856889964E+01  0.90663091700E+01  0.14704894445E+02  0.17729004474E+02  0.51100000000E-03 0.  1.
         12    1    4    4    0    0 -0.74706591583E+01  0.20172350370E+02 -0.19662066361E+01  0.21600936004E+02  0.00000000000E+00 0. -1.
</event>
<event>
 8    1  0.2534787E-006  0.9118800E+02  0.7816164E-02  0.1184000E+00
        -11   -1    0    0    0    0  0.00000000000E+00  0.00000000000E+00  0.45593999997E+02  0.45594000000E+02  0.51100000000E-03 0.  1.
         11   -1    0    0    0    0 -0.00000000000E+00 -0.00000000000E+00 -0.45593999997E+02  0.45594000000E+02  0.51100000000E-03 0. -1.
         23    2    1    2    0    0  0.94368957093E-15  0.26645352591E-14  0.00000000000E+00  0.91188000000E+02  0.91188000000E+02 0.  0.
    9900012    2    3    3    0    0  0.39249166732E+00  0.70913271007E+01  0.36129483182E+02  0.54367074906E+02  0.39999978863E+02 0.  0.
         12    1    3    3    0    0 -0.39249166732E+00 -0.70913271007E+01 -0.36129483182E+02  0.36820925094E+02  0.00000000000E+00 0. -1.
         11    1    4    4    0    0 -0.42023284022E+01 -0.75380707692E+01  0.29411015619E+02  0.30651099734E+02  0.51100000000E-03 0. -1.
        -11    1    4    4    0    0 -0.44775529343E+01 -0.99684931269E+00  0.22164914383E+01  0.50946072851E+01  0.51100000000E-03 0.  1.
         12    1    4    4    0    0  0.90723730038E+01  0.15626247183E+02  0.45019761249E+01  0.18621367886E+02  0.00000000000E+00 0. -1.
</event>
<event>
 8    1  0.2534787E-006  0.9118800E+02  0.7816164E-02  0.1184000E+00
        -11   -1    0    0    0    0  0.00000000000E+00  0.00000000000E+00  0.45593999997E+02  0.45594000000E+02  0.51100000000E-03 0.  1.
         11   -1    0    0    0    0 -0.00000000000E+00 -0.00000000000E+00 -0.45593999997E+02  0.45594000000E+02  0.51100000000E-03 0. -1.
         23    2    1    2    0    0  0.00000000000E+00  0.00000000000E+00  0.00000000000E+00  0.91188000000E+02  0.91188000000E+02 0.  0.
    9900012    2    3    3    0    0  0.23474345876E+02 -0.27206661239E+02 -0.80331049921E+01  0.54367107753E+02  0.40000053745E+02 0.  0.
        -12    1    3    3    0    0 -0.23474345876E+02  0.27206661239E+02  0.80331049921E+01  0.36820892247E+02  0.00000000000E+00 0.  1.
         11    1    4    4    0    0  0.60688543057E+01 -0.58470389832E+01  0.10725527763E+02  0.13640227399E+02  0.51100000000E-03 0. -1.
        -11    1    4    4    0    0  0.15064496808E+02 -0.12312534236E+01 -0.39316828687E+01  0.15617720049E+02  0.51100000000E-03 0.  1.
        -12    1    4    4    0    0  0.23409947616E+01 -0.20128368832E+02 -0.14826949886E+02  0.25109160305E+02  0.00000000000E+00 0.  1.
</event>
<event>
 8    1  0.2534787E-006  0.9118800E+02  0.7816164E-02  0.1184000E+00
        -11   -1    0    0    0    0  0.00000000000E+00  0.00000000000E+00  0.45593999997E+02  0.45594000000E+02  0.51100000000E-03 0.  1.
         11   -1    0    0    0    0 -0.00000000000E+00 -0.00000000000E+00 -0.45593999997E+02  0.45594000000E+02  0.51100000000E-03 0. -1.
         23    2    1    2    0    0 -0.44408920985E-14  0.00000000000E+00  0.00000000000E+00  0.91188000000E+02  0.91188000000E+02 0.  0.
    9900012    2    3    3    0    0  0.76541260220E+01  0.90381153312E+01  0.34864081348E+02  0.54367118123E+02  0.40000077386E+02 0.  0.
         12    1    3    3    0    0 -0.76541260220E+01 -0.90381153312E+01 -0.34864081348E+02  0.36820881877E+02  0.00000000000E+00 0. -1.
         11    1    4    4    0    0 -0.22583542117E+01 -0.54017735629E+00 -0.15807394130E+01  0.28090376777E+01  0.51100000000E-03 0. -1.
        -11    1    4    4    0    0 -0.11663975655E+02  0.92147223597E+01  0.13929860423E+02  0.20371559781E+02  0.51100000000E-03 0.  1.
        -12    1    4    4    0    0  0.21576455889E+02  0.36357032779E+00  0.22514960338E+02  0.31186520665E+02  0.00000000000E+00 0.  1.
</event>
<event>
 8    1  0.2534787E-006  0.9118800E+02  0.7816164E-02  0.1184000E+00
        -11   -1    0    0    0    0  0.00000000000E+00  0.00000000000E+00  0.45593999997E+02  0.45594000000E+02  0.51100000000E-03 0. -1.
         11   -1    0    0    0    0 -0.00000000000E+00 -0.00000000000E+00 -0.45593999997E+02  0.45594000000E+02  0.51100000000E-03 0.  1.
         23    2    1    2    0    0  0.88817841970E-15  0.00000000000E+00  0.35527136788E-14  0.91188000000E+02  0.91188000000E+02 0.  0.
    9900012    2    3    3    0    0  0.79007616195E+01  0.28612697512E+02  0.21786959347E+02  0.54367080801E+02  0.39999992302E+02 0.  0.
        -12    1    3    3    0    0 -0.79007616195E+01 -0.28612697512E+02 -0.21786959347E+02  0.36820919199E+02  0.00000000000E+00 0.  1.
         11    1    4    4    0    0  0.28359726454E+01  0.24391174982E+02  0.25264511834E+02  0.35231629487E+02  0.51100000000E-03 0. -1.
        -11    1    4    4    0    0  0.38325299684E+01  0.74475544229E+01  0.51568727929E+01  0.98360403671E+01  0.51100000000E-03 0.  1.
        -12    1    4    4    0    0  0.12322590057E+01 -0.32260318932E+01 -0.86344252802E+01  0.92994109465E+01  0.00000000000E+00 0.  1.
</event>
<event>
 8    1  0.2534787E-006  0.9118800E+02  0.7816164E-02  0.1184000E+00
        -11   -1    0    0    0    0  0.00000000000E+00  0.00000000000E+00  0.45593999997E+02  0.45594000000E+02  0.51100000000E-03 0. -1.
         11   -1    0    0    0    0 -0.00000000000E+00 -0.00000000000E+00 -0.45593999997E+02  0.45594000000E+02  0.51100000000E-03 0.  1.
         23    2    1    2    0    0  0.00000000000E+00  0.35527136788E-14  0.00000000000E+00  0.91188000000E+02  0.91188000000E+02 0.  0.
    9900012    2    3    3    0    0  0.55406544244E+01 -0.23077295569E+02  0.28151650267E+02  0.54367138590E+02  0.40000124043E+02 0.  0.
        -12    1    3    3    0    0 -0.55406544244E+01  0.23077295569E+02 -0.28151650267E+02  0.36820861410E+02  0.00000000000E+00 0.  1.
         11    1    4    4    0    0 -0.19111753160E+01  0.98521599772E+01  0.61464609922E+01  0.11768459130E+02  0.51100000000E-03 0. -1.
        -11    1    4    4    0    0  0.47439392939E+01 -0.20848289530E+01  0.53175557022E+01  0.74248145226E+01  0.51100000000E-03 0.  1.
        -12    1    4    4    0    0  0.27078904465E+01 -0.30844626593E+02  0.16687633573E+02  0.35173864937E+02  0.00000000000E+00 0.  1.
</event>
<event>
 8    1  0.2534787E-006  0.9118800E+02  0.7816164E-02  0.1184000E+00
        -11   -1    0    0    0    0  0.00000000000E+00  0.00000000000E+00  0.45593999997E+02  0.45594000000E+02  0.51100000000E-03 0.  1.
         11   -1    0    0    0    0 -0.00000000000E+00 -0.00000000000E+00 -0.45593999997E+02  0.45594000000E+02  0.51100000000E-03 0. -1.
         23    2    1    2    0    0  0.22204460493E-15 -0.35527136788E-14 -0.71054273576E-14  0.91188000000E+02  0.91188000000E+02 0.  0.
    9900012    2    3    3    0    0 -0.19308203371E+01  0.17636698668E+02  0.32264545534E+02  0.54367053440E+02  0.39999929926E+02 0.  0.
         12    1    3    3    0    0  0.19308203371E+01 -0.17636698668E+02 -0.32264545534E+02  0.36820946560E+02  0.00000000000E+00 0. -1.
         11    1    4    4    0    0 -0.12259276760E+01 -0.22133244012E+01 -0.45380835955E+01  0.51957585156E+01  0.51100000000E-03 0. -1.
        -11    1    4    4    0    0 -0.33808368305E+01  0.23951779638E+02  0.37072839498E+02  0.44266389442E+02  0.51100000000E-03 0.  1.
         12    1    4    4    0    0  0.26759441694E+01 -0.41017565685E+01 -0.27021036874E+00  0.49049054821E+01  0.00000000000E+00 0. -1.
</event>
<event>
 8    1  0.2534787E-006  0.9118800E+02  0.7816164E-02  0.1184000E+00
        -11   -1    0    0    0    0  0.00000000000E+00  0.00000000000E+00  0.45593999997E+02  0.45594000000E+02  0.51100000000E-03 0.  1.
         11   -1    0    0    0    0 -0.00000000000E+00 -0.00000000000E+00 -0.45593999997E+02  0.45594000000E+02  0.51100000000E-03 0. -1.
         23    2    1    2    0    0 -0.17763568394E-14  0.00000000000E+00  0.00000000000E+00  0.91188000000E+02  0.91188000000E+02 0.  0.
    9900012    2    3    3    0    0  0.11904131541E+02 -0.32968570012E+02 -0.11275858131E+02  0.54367082942E+02  0.39999997184E+02 0.  0.
         12    1    3    3    0    0 -0.11904131541E+02  0.32968570012E+02  0.11275858131E+02  0.36820917058E+02  0.00000000000E+00 0. -1.
         11    1    4    4    0    0  0.10031399732E+02 -0.11887387274E+02 -0.72989004671E+00  0.15571502707E+02  0.51100000000E-03 0. -1.
        -11    1    4    4    0    0  0.15940260810E+01 -0.23641619691E+02  0.39937512784E+01  0.24029505828E+02  0.51100000000E-03 0.  1.
         12    1    4    4    0    0  0.27870572744E+00  0.25604369540E+01 -0.14539719363E+02  0.14766074408E+02  0.00000000000E+00 0. -1.
</event>
<event>
 8    1  0.2534787E-006  0.9118800E+02  0.7816164E-02  0.1184000E+00
        -11   -1    0    0    0    0  0.00000000000E+00  0.00000000000E+00  0.45593999997E+02  0.45594000000E+02  0.51100000000E-03 0.  1.
         11   -1    0    0    0    0 -0.00000000000E+00 -0.00000000000E+00 -0.45593999997E+02  0.45594000000E+02  0.51100000000E-03 0. -1.
         23    2    1    2    0    0  0.17763568394E-14  0.11102230246E-14  0.00000000000E+00  0.91188000000E+02  0.91188000000E+02 0.  0.
    9900012    2    3    3    0    0  0.15619644363E+02 -0.15019091279E+01  0.33309859692E+02  0.54367139421E+02  0.40000125939E+02 0.  0.
         12    1    3    3    0    0 -0.15619644363E+02  0.15019091279E+01 -0.33309859692E+02  0.36820860579E+02  0.00000000000E+00 0. -1.
         11    1    4    4    0    0  0.13168544795E+01 -0.97980035494E+01  0.22948981924E+01  0.10148967300E+02  0.51100000000E-03 0. -1.
        -11    1    4    4    0    0  0.63903424507E+01 -0.96983199423E+01  0.89186290085E+01  0.14643627624E+02  0.51100000000E-03 0.  1.
        -12    1    4    4    0    0  0.79124474325E+01  0.17994414364E+02  0.22096332491E+02  0.29574544497E+02  0.00000000000E+00 0.  1.
</event>
<event>
 8    1  0.2534787E-006  0.9118800E+02  0.7816164E-02  0.1184000E+00
        -11   -1    0    0    0    0  0.00000000000E+00  0.00000000000E+00  0.45593999997E+02  0.45594000000E+02  0.51100000000E-03 0. -1.
         11   -1    0    0    0    0 -0.00000000000E+00 -0.00000000000E+00 -0.45593999997E+02  0.45594000000E+02  0.51100000000E-03 0.  1.
         23    2    1    2    0    0  0.00000000000E+00 -0.16653345369E-14 -0.17763568394E-14  0.91188000000E+02  0.91188000000E+02 0.  0.
    9900012    2    3    3    0    0  0.35291547306E+02 -0.53269804155E+00 -0.10488228723E+02  0.54367081757E+02  0.39999994483E+02 0.  0.
        -12    1    3    3    0    0 -0.35291547306E+02  0.53269804155E+00  0.10488228723E+02  0.36820918243E+02  0.00000000000E+00 0.  1.
         11    1    4    4    0    0  0.11699190727E+02  0.12053789320E+02  0.27576613974E+01  0.17022620165E+02  0.51100000000E-03 0. -1.
        -11    1    4    4    0    0  0.16116517743E+02  0.56401536873E+00 -0.15114913787E+02  0.22102508377E+02  0.51100000000E-03 0.  1.
         12    1    4    4    0    0  0.74758388364E+01 -0.13150502730E+02  0.18690236668E+01  0.15241953216E+02  0.00000000000E+00 0. -1.
</event>
<event>
 8    1  0.2534787E-006  0.9118800E+02  0.7816164E-02  0.1184000E+00
        -11   -1    0    0    0    0  0.00000000000E+00  0.00000000000E+00  0.45593999997E+02  0.45594000000E+02  0.51100000000E-03 0.  1.
         11   -1    0    0    0    0 -0.00000000000E+00 -0.00000000000E+00 -0.45593999997E+02  0.45594000000E+02  0.51100000000E-03 0. -1.
         23    2    1    2    0    0  0.00000000000E+00 -0.13322676296E-14  0.44408920985E-15  0.91188000000E+02  0.91188000000E+02 0.  0.
    9900012    2    3    3    0    0  0.36538869446E+02 -0.36203900447E+01  0.27538827346E+01  0.54367081019E+02  0.39999992799E+02 0.  0.
         12    1    3    3    0    0 -0.36538869446E+02  0.36203900447E+01 -0.27538827346E+01  0.36820918981E+02  0.00000000000E+00 0. -1.
         11    1    4    4    0    0  0.94137064936E+00  0.61319430970E+01  0.31157122946E+01  0.69422307804E+01  0.51100000000E-03 0. -1.
        -11    1    4    4    0    0  0.20500371370E+02 -0.12602504906E+02  0.12744087269E+02  0.27230499753E+02  0.51100000000E-03 0.  1.
        -12    1    4    4    0    0  0.15097127427E+02  0.28501717639E+01 -0.13105916829E+02  0.20194350486E+02  0.00000000000E+00 0.  1.
</event>
<event>
 8    1  0.2534787E-006  0.9118800E+02  0.7816164E-02  0.1184000E+00
        -11   -1    0    0    0    0  0.00000000000E+00  0.00000000000E+00  0.45593999997E+02  0.45594000000E+02  0.51100000000E-03 0.  1.
         11   -1    0    0    0    0 -0.00000000000E+00 -0.00000000000E+00 -0.45593999997E+02  0.45594000000E+02  0.51100000000E-03 0. -1.
         23    2    1    2    0    0  0.00000000000E+00  0.00000000000E+00  0.00000000000E+00  0.91188000000E+02  0.91188000000E+02 0.  0.
    9900012    2    3    3    0    0 -0.28853041267E+02 -0.19914198542E+02 -0.11256375702E+02  0.54367091703E+02  0.40000017155E+02 0.  0.
         12    1    3    3    0    0  0.28853041267E+02  0.19914198542E+02  0.11256375702E+02  0.36820908297E+02  0.00000000000E+00 0. -1.
         11    1    4    4    0    0 -0.68204610916E+01 -0.39080240753E+01  0.31386889755E+01  0.84642017002E+01  0.51100000000E-03 0. -1.
        -11    1    4    4    0    0 -0.20764935836E+02  0.59341040697E+01 -0.65472913160E+01  0.22566860110E+02  0.51100000000E-03 0.  1.
         12    1    4    4    0    0 -0.12676443385E+01 -0.21940278536E+02 -0.78477733611E+01  0.23336029892E+02  0.00000000000E+00 0. -1.
</event>
<event>
 8    1  0.2534787E-006  0.9118800E+02  0.7816164E-02  0.1184000E+00
        -11   -1    0    0    0    0  0.00000000000E+00  0.00000000000E+00  0.45593999997E+02  0.45594000000E+02  0.51100000000E-03 0.  1.
         11   -1    0    0    0    0 -0.00000000000E+00 -0.00000000000E+00 -0.45593999997E+02  0.45594000000E+02  0.51100000000E-03 0. -1.
         23    2    1    2    0    0  0.00000000000E+00 -0.35527136788E-14  0.00000000000E+00  0.91188000000E+02  0.91188000000E+02 0.  0.
    9900012    2    3    3    0    0  0.15356094797E+02 -0.17080405346E+02 -0.28778988848E+02  0.54367080765E+02  0.39999992219E+02 0.  0.
        -12    1    3    3    0    0 -0.15356094797E+02  0.17080405346E+02  0.28778988848E+02  0.36820919235E+02  0.00000000000E+00 0.  1.
         11    1    4    4    0    0 -0.30481339092E+01 -0.84168348412E+01 -0.17258498708E+02  0.19441965101E+02  0.51100000000E-03 0. -1.
        -11    1    4    4    0    0  0.15098966852E+02 -0.15975959769E+02 -0.14534967781E+02  0.26352900773E+02  0.51100000000E-03 0.  1.
        -12    1    4    4    0    0  0.33052618542E+01  0.73123892637E+01  0.30144776409E+01  0.85722148898E+01  0.00000000000E+00 0.  1.
</event>
<event>
 8    1  0.2534787E-006  0.9118800E+02  0.7816164E-02  0.1184000E+00
        -11   -1    0    0    0    0  0.00000000000E+00  0.00000000000E+00  0.45593999997E+02  0.45594000000E+02  0.51100000000E-03 0. -1.
         11   -1    0    0    0    0 -0.00000000000E+00 -0.00000000000E+00 -0.45593999997E+02  0.45594000000E+02  0.51100000000E-03 0.  1.
         23    2    1    2    0    0  0.00000000000E+00  0.00000000000E+00 -0.44408920985E-15  0.91188000000E+02  0.91188000000E+02 0.  0.
    9900012    2    3    3    0    0  0.46300390101E+01 -0.36327789644E+02 -0.38256479016E+01  0.54367066504E+02  0.39999959709E+02 0.  0.
        -12    1    3    3    0    0 -0.46300390101E+01  0.36327789644E+02  0.38256479016E+01  0.36820933496E+02  0.00000000000E+00 0.  1.
         11    1    4    4    0    0 -0.18223021524E+01 -0.29229938619E+02 -0.19167486180E+02  0.35001466019E+02  0.51100000000E-03 0. -1.
        -11    1    4    4    0    0  0.55410179452E+01 -0.97722212165E+00  0.75213776846E+01  0.93930274927E+01  0.51100000000E-03 0.  1.
         12    1    4    4    0    0  0.91132321737E+00 -0.61206289038E+01  0.78204605936E+01  0.99725729920E+01  0.00000000000E+00 0. -1.
</event>
<event>
 8    1  0.2534787E-006  0.9118800E+02  0.7816164E-02  0.1184000E+00
        -11   -1    0    0    0    0  0.00000000000E+00  0.00000000000E+00  0.45593999997E+02  0.45594000000E+02  0.51100000000E-03 0.  1.
         11   -1    0    0    0    0 -0.00000000000E+00 -0.00000000000E+00 -0.45593999997E+02  0.45594000000E+02  0.51100000000E-03 0. -1.
         23    2    1    2    0    0  0.00000000000E+00  0.17763568394E-14  0.88817841970E-15  0.91188000000E+02  0.91188000000E+02 0.  0.
    9900012    2    3    3    0    0 -0.35243610148E+02 -0.97576563309E+01  0.42960526511E+01  0.54367082280E+02  0.39999995674E+02 0.  0.
         12    1    3    3    0    0  0.35243610148E+02  0.97576563309E+01 -0.42960526511E+01  0.36820917720E+02  0.00000000000E+00 0. -1.
         11    1    4    4    0    0 -0.13862435252E+02  0.23554972142E+01 -0.11909321098E+02  0.18426812191E+02  0.51100000000E-03 0. -1.
        -11    1    4    4    0    0 -0.51765838101E+01 -0.42183524251E+01 -0.48276474265E+01  0.82400058896E+01  0.51100000000E-03 0.  1.
        -12    1    4    4    0    0 -0.16204591086E+02 -0.78948011200E+01  0.21033021175E+02  0.27700264200E+02  0.00000000000E+00 0.  1.
</event>
<event>
 8    1  0.2534787E-006  0.9118800E+02  0.7816164E-02  0.1184000E+00
        -11   -1    0    0    0    0  0.00000000000E+00  0.00000000000E+00  0.45593999997E+02  0.45594000000E+02  0.51100000000E-03 0.  1.
         11   -1    0    0    0    0 -0.00000000000E+00 -0.00000000000E+00 -0.45593999997E+02  0.45594000000E+02  0.51100000000E-03 0. -1.
         23    2    1    2    0    0  0.00000000000E+00  0.22204460493E-15  0.17763568394E-14  0.91188000000E+02  0.91188000000E+02 0.  0.
    9900012    2    3    3    0    0  0.34950713619E+02 -0.87911902760E+00  0.11552437295E+02  0.54367027169E+02  0.39999870038E+02 0.  0.
         12    1    3    3    0    0 -0.34950713619E+02  0.87911902760E+00 -0.11552437295E+02  0.36820972831E+02  0.00000000000E+00 0. -1.
         11    1    4    4    0    0 -0.55384240214E+01  0.67710955543E+01  0.93061688257E+01  0.12772104530E+02  0.51100000000E-03 0. -1.
        -11    1    4    4    0    0  0.24038333632E+02 -0.22593019296E+01  0.47948247481E-01  0.24144320829E+02  0.51100000000E-03 0.  1.
         12    1    4    4    0    0  0.16450804008E+02 -0.53909126523E+01  0.21983202223E+01  0.17450601810E+02  0.00000000000E+00 0. -1.
</event>
<event>
 8    1  0.2534787E-006  0.9118800E+02  0.7816164E-02  0.1184000E+00
        -11   -1    0    0    0    0  0.00000000000E+00  0.00000000000E+00  0.45593999997E+02  0.45594000000E+02  0.51100000000E-03 0.  1.
         11   -1    0    0    0    0 -0.00000000000E+00 -0.00000000000E+00 -0.45593999997E+02  0.45594000000E+02  0.51100000000E-03 0. -1.
         23    2    1    2    0    0  0.00000000000E+00  0.00000000000E+00  0.35527136788E-14  0.91188000000E+02  0.91188000000E+02 0.  0.
    9900012    2    3    3    0    0  0.82145151378E+01 -0.17071665566E+02  0.31573158068E+02  0.54367023172E+02  0.39999860925E+02 0.  0.
         12    1    3    3    0    0 -0.82145151378E+01  0.17071665566E+02 -0.31573158068E+02  0.36820976828E+02  0.00000000000E+00 0. -1.
         11    1    4    4    0    0  0.68338003738E+01 -0.34551669811E+00 -0.53834963444E+01  0.87064483280E+01  0.51100000000E-03 0. -1.
        -11    1    4    4    0    0  0.41037464761E+01  0.79678974656E+00 -0.50785049683E+00  0.42111187859E+01  0.51100000000E-03 0.  1.
        -12    1    4    4    0    0 -0.27230317120E+01 -0.17522938615E+02  0.37464504910E+02  0.41449456058E+02  0.00000000000E+00 0.  1.
</event>
<event>
 8    1  0.2534787E-006  0.9118800E+02  0.7816164E-02  0.1184000E+00
        -11   -1    0    0    0    0  0.00000000000E+00  0.00000000000E+00  0.45593999997E+02  0.45594000000E+02  0.51100000000E-03 0.  1.
         11   -1    0    0    0    0 -0.00000000000E+00 -0.00000000000E+00 -0.45593999997E+02  0.45594000000E+02  0.51100000000E-03 0. -1.
         23    2    1    2    0    0  0.00000000000E+00  0.00000000000E+00  0.71054273576E-14  0.91188000000E+02  0.91188000000E+02 0.  0.
    9900012    2    3    3    0    0 -0.54426828289E+01 -0.15129046203E+02  0.33125050574E+02  0.54367084600E+02  0.40000000963E+02 0.  0.
         12    1    3    3    0    0  0.54426828289E+01  0.15129046203E+02 -0.33125050574E+02  0.36820915400E+02  0.00000000000E+00 0. -1.
         11    1    4    4    0    0 -0.54794312767E+01 -0.53916526983E+01 -0.34381831687E+01  0.84211157038E+01  0.51100000000E-03 0. -1.
        -11    1    4    4    0    0 -0.87394302872E+01 -0.14808154379E+02  0.27003101986E+02  0.32012912941E+02  0.51100000000E-03 0.  1.
         12    1    4    4    0    0  0.87761787350E+01  0.50707608747E+01  0.95601317566E+01  0.13933055955E+02  0.00000000000E+00 0. -1.
</event>
<event>
 8    1  0.2534787E-006  0.9118800E+02  0.7816164E-02  0.1184000E+00
        -11   -1    0    0    0    0  0.00000000000E+00  0.00000000000E+00  0.45593999997E+02  0.45594000000E+02  0.51100000000E-03 0.  1.
         11   -1    0    0    0    0 -0.00000000000E+00 -0.00000000000E+00 -0.45593999997E+02  0.45594000000E+02  0.51100000000E-03 0. -1.
         23    2    1    2    0    0  0.17763568394E-14 -0.35527136788E-14  0.00000000000E+00  0.91188000000E+02  0.91188000000E+02 0.  0.
    9900012    2    3    3    0    0 -0.12043648193E+02  0.99203224247E+01 -0.33351423310E+02  0.54367086165E+02  0.40000004531E+02 0.  0.
        -12    1    3    3    0    0  0.12043648193E+02 -0.99203224247E+01  0.33351423310E+02  0.36820913835E+02  0.00000000000E+00 0.  1.
         11    1    4    4    0    0  0.22644555143E+00 -0.36707516982E+01  0.31945791957E+00  0.36915781504E+01  0.51100000000E-03 0.  1.
        -11    1    4    4    0    0 -0.17654595818E+02 -0.50763306092E+01 -0.17943014894E+02  0.25678895414E+02  0.51100000000E-03 0. -1.
         12    1    4    4    0    0  0.53845020737E+01  0.18667404732E+02 -0.15727866336E+02  0.24996612600E+02  0.00000000000E+00 0. -1.
</event>
<event>
 8    1  0.2534787E-006  0.9118800E+02  0.7816164E-02  0.1184000E+00
        -11   -1    0    0    0    0  0.00000000000E+00  0.00000000000E+00  0.45593999997E+02  0.45594000000E+02  0.51100000000E-03 0. -1.
         11   -1    0    0    0    0 -0.00000000000E+00 -0.00000000000E+00 -0.45593999997E+02  0.45594000000E+02  0.51100000000E-03 0.  1.
         23    2    1    2    0    0 -0.17763568394E-14 -0.35527136788E-14 -0.35527136788E-14  0.91188000000E+02  0.91188000000E+02 0.  0.
    9900012    2    3    3    0    0 -0.15688282727E+02 -0.18586300707E+02 -0.27644271844E+02  0.54367101659E+02  0.40000039851E+02 0.  0.
         12    1    3    3    0    0  0.15688282727E+02  0.18586300707E+02  0.27644271844E+02  0.36820898341E+02  0.00000000000E+00 0. -1.
         11    1    4    4    0    0 -0.45227464719E+01  0.10001406086E+02  0.21370816747E+01  0.11182597091E+02  0.51100000000E-03 0. -1.
        -11    1    4    4    0    0 -0.23363551818E+01 -0.25144479164E+01 -0.54734487668E+01  0.64606226885E+01  0.51100000000E-03 0.  1.
         12    1    4    4    0    0 -0.88291810729E+01 -0.26073258877E+02 -0.24307904752E+02  0.36723881879E+02  0.00000000000E+00 0. -1.
</event>
<event>
 8    1  0.2534787E-006  0.9118800E+02  0.7816164E-02  0.1184000E+00
        -11   -1    0    0    0    0  0.00000000000E+00  0.00000000000E+00  0.45593999997E+02  0.45594000000E+02  0.51100000000E-03 0. -1.
         11   -1    0    0    0    0 -0.00000000000E+00 -0.00000000000E+00 -0.45593999997E+02  0.45594000000E+02  0.51100000000E-03 0.  1.
         23    2    1    2    0    0  0.35527136788E-14  0.35527136788E-14  0.17763568394E-14  0.91188000000E+02  0.91188000000E+02 0.  0.
    9900012    2    3    3    0    0  0.19369350686E+02  0.31010321800E+02 -0.43551759987E+01  0.54367090694E+02  0.40000014856E+02 0.  0.
         12    1    3    3    0    0 -0.19369350686E+02 -0.31010321800E+02  0.43551759987E+01  0.36820909306E+02  0.00000000000E+00 0. -1.
         11    1    4    4    0    0  0.29915303775E+01  0.60946660451E+00 -0.64205874831E+01  0.71094758900E+01  0.51100000000E-03 0. -1.
        -11    1    4    4    0    0  0.10063420205E+02  0.32776736589E+01 -0.12048398510E+02  0.16036816322E+02  0.51100000000E-03 0.  1.
        -12    1    4    4    0    0  0.63144001032E+01  0.27123181536E+02  0.14113809994E+02  0.31220798482E+02  0.00000000000E+00 0.  1.
</event>
<event>
 8    1  0.2534787E-006  0.9118800E+02  0.7816164E-02  0.1184000E+00
        -11   -1    0    0    0    0  0.00000000000E+00  0.00000000000E+00  0.45593999997E+02  0.45594000000E+02  0.51100000000E-03 0. -1.
         11   -1    0    0    0    0 -0.00000000000E+00 -0.00000000000E+00 -0.45593999997E+02  0.45594000000E+02  0.51100000000E-03 0.  1.
         23    2    1    2    0    0  0.35527136788E-14  0.00000000000E+00 -0.71054273576E-14  0.91188000000E+02  0.91188000000E+02 0.  0.
    9900012    2    3    3    0    0  0.11173097405E+02 -0.23043872497E+02 -0.26456004163E+02  0.54367104824E+02  0.40000047068E+02 0.  0.
        -12    1    3    3    0    0 -0.11173097405E+02  0.23043872497E+02  0.26456004163E+02  0.36820895176E+02  0.00000000000E+00 0.  1.
         11    1    4    4    0    0  0.15969517422E+02 -0.72341573948E+01 -0.10393723039E+01  0.17562426226E+02  0.51100000000E-03 0. -1.
        -11    1    4    4    0    0 -0.24796094594E+01 -0.48448983774E+01  0.30306556572E+01  0.62294764894E+01  0.51100000000E-03 0.  1.
        -12    1    4    4    0    0 -0.23168105575E+01 -0.10964816725E+02 -0.28447287516E+02  0.30575202109E+02  0.00000000000E+00 0.  1.
</event>
<event>
 8    1  0.2534787E-006  0.9118800E+02  0.7816164E-02  0.1184000E+00
        -11   -1    0    0    0    0  0.00000000000E+00  0.00000000000E+00  0.45593999997E+02  0.45594000000E+02  0.51100000000E-03 0.  1.
         11   -1    0    0    0    0 -0.00000000000E+00 -0.00000000000E+00 -0.45593999997E+02  0.45594000000E+02  0.51100000000E-03 0. -1.
         23    2    1    2    0    0  0.00000000000E+00  0.33306690739E-15  0.00000000000E+00  0.91188000000E+02  0.91188000000E+02 0.  0.
    9900012    2    3    3    0    0 -0.11181933992E+02 -0.70219938722E+00  0.35074944110E+02  0.54367076110E+02  0.39999981608E+02 0.  0.
         12    1    3    3    0    0  0.11181933992E+02  0.70219938722E+00 -0.35074944110E+02  0.36820923890E+02  0.00000000000E+00 0. -1.
         11    1    4    4    0    0 -0.55756869010E+01 -0.87381785569E+01  0.18517416342E+02  0.21221186516E+02  0.51100000000E-03 0.  1.
        -11    1    4    4    0    0  0.32330379902E+00 -0.58582978989E+01 -0.43840344838E+01  0.73242022251E+01  0.51100000000E-03 0. -1.
        -12    1    4    4    0    0 -0.59295508898E+01  0.13894277069E+02  0.20941562252E+02  0.25821687369E+02  0.00000000000E+00 0.  1.
</event>
<event>
 8    1  0.2534787E-006  0.9118800E+02  0.7816164E-02  0.1184000E+00
        -11   -1    0    0    0    0  0.00000000000E+00  0.00000000000E+00  0.45593999997E+02  0.45594000000E+02  0.51100000000E-03 0. -1.
         11   -1    0    0    0    0 -0.00000000000E+00 -0.00000000000E+00 -0.45593999997E+02  0.45594000000E+02  0.51100000000E-03 0.  1.
         23    2    1    2    0    0 -0.35527136788E-14  0.00000000000E+00  0.88817841970E-15  0.91188000000E+02  0.91188000000E+02 0.  0.
    9900012    2    3    3    0    0  0.19819968146E+02  0.30003322735E+02 -0.79214818671E+01  0.54367076772E+02  0.39999983116E+02 0.  0.
         12    1    3    3    0    0 -0.19819968146E+02 -0.30003322735E+02  0.79214818671E+01  0.36820923228E+02  0.00000000000E+00 0. -1.
         11    1    4    4    0    0  0.41193786604E+01  0.11702427525E+01  0.10407286683E+02  0.11253904434E+02  0.51100000000E-03 0. -1.
        -11    1    4    4    0    0 -0.10588331058E+01  0.16770589710E+02 -0.22739969698E+01  0.16957148028E+02  0.51100000000E-03 0.  1.
        -12    1    4    4    0    0  0.16759422591E+02  0.12062490272E+02 -0.16054771581E+02  0.26156024309E+02  0.00000000000E+00 0.  1.
</event>
<event>
 8    1  0.2534787E-006  0.9118800E+02  0.7816164E-02  0.1184000E+00
        -11   -1    0    0    0    0  0.00000000000E+00  0.00000000000E+00  0.45593999997E+02  0.45594000000E+02  0.51100000000E-03 0.  1.
         11   -1    0    0    0    0 -0.00000000000E+00 -0.00000000000E+00 -0.45593999997E+02  0.45594000000E+02  0.51100000000E-03 0. -1.
         23    2    1    2    0    0  0.71054273576E-14  0.00000000000E+00  0.17763568394E-14  0.91188000000E+02  0.91188000000E+02 0.  0.
    9900012    2    3    3    0    0 -0.32656675786E+02  0.15018460173E+02  0.79854649896E+01  0.54367078359E+02  0.39999986736E+02 0.  0.
         12    1    3    3    0    0  0.32656675786E+02 -0.15018460173E+02 -0.79854649896E+01  0.36820921641E+02  0.00000000000E+00 0. -1.
         11    1    4    4    0    0 -0.76981102765E+01  0.96984862248E+00 -0.55781365187E+01  0.95559989254E+01  0.51100000000E-03 0. -1.
        -11    1    4    4    0    0  0.33997100931E+01 -0.56532188697E+01 -0.20594967179E+01  0.69107480997E+01  0.51100000000E-03 0.  1.
        -12    1    4    4    0    0 -0.28358275603E+02  0.19701830420E+02  0.15623098226E+02  0.37900331334E+02  0.00000000000E+00 0.  1.
</event>
<event>
 8    1  0.2534787E-006  0.9118800E+02  0.7816164E-02  0.1184000E+00
        -11   -1    0    0    0    0  0.00000000000E+00  0.00000000000E+00  0.45593999997E+02  0.45594000000E+02  0.51100000000E-03 0. -1.
         11   -1    0    0    0    0 -0.00000000000E+00 -0.00000000000E+00 -0.45593999997E+02  0.45594000000E+02  0.51100000000E-03 0.  1.
         23    2    1    2    0    0  0.00000000000E+00 -0.35527136788E-14  0.00000000000E+00  0.91188000000E+02  0.91188000000E+02 0.  0.
    9900012    2    3    3    0    0  0.24908776245E+02  0.25281326500E+02  0.98075304385E+01  0.54367078543E+02  0.39999987155E+02 0.  0.
         12    1    3    3    0    0 -0.24908776245E+02 -0.25281326500E+02 -0.98075304385E+01  0.36820921457E+02  0.00000000000E+00 0. -1.
         11    1    4    4    0    0 -0.15845914715E+01  0.11414701195E+02  0.12597467276E+02  0.17073444747E+02  0.51100000000E-03 0. -1.
        -11    1    4    4    0    0  0.22162369885E+02  0.54477702015E+01  0.68040554150E+01  0.23814785521E+02  0.51100000000E-03 0.  1.
        -12    1    4    4    0    0  0.43309978318E+01  0.84188551040E+01 -0.95939922523E+01  0.13478848275E+02  0.00000000000E+00 0.  1.
</event>
<event>
 8    1  0.2534787E-006  0.9118800E+02  0.7816164E-02  0.1184000E+00
        -11   -1    0    0    0    0  0.00000000000E+00  0.00000000000E+00  0.45593999997E+02  0.45594000000E+02  0.51100000000E-03 0.  1.
         11   -1    0    0    0    0 -0.00000000000E+00 -0.00000000000E+00 -0.45593999997E+02  0.45594000000E+02  0.51100000000E-03 0. -1.
         23    2    1    2    0    0  0.00000000000E+00  0.33306690739E-15  0.00000000000E+00  0.91188000000E+02  0.91188000000E+02 0.  0.
    9900012    2    3    3    0    0 -0.10937490277E+02 -0.64172703518E+00 -0.35153065190E+02  0.54367102409E+02  0.40000041562E+02 0.  0.
        -12    1    3    3    0    0  0.10937490277E+02  0.64172703518E+00  0.35153065190E+02  0.36820897591E+02  0.00000000000E+00 0.  1.
         11    1    4    4    0    0 -0.11828215326E+02  0.44220552292E+01 -0.13720476747E+02  0.18647056944E+02  0.51100000000E-03 0. -1.
        -11    1    4    4    0    0 -0.11042549105E+02 -0.54106239383E+01 -0.13683823900E+01  0.12372760919E+02  0.51100000000E-03 0.  1.
        -12    1    4    4    0    0  0.11933274153E+02  0.34684167388E+00 -0.20064206053E+02  0.23347284546E+02  0.00000000000E+00 0.  1.
</event>
<event>
 8    1  0.2534787E-006  0.9118800E+02  0.7816164E-02  0.1184000E+00
        -11   -1    0    0    0    0  0.00000000000E+00  0.00000000000E+00  0.45593999997E+02  0.45594000000E+02  0.51100000000E-03 0. -1.
         11   -1    0    0    0    0 -0.00000000000E+00 -0.00000000000E+00 -0.45593999997E+02  0.45594000000E+02  0.51100000000E-03 0.  1.
         23    2    1    2    0    0  0.00000000000E+00  0.00000000000E+00  0.00000000000E+00  0.91188000000E+02  0.91188000000E+02 0.  0.
    9900012    2    3    3    0    0 -0.53953585341E+01  0.32626416792E+02  0.16192107068E+02  0.54367118727E+02  0.40000078762E+02 0.  0.
        -12    1    3    3    0    0  0.53953585341E+01 -0.32626416792E+02 -0.16192107068E+02  0.36820881273E+02  0.00000000000E+00 0.  1.
         11    1    4    4    0    0 -0.50317415917E+01  0.21317118252E+02  0.17105950812E+02  0.27791212774E+02  0.51100000000E-03 0. -1.
        -11    1    4    4    0    0 -0.10184478745E+02 -0.36330807059E+00 -0.41128757723E+01  0.10989601787E+02  0.51100000000E-03 0.  1.
        -12    1    4    4    0    0  0.98208618023E+01  0.11672606611E+02  0.31990320278E+01  0.15586304166E+02  0.00000000000E+00 0.  1.
</event>
<event>
 8    1  0.2534787E-006  0.9118800E+02  0.7816164E-02  0.1184000E+00
        -11   -1    0    0    0    0  0.00000000000E+00  0.00000000000E+00  0.45593999997E+02  0.45594000000E+02  0.51100000000E-03 0.  1.
         11   -1    0    0    0    0 -0.00000000000E+00 -0.00000000000E+00 -0.45593999997E+02  0.45594000000E+02  0.51100000000E-03 0. -1.
         23    2    1    2    0    0  0.33306690739E-15  0.71054273576E-14  0.00000000000E+00  0.91188000000E+02  0.91188000000E+02 0.  0.
    9900012    2    3    3    0    0 -0.95443519802E+00  0.36778065153E+02  0.14977606298E+01  0.54367077824E+02  0.39999985516E+02 0.  0.
        -12    1    3    3    0    0  0.95443519802E+00 -0.36778065153E+02 -0.14977606298E+01  0.36820922176E+02  0.00000000000E+00 0.  1.
         11    1    4    4    0    0  0.11297869467E+02 -0.10418110582E+01 -0.60527992878E+00  0.11361935963E+02  0.51100000000E-03 0. -1.
        -11    1    4    4    0    0 -0.12511703726E+00  0.19711440676E+02  0.65312577515E+01  0.20765689872E+02  0.51100000000E-03 0.  1.
         12    1    4    4    0    0 -0.12127187627E+02  0.18108435535E+02 -0.44282171929E+01  0.22239451990E+02  0.00000000000E+00 0. -1.
</event>
<event>
 8    1  0.2534787E-006  0.9118800E+02  0.7816164E-02  0.1184000E+00
        -11   -1    0    0    0    0  0.00000000000E+00  0.00000000000E+00  0.45593999997E+02  0.45594000000E+02  0.51100000000E-03 0.  1.
         11   -1    0    0    0    0 -0.00000000000E+00 -0.00000000000E+00 -0.45593999997E+02  0.45594000000E+02  0.51100000000E-03 0. -1.
         23    2    1    2    0    0  0.00000000000E+00  0.88817841970E-15  0.00000000000E+00  0.91188000000E+02  0.91188000000E+02 0.  0.
    9900012    2    3    3    0    0  0.18684049645E+02  0.23320578574E+01  0.31642494703E+02  0.54367086431E+02  0.40000005137E+02 0.  0.
         12    1    3    3    0    0 -0.18684049645E+02 -0.23320578574E+01 -0.31642494703E+02  0.36820913569E+02  0.00000000000E+00 0. -1.
         11    1    4    4    0    0 -0.66653201821E+01 -0.98038295788E+01  0.29604235101E+01  0.12219070143E+02  0.51100000000E-03 0. -1.
        -11    1    4    4    0    0  0.15144406928E+02  0.10673621697E+02  0.10632659940E+02  0.21361945581E+02  0.51100000000E-03 0.  1.
        -12    1    4    4    0    0  0.10204962899E+02  0.14622657396E+01  0.18049411253E+02  0.20786070707E+02  0.00000000000E+00 0.  1.
</event>
<event>
 8    1  0.2534787E-006  0.9118800E+02  0.7816164E-02  0.1184000E+00
        -11   -1    0    0    0    0  0.00000000000E+00  0.00000000000E+00  0.45593999997E+02  0.45594000000E+02  0.51100000000E-03 0. -1.
         11   -1    0    0    0    0 -0.00000000000E+00 -0.00000000000E+00 -0.45593999997E+02  0.45594000000E+02  0.51100000000E-03 0.  1.
         23    2    1    2    0    0  0.17763568394E-14 -0.71054273576E-14  0.17763568394E-14  0.91188000000E+02  0.91188000000E+02 0.  0.
    9900012    2    3    3    0    0 -0.10950541060E+02  0.34082130144E+02 -0.86181152350E+01  0.54367111162E+02  0.40000061515E+02 0.  0.
        -12    1    3    3    0    0  0.10950541060E+02 -0.34082130144E+02  0.86181152350E+01  0.36820888838E+02  0.00000000000E+00 0.  1.
         11    1    4    4    0    0  0.14013396639E+02  0.72032521201E+01 -0.19112198609E+01  0.15871826867E+02  0.51100000000E-03 0. -1.
        -11    1    4    4    0    0 -0.95570409589E+01  0.55315776147E+01  0.93563527697E+00  0.11082003268E+02  0.51100000000E-03 0.  1.
        -12    1    4    4    0    0 -0.15406896740E+02  0.21347300409E+02 -0.76425306511E+01  0.27413281027E+02  0.00000000000E+00 0.  1.
</event>
<event>
 8    1  0.2534787E-006  0.9118800E+02  0.7816164E-02  0.1184000E+00
        -11   -1    0    0    0    0  0.00000000000E+00  0.00000000000E+00  0.45593999997E+02  0.45594000000E+02  0.51100000000E-03 0. -1.
         11   -1    0    0    0    0 -0.00000000000E+00 -0.00000000000E+00 -0.45593999997E+02  0.45594000000E+02  0.51100000000E-03 0.  1.
         23    2    1    2    0    0  0.35527136788E-14 -0.88817841970E-15  0.35527136788E-14  0.91188000000E+02  0.91188000000E+02 0.  0.
    9900012    2    3    3    0    0  0.21600597082E+02 -0.74278392357E+01 -0.28879429625E+02  0.54367081415E+02  0.39999993701E+02 0.  0.
         12    1    3    3    0    0 -0.21600597082E+02  0.74278392357E+01  0.28879429625E+02  0.36820918585E+02  0.00000000000E+00 0. -1.
         11    1    4    4    0    0 -0.37967908694E+01 -0.19503545452E+01  0.32407752131E+01  0.53593029398E+01  0.51100000000E-03 0. -1.
        -11    1    4    4    0    0  0.23364656738E+02  0.30300262452E+01 -0.10711204032E+02  0.25880844955E+02  0.51100000000E-03 0.  1.
         12    1    4    4    0    0  0.20327312138E+01 -0.85075109357E+01 -0.21409000806E+02  0.23126933520E+02  0.00000000000E+00 0. -1.
</event>
<event>
 8    1  0.2534787E-006  0.9118800E+02  0.7816164E-02  0.1184000E+00
        -11   -1    0    0    0    0  0.00000000000E+00  0.00000000000E+00  0.45593999997E+02  0.45594000000E+02  0.51100000000E-03 0.  1.
         11   -1    0    0    0    0 -0.00000000000E+00 -0.00000000000E+00 -0.45593999997E+02  0.45594000000E+02  0.51100000000E-03 0. -1.
         23    2    1    2    0    0  0.00000000000E+00  0.00000000000E+00  0.00000000000E+00  0.91188000000E+02  0.91188000000E+02 0.  0.
    9900012    2    3    3    0    0 -0.21987757658E+02  0.27292309376E+02 -0.11289144578E+02  0.54367130602E+02  0.40000105834E+02 0.  0.
        -12    1    3    3    0    0  0.21987757658E+02 -0.27292309376E+02  0.11289144578E+02  0.36820869398E+02  0.00000000000E+00 0.  1.
         11    1    4    4    0    0 -0.20522977134E+02  0.13348958062E+02  0.26399259322E+01  0.24624306710E+02  0.51100000000E-03 0. -1.
        -11    1    4    4    0    0 -0.95616897332E+01  0.10337356262E+01 -0.10271779104E+02  0.14071388209E+02  0.51100000000E-03 0.  1.
         12    1    4    4    0    0  0.80969092091E+01  0.12909615688E+02 -0.36572914059E+01  0.15671435683E+02  0.00000000000E+00 0. -1.
</event>
<event>
 8    1  0.2534787E-006  0.9118800E+02  0.7816164E-02  0.1184000E+00
        -11   -1    0    0    0    0  0.00000000000E+00  0.00000000000E+00  0.45593999997E+02  0.45594000000E+02  0.51100000000E-03 0. -1.
         11   -1    0    0    0    0 -0.00000000000E+00 -0.00000000000E+00 -0.45593999997E+02  0.45594000000E+02  0.51100000000E-03 0.  1.
         23    2    1    2    0    0  0.00000000000E+00 -0.88817841970E-15  0.35527136788E-14  0.91188000000E+02  0.91188000000E+02 0.  0.
    9900012    2    3    3    0    0  0.27468610508E+02 -0.42776064238E+01  0.24144504555E+02  0.54367087733E+02  0.40000008106E+02 0.  0.
        -12    1    3    3    0    0 -0.27468610508E+02  0.42776064238E+01 -0.24144504555E+02  0.36820912267E+02  0.00000000000E+00 0.  1.
         11    1    4    4    0    0 -0.34793288010E+01 -0.75186494161E+01  0.48549193602E+01  0.96023986692E+01  0.51100000000E-03 0. -1.
        -11    1    4    4    0    0  0.12581634540E+02 -0.11304071007E+02  0.69570618034E+01  0.18288801443E+02  0.51100000000E-03 0.  1.
        -12    1    4    4    0    0  0.18366304769E+02  0.14545114000E+02  0.12332523391E+02  0.26475887621E+02  0.00000000000E+00 0.  1.
</event>
<event>
 8    1  0.2534787E-006  0.9118800E+02  0.7816164E-02  0.1184000E+00
        -11   -1    0    0    0    0  0.00000000000E+00  0.00000000000E+00  0.45593999997E+02  0.45594000000E+02  0.51100000000E-03 0.  1.
         11   -1    0    0    0    0 -0.00000000000E+00 -0.00000000000E+00 -0.45593999997E+02  0.45594000000E+02  0.51100000000E-03 0. -1.
         23    2    1    2    0    0  0.14210854715E-13  0.17763568394E-14 -0.17763568394E-14  0.91188000000E+02  0.91188000000E+02 0.  0.
    9900012    2    3    3    0    0 -0.32039569732E+02 -0.13357599550E+02  0.12280897391E+02  0.54367082913E+02  0.39999997118E+02 0.  0.
         12    1    3    3    0    0  0.32039569732E+02  0.13357599550E+02 -0.12280897391E+02  0.36820917087E+02  0.00000000000E+00 0. -1.
         11    1    4    4    0    0 -0.39069042289E+01 -0.15756438277E+02  0.16423747405E+02  0.23092611955E+02  0.51100000000E-03 0. -1.
        -11    1    4    4    0    0 -0.19981379237E+01 -0.36086702117E+01 -0.12083689259E+01  0.42982800724E+01  0.51100000000E-03 0.  1.
        -12    1    4    4    0    0 -0.26134527579E+02  0.60075089383E+01 -0.29344810884E+01  0.26976190886E+02  0.00000000000E+00 0.  1.
</event>
<event>
 8    1  0.2534787E-006  0.9118800E+02  0.7816164E-02  0.1184000E+00
        -11   -1    0    0    0    0  0.00000000000E+00  0.00000000000E+00  0.45593999997E+02  0.45594000000E+02  0.51100000000E-03 0. -1.
         11   -1    0    0    0    0 -0.00000000000E+00 -0.00000000000E+00 -0.45593999997E+02  0.45594000000E+02  0.51100000000E-03 0.  1.
         23    2    1    2    0    0 -0.17763568394E-14 -0.44408920985E-15  0.00000000000E+00  0.91188000000E+02  0.91188000000E+02 0.  0.
    9900012    2    3    3    0    0  0.13064400861E+02  0.27774999930E+01 -0.34313069631E+02  0.54367084428E+02  0.40000000571E+02 0.  0.
         12    1    3    3    0    0 -0.13064400861E+02 -0.27774999930E+01  0.34313069631E+02  0.36820915572E+02  0.00000000000E+00 0. -1.
         11    1    4    4    0    0  0.19489253396E+02  0.10100991999E+02 -0.30289216442E+02  0.37407187413E+02  0.51100000000E-03 0. -1.
        -11    1    4    4    0    0  0.30673920638E+01 -0.61900029173E+01 -0.14336517653E+01  0.70555217974E+01  0.51100000000E-03 0.  1.
         12    1    4    4    0    0 -0.94922445987E+01 -0.11334890884E+01 -0.25902014237E+01  0.99043752176E+01  0.00000000000E+00 0. -1.
</event>
<event>
 8    1  0.2534787E-006  0.9118800E+02  0.7816164E-02  0.1184000E+00
        -11   -1    0    0    0    0  0.00000000000E+00  0.00000000000E+00  0.45593999997E+02  0.45594000000E+02  0.51100000000E-03 0.  1.
         11   -1    0    0    0    0 -0.00000000000E+00 -0.00000000000E+00 -0.45593999997E+02  0.45594000000E+02  0.51100000000E-03 0. -1.
         23    2    1    2    0    0 -0.88817841970E-15  0.00000000000E+00  0.17763568394E-14  0.91188000000E+02  0.91188000000E+02 0.  0.
    9900012    2    3    3    0    0 -0.55301329840E+01  0.33562410223E+02  0.14098304010E+02  0.54367083027E+02  0.39999997376E+02 0.  0.
        -12    1    3    3    0    0  0.55301329840E+01 -0.33562410223E+02 -0.14098304010E+02  0.36820916973E+02  0.00000000000E+00 0.  1.
         11    1    4    4    0    0  0.56196016415E+01  0.20412313747E+02 -0.98775331416E+01  0.23362537027E+02  0.51100000000E-03 0. -1.
        -11    1    4    4    0    0 -0.98190078681E+01  0.46786881292E+01  0.15600157901E+02  0.19017569901E+02  0.51100000000E-03 0.  1.
         12    1    4    4    0    0 -0.13307267575E+01  0.84714083472E+01  0.83756792504E+01  0.11986976099E+02  0.00000000000E+00 0. -1.
</event>
<event>
 8    1  0.2534787E-006  0.9118800E+02  0.7816164E-02  0.1184000E+00
        -11   -1    0    0    0    0  0.00000000000E+00  0.00000000000E+00  0.45593999997E+02  0.45594000000E+02  0.51100000000E-03 0.  1.
         11   -1    0    0    0    0 -0.00000000000E+00 -0.00000000000E+00 -0.45593999997E+02  0.45594000000E+02  0.51100000000E-03 0. -1.
         23    2    1    2    0    0  0.00000000000E+00  0.00000000000E+00  0.00000000000E+00  0.91188000000E+02  0.91188000000E+02 0.  0.
    9900012    2    3    3    0    0  0.60629068744E+01 -0.36135486096E+02  0.36395299030E+01  0.54367104124E+02  0.40000045472E+02 0.  0.
        -12    1    3    3    0    0 -0.60629068744E+01  0.36135486096E+02 -0.36395299030E+01  0.36820895876E+02  0.00000000000E+00 0.  1.
         11    1    4    4    0    0  0.25401236536E+01  0.33827562678E+01 -0.78298427476E+01  0.88995340247E+01  0.51100000000E-03 0. -1.
        -11    1    4    4    0    0  0.74498338698E+01 -0.10353276828E+02 -0.23276355188E+01  0.12965656680E+02  0.51100000000E-03 0.  1.
         12    1    4    4    0    0 -0.39270506491E+01 -0.29164965536E+02  0.13797008169E+02  0.32501913419E+02  0.00000000000E+00 0. -1.
</event>
<event>
 8    1  0.2534787E-006  0.9118800E+02  0.7816164E-02  0.1184000E+00
        -11   -1    0    0    0    0  0.00000000000E+00  0.00000000000E+00  0.45593999997E+02  0.45594000000E+02  0.51100000000E-03 0.  1.
         11   -1    0    0    0    0 -0.00000000000E+00 -0.00000000000E+00 -0.45593999997E+02  0.45594000000E+02  0.51100000000E-03 0. -1.
         23    2    1    2    0    0 -0.35527136788E-14 -0.88817841970E-15  0.00000000000E+00  0.91188000000E+02  0.91188000000E+02 0.  0.
    9900012    2    3    3    0    0  0.31853895285E+02 -0.67096225069E+01  0.17207240823E+02  0.54367098113E+02  0.40000031768E+02 0.  0.
        -12    1    3    3    0    0 -0.31853895285E+02  0.67096225069E+01 -0.17207240823E+02  0.36820901887E+02  0.00000000000E+00 0.  1.
         11    1    4    4    0    0 -0.32502060605E+01 -0.51650180511E+00 -0.11805244655E+01  0.34963197544E+01  0.51100000000E-03 0. -1.
        -11    1    4    4    0    0  0.27161839419E+01 -0.13258854946E+02  0.95465148271E+01  0.16562331819E+02  0.51100000000E-03 0.  1.
        -12    1    4    4    0    0  0.32387917404E+02  0.70657342444E+01  0.88412504617E+01  0.34308446539E+02  0.00000000000E+00 0.  1.
</event>
<event>
 8    1  0.2534787E-006  0.9118800E+02  0.7816164E-02  0.1184000E+00
        -11   -1    0    0    0    0  0.00000000000E+00  0.00000000000E+00  0.45593999997E+02  0.45594000000E+02  0.51100000000E-03 0. -1.
         11   -1    0    0    0    0 -0.00000000000E+00 -0.00000000000E+00 -0.45593999997E+02  0.45594000000E+02  0.51100000000E-03 0.  1.
         23    2    1    2    0    0  0.00000000000E+00 -0.35527136788E-14  0.71054273576E-14  0.91188000000E+02  0.91188000000E+02 0.  0.
    9900012    2    3    3    0    0 -0.84629875474E+01  0.14362542144E+02 -0.32831022673E+02  0.54367070832E+02  0.39999969576E+02 0.  0.
         12    1    3    3    0    0  0.84629875474E+01 -0.14362542144E+02  0.32831022673E+02  0.36820929168E+02  0.00000000000E+00 0. -1.
         11    1    4    4    0    0 -0.63568444459E+01  0.45862407912E+01 -0.17821987041E+02  0.19469625016E+02  0.51100000000E-03 0. -1.
        -11    1    4    4    0    0  0.41247233737E+01  0.11412057726E+02 -0.22164829857E+02  0.25269113306E+02  0.51100000000E-03 0.  1.
         12    1    4    4    0    0 -0.62308664752E+01 -0.16357563731E+01  0.71557942247E+01  0.96283325103E+01  0.00000000000E+00 0. -1.
</event>
<event>
 8    1  0.2534787E-006  0.9118800E+02  0.7816164E-02  0.1184000E+00
        -11   -1    0    0    0    0  0.00000000000E+00  0.00000000000E+00  0.45593999997E+02  0.45594000000E+02  0.51100000000E-03 0. -1.
         11   -1    0    0    0    0 -0.00000000000E+00 -0.00000000000E+00 -0.45593999997E+02  0.45594000000E+02  0.51100000000E-03 0.  1.
         23    2    1    2    0    0  0.00000000000E+00  0.35527136788E-14 -0.88817841970E-15  0.91188000000E+02  0.91188000000E+02 0.  0.
    9900012    2    3    3    0    0 -0.20141118636E+02  0.30407165625E+02  0.50517766220E+01  0.54367070785E+02  0.39999969468E+02 0.  0.
         12    1    3    3    0    0  0.20141118636E+02 -0.30407165625E+02 -0.50517766220E+01  0.36820929215E+02  0.00000000000E+00 0. -1.
         11    1    4    4    0    0  0.34686444576E+01  0.16132002361E+02  0.25398697725E+01  0.16695027202E+02  0.51100000000E-03 0. -1.
        -11    1    4    4    0    0 -0.18159156643E+02  0.17465077517E+02  0.10664878294E+02  0.27359158100E+02  0.51100000000E-03 0.  1.
        -12    1    4    4    0    0 -0.54506064510E+01 -0.31899142529E+01 -0.81529714444E+01  0.10312885484E+02  0.00000000000E+00 0.  1.
</event>
<event>
 8    1  0.2534787E-006  0.9118800E+02  0.7816164E-02  0.1184000E+00
        -11   -1    0    0    0    0  0.00000000000E+00  0.00000000000E+00  0.45593999997E+02  0.45594000000E+02  0.51100000000E-03 0. -1.
         11   -1    0    0    0    0 -0.00000000000E+00 -0.00000000000E+00 -0.45593999997E+02  0.45594000000E+02  0.51100000000E-03 0.  1.
         23    2    1    2    0    0  0.00000000000E+00  0.35527136788E-14 -0.35527136788E-14  0.91188000000E+02  0.91188000000E+02 0.  0.
    9900012    2    3    3    0    0 -0.56436118396E+01 -0.25622072510E+02  0.25834839120E+02  0.54367083842E+02  0.39999999236E+02 0.  0.
        -12    1    3    3    0    0  0.56436118396E+01  0.25622072510E+02 -0.25834839120E+02  0.36820916158E+02  0.00000000000E+00 0.  1.
         11    1    4    4    0    0 -0.81043993726E+01 -0.21146039211E+02  0.98283739201E+01  0.24686700826E+02  0.51100000000E-03 0. -1.
        -11    1    4    4    0    0 -0.10611839450E+02 -0.37546295412E+01  0.40890259452E+01  0.11976164367E+02  0.51100000000E-03 0.  1.
        -12    1    4    4    0    0  0.13072626983E+02 -0.72140375820E+00  0.11917439255E+02  0.17704218650E+02  0.00000000000E+00 0.  1.
</event>
<event>
 8    1  0.2534787E-006  0.9118800E+02  0.7816164E-02  0.1184000E+00
        -11   -1    0    0    0    0  0.00000000000E+00  0.00000000000E+00  0.45593999997E+02  0.45594000000E+02  0.51100000000E-03 0.  1.
         11   -1    0    0    0    0 -0.00000000000E+00 -0.00000000000E+00 -0.45593999997E+02  0.45594000000E+02  0.51100000000E-03 0. -1.
         23    2    1    2    0    0  0.00000000000E+00  0.00000000000E+00  0.00000000000E+00  0.91188000000E+02  0.91188000000E+02 0.  0.
    9900012    2    3    3    0    0  0.24924835309E+02 -0.94406224628E+01  0.25404866909E+02  0.54367081620E+02  0.39999994170E+02 0.  0.
         12    1    3    3    0    0 -0.24924835309E+02  0.94406224628E+01 -0.25404866909E+02  0.36820918380E+02  0.00000000000E+00 0. -1.
         11    1    4    4    0    0  0.41826364528E+01 -0.78225003546E+01  0.78625075660E+01  0.11853479868E+02  0.51100000000E-03 0. -1.
        -11    1    4    4    0    0  0.44991891441E+01 -0.15706021099E+02  0.12110535197E+02  0.20336835170E+02  0.51100000000E-03 0.  1.
         12    1    4    4    0    0  0.16243009712E+02  0.14087898991E+02  0.54318241453E+01  0.22176766582E+02  0.00000000000E+00 0. -1.
</event>
<event>
 8    1  0.2534787E-006  0.9118800E+02  0.7816164E-02  0.1184000E+00
        -11   -1    0    0    0    0  0.00000000000E+00  0.00000000000E+00  0.45593999997E+02  0.45594000000E+02  0.51100000000E-03 0.  1.
         11   -1    0    0    0    0 -0.00000000000E+00 -0.00000000000E+00 -0.45593999997E+02  0.45594000000E+02  0.51100000000E-03 0. -1.
         23    2    1    2    0    0  0.00000000000E+00  0.44408920985E-15  0.00000000000E+00  0.91188000000E+02  0.91188000000E+02 0.  0.
    9900012    2    3    3    0    0  0.25407784897E+02 -0.11423879791E+01 -0.26625522755E+02  0.54367094991E+02  0.40000024651E+02 0.  0.
        -12    1    3    3    0    0 -0.25407784897E+02  0.11423879791E+01  0.26625522755E+02  0.36820905009E+02  0.00000000000E+00 0.  1.
         11    1    4    4    0    0  0.10769011566E+02  0.13888463422E+01 -0.11681255734E+02  0.15948424376E+02  0.51100000000E-03 0. -1.
        -11    1    4    4    0    0  0.17361694222E+02  0.61108925664E+01  0.26817291362E+01  0.18600083485E+02  0.51100000000E-03 0.  1.
        -12    1    4    4    0    0 -0.27229208907E+01 -0.86421268877E+01 -0.17625996157E+02  0.19818587131E+02  0.00000000000E+00 0.  1.
</event>
<event>
 8    1  0.2534787E-006  0.9118800E+02  0.7816164E-02  0.1184000E+00
        -11   -1    0    0    0    0  0.00000000000E+00  0.00000000000E+00  0.45593999997E+02  0.45594000000E+02  0.51100000000E-03 0. -1.
         11   -1    0    0    0    0 -0.00000000000E+00 -0.00000000000E+00 -0.45593999997E+02  0.45594000000E+02  0.51100000000E-03 0.  1.
         23    2    1    2    0    0 -0.17763568394E-14  0.17763568394E-14  0.35527136788E-14  0.91188000000E+02  0.91188000000E+02 0.  0.
    9900012    2    3    3    0    0 -0.13295568563E+02  0.15719455717E+02  0.30527124915E+02  0.54367098503E+02  0.40000032658E+02 0.  0.
        -12    1    3    3    0    0  0.13295568563E+02 -0.15719455717E+02 -0.30527124915E+02  0.36820901497E+02  0.00000000000E+00 0.  1.
         11    1    4    4    0    0  0.58941335566E+01  0.11129461736E+02  0.30354210453E+01  0.12954516977E+02  0.51100000000E-03 0.  1.
        -11    1    4    4    0    0 -0.16272378091E+02 -0.21052178480E+00  0.30841870999E+02  0.34871988977E+02  0.51100000000E-03 0. -1.
         12    1    4    4    0    0 -0.29173240285E+01  0.48005157656E+01 -0.33501671299E+01  0.65405925497E+01  0.00000000000E+00 0. -1.
</event>
<event>
 8    1  0.2534787E-006  0.9118800E+02  0.7816164E-02  0.1184000E+00
        -11   -1    0    0    0    0  0.00000000000E+00  0.00000000000E+00  0.45593999997E+02  0.45594000000E+02  0.51100000000E-03 0.  1.
         11   -1    0    0    0    0 -0.00000000000E+00 -0.00000000000E+00 -0.45593999997E+02  0.45594000000E+02  0.51100000000E-03 0. -1.
         23    2    1    2    0    0  0.17763568394E-14  0.00000000000E+00 -0.35527136788E-14  0.91188000000E+02  0.91188000000E+02 0.  0.
    9900012    2    3    3    0    0  0.14989875349E+02 -0.24512510634E+02 -0.23026500326E+02  0.54367092110E+02  0.40000018084E+02 0.  0.
        -12    1    3    3    0    0 -0.14989875349E+02  0.24512510634E+02  0.23026500326E+02  0.36820907890E+02  0.00000000000E+00 0.  1.
         11    1    4    4    0    0  0.10357495771E+02  0.27967550320E-02 -0.91590437011E+00  0.10397913615E+02  0.51100000000E-03 0. -1.
        -11    1    4    4    0    0  0.69861048216E+01 -0.25792453277E+02 -0.56762088642E+01  0.27318046305E+02  0.51100000000E-03 0.  1.
         12    1    4    4    0    0 -0.23537252431E+01  0.12771458880E+01 -0.16434387092E+02  0.16651132190E+02  0.00000000000E+00 0. -1.
</event>
<event>
 8    1  0.2534787E-006  0.9118800E+02  0.7816164E-02  0.1184000E+00
        -11   -1    0    0    0    0  0.00000000000E+00  0.00000000000E+00  0.45593999997E+02  0.45594000000E+02  0.51100000000E-03 0.  1.
         11   -1    0    0    0    0 -0.00000000000E+00 -0.00000000000E+00 -0.45593999997E+02  0.45594000000E+02  0.51100000000E-03 0. -1.
         23    2    1    2    0    0 -0.88817841970E-15 -0.35527136788E-14  0.71054273576E-14  0.91188000000E+02  0.91188000000E+02 0.  0.
    9900012    2    3    3    0    0 -0.60662992465E+01 -0.14954809523E+02  0.33095800699E+02  0.54367104597E+02  0.40000046549E+02 0.  0.
         12    1    3    3    0    0  0.60662992465E+01  0.14954809523E+02 -0.33095800699E+02  0.36820895403E+02  0.00000000000E+00 0. -1.
         11    1    4    4    0    0  0.33498832778E+01  0.74147855989E+01 -0.18662862201E+01  0.83476815924E+01  0.51100000000E-03 0. -1.
        -11    1    4    4    0    0 -0.78124433594E+00  0.26462456913E+01  0.69778538547E+01  0.75035593987E+01  0.51100000000E-03 0.  1.
        -12    1    4    4    0    0 -0.86349381884E+01 -0.25015840813E+02  0.27984233064E+02  0.38515863606E+02  0.00000000000E+00 0.  1.
</event>
<event>
 8    1  0.2534787E-006  0.9118800E+02  0.7816164E-02  0.1184000E+00
        -11   -1    0    0    0    0  0.00000000000E+00  0.00000000000E+00  0.45593999997E+02  0.45594000000E+02  0.51100000000E-03 0. -1.
         11   -1    0    0    0    0 -0.00000000000E+00 -0.00000000000E+00 -0.45593999997E+02  0.45594000000E+02  0.51100000000E-03 0.  1.
         23    2    1    2    0    0  0.00000000000E+00  0.00000000000E+00  0.35527136788E-14  0.91188000000E+02  0.91188000000E+02 0.  0.
    9900012    2    3    3    0    0  0.89720293061E+01  0.21497702253E+02 -0.28515478210E+02  0.54367068322E+02  0.39999963855E+02 0.  0.
         12    1    3    3    0    0 -0.89720293061E+01 -0.21497702253E+02  0.28515478210E+02  0.36820931678E+02  0.00000000000E+00 0. -1.
         11    1    4    4    0    0  0.20767610118E-01  0.31530259161E+01  0.25612180954E+01  0.40622459446E+01  0.51100000000E-03 0. -1.
        -11    1    4    4    0    0 -0.41506085354E+01  0.22597935763E+02 -0.98457167905E+01  0.24996647602E+02  0.51100000000E-03 0.  1.
         12    1    4    4    0    0  0.13101870231E+02 -0.42532594258E+01 -0.21230979515E+02  0.25308174776E+02  0.00000000000E+00 0. -1.
</event>
<event>
 8    1  0.2534787E-006  0.9118800E+02  0.7816164E-02  0.1184000E+00
        -11   -1    0    0    0    0  0.00000000000E+00  0.00000000000E+00  0.45593999997E+02  0.45594000000E+02  0.51100000000E-03 0.  1.
         11   -1    0    0    0    0 -0.00000000000E+00 -0.00000000000E+00 -0.45593999997E+02  0.45594000000E+02  0.51100000000E-03 0. -1.
         23    2    1    2    0    0  0.00000000000E+00  0.35527136788E-14 -0.17763568394E-14  0.91188000000E+02  0.91188000000E+02 0.  0.
    9900012    2    3    3    0    0  0.18938168381E+02  0.29676504971E+02 -0.10790384508E+02  0.54367060756E+02  0.39999946607E+02 0.  0.
        -12    1    3    3    0    0 -0.18938168381E+02 -0.29676504971E+02  0.10790384508E+02  0.36820939244E+02  0.00000000000E+00 0.  1.
         11    1    4    4    0    0 -0.42348556439E+00  0.66986062362E+00 -0.53398411323E+01  0.53983290802E+01  0.51100000000E-03 0. -1.
        -11    1    4    4    0    0 -0.10215529569E+01  0.59700853747E+01 -0.15473950479E+02  0.16617118689E+02  0.51100000000E-03 0.  1.
         12    1    4    4    0    0  0.20383206903E+02  0.23036558973E+02  0.10023407103E+02  0.32351612988E+02  0.00000000000E+00 0. -1.
</event>
<event>
 8    1  0.2534787E-006  0.9118800E+02  0.7816164E-02  0.1184000E+00
        -11   -1    0    0    0    0  0.00000000000E+00  0.00000000000E+00  0.45593999997E+02  0.45594000000E+02  0.51100000000E-03 0.  1.
         11   -1    0    0    0    0 -0.00000000000E+00 -0.00000000000E+00 -0.45593999997E+02  0.45594000000E+02  0.51100000000E-03 0. -1.
         23    2    1    2    0    0  0.44408920985E-15  0.00000000000E+00  0.00000000000E+00  0.91188000000E+02  0.91188000000E+02 0.  0.
    9900012    2    3    3    0    0 -0.31653798450E+01 -0.30854351171E+02 -0.19843630560E+02  0.54367078100E+02  0.39999986145E+02 0.  0.
        -12    1    3    3    0    0  0.31653798450E+01  0.30854351171E+02  0.19843630560E+02  0.36820921900E+02  0.00000000000E+00 0.  1.
         11    1    4    4    0    0  0.86865909688E+01 -0.11265056114E+02 -0.90185673929E+01  0.16843185862E+02  0.51100000000E-03 0. -1.
        -11    1    4    4    0    0 -0.61147703720E+01 -0.25277897178E+02 -0.13114427898E+02  0.29126460852E+02  0.51100000000E-03 0.  1.
        -12    1    4    4    0    0 -0.57372004418E+01  0.56886021213E+01  0.22893647302E+01  0.83974313853E+01  0.00000000000E+00 0.  1.
</event>
<event>
 8    1  0.2534787E-006  0.9118800E+02  0.7816164E-02  0.1184000E+00
        -11   -1    0    0    0    0  0.00000000000E+00  0.00000000000E+00  0.45593999997E+02  0.45594000000E+02  0.51100000000E-03 0.  1.
         11   -1    0    0    0    0 -0.00000000000E+00 -0.00000000000E+00 -0.45593999997E+02  0.45594000000E+02  0.51100000000E-03 0. -1.
         23    2    1    2    0    0 -0.35527136788E-14 -0.35527136788E-14  0.17763568394E-14  0.91188000000E+02  0.91188000000E+02 0.  0.
    9900012    2    3    3    0    0  0.24478590173E+02 -0.23754407458E+02 -0.13867461664E+02  0.54367085515E+02  0.40000003048E+02 0.  0.
        -12    1    3    3    0    0 -0.24478590173E+02  0.23754407458E+02  0.13867461664E+02  0.36820914485E+02  0.00000000000E+00 0.  1.
         11    1    4    4    0    0  0.11486100678E+02 -0.14389537065E+02 -0.12268171876E+02  0.22124586486E+02  0.51100000000E-03 0. -1.
        -11    1    4    4    0    0  0.23595896559E+01  0.84995061601E+01  0.53570631517E+01  0.10320241963E+02  0.51100000000E-03 0.  1.
        -12    1    4    4    0    0  0.10632899839E+02 -0.17864376553E+02 -0.69563529400E+01  0.21922257065E+02  0.00000000000E+00 0.  1.
</event>
<event>
 8    1  0.2534787E-006  0.9118800E+02  0.7816164E-02  0.1184000E+00
        -11   -1    0    0    0    0  0.00000000000E+00  0.00000000000E+00  0.45593999997E+02  0.45594000000E+02  0.51100000000E-03 0.  1.
         11   -1    0    0    0    0 -0.00000000000E+00 -0.00000000000E+00 -0.45593999997E+02  0.45594000000E+02  0.51100000000E-03 0. -1.
         23    2    1    2    0    0  0.00000000000E+00 -0.35527136788E-14 -0.35527136788E-14  0.91188000000E+02  0.91188000000E+02 0.  0.
    9900012    2    3    3    0    0  0.13067292086E+02 -0.28845370522E+02 -0.18787504418E+02  0.54367084133E+02  0.39999999899E+02 0.  0.
        -12    1    3    3    0    0 -0.13067292086E+02  0.28845370522E+02  0.18787504418E+02  0.36820915867E+02  0.00000000000E+00 0.  1.
         11    1    4    4    0    0 -0.63834670777E+01 -0.22798349831E+01 -0.10355699567E+02  0.12376866052E+02  0.51100000000E-03 0. -1.
        -11    1    4    4    0    0  0.50289718641E+01 -0.89056108842E+01  0.87348293594E+01  0.13449821836E+02  0.51100000000E-03 0.  1.
         12    1    4    4    0    0  0.14421787300E+02 -0.17659924654E+02 -0.17166634211E+02  0.28540396245E+02  0.00000000000E+00 0. -1.
</event>
<event>
 8    1  0.2534787E-006  0.9118800E+02  0.7816164E-02  0.1184000E+00
        -11   -1    0    0    0    0  0.00000000000E+00  0.00000000000E+00  0.45593999997E+02  0.45594000000E+02  0.51100000000E-03 0.  1.
         11   -1    0    0    0    0 -0.00000000000E+00 -0.00000000000E+00 -0.45593999997E+02  0.45594000000E+02  0.51100000000E-03 0. -1.
         23    2    1    2    0    0  0.00000000000E+00  0.11102230246E-14  0.00000000000E+00  0.91188000000E+02  0.91188000000E+02 0.  0.
    9900012    2    3    3    0    0  0.31739377490E+02 -0.10750750591E+01  0.18634280352E+02  0.54367078310E+02  0.39999986624E+02 0.  0.
         12    1    3    3    0    0 -0.31739377490E+02  0.10750750591E+01 -0.18634280352E+02  0.36820921690E+02  0.00000000000E+00 0. -1.
         11    1    4    4    0    0  0.72250869856E+01 -0.65952763181E+01  0.84719669280E+01  0.12941165927E+02  0.51100000000E-03 0. -1.
        -11    1    4    4    0    0  0.60301547844E+01 -0.21747785582E+01  0.18618797813E+02  0.19691420994E+02  0.51100000000E-03 0.  1.
         12    1    4    4    0    0  0.18484135720E+02  0.76949798172E+01 -0.84564843891E+01  0.21734491389E+02  0.00000000000E+00 0. -1.
</event>
<event>
 8    1  0.2534787E-006  0.9118800E+02  0.7816164E-02  0.1184000E+00
        -11   -1    0    0    0    0  0.00000000000E+00  0.00000000000E+00  0.45593999997E+02  0.45594000000E+02  0.51100000000E-03 0.  1.
         11   -1    0    0    0    0 -0.00000000000E+00 -0.00000000000E+00 -0.45593999997E+02  0.45594000000E+02  0.51100000000E-03 0. -1.
         23    2    1    2    0    0  0.00000000000E+00 -0.71054273576E-14  0.44408920985E-15  0.91188000000E+02  0.91188000000E+02 0.  0.
    9900012    2    3    3    0    0 -0.17118431405E+02  0.32507604511E+02  0.24485496154E+01  0.54367076057E+02  0.39999981486E+02 0.  0.
        -12    1    3    3    0    0  0.17118431405E+02 -0.32507604511E+02 -0.24485496154E+01  0.36820923943E+02  0.00000000000E+00 0.  1.
         11    1    4    4    0    0 -0.16627799857E+02  0.33564135498E+02 -0.25836284122E+01  0.37546105735E+02  0.51100000000E-03 0. -1.
        -11    1    4    4    0    0  0.39860711710E+01 -0.62908289300E+01  0.63755364706E+01  0.98036094147E+01  0.51100000000E-03 0.  1.
        -12    1    4    4    0    0 -0.44767027191E+01  0.52342979434E+01 -0.13433584430E+01  0.70173609072E+01  0.00000000000E+00 0.  1.
</event>
<event>
 8    1  0.2534787E-006  0.9118800E+02  0.7816164E-02  0.1184000E+00
        -11   -1    0    0    0    0  0.00000000000E+00  0.00000000000E+00  0.45593999997E+02  0.45594000000E+02  0.51100000000E-03 0. -1.
         11   -1    0    0    0    0 -0.00000000000E+00 -0.00000000000E+00 -0.45593999997E+02  0.45594000000E+02  0.51100000000E-03 0.  1.
         23    2    1    2    0    0  0.55511151231E-16  0.35527136788E-14  0.35527136788E-14  0.91188000000E+02  0.91188000000E+02 0.  0.
    9900012    2    3    3    0    0 -0.46308423867E+00  0.23438903646E+02  0.28393351091E+02  0.54367095104E+02  0.40000024910E+02 0.  0.
        -12    1    3    3    0    0  0.46308423867E+00 -0.23438903646E+02 -0.28393351091E+02  0.36820904896E+02  0.00000000000E+00 0.  1.
         11    1    4    4    0    0 -0.16757087846E+01 -0.39654875883E+01  0.10722344779E+02  0.11554296584E+02  0.51100000000E-03 0. -1.
        -11    1    4    4    0    0 -0.78603676183E+00 -0.45946343249E+01  0.81134515266E+01  0.93571691396E+01  0.51100000000E-03 0.  1.
        -12    1    4    4    0    0  0.19986613077E+01  0.31999025559E+02  0.95575547858E+01  0.33455629380E+02  0.00000000000E+00 0.  1.
</event>
<event>
 8    1  0.2534787E-006  0.9118800E+02  0.7816164E-02  0.1184000E+00
        -11   -1    0    0    0    0  0.00000000000E+00  0.00000000000E+00  0.45593999997E+02  0.45594000000E+02  0.51100000000E-03 0.  1.
         11   -1    0    0    0    0 -0.00000000000E+00 -0.00000000000E+00 -0.45593999997E+02  0.45594000000E+02  0.51100000000E-03 0. -1.
         23    2    1    2    0    0  0.00000000000E+00 -0.17763568394E-14  0.71054273576E-14  0.91188000000E+02  0.91188000000E+02 0.  0.
    9900012    2    3    3    0    0  0.46972125509E+01 -0.13236552993E+02  0.34036908276E+02  0.54367064842E+02  0.39999955921E+02 0.  0.
         12    1    3    3    0    0 -0.46972125509E+01  0.13236552993E+02 -0.34036908276E+02  0.36820935158E+02  0.00000000000E+00 0. -1.
         11    1    4    4    0    0 -0.19878615536E+01  0.68883735126E+01  0.75810579940E+00  0.72094388041E+01  0.51100000000E-03 0. -1.
        -11    1    4    4    0    0  0.74275192357E+01 -0.35691256248E+00 -0.10769481526E+01  0.75136706182E+01  0.51100000000E-03 0.  1.
        -12    1    4    4    0    0 -0.74244513124E+00 -0.19768013943E+02  0.34355750630E+02  0.39643955420E+02  0.00000000000E+00 0.  1.
</event>
<event>
 8    1  0.2534787E-006  0.9118800E+02  0.7816164E-02  0.1184000E+00
        -11   -1    0    0    0    0  0.00000000000E+00  0.00000000000E+00  0.45593999997E+02  0.45594000000E+02  0.51100000000E-03 0.  1.
         11   -1    0    0    0    0 -0.00000000000E+00 -0.00000000000E+00 -0.45593999997E+02  0.45594000000E+02  0.51100000000E-03 0. -1.
         23    2    1    2    0    0  0.00000000000E+00  0.88817841970E-15  0.00000000000E+00  0.91188000000E+02  0.91188000000E+02 0.  0.
    9900012    2    3    3    0    0  0.21402935968E+02  0.42093759421E+01 -0.29664398275E+02  0.54367067925E+02  0.39999962948E+02 0.  0.
        -12    1    3    3    0    0 -0.21402935968E+02 -0.42093759421E+01  0.29664398275E+02  0.36820932075E+02  0.00000000000E+00 0.  1.
         11    1    4    4    0    0  0.44063739855E+01 -0.87441905788E+01 -0.24040917970E+02  0.25958481036E+02  0.51100000000E-03 0. -1.
        -11    1    4    4    0    0  0.53803731178E+01 -0.23188359200E+01  0.38487446699E+01  0.70098680947E+01  0.51100000000E-03 0.  1.
        -12    1    4    4    0    0  0.11616188864E+02  0.15272402441E+02 -0.94722249749E+01  0.21398718794E+02  0.00000000000E+00 0.  1.
</event>
<event>
 8    1  0.2534787E-006  0.9118800E+02  0.7816164E-02  0.1184000E+00
        -11   -1    0    0    0    0  0.00000000000E+00  0.00000000000E+00  0.45593999997E+02  0.45594000000E+02  0.51100000000E-03 0. -1.
         11   -1    0    0    0    0 -0.00000000000E+00 -0.00000000000E+00 -0.45593999997E+02  0.45594000000E+02  0.51100000000E-03 0.  1.
         23    2    1    2    0    0 -0.11102230246E-15  0.00000000000E+00  0.35527136788E-14  0.91188000000E+02  0.91188000000E+02 0.  0.
    9900012    2    3    3    0    0 -0.84238699068E+00 -0.24421786338E+02  0.27543533973E+02  0.54367088448E+02  0.40000009736E+02 0.  0.
        -12    1    3    3    0    0  0.84238699068E+00  0.24421786338E+02 -0.27543533973E+02  0.36820911552E+02  0.00000000000E+00 0.  1.
         11    1    4    4    0    0  0.14931768814E+02 -0.15431390688E+02  0.16742642714E+02  0.27228691187E+02  0.51100000000E-03 0. -1.
        -11    1    4    4    0    0 -0.42589081939E+01  0.39901206150E+01  0.74533727724E+01  0.94663682303E+01  0.51100000000E-03 0.  1.
        -12    1    4    4    0    0 -0.11515247610E+02 -0.12980516265E+02  0.33475184862E+01  0.17672029031E+02  0.00000000000E+00 0.  1.
</event>
<event>
 8    1  0.2534787E-006  0.9118800E+02  0.7816164E-02  0.1184000E+00
        -11   -1    0    0    0    0  0.00000000000E+00  0.00000000000E+00  0.45593999997E+02  0.45594000000E+02  0.51100000000E-03 0. -1.
         11   -1    0    0    0    0 -0.00000000000E+00 -0.00000000000E+00 -0.45593999997E+02  0.45594000000E+02  0.51100000000E-03 0.  1.
         23    2    1    2    0    0  0.26645352591E-14  0.35527136788E-14  0.00000000000E+00  0.91188000000E+02  0.91188000000E+02 0.  0.
    9900012    2    3    3    0    0 -0.79435892995E+01 -0.27191570850E+02 -0.23522291830E+02  0.54367077290E+02  0.39999984298E+02 0.  0.
         12    1    3    3    0    0  0.79435892995E+01  0.27191570850E+02  0.23522291830E+02  0.36820922710E+02  0.00000000000E+00 0. -1.
         11    1    4    4    0    0  0.26035741540E+01 -0.15437156177E+02 -0.12216386587E+02  0.19857605362E+02  0.51100000000E-03 0. -1.
        -11    1    4    4    0    0 -0.16889796374E+02 -0.16988574304E+02 -0.10779223406E+02  0.26269155601E+02  0.51100000000E-03 0.  1.
         12    1    4    4    0    0  0.63426329209E+01  0.52341596316E+01 -0.52668183713E+00  0.82403163274E+01  0.00000000000E+00 0. -1.
</event>
<event>
 8    1  0.2534787E-006  0.9118800E+02  0.7816164E-02  0.1184000E+00
        -11   -1    0    0    0    0  0.00000000000E+00  0.00000000000E+00  0.45593999997E+02  0.45594000000E+02  0.51100000000E-03 0.  1.
         11   -1    0    0    0    0 -0.00000000000E+00 -0.00000000000E+00 -0.45593999997E+02  0.45594000000E+02  0.51100000000E-03 0. -1.
         23    2    1    2    0    0  0.00000000000E+00  0.00000000000E+00  0.35527136788E-14  0.91188000000E+02  0.91188000000E+02 0.  0.
    9900012    2    3    3    0    0 -0.17495116825E+02  0.16351727991E+02  0.27970077420E+02  0.54367036516E+02  0.39999891345E+02 0.  0.
         12    1    3    3    0    0  0.17495116825E+02 -0.16351727991E+02 -0.27970077420E+02  0.36820963484E+02  0.00000000000E+00 0. -1.
         11    1    4    4    0    0 -0.12205779062E+02  0.10331595604E+02  0.13745935264E+02  0.21087286378E+02  0.51100000000E-03 0. -1.
        -11    1    4    4    0    0 -0.10789895573E+02 -0.59618969170E+01 -0.18768258415E+01  0.12469504274E+02  0.51100000000E-03 0.  1.
         12    1    4    4    0    0  0.55005578105E+01  0.11982029304E+02  0.16100967998E+02  0.20810245864E+02  0.00000000000E+00 0. -1.
</event>
<event>
 8    1  0.2534787E-006  0.9118800E+02  0.7816164E-02  0.1184000E+00
        -11   -1    0    0    0    0  0.00000000000E+00  0.00000000000E+00  0.45593999997E+02  0.45594000000E+02  0.51100000000E-03 0.  1.
         11   -1    0    0    0    0 -0.00000000000E+00 -0.00000000000E+00 -0.45593999997E+02  0.45594000000E+02  0.51100000000E-03 0. -1.
         23    2    1    2    0    0  0.00000000000E+00  0.44408920985E-15  0.17763568394E-14  0.91188000000E+02  0.91188000000E+02 0.  0.
    9900012    2    3    3    0    0  0.34576313246E+02  0.30450242989E+01 -0.12287646790E+02  0.54367083739E+02  0.39999998999E+02 0.  0.
         12    1    3    3    0    0 -0.34576313246E+02 -0.30450242989E+01  0.12287646790E+02  0.36820916261E+02  0.00000000000E+00 0. -1.
         11    1    4    4    0    0  0.58127278201E+01  0.43486340213E+01  0.29720180898E+00  0.72654491766E+01  0.51100000000E-03 0. -1.
        -11    1    4    4    0    0  0.33864808353E+02 -0.28682720717E+01 -0.18856987390E+02  0.38866929428E+02  0.51100000000E-03 0.  1.
         12    1    4    4    0    0 -0.51012229274E+01  0.15646623493E+01  0.62721387913E+01  0.82347051337E+01  0.00000000000E+00 0. -1.
</event>
<event>
 8    1  0.2534787E-006  0.9118800E+02  0.7816164E-02  0.1184000E+00
        -11   -1    0    0    0    0  0.00000000000E+00  0.00000000000E+00  0.45593999997E+02  0.45594000000E+02  0.51100000000E-03 0.  1.
         11   -1    0    0    0    0 -0.00000000000E+00 -0.00000000000E+00 -0.45593999997E+02  0.45594000000E+02  0.51100000000E-03 0. -1.
         23    2    1    2    0    0  0.00000000000E+00  0.00000000000E+00  0.00000000000E+00  0.91188000000E+02  0.91188000000E+02 0.  0.
    9900012    2    3    3    0    0 -0.21963171411E+02 -0.28433357089E+02  0.80587446192E+01  0.54367081236E+02  0.39999993295E+02 0.  0.
        -12    1    3    3    0    0  0.21963171411E+02  0.28433357089E+02 -0.80587446192E+01  0.36820918764E+02  0.00000000000E+00 0.  1.
         11    1    4    4    0    0 -0.71435504213E+01 -0.26565653048E+02  0.38554379851E+01  0.27778204348E+02  0.51100000000E-03 0. -1.
        -11    1    4    4    0    0  0.30552778212E+01  0.57741650645E+01 -0.61257853901E+00  0.65613228457E+01  0.51100000000E-03 0.  1.
         12    1    4    4    0    0 -0.17874898811E+02 -0.76418691049E+01  0.48158851731E+01  0.20027554042E+02  0.00000000000E+00 0. -1.
</event>
<event>
 8    1  0.2534787E-006  0.9118800E+02  0.7816164E-02  0.1184000E+00
        -11   -1    0    0    0    0  0.00000000000E+00  0.00000000000E+00  0.45593999997E+02  0.45594000000E+02  0.51100000000E-03 0.  1.
         11   -1    0    0    0    0 -0.00000000000E+00 -0.00000000000E+00 -0.45593999997E+02  0.45594000000E+02  0.51100000000E-03 0. -1.
         23    2    1    2    0    0  0.00000000000E+00  0.13322676296E-14  0.00000000000E+00  0.91188000000E+02  0.91188000000E+02 0.  0.
    9900012    2    3    3    0    0  0.12036408881E+02 -0.20226862168E+01 -0.34739225206E+02  0.54367079776E+02  0.39999989965E+02 0.  0.
        -12    1    3    3    0    0 -0.12036408881E+02  0.20226862168E+01  0.34739225206E+02  0.36820920224E+02  0.00000000000E+00 0.  1.
         11    1    4    4    0    0  0.59112728741E+01 -0.98156838900E+01 -0.20156210420E+01  0.11634153414E+02  0.51100000000E-03 0. -1.
        -11    1    4    4    0    0  0.11031403653E+02 -0.45458884479E+01 -0.71291226217E+01  0.13898969673E+02  0.51100000000E-03 0.  1.
         12    1    4    4    0    0 -0.49062676468E+01  0.12338886121E+02 -0.25594481542E+02  0.28833956689E+02  0.00000000000E+00 0. -1.
</event>
<event>
 8    1  0.2534787E-006  0.9118800E+02  0.7816164E-02  0.1184000E+00
        -11   -1    0    0    0    0  0.00000000000E+00  0.00000000000E+00  0.45593999997E+02  0.45594000000E+02  0.51100000000E-03 0.  1.
         11   -1    0    0    0    0 -0.00000000000E+00 -0.00000000000E+00 -0.45593999997E+02  0.45594000000E+02  0.51100000000E-03 0. -1.
         23    2    1    2    0    0 -0.18318679906E-14  0.00000000000E+00  0.00000000000E+00  0.91188000000E+02  0.91188000000E+02 0.  0.
    9900012    2    3    3    0    0  0.49983297034E+00 -0.35726311760E+02  0.88972508169E+01  0.54367078541E+02  0.39999987150E+02 0.  0.
        -12    1    3    3    0    0 -0.49983297034E+00  0.35726311760E+02 -0.88972508169E+01  0.36820921459E+02  0.00000000000E+00 0.  1.
         11    1    4    4    0    0 -0.83840479309E+01 -0.24230851548E+02  0.15885829079E+02  0.30162658905E+02  0.51100000000E-03 0. -1.
        -11    1    4    4    0    0 -0.23894746638E+01  0.17397774680E+01 -0.61208531823E+01  0.67971507816E+01  0.51100000000E-03 0.  1.
         12    1    4    4    0    0  0.11273355565E+02 -0.13235237680E+02 -0.86772507960E+00  0.17407268854E+02  0.00000000000E+00 0. -1.
</event>
<event>
 8    1  0.2534787E-006  0.9118800E+02  0.7816164E-02  0.1184000E+00
        -11   -1    0    0    0    0  0.00000000000E+00  0.00000000000E+00  0.45593999997E+02  0.45594000000E+02  0.51100000000E-03 0.  1.
         11   -1    0    0    0    0 -0.00000000000E+00 -0.00000000000E+00 -0.45593999997E+02  0.45594000000E+02  0.51100000000E-03 0. -1.
         23    2    1    2    0    0 -0.88817841970E-15 -0.17763568394E-14  0.71054273576E-14  0.91188000000E+02  0.91188000000E+02 0.  0.
    9900012    2    3    3    0    0 -0.71923092627E+01 -0.73167596398E+01  0.35362605177E+02  0.54367107438E+02  0.40000053026E+02 0.  0.
         12    1    3    3    0    0  0.71923092627E+01  0.73167596398E+01 -0.35362605177E+02  0.36820892562E+02  0.00000000000E+00 0. -1.
         11    1    4    4    0    0 -0.13324804845E+01 -0.15197684894E+01  0.18352170840E+02  0.18463135576E+02  0.51100000000E-03 0. -1.
        -11    1    4    4    0    0  0.67921930668E+01 -0.11399439385E+02  0.17615049623E+02  0.22053822309E+02  0.51100000000E-03 0.  1.
         12    1    4    4    0    0 -0.12652021845E+02  0.56024482349E+01 -0.60461528520E+00  0.13850149553E+02  0.00000000000E+00 0. -1.
</event>
<event>
 8    1  0.2534787E-006  0.9118800E+02  0.7816164E-02  0.1184000E+00
        -11   -1    0    0    0    0  0.00000000000E+00  0.00000000000E+00  0.45593999997E+02  0.45594000000E+02  0.51100000000E-03 0.  1.
         11   -1    0    0    0    0 -0.00000000000E+00 -0.00000000000E+00 -0.45593999997E+02  0.45594000000E+02  0.51100000000E-03 0. -1.
         23    2    1    2    0    0  0.44408920985E-15  0.88817841970E-15 -0.71054273576E-14  0.91188000000E+02  0.91188000000E+02 0.  0.
    9900012    2    3    3    0    0  0.23113167371E+01 -0.44300126528E+01  0.36480480905E+02  0.54366909790E+02  0.39999602447E+02 0.  0.
         12    1    3    3    0    0 -0.23113167371E+01  0.44300126528E+01 -0.36480480905E+02  0.36821090210E+02  0.00000000000E+00 0. -1.
         11    1    4    4    0    0  0.30598233898E+00  0.61652912274E+01  0.45664294817E+01  0.76783279158E+01  0.51100000000E-03 0. -1.
        -11    1    4    4    0    0  0.46952101713E+01  0.28741922415E+01  0.32478287734E+02  0.32941541464E+02  0.51100000000E-03 0.  1.
        -12    1    4    4    0    0 -0.26898757732E+01 -0.13469496122E+02 -0.56423631078E+00  0.13747040411E+02  0.00000000000E+00 0.  1.
</event>
<event>
 8    1  0.2534787E-006  0.9118800E+02  0.7816164E-02  0.1184000E+00
        -11   -1    0    0    0    0  0.00000000000E+00  0.00000000000E+00  0.45593999997E+02  0.45594000000E+02  0.51100000000E-03 0.  1.
         11   -1    0    0    0    0 -0.00000000000E+00 -0.00000000000E+00 -0.45593999997E+02  0.45594000000E+02  0.51100000000E-03 0. -1.
         23    2    1    2    0    0  0.00000000000E+00 -0.35527136788E-14  0.35527136788E-14  0.91188000000E+02  0.91188000000E+02 0.  0.
    9900012    2    3    3    0    0  0.17936285988E+02 -0.27520852611E+02  0.16633445003E+02  0.54367093219E+02  0.40000020611E+02 0.  0.
         12    1    3    3    0    0 -0.17936285988E+02  0.27520852611E+02 -0.16633445003E+02  0.36820906781E+02  0.00000000000E+00 0. -1.
         11    1    4    4    0    0  0.11004990799E+02 -0.15554829087E+01 -0.75183768970E+01  0.13418470143E+02  0.51100000000E-03 0. -1.
        -11    1    4    4    0    0  0.56616151972E+01 -0.11768368367E+02  0.23249748282E+02  0.26666442884E+02  0.51100000000E-03 0.  1.
         12    1    4    4    0    0  0.12696799926E+01 -0.14197001336E+02  0.90207361853E+00  0.14282180191E+02  0.00000000000E+00 0. -1.
</event>
<event>
 8    1  0.2534787E-006  0.9118800E+02  0.7816164E-02  0.1184000E+00
        -11   -1    0    0    0    0  0.00000000000E+00  0.00000000000E+00  0.45593999997E+02  0.45594000000E+02  0.51100000000E-03 0.  1.
         11   -1    0    0    0    0 -0.00000000000E+00 -0.00000000000E+00 -0.45593999997E+02  0.45594000000E+02  0.51100000000E-03 0. -1.
         23    2    1    2    0    0  0.00000000000E+00  0.71054273576E-14 -0.17763568394E-14  0.91188000000E+02  0.91188000000E+02 0.  0.
    9900012    2    3    3    0    0 -0.24526765636E+02 -0.22892324997E+02  0.15170983495E+02  0.54367088597E+02  0.40000010075E+02 0.  0.
         12    1    3    3    0    0  0.24526765636E+02  0.22892324997E+02 -0.15170983495E+02  0.36820911403E+02  0.00000000000E+00 0. -1.
         11    1    4    4    0    0 -0.73249750864E+01 -0.31802593117E+01 -0.66133075064E+01  0.10368468823E+02  0.51100000000E-03 0. -1.
        -11    1    4    4    0    0 -0.19380351617E+02 -0.23457500189E+01  0.59814642481E+01  0.20417602375E+02  0.51100000000E-03 0.  1.
         12    1    4    4    0    0  0.21785610674E+01 -0.17366315667E+02  0.15802826753E+02  0.23581017399E+02  0.00000000000E+00 0. -1.
</event>
<event>
 8    1  0.2534787E-006  0.9118800E+02  0.7816164E-02  0.1184000E+00
        -11   -1    0    0    0    0  0.00000000000E+00  0.00000000000E+00  0.45593999997E+02  0.45594000000E+02  0.51100000000E-03 0.  1.
         11   -1    0    0    0    0 -0.00000000000E+00 -0.00000000000E+00 -0.45593999997E+02  0.45594000000E+02  0.51100000000E-03 0. -1.
         23    2    1    2    0    0 -0.35527136788E-14  0.00000000000E+00  0.00000000000E+00  0.91188000000E+02  0.91188000000E+02 0.  0.
    9900012    2    3    3    0    0 -0.28892570538E+02  0.42052537254E+01  0.22434678636E+02  0.54367087509E+02  0.40000007594E+02 0.  0.
         12    1    3    3    0    0  0.28892570538E+02 -0.42052537254E+01 -0.22434678636E+02  0.36820912491E+02  0.00000000000E+00 0. -1.
         11    1    4    4    0    0  0.52777135520E+01  0.41421830614E+01  0.45941559081E+01  0.81313104491E+01  0.51100000000E-03 0. -1.
        -11    1    4    4    0    0 -0.24543824529E+02  0.16131677950E+01 -0.14306291295E+01  0.24638350854E+02  0.51100000000E-03 0.  1.
         12    1    4    4    0    0 -0.96264595607E+01 -0.15500971310E+01  0.19271151857E+02  0.21597426205E+02  0.00000000000E+00 0. -1.
</event>
<event>
 8    1  0.2534787E-006  0.9118800E+02  0.7816164E-02  0.1184000E+00
        -11   -1    0    0    0    0  0.00000000000E+00  0.00000000000E+00  0.45593999997E+02  0.45594000000E+02  0.51100000000E-03 0.  1.
         11   -1    0    0    0    0 -0.00000000000E+00 -0.00000000000E+00 -0.45593999997E+02  0.45594000000E+02  0.51100000000E-03 0. -1.
         23    2    1    2    0    0  0.00000000000E+00  0.00000000000E+00 -0.88817841970E-15  0.91188000000E+02  0.91188000000E+02 0.  0.
    9900012    2    3    3    0    0  0.33204420764E+02  0.13784388891E+02  0.79530847258E+01  0.54366885242E+02  0.39999546485E+02 0.  0.
         12    1    3    3    0    0 -0.33204420764E+02 -0.13784388891E+02 -0.79530847258E+01  0.36821114758E+02  0.00000000000E+00 0. -1.
         11    1    4    4    0    0  0.21766009136E+02  0.72595182795E+00  0.15877705719E+02  0.26951580639E+02  0.51100000000E-03 0. -1.
        -11    1    4    4    0    0 -0.25598484242E+01  0.72823476404E+01  0.34707602000E+01  0.84635446320E+01  0.51100000000E-03 0.  1.
         12    1    4    4    0    0  0.13998260051E+02  0.57760894223E+01 -0.11395381193E+02  0.18951759972E+02  0.00000000000E+00 0. -1.
</event>
<event>
 8    1  0.2534787E-006  0.9118800E+02  0.7816164E-02  0.1184000E+00
        -11   -1    0    0    0    0  0.00000000000E+00  0.00000000000E+00  0.45593999997E+02  0.45594000000E+02  0.51100000000E-03 0. -1.
         11   -1    0    0    0    0 -0.00000000000E+00 -0.00000000000E+00 -0.45593999997E+02  0.45594000000E+02  0.51100000000E-03 0.  1.
         23    2    1    2    0    0  0.17763568394E-14 -0.17763568394E-14  0.71054273576E-14  0.91188000000E+02  0.91188000000E+02 0.  0.
    9900012    2    3    3    0    0  0.86195860822E+01 -0.98751105010E+01  0.34408769457E+02  0.54367102575E+02  0.40000041940E+02 0.  0.
        -12    1    3    3    0    0 -0.86195860822E+01  0.98751105010E+01 -0.34408769457E+02  0.36820897425E+02  0.00000000000E+00 0.  1.
         11    1    4    4    0    0  0.13149305425E+02 -0.14359841567E+02  0.13831465334E+02  0.23883440216E+02  0.51100000000E-03 0. -1.
        -11    1    4    4    0    0 -0.37740113055E+01 -0.42464780876E+01 -0.21893764541E+01  0.60884404408E+01  0.51100000000E-03 0.  1.
        -12    1    4    4    0    0 -0.75570803742E+00  0.87312091539E+01  0.22766680578E+02  0.24395221918E+02  0.00000000000E+00 0.  1.
</event>
<event>
 8    1  0.2534787E-006  0.9118800E+02  0.7816164E-02  0.1184000E+00
        -11   -1    0    0    0    0  0.00000000000E+00  0.00000000000E+00  0.45593999997E+02  0.45594000000E+02  0.51100000000E-03 0.  1.
         11   -1    0    0    0    0 -0.00000000000E+00 -0.00000000000E+00 -0.45593999997E+02  0.45594000000E+02  0.51100000000E-03 0. -1.
         23    2    1    2    0    0  0.00000000000E+00  0.00000000000E+00  0.00000000000E+00  0.91188000000E+02  0.91188000000E+02 0.  0.
    9900012    2    3    3    0    0  0.14378378289E+02 -0.20051245526E+02 -0.27331106342E+02  0.54367087691E+02  0.40000008010E+02 0.  0.
        -12    1    3    3    0    0 -0.14378378289E+02  0.20051245526E+02  0.27331106342E+02  0.36820912309E+02  0.00000000000E+00 0.  1.
         11    1    4    4    0    0  0.40578729682E+01 -0.25339003977E+01  0.10448617612E+01  0.48968071856E+01  0.51100000000E-03 0.  1.
        -11    1    4    4    0    0  0.15711320473E+02 -0.23381545950E+02 -0.10792210709E+02  0.30166439868E+02  0.51100000000E-03 0. -1.
        -12    1    4    4    0    0 -0.53908151527E+01  0.58642008218E+01 -0.17583757394E+02  0.19303840638E+02  0.00000000000E+00 0.  1.
</event>
<event>
 8    1  0.2534787E-006  0.9118800E+02  0.7816164E-02  0.1184000E+00
        -11   -1    0    0    0    0  0.00000000000E+00  0.00000000000E+00  0.45593999997E+02  0.45594000000E+02  0.51100000000E-03 0.  1.
         11   -1    0    0    0    0 -0.00000000000E+00 -0.00000000000E+00 -0.45593999997E+02  0.45594000000E+02  0.51100000000E-03 0. -1.
         23    2    1    2    0    0  0.00000000000E+00  0.71054273576E-14  0.35527136788E-14  0.91188000000E+02  0.91188000000E+02 0.  0.
    9900012    2    3    3    0    0  0.12150535416E+02 -0.29825066919E+02 -0.17849601488E+02  0.54367103747E+02  0.40000044611E+02 0.  0.
        -12    1    3    3    0    0 -0.12150535416E+02  0.29825066919E+02  0.17849601488E+02  0.36820896253E+02  0.00000000000E+00 0.  1.
         11    1    4    4    0    0  0.44104523311E+01 -0.21716261232E+02  0.21832413669E+01  0.22266895490E+02  0.51100000000E-03 0. -1.
        -11    1    4    4    0    0  0.92506903532E+00  0.76150569925E+01 -0.40873411136E+01  0.86920195213E+01  0.51100000000E-03 0.  1.
        -12    1    4    4    0    0  0.68150140493E+01 -0.15723862680E+02 -0.15945501741E+02  0.23408188735E+02  0.00000000000E+00 0.  1.
</event>
<event>
 8    1  0.2534787E-006  0.9118800E+02  0.7816164E-02  0.1184000E+00
        -11   -1    0    0    0    0  0.00000000000E+00  0.00000000000E+00  0.45593999997E+02  0.45594000000E+02  0.51100000000E-03 0.  1.
         11   -1    0    0    0    0 -0.00000000000E+00 -0.00000000000E+00 -0.45593999997E+02  0.45594000000E+02  0.51100000000E-03 0. -1.
         23    2    1    2    0    0 -0.35527136788E-14 -0.55511151231E-16 -0.35527136788E-14  0.91188000000E+02  0.91188000000E+02 0.  0.
    9900012    2    3    3    0    0  0.21912316969E+02 -0.18729013986E-01  0.29591043008E+02  0.54367084585E+02  0.40000000928E+02 0.  0.
         12    1    3    3    0    0 -0.21912316969E+02  0.18729013986E-01 -0.29591043008E+02  0.36820915415E+02  0.00000000000E+00 0. -1.
         11    1    4    4    0    0  0.19831623862E+02  0.72939186602E+01 -0.46873318766E+00  0.21135616043E+02  0.51100000000E-03 0. -1.
        -11    1    4    4    0    0  0.48373862941E+01 -0.87872385600E+01  0.27214608535E+02  0.29004323568E+02  0.51100000000E-03 0.  1.
        -12    1    4    4    0    0 -0.27566931880E+01  0.14745908858E+01  0.28451676604E+01  0.42271449737E+01  0.00000000000E+00 0.  1.
</event>
<event>
 8    1  0.2534787E-006  0.9118800E+02  0.7816164E-02  0.1184000E+00
        -11   -1    0    0    0    0  0.00000000000E+00  0.00000000000E+00  0.45593999997E+02  0.45594000000E+02  0.51100000000E-03 0.  1.
         11   -1    0    0    0    0 -0.00000000000E+00 -0.00000000000E+00 -0.45593999997E+02  0.45594000000E+02  0.51100000000E-03 0. -1.
         23    2    1    2    0    0  0.00000000000E+00  0.00000000000E+00 -0.17763568394E-14  0.91188000000E+02  0.91188000000E+02 0.  0.
    9900012    2    3    3    0    0  0.43980983637E+01 -0.35548692966E+02 -0.85280146463E+01  0.54367083735E+02  0.39999998990E+02 0.  0.
         12    1    3    3    0    0 -0.43980983637E+01  0.35548692966E+02  0.85280146463E+01  0.36820916265E+02  0.00000000000E+00 0. -1.
         11    1    4    4    0    0 -0.53315992599E+01 -0.28373959061E+02 -0.69021566630E+01  0.29684124887E+02  0.51100000000E-03 0. -1.
        -11    1    4    4    0    0  0.44185695780E+01 -0.14045807258E+02  0.27172680283E+01  0.14973042591E+02  0.51100000000E-03 0.  1.
         12    1    4    4    0    0  0.53111280457E+01  0.68710733530E+01 -0.43431260116E+01  0.97099162557E+01  0.00000000000E+00 0. -1.
</event>
<event>
 8    1  0.2534787E-006  0.9118800E+02  0.7816164E-02  0.1184000E+00
        -11   -1    0    0    0    0  0.00000000000E+00  0.00000000000E+00  0.45593999997E+02  0.45594000000E+02  0.51100000000E-03 0.  1.
         11   -1    0    0    0    0 -0.00000000000E+00 -0.00000000000E+00 -0.45593999997E+02  0.45594000000E+02  0.51100000000E-03 0. -1.
         23    2    1    2    0    0 -0.35527136788E-14 -0.88817841970E-15  0.00000000000E+00  0.91188000000E+02  0.91188000000E+02 0.  0.
    9900012    2    3    3    0    0 -0.19428468095E+02  0.78260682517E+01  0.30283121744E+02  0.54367079596E+02  0.39999989556E+02 0.  0.
         12    1    3    3    0    0  0.19428468095E+02 -0.78260682517E+01 -0.30283121744E+02  0.36820920404E+02  0.00000000000E+00 0. -1.
         11    1    4    4    0    0 -0.36737624032E+01 -0.90869091127E+01  0.52498630167E+01  0.11118880761E+02  0.51100000000E-03 0. -1.
        -11    1    4    4    0    0 -0.13172068108E+02  0.15186049458E+02  0.30752195244E+02  0.36739855593E+02  0.51100000000E-03 0.  1.
         12    1    4    4    0    0 -0.25826375837E+01  0.17269279061E+01 -0.57189365168E+01  0.65083432427E+01  0.00000000000E+00 0. -1.
</event>
<event>
 8    1  0.2534787E-006  0.9118800E+02  0.7816164E-02  0.1184000E+00
        -11   -1    0    0    0    0  0.00000000000E+00  0.00000000000E+00  0.45593999997E+02  0.45594000000E+02  0.51100000000E-03 0. -1.
         11   -1    0    0    0    0 -0.00000000000E+00 -0.00000000000E+00 -0.45593999997E+02  0.45594000000E+02  0.51100000000E-03 0.  1.
         23    2    1    2    0    0  0.88817841970E-15  0.00000000000E+00  0.00000000000E+00  0.91188000000E+02  0.91188000000E+02 0.  0.
    9900012    2    3    3    0    0 -0.36705157952E+01  0.13539248369E+02 -0.34044040603E+02  0.54367073434E+02  0.39999975506E+02 0.  0.
         12    1    3    3    0    0  0.36705157952E+01 -0.13539248369E+02  0.34044040603E+02  0.36820926566E+02  0.00000000000E+00 0. -1.
         11    1    4    4    0    0 -0.13272593739E+02  0.47996567038E+01 -0.16675153648E+02  0.21846262804E+02  0.51100000000E-03 0. -1.
        -11    1    4    4    0    0 -0.57513791152E+01  0.10542382197E+02 -0.82969604563E+01  0.14596565938E+02  0.51100000000E-03 0.  1.
         12    1    4    4    0    0  0.15353457059E+02 -0.18027905312E+01 -0.90719264989E+01  0.17924244692E+02  0.00000000000E+00 0. -1.
</event>
<event>
 8    1  0.2534787E-006  0.9118800E+02  0.7816164E-02  0.1184000E+00
        -11   -1    0    0    0    0  0.00000000000E+00  0.00000000000E+00  0.45593999997E+02  0.45594000000E+02  0.51100000000E-03 0.  1.
         11   -1    0    0    0    0 -0.00000000000E+00 -0.00000000000E+00 -0.45593999997E+02  0.45594000000E+02  0.51100000000E-03 0. -1.
         23    2    1    2    0    0  0.44408920985E-15  0.00000000000E+00 -0.71054273576E-14  0.91188000000E+02  0.91188000000E+02 0.  0.
    9900012    2    3    3    0    0 -0.25364694485E+01 -0.10498554019E+02 -0.35201240237E+02  0.54367073505E+02  0.39999975669E+02 0.  0.
        -12    1    3    3    0    0  0.25364694485E+01  0.10498554019E+02  0.35201240237E+02  0.36820926495E+02  0.00000000000E+00 0.  1.
         11    1    4    4    0    0 -0.14149106183E+02 -0.14787741593E+01 -0.15777502028E+02  0.21244141529E+02  0.51100000000E-03 0. -1.
        -11    1    4    4    0    0 -0.46132532097E+01  0.27772619242E+01 -0.27796592773E+00  0.53918970957E+01  0.51100000000E-03 0.  1.
         12    1    4    4    0    0  0.16225889944E+02 -0.11797041784E+02 -0.19145772281E+02  0.27731034881E+02  0.00000000000E+00 0. -1.
</event>
<event>
 8    1  0.2534787E-006  0.9118800E+02  0.7816164E-02  0.1184000E+00
        -11   -1    0    0    0    0  0.00000000000E+00  0.00000000000E+00  0.45593999997E+02  0.45594000000E+02  0.51100000000E-03 0.  1.
         11   -1    0    0    0    0 -0.00000000000E+00 -0.00000000000E+00 -0.45593999997E+02  0.45594000000E+02  0.51100000000E-03 0. -1.
         23    2    1    2    0    0  0.00000000000E+00  0.35527136788E-14 -0.35527136788E-14  0.91188000000E+02  0.91188000000E+02 0.  0.
    9900012    2    3    3    0    0  0.16682149547E+02  0.18566876310E+02 -0.27069460732E+02  0.54367099499E+02  0.40000034927E+02 0.  0.
        -12    1    3    3    0    0 -0.16682149547E+02 -0.18566876310E+02  0.27069460732E+02  0.36820900501E+02  0.00000000000E+00 0.  1.
         11    1    4    4    0    0 -0.56117369988E+01 -0.90798072303E+01 -0.52711497453E+01  0.11904600429E+02  0.51100000000E-03 0. -1.
        -11    1    4    4    0    0  0.18892606624E+01  0.17758813402E+01  0.54828308305E+00  0.26502216861E+01  0.51100000000E-03 0.  1.
        -12    1    4    4    0    0  0.20404625883E+02  0.25870802200E+02 -0.22346594070E+02  0.39812277383E+02  0.00000000000E+00 0.  1.
</event>
<event>
 8    1  0.2534787E-006  0.9118800E+02  0.7816164E-02  0.1184000E+00
        -11   -1    0    0    0    0  0.00000000000E+00  0.00000000000E+00  0.45593999997E+02  0.45594000000E+02  0.51100000000E-03 0.  1.
         11   -1    0    0    0    0 -0.00000000000E+00 -0.00000000000E+00 -0.45593999997E+02  0.45594000000E+02  0.51100000000E-03 0. -1.
         23    2    1    2    0    0  0.00000000000E+00  0.00000000000E+00  0.35527136788E-14  0.91188000000E+02  0.91188000000E+02 0.  0.
    9900012    2    3    3    0    0 -0.25126052316E+02 -0.11367767302E+02  0.24397778241E+02  0.54366861757E+02  0.39999492944E+02 0.  0.
         12    1    3    3    0    0  0.25126052316E+02  0.11367767302E+02 -0.24397778241E+02  0.36821138243E+02  0.00000000000E+00 0. -1.
         11    1    4    4    0    0  0.16015555238E+01 -0.10884813496E+02 -0.13790656352E+01  0.11088100253E+02  0.51100000000E-03 0. -1.
        -11    1    4    4    0    0 -0.28045511266E+02  0.19065951653E+01  0.28061742873E+02  0.39719607509E+02  0.51100000000E-03 0.  1.
        -12    1    4    4    0    0  0.13179034260E+01 -0.23895489719E+01 -0.22848989975E+01  0.35591539948E+01  0.00000000000E+00 0.  1.
</event>
<event>
 8    1  0.2534787E-006  0.9118800E+02  0.7816164E-02  0.1184000E+00
        -11   -1    0    0    0    0  0.00000000000E+00  0.00000000000E+00  0.45593999997E+02  0.45594000000E+02  0.51100000000E-03 0. -1.
         11   -1    0    0    0    0 -0.00000000000E+00 -0.00000000000E+00 -0.45593999997E+02  0.45594000000E+02  0.51100000000E-03 0.  1.
         23    2    1    2    0    0  0.00000000000E+00  0.00000000000E+00 -0.35527136788E-14  0.91188000000E+02  0.91188000000E+02 0.  0.
    9900012    2    3    3    0    0  0.48108099218E+01  0.32395196182E+02  0.16828195829E+02  0.54367071133E+02  0.39999970263E+02 0.  0.
         12    1    3    3    0    0 -0.48108099218E+01 -0.32395196182E+02 -0.16828195829E+02  0.36820928867E+02  0.00000000000E+00 0. -1.
         11    1    4    4    0    0  0.20723187462E+01  0.33152287801E+02  0.12438327103E+02  0.35469432936E+02  0.51100000000E-03 0. -1.
        -11    1    4    4    0    0  0.68484912269E+01  0.67412260147E+01  0.86418726363E+00  0.96484599887E+01  0.51100000000E-03 0.  1.
        -12    1    4    4    0    0 -0.41100000514E+01 -0.74983176340E+01  0.35256814628E+01  0.92491782089E+01  0.00000000000E+00 0.  1.
</event>
<event>
 8    1  0.2534787E-006  0.9118800E+02  0.7816164E-02  0.1184000E+00
        -11   -1    0    0    0    0  0.00000000000E+00  0.00000000000E+00  0.45593999997E+02  0.45594000000E+02  0.51100000000E-03 0. -1.
         11   -1    0    0    0    0 -0.00000000000E+00 -0.00000000000E+00 -0.45593999997E+02  0.45594000000E+02  0.51100000000E-03 0.  1.
         23    2    1    2    0    0  0.00000000000E+00  0.00000000000E+00  0.00000000000E+00  0.91188000000E+02  0.91188000000E+02 0.  0.
    9900012    2    3    3    0    0  0.27218764906E+02  0.24720722616E+02  0.19504752946E+01  0.54367086873E+02  0.40000006143E+02 0.  0.
         12    1    3    3    0    0 -0.27218764906E+02 -0.24720722616E+02 -0.19504752946E+01  0.36820913127E+02  0.00000000000E+00 0. -1.
         11    1    4    4    0    0  0.14275647318E+01  0.25125107763E+02  0.62826528196E+01  0.25938016652E+02  0.51100000000E-03 0. -1.
        -11    1    4    4    0    0  0.10060120398E+02  0.47344653353E+01 -0.41827115322E+01  0.11879236526E+02  0.51100000000E-03 0.  1.
         12    1    4    4    0    0  0.15731079776E+02 -0.51388504818E+01 -0.14946599281E+00  0.16549833694E+02  0.00000000000E+00 0. -1.
</event>
<event>
 8    1  0.2534787E-006  0.9118800E+02  0.7816164E-02  0.1184000E+00
        -11   -1    0    0    0    0  0.00000000000E+00  0.00000000000E+00  0.45593999997E+02  0.45594000000E+02  0.51100000000E-03 0.  1.
         11   -1    0    0    0    0 -0.00000000000E+00 -0.00000000000E+00 -0.45593999997E+02  0.45594000000E+02  0.51100000000E-03 0. -1.
         23    2    1    2    0    0  0.00000000000E+00  0.00000000000E+00  0.00000000000E+00  0.91188000000E+02  0.91188000000E+02 0.  0.
    9900012    2    3    3    0    0  0.25980636092E+02  0.23866071662E+02 -0.10545064098E+02  0.54367065667E+02  0.39999957800E+02 0.  0.
        -12    1    3    3    0    0 -0.25980636092E+02 -0.23866071662E+02  0.10545064098E+02  0.36820934333E+02  0.00000000000E+00 0.  1.
         11    1    4    4    0    0 -0.80943242663E+01  0.23376611836E+01 -0.33252961613E+00  0.84316855577E+01  0.51100000000E-03 0. -1.
        -11    1    4    4    0    0  0.35105003606E+02  0.22845632741E+02 -0.72122576605E+01  0.42500598517E+02  0.51100000000E-03 0.  1.
        -12    1    4    4    0    0 -0.10300432471E+01 -0.13172222620E+01 -0.30002768215E+01  0.34347815919E+01  0.00000000000E+00 0.  1.
</event>
<event>
 8    1  0.2534787E-006  0.9118800E+02  0.7816164E-02  0.1184000E+00
        -11   -1    0    0    0    0  0.00000000000E+00  0.00000000000E+00  0.45593999997E+02  0.45594000000E+02  0.51100000000E-03 0.  1.
         11   -1    0    0    0    0 -0.00000000000E+00 -0.00000000000E+00 -0.45593999997E+02  0.45594000000E+02  0.51100000000E-03 0. -1.
         23    2    1    2    0    0  0.17763568394E-14  0.00000000000E+00  0.00000000000E+00  0.91188000000E+02  0.91188000000E+02 0.  0.
    9900012    2    3    3    0    0 -0.11780246278E+02  0.58952927064E+01 -0.34383903787E+02  0.54367061418E+02  0.39999948114E+02 0.  0.
        -12    1    3    3    0    0  0.11780246278E+02 -0.58952927064E+01  0.34383903787E+02  0.36820938582E+02  0.00000000000E+00 0.  1.
         11    1    4    4    0    0 -0.10987284758E+02  0.46272697677E+01 -0.28224655881E+01  0.12251463754E+02  0.51100000000E-03 0.  1.
        -11    1    4    4    0    0  0.42296636485E+01  0.10690663006E+02 -0.28912107644E+02  0.31114149495E+02  0.51100000000E-03 0. -1.
        -12    1    4    4    0    0 -0.50226251680E+01 -0.94226400676E+01 -0.26493305544E+01  0.11001448169E+02  0.00000000000E+00 0.  1.
</event>
<event>
 8    1  0.2534787E-006  0.9118800E+02  0.7816164E-02  0.1184000E+00
        -11   -1    0    0    0    0  0.00000000000E+00  0.00000000000E+00  0.45593999997E+02  0.45594000000E+02  0.51100000000E-03 0. -1.
         11   -1    0    0    0    0 -0.00000000000E+00 -0.00000000000E+00 -0.45593999997E+02  0.45594000000E+02  0.51100000000E-03 0.  1.
         23    2    1    2    0    0  0.35527136788E-14  0.00000000000E+00  0.17763568394E-14  0.91188000000E+02  0.91188000000E+02 0.  0.
    9900012    2    3    3    0    0  0.21871056055E+02 -0.27698819830E+02  0.10497712884E+02  0.54367222051E+02  0.40000314309E+02 0.  0.
        -12    1    3    3    0    0 -0.21871056055E+02  0.27698819830E+02 -0.10497712884E+02  0.36820777949E+02  0.00000000000E+00 0.  1.
         11    1    4    4    0    0 -0.35746676697E+01 -0.22810808424E+02  0.33894590500E+01  0.23336659205E+02  0.51100000000E-03 0. -1.
        -11    1    4    4    0    0  0.35775655805E+01  0.50192531635E+01  0.86331609993E+00  0.62239210110E+01  0.51100000000E-03 0.  1.
        -12    1    4    4    0    0  0.21868158144E+02 -0.99072645695E+01  0.62449377340E+01  0.24806641836E+02  0.00000000000E+00 0.  1.
</event>
<event>
 8    1  0.2534787E-006  0.9118800E+02  0.7816164E-02  0.1184000E+00
        -11   -1    0    0    0    0  0.00000000000E+00  0.00000000000E+00  0.45593999997E+02  0.45594000000E+02  0.51100000000E-03 0.  1.
         11   -1    0    0    0    0 -0.00000000000E+00 -0.00000000000E+00 -0.45593999997E+02  0.45594000000E+02  0.51100000000E-03 0. -1.
         23    2    1    2    0    0  0.17763568394E-14  0.00000000000E+00  0.66613381478E-15  0.91188000000E+02  0.91188000000E+02 0.  0.
    9900012    2    3    3    0    0  0.12358114621E+02  0.34677789235E+02 -0.71077850203E+00  0.54367119113E+02  0.40000079641E+02 0.  0.
         12    1    3    3    0    0 -0.12358114621E+02 -0.34677789235E+02  0.71077850203E+00  0.36820880887E+02  0.00000000000E+00 0. -1.
         11    1    4    4    0    0  0.24304132685E+01 -0.20410798154E+01  0.30811871923E+00  0.31887070851E+01  0.51100000000E-03 0. -1.
        -11    1    4    4    0    0  0.18287554171E+02  0.27256904656E+02  0.10112868350E+02  0.34345940015E+02  0.51100000000E-03 0.  1.
         12    1    4    4    0    0 -0.83598528180E+01  0.94619643941E+01 -0.11131765571E+02  0.16832472013E+02  0.00000000000E+00 0. -1.
</event>
<event>
 8    1  0.2534787E-006  0.9118800E+02  0.7816164E-02  0.1184000E+00
        -11   -1    0    0    0    0  0.00000000000E+00  0.00000000000E+00  0.45593999997E+02  0.45594000000E+02  0.51100000000E-03 0.  1.
         11   -1    0    0    0    0 -0.00000000000E+00 -0.00000000000E+00 -0.45593999997E+02  0.45594000000E+02  0.51100000000E-03 0. -1.
         23    2    1    2    0    0  0.00000000000E+00 -0.88817841970E-15  0.00000000000E+00  0.91188000000E+02  0.91188000000E+02 0.  0.
    9900012    2    3    3    0    0 -0.12972866842E+02 -0.67590744819E+01  0.33790520116E+02  0.54367087306E+02  0.40000007130E+02 0.  0.
         12    1    3    3    0    0  0.12972866842E+02  0.67590744819E+01 -0.33790520116E+02  0.36820912694E+02  0.00000000000E+00 0. -1.
         11    1    4    4    0    0 -0.72205565441E+01 -0.34626168323E+01  0.12902119339E+02  0.15185217675E+02  0.51100000000E-03 0. -1.
        -11    1    4    4    0    0 -0.18877725782E+02 -0.22491714280E+00  0.79086886916E+01  0.20468670585E+02  0.51100000000E-03 0.  1.
         12    1    4    4    0    0  0.13125415484E+02 -0.30715405068E+01  0.12979712085E+02  0.18713199046E+02  0.00000000000E+00 0. -1.
</event>
<event>
 8    1  0.2534787E-006  0.9118800E+02  0.7816164E-02  0.1184000E+00
        -11   -1    0    0    0    0  0.00000000000E+00  0.00000000000E+00  0.45593999997E+02  0.45594000000E+02  0.51100000000E-03 0.  1.
         11   -1    0    0    0    0 -0.00000000000E+00 -0.00000000000E+00 -0.45593999997E+02  0.45594000000E+02  0.51100000000E-03 0. -1.
         23    2    1    2    0    0  0.00000000000E+00 -0.35527136788E-14 -0.35527136788E-14  0.91188000000E+02  0.91188000000E+02 0.  0.
    9900012    2    3    3    0    0  0.98263985813E+01 -0.24250917665E+02 -0.25905884745E+02  0.54367082289E+02  0.39999995694E+02 0.  0.
        -12    1    3    3    0    0 -0.98263985813E+01  0.24250917665E+02  0.25905884745E+02  0.36820917711E+02  0.00000000000E+00 0.  1.
         11    1    4    4    0    0  0.26025118262E+01  0.41458074549E+01 -0.65711030172E+00  0.49388846380E+01  0.51100000000E-03 0. -1.
        -11    1    4    4    0    0 -0.29887505390E+01 -0.15602477514E+02  0.35718690056E+01  0.16282757224E+02  0.51100000000E-03 0.  1.
        -12    1    4    4    0    0  0.10212637294E+02 -0.12794247606E+02 -0.28820643449E+02  0.33145440427E+02  0.00000000000E+00 0.  1.
</event>
<event>
 8    1  0.2534787E-006  0.9118800E+02  0.7816164E-02  0.1184000E+00
        -11   -1    0    0    0    0  0.00000000000E+00  0.00000000000E+00  0.45593999997E+02  0.45594000000E+02  0.51100000000E-03 0. -1.
         11   -1    0    0    0    0 -0.00000000000E+00 -0.00000000000E+00 -0.45593999997E+02  0.45594000000E+02  0.51100000000E-03 0.  1.
         23    2    1    2    0    0  0.00000000000E+00  0.00000000000E+00  0.00000000000E+00  0.91188000000E+02  0.91188000000E+02 0.  0.
    9900012    2    3    3    0    0 -0.84208274446E+01 -0.28998482188E+02  0.21070283064E+02  0.54367093813E+02  0.40000021965E+02 0.  0.
        -12    1    3    3    0    0  0.84208274446E+01  0.28998482188E+02 -0.21070283064E+02  0.36820906187E+02  0.00000000000E+00 0.  1.
         11    1    4    4    0    0 -0.13592434290E+02 -0.13209964734E+02  0.18683596940E+02  0.26614549275E+02  0.51100000000E-03 0. -1.
        -11    1    4    4    0    0 -0.45106368889E+01 -0.15145500015E+02  0.66608932243E+01  0.17149329860E+02  0.51100000000E-03 0.  1.
        -12    1    4    4    0    0  0.96822437345E+01 -0.64301743881E+00 -0.42742071006E+01  0.10603214678E+02  0.00000000000E+00 0.  1.
</event>
<event>
 8    1  0.2534787E-006  0.9118800E+02  0.7816164E-02  0.1184000E+00
        -11   -1    0    0    0    0  0.00000000000E+00  0.00000000000E+00  0.45593999997E+02  0.45594000000E+02  0.51100000000E-03 0.  1.
         11   -1    0    0    0    0 -0.00000000000E+00 -0.00000000000E+00 -0.45593999997E+02  0.45594000000E+02  0.51100000000E-03 0. -1.
         23    2    1    2    0    0 -0.35527136788E-14  0.13322676296E-14  0.00000000000E+00  0.91188000000E+02  0.91188000000E+02 0.  0.
    9900012    2    3    3    0    0  0.15706723099E+02 -0.22801894065E+01  0.33224658263E+02  0.54367104697E+02  0.40000046777E+02 0.  0.
         12    1    3    3    0    0 -0.15706723099E+02  0.22801894065E+01 -0.33224658263E+02  0.36820895303E+02  0.00000000000E+00 0. -1.
         11    1    4    4    0    0 -0.30537618807E+01 -0.96258270168E+01 -0.18571877226E+01  0.10267967368E+02  0.51100000000E-03 0. -1.
        -11    1    4    4    0    0  0.59805120804E+01 -0.49354707547E+01  0.17465318371E+02  0.19109231862E+02  0.51100000000E-03 0.  1.
        -12    1    4    4    0    0  0.12779972900E+02  0.12281108365E+02  0.17616527615E+02  0.24989905466E+02  0.00000000000E+00 0.  1.
</event>
<event>
 8    1  0.2534787E-006  0.9118800E+02  0.7816164E-02  0.1184000E+00
        -11   -1    0    0    0    0  0.00000000000E+00  0.00000000000E+00  0.45593999997E+02  0.45594000000E+02  0.51100000000E-03 0.  1.
         11   -1    0    0    0    0 -0.00000000000E+00 -0.00000000000E+00 -0.45593999997E+02  0.45594000000E+02  0.51100000000E-03 0. -1.
         23    2    1    2    0    0 -0.88817841970E-15 -0.35527136788E-14  0.00000000000E+00  0.91188000000E+02  0.91188000000E+02 0.  0.
    9900012    2    3    3    0    0  0.60764795787E+01 -0.31219250750E+02  0.18553009734E+02  0.54367090293E+02  0.40000013942E+02 0.  0.
         12    1    3    3    0    0 -0.60764795787E+01  0.31219250750E+02 -0.18553009734E+02  0.36820909707E+02  0.00000000000E+00 0. -1.
         11    1    4    4    0    0  0.46497528190E+01 -0.67803358973E+00 -0.67321243678E+01  0.82098373669E+01  0.51100000000E-03 0. -1.
        -11    1    4    4    0    0  0.11800647252E+02 -0.15187675397E+02  0.80461963568E+01  0.20848549964E+02  0.51100000000E-03 0.  1.
        -12    1    4    4    0    0 -0.10373920493E+02 -0.15353541763E+02  0.17238937745E+02  0.25308702962E+02  0.00000000000E+00 0.  1.
</event>
<event>
 8    1  0.2534787E-006  0.9118800E+02  0.7816164E-02  0.1184000E+00
        -11   -1    0    0    0    0  0.00000000000E+00  0.00000000000E+00  0.45593999997E+02  0.45594000000E+02  0.51100000000E-03 0. -1.
         11   -1    0    0    0    0 -0.00000000000E+00 -0.00000000000E+00 -0.45593999997E+02  0.45594000000E+02  0.51100000000E-03 0.  1.
         23    2    1    2    0    0  0.00000000000E+00  0.00000000000E+00 -0.35527136788E-14  0.91188000000E+02  0.91188000000E+02 0.  0.
    9900012    2    3    3    0    0 -0.15752022130E+02 -0.11505971280E+02  0.31229265162E+02  0.54367074172E+02  0.39999977190E+02 0.  0.
        -12    1    3    3    0    0  0.15752022130E+02  0.11505971280E+02 -0.31229265162E+02  0.36820925828E+02  0.00000000000E+00 0.  1.
         11    1    4    4    0    0 -0.19021290215E+01  0.50185374267E+01  0.28218385941E+02  0.28724225283E+02  0.51100000000E-03 0. -1.
        -11    1    4    4    0    0 -0.34007294561E+01 -0.42011474905E+01  0.71509045898E+01  0.89638182592E+01  0.51100000000E-03 0.  1.
        -12    1    4    4    0    0 -0.10449163652E+02 -0.12323361216E+02 -0.41400253690E+01  0.16679030630E+02  0.00000000000E+00 0.  1.
</event>
<event>
 8    1  0.2534787E-006  0.9118800E+02  0.7816164E-02  0.1184000E+00
        -11   -1    0    0    0    0  0.00000000000E+00  0.00000000000E+00  0.45593999997E+02  0.45594000000E+02  0.51100000000E-03 0.  1.
         11   -1    0    0    0    0 -0.00000000000E+00 -0.00000000000E+00 -0.45593999997E+02  0.45594000000E+02  0.51100000000E-03 0. -1.
         23    2    1    2    0    0 -0.35527136788E-14 -0.66613381478E-15 -0.35527136788E-14  0.91188000000E+02  0.91188000000E+02 0.  0.
    9900012    2    3    3    0    0  0.29599415171E+02 -0.16658836400E+01 -0.21837537175E+02  0.54367101360E+02  0.40000039171E+02 0.  0.
        -12    1    3    3    0    0 -0.29599415171E+02  0.16658836400E+01  0.21837537175E+02  0.36820898640E+02  0.00000000000E+00 0.  1.
         11    1    4    4    0    0  0.26063260345E+02  0.32115140099E+01 -0.65484391813E+01  0.27064541711E+02  0.51100000000E-03 0. -1.
        -11    1    4    4    0    0  0.19631731617E+01 -0.69975433134E+01 -0.20342150239E+02  0.21601452217E+02  0.51100000000E-03 0.  1.
         12    1    4    4    0    0  0.15729816641E+01  0.21201456634E+01  0.50530522456E+01  0.57011074316E+01  0.00000000000E+00 0. -1.
</event>
<event>
 8    1  0.2534787E-006  0.9118800E+02  0.7816164E-02  0.1184000E+00
        -11   -1    0    0    0    0  0.00000000000E+00  0.00000000000E+00  0.45593999997E+02  0.45594000000E+02  0.51100000000E-03 0.  1.
         11   -1    0    0    0    0 -0.00000000000E+00 -0.00000000000E+00 -0.45593999997E+02  0.45594000000E+02  0.51100000000E-03 0. -1.
         23    2    1    2    0    0  0.00000000000E+00  0.00000000000E+00  0.00000000000E+00  0.91188000000E+02  0.91188000000E+02 0.  0.
    9900012    2    3    3    0    0 -0.30675446112E+02 -0.19916793966E+02  0.42565194683E+01  0.54367087002E+02  0.40000006438E+02 0.  0.
         12    1    3    3    0    0  0.30675446112E+02  0.19916793966E+02 -0.42565194683E+01  0.36820912998E+02  0.00000000000E+00 0. -1.
         11    1    4    4    0    0 -0.79850743757E+01 -0.11621747692E+02 -0.31271195688E+01  0.14443175179E+02  0.51100000000E-03 0. -1.
        -11    1    4    4    0    0 -0.19540806273E+02 -0.17072860020E+02 -0.28191649821E+01  0.26101213583E+02  0.51100000000E-03 0.  1.
        -12    1    4    4    0    0 -0.31495654635E+01  0.87778137460E+01  0.10202804019E+02  0.13822698240E+02  0.00000000000E+00 0.  1.
</event>
<event>
 8    1  0.2534787E-006  0.9118800E+02  0.7816164E-02  0.1184000E+00
        -11   -1    0    0    0    0  0.00000000000E+00  0.00000000000E+00  0.45593999997E+02  0.45594000000E+02  0.51100000000E-03 0.  1.
         11   -1    0    0    0    0 -0.00000000000E+00 -0.00000000000E+00 -0.45593999997E+02  0.45594000000E+02  0.51100000000E-03 0. -1.
         23    2    1    2    0    0  0.00000000000E+00  0.22204460493E-15 -0.35527136788E-14  0.91188000000E+02  0.91188000000E+02 0.  0.
    9900012    2    3    3    0    0 -0.29703860338E+02  0.68307276960E+00 -0.21748446958E+02  0.54367070456E+02  0.39999968719E+02 0.  0.
        -12    1    3    3    0    0  0.29703860338E+02 -0.68307276960E+00  0.21748446958E+02  0.36820929544E+02  0.00000000000E+00 0.  1.
         11    1    4    4    0    0 -0.24331768728E+01 -0.95713262573E+01 -0.17321047371E+02  0.19938638828E+02  0.51100000000E-03 0. -1.
        -11    1    4    4    0    0 -0.53819975803E+01 -0.18702376588E-01  0.60316372727E+01  0.80837427089E+01  0.51100000000E-03 0.  1.
         12    1    4    4    0    0 -0.21888685885E+02  0.10273101404E+02 -0.10459036860E+02  0.26344688919E+02  0.00000000000E+00 0. -1.
</event>
<event>
 8    1  0.2534787E-006  0.9118800E+02  0.7816164E-02  0.1184000E+00
        -11   -1    0    0    0    0  0.00000000000E+00  0.00000000000E+00  0.45593999997E+02  0.45594000000E+02  0.51100000000E-03 0.  1.
         11   -1    0    0    0    0 -0.00000000000E+00 -0.00000000000E+00 -0.45593999997E+02  0.45594000000E+02  0.51100000000E-03 0. -1.
         23    2    1    2    0    0  0.00000000000E+00  0.17763568394E-14  0.00000000000E+00  0.91188000000E+02  0.91188000000E+02 0.  0.
    9900012    2    3    3    0    0  0.15358731033E+02 -0.85364087715E+01 -0.32357660217E+02  0.54367094683E+02  0.40000023948E+02 0.  0.
        -12    1    3    3    0    0 -0.15358731033E+02  0.85364087715E+01  0.32357660217E+02  0.36820905317E+02  0.00000000000E+00 0.  1.
         11    1    4    4    0    0  0.49316381833E+01  0.46590897402E+00 -0.18937593608E+02  0.19574743377E+02  0.51100000000E-03 0. -1.
        -11    1    4    4    0    0  0.39356214302E+01  0.10444582687E+02 -0.75204226856E+01  0.13458647078E+02  0.51100000000E-03 0.  1.
        -12    1    4    4    0    0  0.64914714196E+01 -0.19446900433E+02 -0.58996439231E+01  0.21333704227E+02  0.00000000000E+00 0.  1.
</event>
<event>
 8    1  0.2534787E-006  0.9118800E+02  0.7816164E-02  0.1184000E+00
        -11   -1    0    0    0    0  0.00000000000E+00  0.00000000000E+00  0.45593999997E+02  0.45594000000E+02  0.51100000000E-03 0.  1.
         11   -1    0    0    0    0 -0.00000000000E+00 -0.00000000000E+00 -0.45593999997E+02  0.45594000000E+02  0.51100000000E-03 0. -1.
         23    2    1    2    0    0 -0.35527136788E-14 -0.35527136788E-14  0.35527136788E-14  0.91188000000E+02  0.91188000000E+02 0.  0.
    9900012    2    3    3    0    0 -0.14324416939E+02 -0.22463413308E+02 -0.25416309317E+02  0.54367046218E+02  0.39999913463E+02 0.  0.
        -12    1    3    3    0    0  0.14324416939E+02  0.22463413308E+02  0.25416309317E+02  0.36820953782E+02  0.00000000000E+00 0.  1.
         11    1    4    4    0    0  0.67071684063E+01  0.26583973075E-01 -0.23978682607E+01  0.71229619678E+01  0.51100000000E-03 0. -1.
        -11    1    4    4    0    0 -0.10747289259E+01 -0.11574858950E+02  0.36577030778E+01  0.12186516896E+02  0.51100000000E-03 0.  1.
         12    1    4    4    0    0 -0.19956856419E+02 -0.10915138331E+02 -0.26676144135E+02  0.35057567354E+02  0.00000000000E+00 0. -1.
</event>
<event>
 8    1  0.2534787E-006  0.9118800E+02  0.7816164E-02  0.1184000E+00
        -11   -1    0    0    0    0  0.00000000000E+00  0.00000000000E+00  0.45593999997E+02  0.45594000000E+02  0.51100000000E-03 0. -1.
         11   -1    0    0    0    0 -0.00000000000E+00 -0.00000000000E+00 -0.45593999997E+02  0.45594000000E+02  0.51100000000E-03 0.  1.
         23    2    1    2    0    0 -0.71054273576E-14  0.00000000000E+00  0.35527136788E-14  0.91188000000E+02  0.91188000000E+02 0.  0.
    9900012    2    3    3    0    0  0.26150858539E+02 -0.19924414707E+02 -0.16581024263E+02  0.54367081090E+02  0.39999992962E+02 0.  0.
         12    1    3    3    0    0 -0.26150858539E+02  0.19924414707E+02  0.16581024263E+02  0.36820918910E+02  0.00000000000E+00 0. -1.
         11    1    4    4    0    0 -0.88868668935E+01 -0.56718538755E+01  0.70604979534E+00  0.10566212005E+02  0.51100000000E-03 0. -1.
        -11    1    4    4    0    0  0.50389323454E+01 -0.98702062785E-01 -0.78249038925E+01  0.93075078548E+01  0.51100000000E-03 0.  1.
        -12    1    4    4    0    0  0.29998793087E+02 -0.14153858769E+02 -0.94621701660E+01  0.34493361230E+02  0.00000000000E+00 0.  1.
</event>
<event>
 8    1  0.2534787E-006  0.9118800E+02  0.7816164E-02  0.1184000E+00
        -11   -1    0    0    0    0  0.00000000000E+00  0.00000000000E+00  0.45593999997E+02  0.45594000000E+02  0.51100000000E-03 0. -1.
         11   -1    0    0    0    0 -0.00000000000E+00 -0.00000000000E+00 -0.45593999997E+02  0.45594000000E+02  0.51100000000E-03 0.  1.
         23    2    1    2    0    0  0.00000000000E+00 -0.71054273576E-14  0.00000000000E+00  0.91188000000E+02  0.91188000000E+02 0.  0.
    9900012    2    3    3    0    0  0.54502177970E+01 -0.26008435019E+02  0.25488019749E+02  0.54367045139E+02  0.39999911002E+02 0.  0.
        -12    1    3    3    0    0 -0.54502177970E+01  0.26008435019E+02 -0.25488019749E+02  0.36820954861E+02  0.00000000000E+00 0.  1.
         11    1    4    4    0    0  0.24565586965E+01 -0.18547301070E+02  0.10047108769E+01  0.18736234996E+02  0.51100000000E-03 0. -1.
        -11    1    4    4    0    0  0.13886643304E+02 -0.44368046810E+01  0.14079243910E+02  0.20266948645E+02  0.51100000000E-03 0.  1.
        -12    1    4    4    0    0 -0.10892984204E+02 -0.30243292679E+01  0.10404064962E+02  0.15363861498E+02  0.00000000000E+00 0.  1.
</event>
<event>
 8    1  0.2534787E-006  0.9118800E+02  0.7816164E-02  0.1184000E+00
        -11   -1    0    0    0    0  0.00000000000E+00  0.00000000000E+00  0.45593999997E+02  0.45594000000E+02  0.51100000000E-03 0.  1.
         11   -1    0    0    0    0 -0.00000000000E+00 -0.00000000000E+00 -0.45593999997E+02  0.45594000000E+02  0.51100000000E-03 0. -1.
         23    2    1    2    0    0  0.35527136788E-14  0.00000000000E+00  0.00000000000E+00  0.91188000000E+02  0.91188000000E+02 0.  0.
    9900012    2    3    3    0    0 -0.27603749528E+02 -0.92838321534E+01 -0.22530495941E+02  0.54367085090E+02  0.40000002080E+02 0.  0.
        -12    1    3    3    0    0  0.27603749528E+02  0.92838321534E+01  0.22530495941E+02  0.36820914910E+02  0.00000000000E+00 0.  1.
         11    1    4    4    0    0 -0.24372445830E+02 -0.23165609476E+01 -0.20224771183E+02  0.31755691459E+02  0.51100000000E-03 0. -1.
        -11    1    4    4    0    0 -0.74226198983E+01 -0.80672258217E+01 -0.93051547309E+01  0.14379197594E+02  0.51100000000E-03 0.  1.
        -12    1    4    4    0    0  0.41913162008E+01  0.10999546160E+01  0.69994299729E+01  0.82321960374E+01  0.00000000000E+00 0.  1.
</event>
<event>
 8    1  0.2534787E-006  0.9118800E+02  0.7816164E-02  0.1184000E+00
        -11   -1    0    0    0    0  0.00000000000E+00  0.00000000000E+00  0.45593999997E+02  0.45594000000E+02  0.51100000000E-03 0.  1.
         11   -1    0    0    0    0 -0.00000000000E+00 -0.00000000000E+00 -0.45593999997E+02  0.45594000000E+02  0.51100000000E-03 0. -1.
         23    2    1    2    0    0 -0.88817841970E-15  0.00000000000E+00 -0.35527136788E-14  0.91188000000E+02  0.91188000000E+02 0.  0.
    9900012    2    3    3    0    0 -0.56517471032E+01  0.24513841632E+02 -0.26886962098E+02  0.54367090074E+02  0.40000013442E+02 0.  0.
        -12    1    3    3    0    0  0.56517471032E+01 -0.24513841632E+02  0.26886962098E+02  0.36820909926E+02  0.00000000000E+00 0.  1.
         11    1    4    4    0    0 -0.15372060711E+02  0.11263756294E+02 -0.27013150413E+02  0.33058777229E+02  0.51100000000E-03 0. -1.
        -11    1    4    4    0    0  0.11432777097E+02  0.43315543763E+01  0.15573965975E+00  0.12226815226E+02  0.51100000000E-03 0.  1.
        -12    1    4    4    0    0 -0.17124634895E+01  0.89185309620E+01 -0.29551344829E-01  0.90814976191E+01  0.00000000000E+00 0.  1.
</event>
<event>
 8    1  0.2534787E-006  0.9118800E+02  0.7816164E-02  0.1184000E+00
        -11   -1    0    0    0    0  0.00000000000E+00  0.00000000000E+00  0.45593999997E+02  0.45594000000E+02  0.51100000000E-03 0. -1.
         11   -1    0    0    0    0 -0.00000000000E+00 -0.00000000000E+00 -0.45593999997E+02  0.45594000000E+02  0.51100000000E-03 0.  1.
         23    2    1    2    0    0 -0.88817841970E-15  0.00000000000E+00 -0.71054273576E-14  0.91188000000E+02  0.91188000000E+02 0.  0.
    9900012    2    3    3    0    0  0.75193666259E+01  0.72727736325E+01  0.35303620364E+02  0.54367085813E+02  0.40000003729E+02 0.  0.
        -12    1    3    3    0    0 -0.75193666259E+01 -0.72727736325E+01 -0.35303620364E+02  0.36820914187E+02  0.00000000000E+00 0.  1.
         11    1    4    4    0    0  0.40609805617E+01  0.54228472494E-01 -0.18231428146E+01  0.44517809732E+01  0.51100000000E-03 0.  1.
        -11    1    4    4    0    0  0.85509168393E+01 -0.94773147591E+01  0.57283347131E+01  0.13991121924E+02  0.51100000000E-03 0. -1.
         12    1    4    4    0    0 -0.50925307752E+01  0.16695859919E+02  0.31398428465E+02  0.35924182916E+02  0.00000000000E+00 0. -1.
</event>
<event>
 8    1  0.2534787E-006  0.9118800E+02  0.7816164E-02  0.1184000E+00
        -11   -1    0    0    0    0  0.00000000000E+00  0.00000000000E+00  0.45593999997E+02  0.45594000000E+02  0.51100000000E-03 0.  1.
         11   -1    0    0    0    0 -0.00000000000E+00 -0.00000000000E+00 -0.45593999997E+02  0.45594000000E+02  0.51100000000E-03 0. -1.
         23    2    1    2    0    0  0.00000000000E+00  0.35527136788E-14  0.00000000000E+00  0.91188000000E+02  0.91188000000E+02 0.  0.
    9900012    2    3    3    0    0 -0.59201096048E+01 -0.26356413068E+02 -0.25021438336E+02  0.54367074103E+02  0.39999977032E+02 0.  0.
        -12    1    3    3    0    0  0.59201096048E+01  0.26356413068E+02  0.25021438336E+02  0.36820925897E+02  0.00000000000E+00 0.  1.
         11    1    4    4    0    0  0.43506592470E+01 -0.82274333967E+00  0.69877066034E+01  0.82724353320E+01  0.51100000000E-03 0. -1.
        -11    1    4    4    0    0 -0.47475473436E+01  0.69551812340E+00 -0.65186323946E+00  0.48423008151E+01  0.51100000000E-03 0.  1.
         12    1    4    4    0    0 -0.55232215081E+01 -0.26229187851E+02 -0.31357281700E+02  0.41252337956E+02  0.00000000000E+00 0. -1.
</event>
<event>
 8    1  0.2534787E-006  0.9118800E+02  0.7816164E-02  0.1184000E+00
        -11   -1    0    0    0    0  0.00000000000E+00  0.00000000000E+00  0.45593999997E+02  0.45594000000E+02  0.51100000000E-03 0.  1.
         11   -1    0    0    0    0 -0.00000000000E+00 -0.00000000000E+00 -0.45593999997E+02  0.45594000000E+02  0.51100000000E-03 0. -1.
         23    2    1    2    0    0  0.00000000000E+00  0.00000000000E+00 -0.88817841970E-15  0.91188000000E+02  0.91188000000E+02 0.  0.
    9900012    2    3    3    0    0  0.18054341374E+02  0.31308847993E+02  0.70410104629E+01  0.54367095157E+02  0.40000025029E+02 0.  0.
         12    1    3    3    0    0 -0.18054341374E+02 -0.31308847993E+02 -0.70410104629E+01  0.36820904843E+02  0.00000000000E+00 0. -1.
         11    1    4    4    0    0  0.14213819388E+02  0.12944353617E+02 -0.26474392261E+01  0.19406130136E+02  0.51100000000E-03 0. -1.
        -11    1    4    4    0    0  0.15654814175E+02  0.70279873511E+01  0.59851020869E+01  0.18173806985E+02  0.51100000000E-03 0.  1.
         12    1    4    4    0    0 -0.11814292189E+02  0.11336507025E+02  0.37033476022E+01  0.16787158036E+02  0.00000000000E+00 0. -1.
</event>
<event>
 8    1  0.2534787E-006  0.9118800E+02  0.7816164E-02  0.1184000E+00
        -11   -1    0    0    0    0  0.00000000000E+00  0.00000000000E+00  0.45593999997E+02  0.45594000000E+02  0.51100000000E-03 0.  1.
         11   -1    0    0    0    0 -0.00000000000E+00 -0.00000000000E+00 -0.45593999997E+02  0.45594000000E+02  0.51100000000E-03 0. -1.
         23    2    1    2    0    0  0.17763568394E-14  0.00000000000E+00  0.35527136788E-14  0.91188000000E+02  0.91188000000E+02 0.  0.
    9900012    2    3    3    0    0  0.13020328965E+02  0.21525784559E+02  0.26886653955E+02  0.54367074861E+02  0.39999978761E+02 0.  0.
         12    1    3    3    0    0 -0.13020328965E+02 -0.21525784559E+02 -0.26886653955E+02  0.36820925139E+02  0.00000000000E+00 0. -1.
         11    1    4    4    0    0  0.41571682120E+00  0.12944596605E+02  0.80770666004E+01  0.15263499169E+02  0.51100000000E-03 0. -1.
        -11    1    4    4    0    0 -0.81942723566E+01 -0.42559310494E+01  0.85906858906E+01  0.12611856837E+02  0.51100000000E-03 0.  1.
         12    1    4    4    0    0  0.20798884501E+02  0.12837119002E+02  0.10218901464E+02  0.26491718855E+02  0.00000000000E+00 0. -1.
</event>
<event>
 8    1  0.2534787E-006  0.9118800E+02  0.7816164E-02  0.1184000E+00
        -11   -1    0    0    0    0  0.00000000000E+00  0.00000000000E+00  0.45593999997E+02  0.45594000000E+02  0.51100000000E-03 0.  1.
         11   -1    0    0    0    0 -0.00000000000E+00 -0.00000000000E+00 -0.45593999997E+02  0.45594000000E+02  0.51100000000E-03 0. -1.
         23    2    1    2    0    0 -0.35527136788E-14  0.00000000000E+00  0.35527136788E-14  0.91188000000E+02  0.91188000000E+02 0.  0.
    9900012    2    3    3    0    0 -0.25033871776E+02 -0.10500809352E+02 -0.24876034444E+02  0.54367098017E+02  0.40000031550E+02 0.  0.
        -12    1    3    3    0    0  0.25033871776E+02  0.10500809352E+02  0.24876034444E+02  0.36820901983E+02  0.00000000000E+00 0.  1.
         11    1    4    4    0    0 -0.32814502206E+01 -0.63256580850E+01 -0.11236378694E+02  0.13305565459E+02  0.51100000000E-03 0. -1.
        -11    1    4    4    0    0  0.35578441007E+01 -0.76996953545E+01  0.46154784500E+01  0.96564074469E+01  0.51100000000E-03 0.  1.
         12    1    4    4    0    0 -0.25310265656E+02  0.35245440875E+01 -0.18255134200E+02  0.31405125112E+02  0.00000000000E+00 0. -1.
</event>
<event>
 8    1  0.2534787E-006  0.9118800E+02  0.7816164E-02  0.1184000E+00
        -11   -1    0    0    0    0  0.00000000000E+00  0.00000000000E+00  0.45593999997E+02  0.45594000000E+02  0.51100000000E-03 0.  1.
         11   -1    0    0    0    0 -0.00000000000E+00 -0.00000000000E+00 -0.45593999997E+02  0.45594000000E+02  0.51100000000E-03 0. -1.
         23    2    1    2    0    0  0.00000000000E+00 -0.11102230246E-15  0.00000000000E+00  0.91188000000E+02  0.91188000000E+02 0.  0.
    9900012    2    3    3    0    0  0.42054302664E+01 -0.99777527328E+00  0.36566363056E+02  0.54367080588E+02  0.39999991817E+02 0.  0.
         12    1    3    3    0    0 -0.42054302664E+01  0.99777527328E+00 -0.36566363056E+02  0.36820919412E+02  0.00000000000E+00 0. -1.
         11    1    4    4    0    0 -0.13263521688E+02 -0.10424002979E+01  0.12121544809E+02  0.17998318110E+02  0.51100000000E-03 0. -1.
        -11    1    4    4    0    0  0.11995184182E+01 -0.83464686825E+01  0.97802427781E+01  0.12913385806E+02  0.51100000000E-03 0.  1.
         12    1    4    4    0    0  0.16269433537E+02  0.83910937071E+01  0.14664575469E+02  0.23455376673E+02  0.00000000000E+00 0. -1.
</event>
<event>
 8    1  0.2534787E-006  0.9118800E+02  0.7816164E-02  0.1184000E+00
        -11   -1    0    0    0    0  0.00000000000E+00  0.00000000000E+00  0.45593999997E+02  0.45594000000E+02  0.51100000000E-03 0.  1.
         11   -1    0    0    0    0 -0.00000000000E+00 -0.00000000000E+00 -0.45593999997E+02  0.45594000000E+02  0.51100000000E-03 0. -1.
         23    2    1    2    0    0  0.00000000000E+00  0.00000000000E+00  0.00000000000E+00  0.91188000000E+02  0.91188000000E+02 0.  0.
    9900012    2    3    3    0    0 -0.27208552760E+02  0.21366124099E+02 -0.12608101183E+02  0.54367070928E+02  0.39999969794E+02 0.  0.
        -12    1    3    3    0    0  0.27208552760E+02 -0.21366124099E+02  0.12608101183E+02  0.36820929072E+02  0.00000000000E+00 0.  1.
         11    1    4    4    0    0 -0.34217219286E+01  0.50232025881E+01 -0.21460949690E+02  0.22305001839E+02  0.51100000000E-03 0. -1.
        -11    1    4    4    0    0  0.12093194880E+00 -0.11037068559E+01  0.86184829923E+00  0.14055518888E+01  0.51100000000E-03 0.  1.
        -12    1    4    4    0    0 -0.23907762780E+02  0.17446628367E+02  0.79910002071E+01  0.30656517200E+02  0.00000000000E+00 0.  1.
</event>
<event>
 8    1  0.2534787E-006  0.9118800E+02  0.7816164E-02  0.1184000E+00
        -11   -1    0    0    0    0  0.00000000000E+00  0.00000000000E+00  0.45593999997E+02  0.45594000000E+02  0.51100000000E-03 0. -1.
         11   -1    0    0    0    0 -0.00000000000E+00 -0.00000000000E+00 -0.45593999997E+02  0.45594000000E+02  0.51100000000E-03 0.  1.
         23    2    1    2    0    0  0.00000000000E+00  0.00000000000E+00  0.35527136788E-14  0.91188000000E+02  0.91188000000E+02 0.  0.
    9900012    2    3    3    0    0  0.73612236770E+01  0.31698986316E+02  0.17226903884E+02  0.54367087940E+02  0.40000008576E+02 0.  0.
        -12    1    3    3    0    0 -0.73612236770E+01 -0.31698986316E+02 -0.17226903884E+02  0.36820912060E+02  0.00000000000E+00 0.  1.
         11    1    4    4    0    0  0.22323306163E+01  0.20975963116E+02  0.35114846799E+01  0.21384687361E+02  0.51100000000E-03 0.  1.
        -11    1    4    4    0    0 -0.34115991439E+01  0.17263163651E+02  0.30972363775E+01  0.17867532046E+02  0.51100000000E-03 0. -1.
        -12    1    4    4    0    0  0.85404922047E+01 -0.65401404508E+01  0.10618182827E+02  0.15114868533E+02  0.00000000000E+00 0.  1.
</event>
<event>
 8    1  0.2534787E-006  0.9118800E+02  0.7816164E-02  0.1184000E+00
        -11   -1    0    0    0    0  0.00000000000E+00  0.00000000000E+00  0.45593999997E+02  0.45594000000E+02  0.51100000000E-03 0.  1.
         11   -1    0    0    0    0 -0.00000000000E+00 -0.00000000000E+00 -0.45593999997E+02  0.45594000000E+02  0.51100000000E-03 0. -1.
         23    2    1    2    0    0  0.00000000000E+00  0.00000000000E+00  0.00000000000E+00  0.91188000000E+02  0.91188000000E+02 0.  0.
    9900012    2    3    3    0    0  0.52469297597E+01 -0.28221045183E+02 -0.23061282054E+02  0.54367076695E+02  0.39999982941E+02 0.  0.
        -12    1    3    3    0    0 -0.52469297597E+01  0.28221045183E+02  0.23061282054E+02  0.36820923305E+02  0.00000000000E+00 0.  1.
         11    1    4    4    0    0  0.18932189198E+02 -0.11526008458E+02 -0.99827248701E+01  0.24309081737E+02  0.51100000000E-03 0. -1.
        -11    1    4    4    0    0  0.26766902084E+01 -0.16162665132E+01  0.14886916154E+01  0.34631186668E+01  0.51100000000E-03 0.  1.
        -12    1    4    4    0    0 -0.16361949647E+02 -0.15078770211E+02 -0.14567248799E+02  0.26594876291E+02  0.00000000000E+00 0.  1.
</event>
<event>
 8    1  0.2534787E-006  0.9118800E+02  0.7816164E-02  0.1184000E+00
        -11   -1    0    0    0    0  0.00000000000E+00  0.00000000000E+00  0.45593999997E+02  0.45594000000E+02  0.51100000000E-03 0.  1.
         11   -1    0    0    0    0 -0.00000000000E+00 -0.00000000000E+00 -0.45593999997E+02  0.45594000000E+02  0.51100000000E-03 0. -1.
         23    2    1    2    0    0 -0.44408920985E-15  0.71054273576E-14 -0.12212453271E-14  0.91188000000E+02  0.91188000000E+02 0.  0.
    9900012    2    3    3    0    0 -0.27768363478E+01  0.36711646029E+02 -0.56959354238E+00  0.54367079166E+02  0.39999988575E+02 0.  0.
        -12    1    3    3    0    0  0.27768363478E+01 -0.36711646029E+02  0.56959354238E+00  0.36820920834E+02  0.00000000000E+00 0.  1.
         11    1    4    4    0    0 -0.44385467856E+01  0.15247993402E+02  0.10466157570E+02  0.19019528251E+02  0.51100000000E-03 0. -1.
        -11    1    4    4    0    0  0.17142595207E+01 -0.44762697065E+00  0.68423370046E+01  0.70680005344E+01  0.51100000000E-03 0.  1.
         12    1    4    4    0    0 -0.52549082916E-01  0.21911279597E+02 -0.17878088117E+02  0.28279550380E+02  0.00000000000E+00 0. -1.
</event>
<event>
 8    1  0.2534787E-006  0.9118800E+02  0.7816164E-02  0.1184000E+00
        -11   -1    0    0    0    0  0.00000000000E+00  0.00000000000E+00  0.45593999997E+02  0.45594000000E+02  0.51100000000E-03 0. -1.
         11   -1    0    0    0    0 -0.00000000000E+00 -0.00000000000E+00 -0.45593999997E+02  0.45594000000E+02  0.51100000000E-03 0.  1.
         23    2    1    2    0    0 -0.35527136788E-14  0.00000000000E+00  0.35527136788E-14  0.91188000000E+02  0.91188000000E+02 0.  0.
    9900012    2    3    3    0    0 -0.18940770008E+02  0.12572203947E+02 -0.28964928883E+02  0.54367079510E+02  0.39999989358E+02 0.  0.
         12    1    3    3    0    0  0.18940770008E+02 -0.12572203947E+02  0.28964928883E+02  0.36820920490E+02  0.00000000000E+00 0. -1.
         11    1    4    4    0    0  0.62342302113E+01  0.32023806697E+01  0.20605658063E+01  0.73052583790E+01  0.51100000000E-03 0. -1.
        -11    1    4    4    0    0 -0.51511751793E+01  0.12848082896E+02 -0.18793687914E+02  0.23341177037E+02  0.51100000000E-03 0.  1.
        -12    1    4    4    0    0 -0.20023825040E+02 -0.34782596189E+01 -0.12231806776E+02  0.23720644093E+02  0.00000000000E+00 0.  1.
</event>
<event>
 8    1  0.2534787E-006  0.9118800E+02  0.7816164E-02  0.1184000E+00
        -11   -1    0    0    0    0  0.00000000000E+00  0.00000000000E+00  0.45593999997E+02  0.45594000000E+02  0.51100000000E-03 0.  1.
         11   -1    0    0    0    0 -0.00000000000E+00 -0.00000000000E+00 -0.45593999997E+02  0.45594000000E+02  0.51100000000E-03 0. -1.
         23    2    1    2    0    0  0.17763568394E-14  0.00000000000E+00  0.35527136788E-14  0.91188000000E+02  0.91188000000E+02 0.  0.
    9900012    2    3    3    0    0 -0.40138065033E+01 -0.34239124295E+02 -0.12936525684E+02  0.54367055255E+02  0.39999934064E+02 0.  0.
        -12    1    3    3    0    0  0.40138065033E+01  0.34239124295E+02  0.12936525684E+02  0.36820944745E+02  0.00000000000E+00 0.  1.
         11    1    4    4    0    0  0.47547587993E+01 -0.25348814815E+02  0.75928248148E+01  0.26885333041E+02  0.51100000000E-03 0. -1.
        -11    1    4    4    0    0 -0.75884194364E+00 -0.28250590169E+01  0.14868506931E+01  0.32813906791E+01  0.51100000000E-03 0.  1.
         12    1    4    4    0    0 -0.80097233590E+01 -0.60652504633E+01 -0.22016201192E+02  0.24200331535E+02  0.00000000000E+00 0. -1.
</event>
<event>
 8    1  0.2534787E-006  0.9118800E+02  0.7816164E-02  0.1184000E+00
        -11   -1    0    0    0    0  0.00000000000E+00  0.00000000000E+00  0.45593999997E+02  0.45594000000E+02  0.51100000000E-03 0.  1.
         11   -1    0    0    0    0 -0.00000000000E+00 -0.00000000000E+00 -0.45593999997E+02  0.45594000000E+02  0.51100000000E-03 0. -1.
         23    2    1    2    0    0  0.00000000000E+00 -0.35527136788E-14  0.00000000000E+00  0.91188000000E+02  0.91188000000E+02 0.  0.
    9900012    2    3    3    0    0  0.16268501408E+02 -0.23971445348E+02  0.22726341458E+02  0.54367069455E+02  0.39999966436E+02 0.  0.
         12    1    3    3    0    0 -0.16268501408E+02  0.23971445348E+02 -0.22726341458E+02  0.36820930545E+02  0.00000000000E+00 0. -1.
         11    1    4    4    0    0 -0.13062639709E+00 -0.16325558136E+02  0.12944412174E+01  0.16377316326E+02  0.51100000000E-03 0. -1.
        -11    1    4    4    0    0  0.31642054876E+01 -0.15065850633E+02  0.15051095634E+02  0.21529689540E+02  0.51100000000E-03 0.  1.
         12    1    4    4    0    0  0.13234922317E+02  0.74199634209E+01  0.63808046066E+01  0.16460063589E+02  0.00000000000E+00 0. -1.
</event>
<event>
 8    1  0.2534787E-006  0.9118800E+02  0.7816164E-02  0.1184000E+00
        -11   -1    0    0    0    0  0.00000000000E+00  0.00000000000E+00  0.45593999997E+02  0.45594000000E+02  0.51100000000E-03 0.  1.
         11   -1    0    0    0    0 -0.00000000000E+00 -0.00000000000E+00 -0.45593999997E+02  0.45594000000E+02  0.51100000000E-03 0. -1.
         23    2    1    2    0    0  0.00000000000E+00 -0.35527136788E-14  0.35527136788E-14  0.91188000000E+02  0.91188000000E+02 0.  0.
    9900012    2    3    3    0    0  0.17797348976E+02 -0.22518097503E+02  0.23064458167E+02  0.54367087786E+02  0.40000008225E+02 0.  0.
        -12    1    3    3    0    0 -0.17797348976E+02  0.22518097503E+02 -0.23064458167E+02  0.36820912214E+02  0.00000000000E+00 0.  1.
         11    1    4    4    0    0  0.13587288285E+02 -0.56440998979E+01 -0.21919128625E+01  0.14875306681E+02  0.51100000000E-03 0. -1.
        -11    1    4    4    0    0 -0.50076476222E+01  0.39666079413E+00  0.17878995718E+02  0.18571277894E+02  0.51100000000E-03 0.  1.
        -12    1    4    4    0    0  0.92177083135E+01 -0.17270658399E+02  0.73773753121E+01  0.20920503211E+02  0.00000000000E+00 0.  1.
</event>
<event>
 8    1  0.2534787E-006  0.9118800E+02  0.7816164E-02  0.1184000E+00
        -11   -1    0    0    0    0  0.00000000000E+00  0.00000000000E+00  0.45593999997E+02  0.45594000000E+02  0.51100000000E-03 0.  1.
         11   -1    0    0    0    0 -0.00000000000E+00 -0.00000000000E+00 -0.45593999997E+02  0.45594000000E+02  0.51100000000E-03 0. -1.
         23    2    1    2    0    0 -0.17763568394E-14 -0.35527136788E-14 -0.35527136788E-14  0.91188000000E+02  0.91188000000E+02 0.  0.
    9900012    2    3    3    0    0  0.12032264893E+02  0.25301600917E+02  0.23892112203E+02  0.54367089732E+02  0.40000012662E+02 0.  0.
         12    1    3    3    0    0 -0.12032264893E+02 -0.25301600917E+02 -0.23892112203E+02  0.36820910268E+02  0.00000000000E+00 0. -1.
         11    1    4    4    0    0  0.17754919124E+02  0.11484286309E+02  0.76309079775E+01  0.22480141057E+02  0.51100000000E-03 0. -1.
        -11    1    4    4    0    0 -0.45788248501E+01  0.17673941500E+01 -0.52607489994E+01  0.71947758398E+01  0.51100000000E-03 0.  1.
        -12    1    4    4    0    0 -0.11438293807E+01  0.12049920458E+02  0.21521953225E+02  0.24692172835E+02  0.00000000000E+00 0.  1.
</event>
<event>
 8    1  0.2534787E-006  0.9118800E+02  0.7816164E-02  0.1184000E+00
        -11   -1    0    0    0    0  0.00000000000E+00  0.00000000000E+00  0.45593999997E+02  0.45594000000E+02  0.51100000000E-03 0. -1.
         11   -1    0    0    0    0 -0.00000000000E+00 -0.00000000000E+00 -0.45593999997E+02  0.45594000000E+02  0.51100000000E-03 0.  1.
         23    2    1    2    0    0 -0.88817841970E-15 -0.35527136788E-14  0.00000000000E+00  0.91188000000E+02  0.91188000000E+02 0.  0.
    9900012    2    3    3    0    0 -0.59833494213E+01  0.19773309106E+02 -0.30479373472E+02  0.54367130503E+02  0.40000105607E+02 0.  0.
         12    1    3    3    0    0  0.59833494213E+01 -0.19773309106E+02  0.30479373472E+02  0.36820869497E+02  0.00000000000E+00 0. -1.
         11    1    4    4    0    0 -0.10636935113E+02  0.14390793660E+02 -0.45445740784E+01  0.18463273939E+02  0.51100000000E-03 0. -1.
        -11    1    4    4    0    0  0.76089842899E+01  0.13321275172E+02 -0.11522727169E+02  0.19186616580E+02  0.51100000000E-03 0.  1.
         12    1    4    4    0    0 -0.29553985987E+01 -0.79387597251E+01 -0.14412072225E+02  0.16717239983E+02  0.00000000000E+00 0. -1.
</event>
<event>
 8    1  0.2534787E-006  0.9118800E+02  0.7816164E-02  0.1184000E+00
        -11   -1    0    0    0    0  0.00000000000E+00  0.00000000000E+00  0.45593999997E+02  0.45594000000E+02  0.51100000000E-03 0.  1.
         11   -1    0    0    0    0 -0.00000000000E+00 -0.00000000000E+00 -0.45593999997E+02  0.45594000000E+02  0.51100000000E-03 0. -1.
         23    2    1    2    0    0  0.00000000000E+00  0.00000000000E+00  0.00000000000E+00  0.91188000000E+02  0.91188000000E+02 0.  0.
    9900012    2    3    3    0    0 -0.22231243825E+02  0.20676637101E+02 -0.20833400099E+02  0.54367053739E+02  0.39999930609E+02 0.  0.
        -12    1    3    3    0    0  0.22231243825E+02 -0.20676637101E+02  0.20833400099E+02  0.36820946261E+02  0.00000000000E+00 0.  1.
         11    1    4    4    0    0 -0.12133092328E+01  0.11777481475E+01 -0.72182244247E+01  0.74136343382E+01  0.51100000000E-03 0. -1.
        -11    1    4    4    0    0 -0.12717250800E+02  0.44552603344E+01 -0.23530657907E+02  0.27115856512E+02  0.51100000000E-03 0.  1.
        -12    1    4    4    0    0 -0.83006837929E+01  0.15043628620E+02  0.99154822327E+01  0.19837562889E+02  0.00000000000E+00 0.  1.
</event>
<event>
 8    1  0.2534787E-006  0.9118800E+02  0.7816164E-02  0.1184000E+00
        -11   -1    0    0    0    0  0.00000000000E+00  0.00000000000E+00  0.45593999997E+02  0.45594000000E+02  0.51100000000E-03 0.  1.
         11   -1    0    0    0    0 -0.00000000000E+00 -0.00000000000E+00 -0.45593999997E+02  0.45594000000E+02  0.51100000000E-03 0. -1.
         23    2    1    2    0    0 -0.17763568394E-14 -0.35527136788E-14  0.00000000000E+00  0.91188000000E+02  0.91188000000E+02 0.  0.
    9900012    2    3    3    0    0  0.13792179067E+02 -0.16348719769E+02  0.29971229592E+02  0.54367089571E+02  0.40000012296E+02 0.  0.
         12    1    3    3    0    0 -0.13792179067E+02  0.16348719769E+02 -0.29971229592E+02  0.36820910429E+02  0.00000000000E+00 0. -1.
         11    1    4    4    0    0  0.64153865558E+01  0.52553915544E+01  0.10557323034E+02  0.13425103163E+02  0.51100000000E-03 0. -1.
        -11    1    4    4    0    0  0.55210169030E+01  0.43709715726E+01  0.11918735722E+02  0.13843528510E+02  0.51100000000E-03 0.  1.
        -12    1    4    4    0    0  0.18557756080E+01 -0.25975082896E+02  0.74951708364E+01  0.27098457898E+02  0.00000000000E+00 0.  1.
</event>
<event>
 8    1  0.2534787E-006  0.9118800E+02  0.7816164E-02  0.1184000E+00
        -11   -1    0    0    0    0  0.00000000000E+00  0.00000000000E+00  0.45593999997E+02  0.45594000000E+02  0.51100000000E-03 0.  1.
         11   -1    0    0    0    0 -0.00000000000E+00 -0.00000000000E+00 -0.45593999997E+02  0.45594000000E+02  0.51100000000E-03 0. -1.
         23    2    1    2    0    0 -0.88817841970E-15  0.00000000000E+00 -0.35527136788E-14  0.91188000000E+02  0.91188000000E+02 0.  0.
    9900012    2    3    3    0    0 -0.42365698581E+01 -0.19391505350E+02 -0.31012886660E+02  0.54367107250E+02  0.40000052599E+02 0.  0.
        -12    1    3    3    0    0  0.42365698581E+01  0.19391505350E+02  0.31012886660E+02  0.36820892750E+02  0.00000000000E+00 0.  1.
         11    1    4    4    0    0  0.12040057117E+02 -0.30895300920E+00 -0.23179403054E+02  0.26121698903E+02  0.51100000000E-03 0. -1.
        -11    1    4    4    0    0 -0.78043731151E+01 -0.32531906065E+01 -0.56264902470E+01  0.10156223787E+02  0.51100000000E-03 0.  1.
        -12    1    4    4    0    0 -0.84722538606E+01 -0.15829361734E+02 -0.22069933582E+01  0.18089184561E+02  0.00000000000E+00 0.  1.
</event>
<event>
 8    1  0.2534787E-006  0.9118800E+02  0.7816164E-02  0.1184000E+00
        -11   -1    0    0    0    0  0.00000000000E+00  0.00000000000E+00  0.45593999997E+02  0.45594000000E+02  0.51100000000E-03 0. -1.
         11   -1    0    0    0    0 -0.00000000000E+00 -0.00000000000E+00 -0.45593999997E+02  0.45594000000E+02  0.51100000000E-03 0.  1.
         23    2    1    2    0    0  0.00000000000E+00  0.44408920985E-15  0.00000000000E+00  0.91188000000E+02  0.91188000000E+02 0.  0.
    9900012    2    3    3    0    0  0.26366563683E+02  0.31070560818E+01 -0.25513335435E+02  0.54367085251E+02  0.40000002447E+02 0.  0.
         12    1    3    3    0    0 -0.26366563683E+02 -0.31070560818E+01  0.25513335435E+02  0.36820914749E+02  0.00000000000E+00 0. -1.
         11    1    4    4    0    0 -0.33141695096E+01  0.43988290662E+01 -0.13639043152E+02  0.14709075942E+02  0.51100000000E-03 0. -1.
        -11    1    4    4    0    0  0.24240626203E+02 -0.11017028851E+02 -0.94500481393E+01  0.28253960669E+02  0.51100000000E-03 0.  1.
        -12    1    4    4    0    0  0.54401069896E+01  0.97252558662E+01 -0.24242441440E+01  0.11404048640E+02  0.00000000000E+00 0.  1.
</event>
<event>
 8    1  0.2534787E-006  0.9118800E+02  0.7816164E-02  0.1184000E+00
        -11   -1    0    0    0    0  0.00000000000E+00  0.00000000000E+00  0.45593999997E+02  0.45594000000E+02  0.51100000000E-03 0.  1.
         11   -1    0    0    0    0 -0.00000000000E+00 -0.00000000000E+00 -0.45593999997E+02  0.45594000000E+02  0.51100000000E-03 0. -1.
         23    2    1    2    0    0  0.35527136788E-14  0.00000000000E+00  0.00000000000E+00  0.91188000000E+02  0.91188000000E+02 0.  0.
    9900012    2    3    3    0    0 -0.25049358663E+02  0.38321438380E+01  0.26713742986E+02  0.54367085289E+02  0.40000002534E+02 0.  0.
         12    1    3    3    0    0  0.25049358663E+02 -0.38321438380E+01 -0.26713742986E+02  0.36820914711E+02  0.00000000000E+00 0. -1.
         11    1    4    4    0    0 -0.11826978390E+02 -0.60483534812E+01  0.50663942547E-01  0.13283921287E+02  0.51100000000E-03 0. -1.
        -11    1    4    4    0    0 -0.56291201774E+01  0.66210343265E+01 -0.38250595723E+01  0.94950603219E+01  0.51100000000E-03 0.  1.
        -12    1    4    4    0    0 -0.75932600961E+01  0.32594629928E+01  0.30488138615E+02  0.31588103680E+02  0.00000000000E+00 0.  1.
</event>
<event>
 8    1  0.2534787E-006  0.9118800E+02  0.7816164E-02  0.1184000E+00
        -11   -1    0    0    0    0  0.00000000000E+00  0.00000000000E+00  0.45593999997E+02  0.45594000000E+02  0.51100000000E-03 0. -1.
         11   -1    0    0    0    0 -0.00000000000E+00 -0.00000000000E+00 -0.45593999997E+02  0.45594000000E+02  0.51100000000E-03 0.  1.
         23    2    1    2    0    0  0.00000000000E+00  0.00000000000E+00 -0.44408920985E-15  0.91188000000E+02  0.91188000000E+02 0.  0.
    9900012    2    3    3    0    0  0.63582330227E+01 -0.36248753815E+02  0.11749212424E+01  0.54367085831E+02  0.40000003769E+02 0.  0.
         12    1    3    3    0    0 -0.63582330227E+01  0.36248753815E+02 -0.11749212424E+01  0.36820914169E+02  0.00000000000E+00 0. -1.
         11    1    4    4    0    0  0.16454250211E+01  0.33911845221E+01 -0.29737475831E+01  0.48011176732E+01  0.51100000000E-03 0. -1.
        -11    1    4    4    0    0  0.13628189044E+01  0.36865899137E+01  0.46740331387E+01  0.61069474044E+01  0.51100000000E-03 0.  1.
        -12    1    4    4    0    0  0.33499890972E+01 -0.43326528251E+02 -0.52536431319E+00  0.43459020754E+02  0.00000000000E+00 0.  1.
</event>
<event>
 8    1  0.2534787E-006  0.9118800E+02  0.7816164E-02  0.1184000E+00
        -11   -1    0    0    0    0  0.00000000000E+00  0.00000000000E+00  0.45593999997E+02  0.45594000000E+02  0.51100000000E-03 0.  1.
         11   -1    0    0    0    0 -0.00000000000E+00 -0.00000000000E+00 -0.45593999997E+02  0.45594000000E+02  0.51100000000E-03 0. -1.
         23    2    1    2    0    0  0.00000000000E+00  0.00000000000E+00  0.00000000000E+00  0.91188000000E+02  0.91188000000E+02 0.  0.
    9900012    2    3    3    0    0  0.29227158333E+02 -0.19602644868E+02 -0.10830165861E+02  0.54367041802E+02  0.39999903396E+02 0.  0.
        -12    1    3    3    0    0 -0.29227158333E+02  0.19602644868E+02  0.10830165861E+02  0.36820958198E+02  0.00000000000E+00 0.  1.
         11    1    4    4    0    0 -0.24878848332E+01 -0.12618925798E+02 -0.29060721447E+01  0.13186057592E+02  0.51100000000E-03 0. -1.
        -11    1    4    4    0    0  0.54547798129E+01 -0.96105173777E+01  0.45986841772E+01  0.11969317587E+02  0.51100000000E-03 0.  1.
         12    1    4    4    0    0  0.26260263353E+02  0.26267983083E+01 -0.12522777894E+02  0.29211666623E+02  0.00000000000E+00 0. -1.
</event>
<event>
 8    1  0.2534787E-006  0.9118800E+02  0.7816164E-02  0.1184000E+00
        -11   -1    0    0    0    0  0.00000000000E+00  0.00000000000E+00  0.45593999997E+02  0.45594000000E+02  0.51100000000E-03 0. -1.
         11   -1    0    0    0    0 -0.00000000000E+00 -0.00000000000E+00 -0.45593999997E+02  0.45594000000E+02  0.51100000000E-03 0.  1.
         23    2    1    2    0    0  0.35527136788E-14  0.35527136788E-14  0.17763568394E-14  0.91188000000E+02  0.91188000000E+02 0.  0.
    9900012    2    3    3    0    0 -0.18121955351E+02  0.29684250436E+02 -0.12092155258E+02  0.54367079201E+02  0.39999988654E+02 0.  0.
         12    1    3    3    0    0  0.18121955351E+02 -0.29684250436E+02  0.12092155258E+02  0.36820920799E+02  0.00000000000E+00 0. -1.
         11    1    4    4    0    0 -0.17468143636E+02  0.59043122098E+01 -0.37845183346E+01  0.18823377063E+02  0.51100000000E-03 0.  1.
        -11    1    4    4    0    0  0.31811918044E+01  0.57361165398E+01  0.83984791081E+01  0.10656334541E+02  0.51100000000E-03 0. -1.
        -12    1    4    4    0    0 -0.38350035198E+01  0.18043821686E+02 -0.16706116032E+02  0.24887367597E+02  0.00000000000E+00 0.  1.
</event>
<event>
 8    1  0.2534787E-006  0.9118800E+02  0.7816164E-02  0.1184000E+00
        -11   -1    0    0    0    0  0.00000000000E+00  0.00000000000E+00  0.45593999997E+02  0.45594000000E+02  0.51100000000E-03 0. -1.
         11   -1    0    0    0    0 -0.00000000000E+00 -0.00000000000E+00 -0.45593999997E+02  0.45594000000E+02  0.51100000000E-03 0.  1.
         23    2    1    2    0    0  0.00000000000E+00 -0.66613381478E-15  0.00000000000E+00  0.91188000000E+02  0.91188000000E+02 0.  0.
    9900012    2    3    3    0    0  0.36205541454E+02  0.71102366826E+00  0.66657007528E+01  0.54367104395E+02  0.40000046089E+02 0.  0.
         12    1    3    3    0    0 -0.36205541454E+02 -0.71102366826E+00 -0.66657007528E+01  0.36820895605E+02  0.00000000000E+00 0. -1.
         11    1    4    4    0    0  0.14470671046E+02  0.13626637318E+02 -0.34816684252E+01  0.20179385035E+02  0.51100000000E-03 0. -1.
        -11    1    4    4    0    0  0.14085954433E+02  0.48904299982E+00  0.12170976311E+02  0.18622189452E+02  0.51100000000E-03 0.  1.
         12    1    4    4    0    0  0.76489159747E+01 -0.13404656650E+02 -0.20236071330E+01  0.15565529908E+02  0.00000000000E+00 0. -1.
</event>
<event>
 8    1  0.2534787E-006  0.9118800E+02  0.7816164E-02  0.1184000E+00
        -11   -1    0    0    0    0  0.00000000000E+00  0.00000000000E+00  0.45593999997E+02  0.45594000000E+02  0.51100000000E-03 0. -1.
         11   -1    0    0    0    0 -0.00000000000E+00 -0.00000000000E+00 -0.45593999997E+02  0.45594000000E+02  0.51100000000E-03 0.  1.
         23    2    1    2    0    0 -0.17763568394E-14  0.35527136788E-14  0.00000000000E+00  0.91188000000E+02  0.91188000000E+02 0.  0.
    9900012    2    3    3    0    0  0.10777343351E+02 -0.18651719902E+02  0.29862116990E+02  0.54367030212E+02  0.39999876974E+02 0.  0.
        -12    1    3    3    0    0 -0.10777343351E+02  0.18651719902E+02 -0.29862116990E+02  0.36820969788E+02  0.00000000000E+00 0.  1.
         11    1    4    4    0    0 -0.54398743827E+01  0.16035120737E+01  0.54611762812E+01  0.78732414485E+01  0.51100000000E-03 0. -1.
        -11    1    4    4    0    0 -0.31488158705E+01 -0.45023659408E+01  0.20504262630E+02  0.21227602943E+02  0.51100000000E-03 0.  1.
        -12    1    4    4    0    0  0.19366033604E+02 -0.15752866035E+02  0.38966780787E+01  0.25266185820E+02  0.00000000000E+00 0.  1.
</event>
<event>
 8    1  0.2534787E-006  0.9118800E+02  0.7816164E-02  0.1184000E+00
        -11   -1    0    0    0    0  0.00000000000E+00  0.00000000000E+00  0.45593999997E+02  0.45594000000E+02  0.51100000000E-03 0. -1.
         11   -1    0    0    0    0 -0.00000000000E+00 -0.00000000000E+00 -0.45593999997E+02  0.45594000000E+02  0.51100000000E-03 0.  1.
         23    2    1    2    0    0 -0.99920072216E-15 -0.35527136788E-14  0.00000000000E+00  0.91188000000E+02  0.91188000000E+02 0.  0.
    9900012    2    3    3    0    0  0.39282196054E+00  0.16069800313E+02  0.33126832276E+02  0.54367084641E+02  0.40000001057E+02 0.  0.
        -12    1    3    3    0    0 -0.39282196054E+00 -0.16069800313E+02 -0.33126832276E+02  0.36820915359E+02  0.00000000000E+00 0.  1.
         11    1    4    4    0    0 -0.12994890179E+02 -0.47309506921E+00  0.22630925625E+02  0.26100762147E+02  0.51100000000E-03 0.  1.
        -11    1    4    4    0    0  0.14921545391E+01  0.51703259437E+00 -0.35336036956E+01  0.38704267479E+01  0.51100000000E-03 0. -1.
         12    1    4    4    0    0  0.11895557601E+02  0.16025862788E+02  0.14029510346E+02  0.24395895747E+02  0.00000000000E+00 0. -1.
</event>
<event>
 8    1  0.2534787E-006  0.9118800E+02  0.7816164E-02  0.1184000E+00
        -11   -1    0    0    0    0  0.00000000000E+00  0.00000000000E+00  0.45593999997E+02  0.45594000000E+02  0.51100000000E-03 0.  1.
         11   -1    0    0    0    0 -0.00000000000E+00 -0.00000000000E+00 -0.45593999997E+02  0.45594000000E+02  0.51100000000E-03 0. -1.
         23    2    1    2    0    0  0.88817841970E-15 -0.71054273576E-14  0.17763568394E-14  0.91188000000E+02  0.91188000000E+02 0.  0.
    9900012    2    3    3    0    0  0.69826633273E+01 -0.34559936558E+02 -0.10612839997E+02  0.54367093237E+02  0.40000020652E+02 0.  0.
        -12    1    3    3    0    0 -0.69826633273E+01  0.34559936558E+02  0.10612839997E+02  0.36820906763E+02  0.00000000000E+00 0.  1.
         11    1    4    4    0    0 -0.66716949094E+01 -0.53537255920E+01 -0.14991683716E+01  0.86845493116E+01  0.51100000000E-03 0. -1.
        -11    1    4    4    0    0  0.69708413871E+01 -0.50666258620E+01  0.10704869014E+02  0.13742545184E+02  0.51100000000E-03 0.  1.
        -12    1    4    4    0    0  0.66835168496E+01 -0.24139585104E+02 -0.19818540640E+02  0.31939998741E+02  0.00000000000E+00 0.  1.
</event>
<event>
 8    1  0.2534787E-006  0.9118800E+02  0.7816164E-02  0.1184000E+00
        -11   -1    0    0    0    0  0.00000000000E+00  0.00000000000E+00  0.45593999997E+02  0.45594000000E+02  0.51100000000E-03 0.  1.
         11   -1    0    0    0    0 -0.00000000000E+00 -0.00000000000E+00 -0.45593999997E+02  0.45594000000E+02  0.51100000000E-03 0. -1.
         23    2    1    2    0    0  0.44408920985E-15 -0.35527136788E-14  0.00000000000E+00  0.91188000000E+02  0.91188000000E+02 0.  0.
    9900012    2    3    3    0    0 -0.36866849398E+01 -0.97396487470E+01  0.35317486907E+02  0.54367118900E+02  0.40000079156E+02 0.  0.
         12    1    3    3    0    0  0.36866849398E+01  0.97396487470E+01 -0.35317486907E+02  0.36820881100E+02  0.00000000000E+00 0. -1.
         11    1    4    4    0    0  0.95692542343E+01  0.55413295723E+01  0.13147390630E+02  0.17179372534E+02  0.51100000000E-03 0. -1.
        -11    1    4    4    0    0 -0.11692859596E+02 -0.18257268576E+02  0.24784489326E+02  0.32929040873E+02  0.51100000000E-03 0.  1.
        -12    1    4    4    0    0 -0.15630795777E+01  0.29762902567E+01 -0.26143930493E+01  0.42587054928E+01  0.00000000000E+00 0.  1.
</event>
<event>
 8    1  0.2534787E-006  0.9118800E+02  0.7816164E-02  0.1184000E+00
        -11   -1    0    0    0    0  0.00000000000E+00  0.00000000000E+00  0.45593999997E+02  0.45594000000E+02  0.51100000000E-03 0.  1.
         11   -1    0    0    0    0 -0.00000000000E+00 -0.00000000000E+00 -0.45593999997E+02  0.45594000000E+02  0.51100000000E-03 0. -1.
         23    2    1    2    0    0  0.88817841970E-15  0.00000000000E+00 -0.22204460493E-15  0.91188000000E+02  0.91188000000E+02 0.  0.
    9900012    2    3    3    0    0  0.75215285837E+01 -0.36038791951E+02  0.64305995186E+00  0.54367062429E+02  0.39999950420E+02 0.  0.
        -12    1    3    3    0    0 -0.75215285837E+01  0.36038791951E+02 -0.64305995186E+00  0.36820937571E+02  0.00000000000E+00 0.  1.
         11    1    4    4    0    0 -0.10626064414E+02 -0.19352786190E+02 -0.27296463759E+01  0.22246225474E+02  0.51100000000E-03 0. -1.
        -11    1    4    4    0    0 -0.37908855214E+01 -0.18927728694E+01 -0.26318536481E+01  0.49879911846E+01  0.51100000000E-03 0.  1.
        -12    1    4    4    0    0  0.21938478519E+02 -0.14793232891E+02  0.60045599759E+01  0.27132845771E+02  0.00000000000E+00 0.  1.
</event>
<event>
 8    1  0.2534787E-006  0.9118800E+02  0.7816164E-02  0.1184000E+00
        -11   -1    0    0    0    0  0.00000000000E+00  0.00000000000E+00  0.45593999997E+02  0.45594000000E+02  0.51100000000E-03 0. -1.
         11   -1    0    0    0    0 -0.00000000000E+00 -0.00000000000E+00 -0.45593999997E+02  0.45594000000E+02  0.51100000000E-03 0.  1.
         23    2    1    2    0    0  0.00000000000E+00  0.00000000000E+00  0.00000000000E+00  0.91188000000E+02  0.91188000000E+02 0.  0.
    9900012    2    3    3    0    0 -0.88408045713E+01  0.26088658890E+02 -0.24433705951E+02  0.54367028603E+02  0.39999873305E+02 0.  0.
         12    1    3    3    0    0  0.88408045713E+01 -0.26088658890E+02  0.24433705951E+02  0.36820971397E+02  0.00000000000E+00 0. -1.
         11    1    4    4    0    0 -0.97456881638E+01  0.19803499842E+02 -0.13612727558E+02  0.25931899190E+02  0.51100000000E-03 0. -1.
        -11    1    4    4    0    0  0.37272969562E+01  0.10693861505E+02 -0.16943555761E+02  0.20379781613E+02  0.51100000000E-03 0.  1.
         12    1    4    4    0    0 -0.28224133638E+01 -0.44087024564E+01  0.61225773684E+01  0.80553477999E+01  0.00000000000E+00 0. -1.
</event>
<event>
 8    1  0.2534787E-006  0.9118800E+02  0.7816164E-02  0.1184000E+00
        -11   -1    0    0    0    0  0.00000000000E+00  0.00000000000E+00  0.45593999997E+02  0.45594000000E+02  0.51100000000E-03 0. -1.
         11   -1    0    0    0    0 -0.00000000000E+00 -0.00000000000E+00 -0.45593999997E+02  0.45594000000E+02  0.51100000000E-03 0.  1.
         23    2    1    2    0    0  0.00000000000E+00 -0.35527136788E-14 -0.35527136788E-14  0.91188000000E+02  0.91188000000E+02 0.  0.
    9900012    2    3    3    0    0 -0.18588612355E+02  0.24453839176E+02  0.20304031213E+02  0.54367076014E+02  0.39999981388E+02 0.  0.
        -12    1    3    3    0    0  0.18588612355E+02 -0.24453839176E+02 -0.20304031213E+02  0.36820923986E+02  0.00000000000E+00 0.  1.
         11    1    4    4    0    0 -0.56829993531E+01  0.10940133585E+02  0.20580044607E+02  0.23990023776E+02  0.51100000000E-03 0. -1.
        -11    1    4    4    0    0 -0.18125940068E+02  0.28091619915E+01  0.11719540617E+01  0.18379732616E+02  0.51100000000E-03 0.  1.
        -12    1    4    4    0    0  0.52203270663E+01  0.10704543599E+02 -0.14479674558E+01  0.11997319621E+02  0.00000000000E+00 0.  1.
</event>
<event>
 8    1  0.2534787E-006  0.9118800E+02  0.7816164E-02  0.1184000E+00
        -11   -1    0    0    0    0  0.00000000000E+00  0.00000000000E+00  0.45593999997E+02  0.45594000000E+02  0.51100000000E-03 0.  1.
         11   -1    0    0    0    0 -0.00000000000E+00 -0.00000000000E+00 -0.45593999997E+02  0.45594000000E+02  0.51100000000E-03 0. -1.
         23    2    1    2    0    0  0.00000000000E+00  0.35527136788E-14  0.00000000000E+00  0.91188000000E+02  0.91188000000E+02 0.  0.
    9900012    2    3    3    0    0 -0.95988737096E+01  0.29377245492E+02 -0.20015453363E+02  0.54367091503E+02  0.40000016700E+02 0.  0.
        -12    1    3    3    0    0  0.95988737096E+01 -0.29377245492E+02  0.20015453363E+02  0.36820908497E+02  0.00000000000E+00 0.  1.
         11    1    4    4    0    0 -0.17274029572E+02  0.20832482006E+02 -0.19255965319E+02  0.33214102499E+02  0.51100000000E-03 0. -1.
        -11    1    4    4    0    0  0.46627675102E+00 -0.39402995892E+01 -0.47547433128E+01  0.61928151185E+01  0.51100000000E-03 0.  1.
         12    1    4    4    0    0  0.72088791116E+01  0.12485063075E+02  0.39952552684E+01  0.14960173886E+02  0.00000000000E+00 0. -1.
</event>
<event>
 8    1  0.2534787E-006  0.9118800E+02  0.7816164E-02  0.1184000E+00
        -11   -1    0    0    0    0  0.00000000000E+00  0.00000000000E+00  0.45593999997E+02  0.45594000000E+02  0.51100000000E-03 0.  1.
         11   -1    0    0    0    0 -0.00000000000E+00 -0.00000000000E+00 -0.45593999997E+02  0.45594000000E+02  0.51100000000E-03 0. -1.
         23    2    1    2    0    0  0.35527136788E-14 -0.17763568394E-14 -0.35527136788E-14  0.91188000000E+02  0.91188000000E+02 0.  0.
    9900012    2    3    3    0    0  0.17290027970E+02 -0.15024113682E+02 -0.28829001225E+02  0.54367076998E+02  0.39999983632E+02 0.  0.
        -12    1    3    3    0    0 -0.17290027970E+02  0.15024113682E+02  0.28829001225E+02  0.36820923002E+02  0.00000000000E+00 0.  1.
         11    1    4    4    0    0 -0.64043960499E+01 -0.12729418369E+02 -0.26374127977E+02  0.29977475004E+02  0.51100000000E-03 0. -1.
        -11    1    4    4    0    0  0.18442694873E+02 -0.37208136026E+01 -0.16183232917E+01  0.18883760711E+02  0.51100000000E-03 0.  1.
         12    1    4    4    0    0  0.52517291463E+01  0.14261182903E+01 -0.83654995590E+00  0.55058412829E+01  0.00000000000E+00 0. -1.
</event>
<event>
 8    1  0.2534787E-006  0.9118800E+02  0.7816164E-02  0.1184000E+00
        -11   -1    0    0    0    0  0.00000000000E+00  0.00000000000E+00  0.45593999997E+02  0.45594000000E+02  0.51100000000E-03 0.  1.
         11   -1    0    0    0    0 -0.00000000000E+00 -0.00000000000E+00 -0.45593999997E+02  0.45594000000E+02  0.51100000000E-03 0. -1.
         23    2    1    2    0    0  0.17763568394E-14  0.17763568394E-14  0.00000000000E+00  0.91188000000E+02  0.91188000000E+02 0.  0.
    9900012    2    3    3    0    0  0.11953230898E+02  0.13274099383E+02 -0.32197798358E+02  0.54367086616E+02  0.40000005558E+02 0.  0.
        -12    1    3    3    0    0 -0.11953230898E+02 -0.13274099383E+02  0.32197798358E+02  0.36820913384E+02  0.00000000000E+00 0.  1.
         11    1    4    4    0    0  0.18307678703E+02  0.13146987201E+02 -0.29158641157E+02  0.36854317608E+02  0.51100000000E-03 0. -1.
        -11    1    4    4    0    0  0.13414809243E+01 -0.45206234829E+01  0.39292044882E+01  0.61379358025E+01  0.51100000000E-03 0.  1.
        -12    1    4    4    0    0 -0.76959287294E+01  0.46477356640E+01 -0.69683616890E+01  0.11374833205E+02  0.00000000000E+00 0.  1.
</event>
<event>
 8    1  0.2534787E-006  0.9118800E+02  0.7816164E-02  0.1184000E+00
        -11   -1    0    0    0    0  0.00000000000E+00  0.00000000000E+00  0.45593999997E+02  0.45594000000E+02  0.51100000000E-03 0.  1.
         11   -1    0    0    0    0 -0.00000000000E+00 -0.00000000000E+00 -0.45593999997E+02  0.45594000000E+02  0.51100000000E-03 0. -1.
         23    2    1    2    0    0  0.00000000000E+00  0.00000000000E+00 -0.35527136788E-14  0.91188000000E+02  0.91188000000E+02 0.  0.
    9900012    2    3    3    0    0 -0.23234710697E+02  0.17008637591E+02 -0.22948519329E+02  0.54367081037E+02  0.39999992841E+02 0.  0.
        -12    1    3    3    0    0  0.23234710697E+02 -0.17008637591E+02  0.22948519329E+02  0.36820918963E+02  0.00000000000E+00 0.  1.
         11    1    4    4    0    0 -0.25972943693E+02  0.17427131960E+01 -0.23243334521E+02  0.34898186963E+02  0.51100000000E-03 0. -1.
        -11    1    4    4    0    0  0.33680425094E+01  0.34209846907E+01 -0.45889411809E+01  0.66411767046E+01  0.51100000000E-03 0.  1.
         12    1    4    4    0    0 -0.62980951307E+00  0.11844939704E+02  0.48837563728E+01  0.12827717370E+02  0.00000000000E+00 0. -1.
</event>
<event>
 8    1  0.2534787E-006  0.9118800E+02  0.7816164E-02  0.1184000E+00
        -11   -1    0    0    0    0  0.00000000000E+00  0.00000000000E+00  0.45593999997E+02  0.45594000000E+02  0.51100000000E-03 0.  1.
         11   -1    0    0    0    0 -0.00000000000E+00 -0.00000000000E+00 -0.45593999997E+02  0.45594000000E+02  0.51100000000E-03 0. -1.
         23    2    1    2    0    0  0.66613381478E-15 -0.17763568394E-14  0.00000000000E+00  0.91188000000E+02  0.91188000000E+02 0.  0.
    9900012    2    3    3    0    0  0.13537253991E+01  0.13017216468E+02  0.34416569594E+02  0.54367071717E+02  0.39999971593E+02 0.  0.
         12    1    3    3    0    0 -0.13537253991E+01 -0.13017216468E+02 -0.34416569594E+02  0.36820928283E+02  0.00000000000E+00 0. -1.
         11    1    4    4    0    0 -0.44228639963E+01 -0.45027470437E+01 -0.27590105501E+01  0.68882941536E+01  0.51100000000E-03 0. -1.
        -11    1    4    4    0    0  0.14449079848E+02  0.14082245390E+02  0.24449632366E+02  0.31699685594E+02  0.51100000000E-03 0.  1.
         12    1    4    4    0    0 -0.86724904526E+01  0.34377181217E+01  0.12725947778E+02  0.15779091970E+02  0.00000000000E+00 0. -1.
</event>
<event>
 8    1  0.2534787E-006  0.9118800E+02  0.7816164E-02  0.1184000E+00
        -11   -1    0    0    0    0  0.00000000000E+00  0.00000000000E+00  0.45593999997E+02  0.45594000000E+02  0.51100000000E-03 0. -1.
         11   -1    0    0    0    0 -0.00000000000E+00 -0.00000000000E+00 -0.45593999997E+02  0.45594000000E+02  0.51100000000E-03 0.  1.
         23    2    1    2    0    0  0.88817841970E-15 -0.71054273576E-14 -0.88817841970E-15  0.91188000000E+02  0.91188000000E+02 0.  0.
    9900012    2    3    3    0    0 -0.57696490831E+01  0.35638543730E+02 -0.72377195913E+01  0.54367092426E+02  0.40000018803E+02 0.  0.
         12    1    3    3    0    0  0.57696490831E+01 -0.35638543730E+02  0.72377195913E+01  0.36820907574E+02  0.00000000000E+00 0. -1.
         11    1    4    4    0    0 -0.43821712351E+01  0.19266672315E+02  0.11705566467E+02  0.22965808790E+02  0.51100000000E-03 0. -1.
        -11    1    4    4    0    0 -0.41256215436E+00  0.36273967208E+01 -0.18238348328E+02  0.18600149582E+02  0.51100000000E-03 0.  1.
        -12    1    4    4    0    0 -0.97491569366E+00  0.12744474694E+02 -0.70493773045E+00  0.12801134053E+02  0.00000000000E+00 0.  1.
</event>
<event>
 8    1  0.2534787E-006  0.9118800E+02  0.7816164E-02  0.1184000E+00
        -11   -1    0    0    0    0  0.00000000000E+00  0.00000000000E+00  0.45593999997E+02  0.45594000000E+02  0.51100000000E-03 0.  1.
         11   -1    0    0    0    0 -0.00000000000E+00 -0.00000000000E+00 -0.45593999997E+02  0.45594000000E+02  0.51100000000E-03 0. -1.
         23    2    1    2    0    0 -0.35527136788E-14  0.35527136788E-14  0.00000000000E+00  0.91188000000E+02  0.91188000000E+02 0.  0.
    9900012    2    3    3    0    0  0.23830839964E+02 -0.23680245289E+02 -0.15070331631E+02  0.54367111284E+02  0.40000061795E+02 0.  0.
        -12    1    3    3    0    0 -0.23830839964E+02  0.23680245289E+02  0.15070331631E+02  0.36820888716E+02  0.00000000000E+00 0.  1.
         11    1    4    4    0    0  0.13821952443E+01  0.19168419972E+01  0.47327708616E+01  0.52899779985E+01  0.51100000000E-03 0. -1.
        -11    1    4    4    0    0 -0.11434957080E+01  0.28293607814E+01  0.40746809381E+01  0.50907651561E+01  0.51100000000E-03 0.  1.
         12    1    4    4    0    0  0.23592140428E+02 -0.28426448068E+02 -0.23877783430E+02  0.43986368130E+02  0.00000000000E+00 0. -1.
</event>
<event>
 8    1  0.2534787E-006  0.9118800E+02  0.7816164E-02  0.1184000E+00
        -11   -1    0    0    0    0  0.00000000000E+00  0.00000000000E+00  0.45593999997E+02  0.45594000000E+02  0.51100000000E-03 0.  1.
         11   -1    0    0    0    0 -0.00000000000E+00 -0.00000000000E+00 -0.45593999997E+02  0.45594000000E+02  0.51100000000E-03 0. -1.
         23    2    1    2    0    0  0.00000000000E+00  0.35527136788E-14  0.00000000000E+00  0.91188000000E+02  0.91188000000E+02 0.  0.
    9900012    2    3    3    0    0  0.22239320847E+02 -0.18630829873E+02 -0.22673437313E+02  0.54367082398E+02  0.39999995942E+02 0.  0.
        -12    1    3    3    0    0 -0.22239320847E+02  0.18630829873E+02  0.22673437313E+02  0.36820917602E+02  0.00000000000E+00 0.  1.
         11    1    4    4    0    0  0.23359883586E+02 -0.65606310895E+01 -0.21383335850E+02  0.32341507290E+02  0.51100000000E-03 0. -1.
        -11    1    4    4    0    0 -0.46762010314E+01  0.33931622438E+01  0.13686428031E+01  0.59374733248E+01  0.51100000000E-03 0.  1.
         12    1    4    4    0    0  0.35556382926E+01 -0.15463361027E+02 -0.26587442658E+01  0.16088101783E+02  0.00000000000E+00 0. -1.
</event>
<event>
 8    1  0.2534787E-006  0.9118800E+02  0.7816164E-02  0.1184000E+00
        -11   -1    0    0    0    0  0.00000000000E+00  0.00000000000E+00  0.45593999997E+02  0.45594000000E+02  0.51100000000E-03 0. -1.
         11   -1    0    0    0    0 -0.00000000000E+00 -0.00000000000E+00 -0.45593999997E+02  0.45594000000E+02  0.51100000000E-03 0.  1.
         23    2    1    2    0    0  0.35527136788E-14  0.00000000000E+00  0.00000000000E+00  0.91188000000E+02  0.91188000000E+02 0.  0.
    9900012    2    3    3    0    0  0.26899954809E+02  0.24128422741E+02 -0.70704886107E+01  0.54367079833E+02  0.39999990096E+02 0.  0.
         12    1    3    3    0    0 -0.26899954809E+02 -0.24128422741E+02  0.70704886107E+01  0.36820920167E+02  0.00000000000E+00 0. -1.
         11    1    4    4    0    0  0.29017289534E+02  0.14788714361E+02 -0.27087864645E+00  0.32569656735E+02  0.51100000000E-03 0.  1.
        -11    1    4    4    0    0 -0.10105593686E+02  0.58202629318E+01 -0.19883668562E+01  0.11830134714E+02  0.51100000000E-03 0. -1.
         12    1    4    4    0    0  0.79882589612E+01  0.35194454486E+01 -0.48112431081E+01  0.99672883846E+01  0.00000000000E+00 0. -1.
</event>
<event>
 8    1  0.2534787E-006  0.9118800E+02  0.7816164E-02  0.1184000E+00
        -11   -1    0    0    0    0  0.00000000000E+00  0.00000000000E+00  0.45593999997E+02  0.45594000000E+02  0.51100000000E-03 0. -1.
         11   -1    0    0    0    0 -0.00000000000E+00 -0.00000000000E+00 -0.45593999997E+02  0.45594000000E+02  0.51100000000E-03 0.  1.
         23    2    1    2    0    0  0.00000000000E+00  0.00000000000E+00  0.35527136788E-14  0.91188000000E+02  0.91188000000E+02 0.  0.
    9900012    2    3    3    0    0  0.22984011619E+02  0.19831321616E+02 -0.20838269037E+02  0.54367087958E+02  0.40000008619E+02 0.  0.
         12    1    3    3    0    0 -0.22984011619E+02 -0.19831321616E+02  0.20838269037E+02  0.36820912042E+02  0.00000000000E+00 0. -1.
         11    1    4    4    0    0  0.10809074031E+02  0.72559220049E+01 -0.20184253930E+01  0.13174161335E+02  0.51100000000E-03 0. -1.
        -11    1    4    4    0    0  0.35768625833E+01  0.22873443412E+02 -0.10630878741E+02  0.25475555785E+02  0.51100000000E-03 0.  1.
        -12    1    4    4    0    0  0.85980750044E+01 -0.10298043801E+02 -0.81889649026E+01  0.15717370839E+02  0.00000000000E+00 0.  1.
</event>
<event>
 8    1  0.2534787E-006  0.9118800E+02  0.7816164E-02  0.1184000E+00
        -11   -1    0    0    0    0  0.00000000000E+00  0.00000000000E+00  0.45593999997E+02  0.45594000000E+02  0.51100000000E-03 0. -1.
         11   -1    0    0    0    0 -0.00000000000E+00 -0.00000000000E+00 -0.45593999997E+02  0.45594000000E+02  0.51100000000E-03 0.  1.
         23    2    1    2    0    0  0.00000000000E+00  0.00000000000E+00  0.00000000000E+00  0.91188000000E+02  0.91188000000E+02 0.  0.
    9900012    2    3    3    0    0  0.21005561589E+02  0.23586462285E+02 -0.18926378943E+02  0.54367317759E+02  0.40000532492E+02 0.  0.
         12    1    3    3    0    0 -0.21005561589E+02 -0.23586462285E+02  0.18926378943E+02  0.36820682241E+02  0.00000000000E+00 0. -1.
         11    1    4    4    0    0  0.13580838118E+02  0.15951059373E+02 -0.20526830703E+01  0.21049678553E+02  0.51100000000E-03 0. -1.
        -11    1    4    4    0    0  0.16345770905E+02  0.96561618160E+01 -0.14439758866E+02  0.23852302276E+02  0.51100000000E-03 0.  1.
         12    1    4    4    0    0 -0.89210474334E+01 -0.20207589045E+01 -0.24339370061E+01  0.94653369306E+01  0.00000000000E+00 0. -1.
</event>
<event>
 8    1  0.2534787E-006  0.9118800E+02  0.7816164E-02  0.1184000E+00
        -11   -1    0    0    0    0  0.00000000000E+00  0.00000000000E+00  0.45593999997E+02  0.45594000000E+02  0.51100000000E-03 0.  1.
         11   -1    0    0    0    0 -0.00000000000E+00 -0.00000000000E+00 -0.45593999997E+02  0.45594000000E+02  0.51100000000E-03 0. -1.
         23    2    1    2    0    0  0.00000000000E+00  0.11934897515E-14  0.00000000000E+00  0.91188000000E+02  0.91188000000E+02 0.  0.
    9900012    2    3    3    0    0 -0.90652337086E+01  0.22215484639E+00 -0.35686862272E+02  0.54367082660E+02  0.39999996539E+02 0.  0.
        -12    1    3    3    0    0  0.90652337086E+01 -0.22215484639E+00  0.35686862272E+02  0.36820917340E+02  0.00000000000E+00 0.  1.
         11    1    4    4    0    0 -0.12037577453E+02 -0.13196627205E+02 -0.30927476347E+02  0.35715025325E+02  0.51100000000E-03 0. -1.
        -11    1    4    4    0    0  0.61920801366E+01  0.71264494656E+01 -0.63876405741E+01  0.11398688116E+02  0.51100000000E-03 0.  1.
         12    1    4    4    0    0 -0.32197363926E+01  0.62923325862E+01  0.16282546490E+01  0.72533692181E+01  0.00000000000E+00 0. -1.
</event>
<event>
 8    1  0.2534787E-006  0.9118800E+02  0.7816164E-02  0.1184000E+00
        -11   -1    0    0    0    0  0.00000000000E+00  0.00000000000E+00  0.45593999997E+02  0.45594000000E+02  0.51100000000E-03 0.  1.
         11   -1    0    0    0    0 -0.00000000000E+00 -0.00000000000E+00 -0.45593999997E+02  0.45594000000E+02  0.51100000000E-03 0. -1.
         23    2    1    2    0    0  0.22204460493E-15  0.00000000000E+00  0.71054273576E-14  0.91188000000E+02  0.91188000000E+02 0.  0.
    9900012    2    3    3    0    0  0.12989560299E+01  0.77511455915E+01  0.35972381776E+02  0.54367084811E+02  0.40000001444E+02 0.  0.
         12    1    3    3    0    0 -0.12989560299E+01 -0.77511455915E+01 -0.35972381776E+02  0.36820915189E+02  0.00000000000E+00 0. -1.
         11    1    4    4    0    0  0.49007650011E+01 -0.53184146667E+01  0.23215865063E+00  0.72358088742E+01  0.51100000000E-03 0. -1.
        -11    1    4    4    0    0 -0.34738607562E+01  0.19142591096E+02  0.12533952500E+02  0.23143173247E+02  0.51100000000E-03 0.  1.
         12    1    4    4    0    0 -0.12794821509E+00 -0.60730308380E+01  0.23206270625E+02  0.23988102689E+02  0.00000000000E+00 0. -1.
</event>
<event>
 8    1  0.2534787E-006  0.9118800E+02  0.7816164E-02  0.1184000E+00
        -11   -1    0    0    0    0  0.00000000000E+00  0.00000000000E+00  0.45593999997E+02  0.45594000000E+02  0.51100000000E-03 0.  1.
         11   -1    0    0    0    0 -0.00000000000E+00 -0.00000000000E+00 -0.45593999997E+02  0.45594000000E+02  0.51100000000E-03 0. -1.
         23    2    1    2    0    0  0.00000000000E+00 -0.17763568394E-14  0.00000000000E+00  0.91188000000E+02  0.91188000000E+02 0.  0.
    9900012    2    3    3    0    0  0.28552995571E+02  0.72015490457E+01 -0.22105299428E+02  0.54367080300E+02  0.39999991160E+02 0.  0.
        -12    1    3    3    0    0 -0.28552995571E+02 -0.72015490457E+01  0.22105299428E+02  0.36820919700E+02  0.00000000000E+00 0.  1.
         11    1    4    4    0    0 -0.48327041672E+00 -0.12707243781E+02 -0.75472665090E+01  0.14787455049E+02  0.51100000000E-03 0. -1.
        -11    1    4    4    0    0  0.15090591845E+02  0.11353074489E+02 -0.20703529896E+01  0.18997489949E+02  0.51100000000E-03 0.  1.
         12    1    4    4    0    0  0.13945674143E+02  0.85557183376E+01 -0.12487679929E+02  0.20582135302E+02  0.00000000000E+00 0. -1.
</event>
<event>
 8    1  0.2534787E-006  0.9118800E+02  0.7816164E-02  0.1184000E+00
        -11   -1    0    0    0    0  0.00000000000E+00  0.00000000000E+00  0.45593999997E+02  0.45594000000E+02  0.51100000000E-03 0. -1.
         11   -1    0    0    0    0 -0.00000000000E+00 -0.00000000000E+00 -0.45593999997E+02  0.45594000000E+02  0.51100000000E-03 0.  1.
         23    2    1    2    0    0  0.17763568394E-14  0.17763568394E-14  0.00000000000E+00  0.91188000000E+02  0.91188000000E+02 0.  0.
    9900012    2    3    3    0    0  0.12386753729E+02 -0.69387813997E+01  0.33973538157E+02  0.54367086783E+02  0.40000005939E+02 0.  0.
        -12    1    3    3    0    0 -0.12386753729E+02  0.69387813997E+01 -0.33973538157E+02  0.36820913217E+02  0.00000000000E+00 0.  1.
         11    1    4    4    0    0  0.52461157962E+01  0.32009164023E+01  0.17893244790E+02  0.18919191477E+02  0.51100000000E-03 0. -1.
        -11    1    4    4    0    0  0.51676923666E+01 -0.61765352875E+01 -0.77698161381E+01  0.11190383176E+02  0.51100000000E-03 0.  1.
         12    1    4    4    0    0  0.19729455659E+01 -0.39631625145E+01  0.23850109505E+02  0.24257512130E+02  0.00000000000E+00 0. -1.
</event>
<event>
 8    1  0.2534787E-006  0.9118800E+02  0.7816164E-02  0.1184000E+00
        -11   -1    0    0    0    0  0.00000000000E+00  0.00000000000E+00  0.45593999997E+02  0.45594000000E+02  0.51100000000E-03 0. -1.
         11   -1    0    0    0    0 -0.00000000000E+00 -0.00000000000E+00 -0.45593999997E+02  0.45594000000E+02  0.51100000000E-03 0.  1.
         23    2    1    2    0    0  0.00000000000E+00  0.35527136788E-14 -0.66613381478E-15  0.91188000000E+02  0.91188000000E+02 0.  0.
    9900012    2    3    3    0    0  0.28290104496E+02  0.23521928512E+02 -0.14734669589E+01  0.54367051639E+02  0.39999925821E+02 0.  0.
        -12    1    3    3    0    0 -0.28290104496E+02 -0.23521928512E+02  0.14734669589E+01  0.36820948361E+02  0.00000000000E+00 0.  1.
         11    1    4    4    0    0 -0.22850727671E+01 -0.42512289438E+01 -0.26366467988E+01  0.54996737800E+01  0.51100000000E-03 0.  1.
        -11    1    4    4    0    0  0.23898908560E+02  0.47827220103E+01  0.42112698718E+01  0.24733925171E+02  0.51100000000E-03 0. -1.
        -12    1    4    4    0    0  0.66762687028E+01  0.22990435446E+02 -0.30480900319E+01  0.24133452688E+02  0.00000000000E+00 0.  1.
</event>
<event>
 8    1  0.2534787E-006  0.9118800E+02  0.7816164E-02  0.1184000E+00
        -11   -1    0    0    0    0  0.00000000000E+00  0.00000000000E+00  0.45593999997E+02  0.45594000000E+02  0.51100000000E-03 0.  1.
         11   -1    0    0    0    0 -0.00000000000E+00 -0.00000000000E+00 -0.45593999997E+02  0.45594000000E+02  0.51100000000E-03 0. -1.
         23    2    1    2    0    0  0.88817841970E-15 -0.71054273576E-14  0.00000000000E+00  0.91188000000E+02  0.91188000000E+02 0.  0.
    9900012    2    3    3    0    0  0.31220081292E+01 -0.34688850301E+02  0.11946407991E+02  0.54367082930E+02  0.39999997156E+02 0.  0.
        -12    1    3    3    0    0 -0.31220081292E+01  0.34688850301E+02 -0.11946407991E+02  0.36820917070E+02  0.00000000000E+00 0.  1.
         11    1    4    4    0    0  0.69132277469E+01 -0.17971524930E+02  0.51198968430E+01  0.19924401375E+02  0.51100000000E-03 0. -1.
        -11    1    4    4    0    0  0.12830139025E+01 -0.71823809784E+01 -0.11236029719E+02  0.13397055098E+02  0.51100000000E-03 0.  1.
        -12    1    4    4    0    0 -0.50742335203E+01 -0.95349443923E+01  0.18062540868E+02  0.21045626457E+02  0.00000000000E+00 0.  1.
</event>
<event>
 8    1  0.2534787E-006  0.9118800E+02  0.7816164E-02  0.1184000E+00
        -11   -1    0    0    0    0  0.00000000000E+00  0.00000000000E+00  0.45593999997E+02  0.45594000000E+02  0.51100000000E-03 0.  1.
         11   -1    0    0    0    0 -0.00000000000E+00 -0.00000000000E+00 -0.45593999997E+02  0.45594000000E+02  0.51100000000E-03 0. -1.
         23    2    1    2    0    0 -0.17763568394E-14 -0.17763568394E-14  0.00000000000E+00  0.91188000000E+02  0.91188000000E+02 0.  0.
    9900012    2    3    3    0    0  0.45808012081E+01  0.12641894885E+02  0.34277961626E+02  0.54367083401E+02  0.39999998228E+02 0.  0.
         12    1    3    3    0    0 -0.45808012081E+01 -0.12641894885E+02 -0.34277961626E+02  0.36820916599E+02  0.00000000000E+00 0. -1.
         11    1    4    4    0    0  0.13865454965E+02 -0.94713455197E+01  0.14972437689E+02  0.22497358022E+02  0.51100000000E-03 0. -1.
        -11    1    4    4    0    0 -0.82474031977E+00  0.41543860781E+01  0.82687516801E-01  0.42362669613E+01  0.51100000000E-03 0.  1.
         12    1    4    4    0    0 -0.84599134372E+01  0.17958854326E+02  0.19222836420E+02  0.27633458417E+02  0.00000000000E+00 0. -1.
</event>
<event>
 8    1  0.2534787E-006  0.9118800E+02  0.7816164E-02  0.1184000E+00
        -11   -1    0    0    0    0  0.00000000000E+00  0.00000000000E+00  0.45593999997E+02  0.45594000000E+02  0.51100000000E-03 0. -1.
         11   -1    0    0    0    0 -0.00000000000E+00 -0.00000000000E+00 -0.45593999997E+02  0.45594000000E+02  0.51100000000E-03 0.  1.
         23    2    1    2    0    0  0.00000000000E+00  0.00000000000E+00  0.35527136788E-14  0.91188000000E+02  0.91188000000E+02 0.  0.
    9900012    2    3    3    0    0 -0.13991824741E+02 -0.28315784234E+02  0.18926835214E+02  0.54367083559E+02  0.39999998589E+02 0.  0.
        -12    1    3    3    0    0  0.13991824741E+02  0.28315784234E+02 -0.18926835214E+02  0.36820916441E+02  0.00000000000E+00 0.  1.
         11    1    4    4    0    0 -0.38610220758E+01 -0.28596958113E+02  0.19846735422E+02  0.35022655695E+02  0.51100000000E-03 0. -1.
        -11    1    4    4    0    0 -0.57889384220E+01  0.18047850296E+01  0.75631114953E+01  0.96937976463E+01  0.51100000000E-03 0.  1.
        -12    1    4    4    0    0 -0.43418642428E+01 -0.15236111501E+01 -0.84830117024E+01  0.96506302169E+01  0.00000000000E+00 0.  1.
</event>
<event>
 8    1  0.2534787E-006  0.9118800E+02  0.7816164E-02  0.1184000E+00
        -11   -1    0    0    0    0  0.00000000000E+00  0.00000000000E+00  0.45593999997E+02  0.45594000000E+02  0.51100000000E-03 0. -1.
         11   -1    0    0    0    0 -0.00000000000E+00 -0.00000000000E+00 -0.45593999997E+02  0.45594000000E+02  0.51100000000E-03 0.  1.
         23    2    1    2    0    0 -0.17763568394E-14  0.00000000000E+00  0.00000000000E+00  0.91188000000E+02  0.91188000000E+02 0.  0.
    9900012    2    3    3    0    0 -0.11600016023E+02  0.17555301307E+02 -0.30216481826E+02  0.54367017535E+02  0.39999848075E+02 0.  0.
         12    1    3    3    0    0  0.11600016023E+02 -0.17555301307E+02  0.30216481826E+02  0.36820982465E+02  0.00000000000E+00 0. -1.
         11    1    4    4    0    0  0.59041614443E+00 -0.74983066813E+01  0.41335121560E+01  0.85824889930E+01  0.51100000000E-03 0. -1.
        -11    1    4    4    0    0 -0.12607513619E+02  0.25349544481E+02 -0.34961553448E+02  0.44987320712E+02  0.51100000000E-03 0.  1.
        -12    1    4    4    0    0  0.41708145192E+00 -0.29593649284E+00  0.61155946579E+00  0.79720783082E+00  0.00000000000E+00 0.  1.
</event>
<event>
 8    1  0.2534787E-006  0.9118800E+02  0.7816164E-02  0.1184000E+00
        -11   -1    0    0    0    0  0.00000000000E+00  0.00000000000E+00  0.45593999997E+02  0.45594000000E+02  0.51100000000E-03 0. -1.
         11   -1    0    0    0    0 -0.00000000000E+00 -0.00000000000E+00 -0.45593999997E+02  0.45594000000E+02  0.51100000000E-03 0.  1.
         23    2    1    2    0    0 -0.35527136788E-14  0.71054273576E-14  0.00000000000E+00  0.91188000000E+02  0.91188000000E+02 0.  0.
    9900012    2    3    3    0    0  0.12613514437E+02 -0.32013052053E+02  0.13108960742E+02  0.54367067096E+02  0.39999961058E+02 0.  0.
        -12    1    3    3    0    0 -0.12613514437E+02  0.32013052053E+02 -0.13108960742E+02  0.36820932904E+02  0.00000000000E+00 0.  1.
         11    1    4    4    0    0 -0.64334391915E+01 -0.59359022315E+01  0.82841427855E+01  0.12052016308E+02  0.51100000000E-03 0. -1.
        -11    1    4    4    0    0  0.13488711627E+01 -0.47167927096E+01 -0.97977383140E+01  0.10957338327E+02  0.51100000000E-03 0.  1.
         12    1    4    4    0    0  0.17698082466E+02 -0.21360357112E+02  0.14622556270E+02  0.31357712461E+02  0.00000000000E+00 0. -1.
</event>
<event>
 8    1  0.2534787E-006  0.9118800E+02  0.7816164E-02  0.1184000E+00
        -11   -1    0    0    0    0  0.00000000000E+00  0.00000000000E+00  0.45593999997E+02  0.45594000000E+02  0.51100000000E-03 0. -1.
         11   -1    0    0    0    0 -0.00000000000E+00 -0.00000000000E+00 -0.45593999997E+02  0.45594000000E+02  0.51100000000E-03 0.  1.
         23    2    1    2    0    0  0.00000000000E+00 -0.35527136788E-14  0.00000000000E+00  0.91188000000E+02  0.91188000000E+02 0.  0.
    9900012    2    3    3    0    0 -0.13459349199E+02 -0.12023483499E+02  0.32094547194E+02  0.54367106530E+02  0.40000050956E+02 0.  0.
        -12    1    3    3    0    0  0.13459349199E+02  0.12023483499E+02 -0.32094547194E+02  0.36820893470E+02  0.00000000000E+00 0.  1.
         11    1    4    4    0    0 -0.24487449425E+02 -0.12228776189E+02  0.32712865043E+02  0.42653366644E+02  0.51100000000E-03 0. -1.
        -11    1    4    4    0    0  0.22554944582E+01  0.11249331235E+01 -0.13563516100E+01  0.28622403349E+01  0.51100000000E-03 0.  1.
        -12    1    4    4    0    0  0.87726057675E+01 -0.91964043310E+00  0.73803376127E+00  0.88514995515E+01  0.00000000000E+00 0.  1.
</event>
<event>
 8    1  0.2534787E-006  0.9118800E+02  0.7816164E-02  0.1184000E+00
        -11   -1    0    0    0    0  0.00000000000E+00  0.00000000000E+00  0.45593999997E+02  0.45594000000E+02  0.51100000000E-03 0.  1.
         11   -1    0    0    0    0 -0.00000000000E+00 -0.00000000000E+00 -0.45593999997E+02  0.45594000000E+02  0.51100000000E-03 0. -1.
         23    2    1    2    0    0 -0.17763568394E-14  0.00000000000E+00 -0.88817841970E-15  0.91188000000E+02  0.91188000000E+02 0.  0.
    9900012    2    3    3    0    0 -0.65723022211E+01  0.36013029782E+02 -0.39556557925E+01  0.54367072753E+02  0.39999973955E+02 0.  0.
        -12    1    3    3    0    0  0.65723022211E+01 -0.36013029782E+02  0.39556557925E+01  0.36820927247E+02  0.00000000000E+00 0.  1.
         11    1    4    4    0    0 -0.14515136311E+01  0.24091355740E+02 -0.15269543820E+02  0.28559749333E+02  0.51100000000E-03 0. -1.
        -11    1    4    4    0    0  0.39940299798E+01  0.82513185051E+00 -0.33539136966E+01  0.52803272054E+01  0.51100000000E-03 0.  1.
        -12    1    4    4    0    0 -0.91148185698E+01  0.11096542192E+02  0.14667801725E+02  0.20526996215E+02  0.00000000000E+00 0.  1.
</event>
<event>
 8    1  0.2534787E-006  0.9118800E+02  0.7816164E-02  0.1184000E+00
        -11   -1    0    0    0    0  0.00000000000E+00  0.00000000000E+00  0.45593999997E+02  0.45594000000E+02  0.51100000000E-03 0. -1.
         11   -1    0    0    0    0 -0.00000000000E+00 -0.00000000000E+00 -0.45593999997E+02  0.45594000000E+02  0.51100000000E-03 0.  1.
         23    2    1    2    0    0 -0.88817841970E-15  0.35527136788E-14  0.35527136788E-14  0.91188000000E+02  0.91188000000E+02 0.  0.
    9900012    2    3    3    0    0 -0.64402320545E+01 -0.30964542308E+02 -0.18854719392E+02  0.54367083219E+02  0.39999997813E+02 0.  0.
        -12    1    3    3    0    0  0.64402320545E+01  0.30964542308E+02  0.18854719392E+02  0.36820916781E+02  0.00000000000E+00 0.  1.
         11    1    4    4    0    0 -0.11077435640E+02  0.35691765556E+01 -0.59827399780E+01  0.13085938237E+02  0.51100000000E-03 0. -1.
        -11    1    4    4    0    0 -0.14963639888E+01  0.58049614876E+00 -0.43415999224E+01  0.46287764164E+01  0.51100000000E-03 0.  1.
         12    1    4    4    0    0  0.61335675744E+01 -0.35114215013E+02 -0.85303794916E+01  0.36652368565E+02  0.00000000000E+00 0. -1.
</event>
<event>
 8    1  0.2534787E-006  0.9118800E+02  0.7816164E-02  0.1184000E+00
        -11   -1    0    0    0    0  0.00000000000E+00  0.00000000000E+00  0.45593999997E+02  0.45594000000E+02  0.51100000000E-03 0.  1.
         11   -1    0    0    0    0 -0.00000000000E+00 -0.00000000000E+00 -0.45593999997E+02  0.45594000000E+02  0.51100000000E-03 0. -1.
         23    2    1    2    0    0  0.00000000000E+00  0.00000000000E+00  0.00000000000E+00  0.91188000000E+02  0.91188000000E+02 0.  0.
    9900012    2    3    3    0    0 -0.17848964183E+02 -0.19281136108E+02 -0.25795946210E+02  0.54367101411E+02  0.40000039286E+02 0.  0.
        -12    1    3    3    0    0  0.17848964183E+02  0.19281136108E+02  0.25795946210E+02  0.36820898589E+02  0.00000000000E+00 0.  1.
         11    1    4    4    0    0 -0.57597996530E+01 -0.14378757827E+02 -0.11945872317E+02  0.19560875092E+02  0.51100000000E-03 0. -1.
        -11    1    4    4    0    0 -0.13154569456E+02  0.60748253033E+01  0.28752001628E+01  0.14772033586E+02  0.51100000000E-03 0.  1.
         12    1    4    4    0    0  0.10654049259E+01 -0.10977203585E+02 -0.16725274056E+02  0.20034192733E+02  0.00000000000E+00 0. -1.
</event>
<event>
 8    1  0.2534787E-006  0.9118800E+02  0.7816164E-02  0.1184000E+00
        -11   -1    0    0    0    0  0.00000000000E+00  0.00000000000E+00  0.45593999997E+02  0.45594000000E+02  0.51100000000E-03 0.  1.
         11   -1    0    0    0    0 -0.00000000000E+00 -0.00000000000E+00 -0.45593999997E+02  0.45594000000E+02  0.51100000000E-03 0. -1.
         23    2    1    2    0    0  0.00000000000E+00  0.00000000000E+00  0.35527136788E-14  0.91188000000E+02  0.91188000000E+02 0.  0.
    9900012    2    3    3    0    0 -0.29635715256E+01  0.23394922213E+02 -0.28278521124E+02  0.54367083410E+02  0.39999998251E+02 0.  0.
        -12    1    3    3    0    0  0.29635715256E+01 -0.23394922213E+02  0.28278521124E+02  0.36820916590E+02  0.00000000000E+00 0.  1.
         11    1    4    4    0    0  0.82252730661E+01  0.22281391079E+02 -0.28294786819E+02  0.36941987857E+02  0.51100000000E-03 0. -1.
        -11    1    4    4    0    0 -0.43067758686E+01 -0.93643680119E+00  0.64309576812E+01  0.77963099748E+01  0.51100000000E-03 0.  1.
        -12    1    4    4    0    0 -0.68820687231E+01  0.20499679351E+01 -0.64146919854E+01  0.96287855782E+01  0.00000000000E+00 0.  1.
</event>
<event>
 8    1  0.2534787E-006  0.9118800E+02  0.7816164E-02  0.1184000E+00
        -11   -1    0    0    0    0  0.00000000000E+00  0.00000000000E+00  0.45593999997E+02  0.45594000000E+02  0.51100000000E-03 0. -1.
         11   -1    0    0    0    0 -0.00000000000E+00 -0.00000000000E+00 -0.45593999997E+02  0.45594000000E+02  0.51100000000E-03 0.  1.
         23    2    1    2    0    0  0.00000000000E+00  0.00000000000E+00 -0.35527136788E-14  0.91188000000E+02  0.91188000000E+02 0.  0.
    9900012    2    3    3    0    0 -0.29808420923E+02 -0.12198697135E+02  0.17844547351E+02  0.54367108649E+02  0.40000055788E+02 0.  0.
        -12    1    3    3    0    0  0.29808420923E+02  0.12198697135E+02 -0.17844547351E+02  0.36820891351E+02  0.00000000000E+00 0.  1.
         11    1    4    4    0    0 -0.22219072321E+02 -0.46028273951E+01  0.27321881984E+01  0.22854716087E+02  0.51100000000E-03 0. -1.
        -11    1    4    4    0    0 -0.35081184907E+01 -0.11764670264E+02 -0.28697998155E+01  0.12607541910E+02  0.51100000000E-03 0.  1.
        -12    1    4    4    0    0 -0.40812301113E+01  0.41688005241E+01  0.17982158968E+02  0.18904850652E+02  0.00000000000E+00 0.  1.
</event>
<event>
 8    1  0.2534787E-006  0.9118800E+02  0.7816164E-02  0.1184000E+00
        -11   -1    0    0    0    0  0.00000000000E+00  0.00000000000E+00  0.45593999997E+02  0.45594000000E+02  0.51100000000E-03 0.  1.
         11   -1    0    0    0    0 -0.00000000000E+00 -0.00000000000E+00 -0.45593999997E+02  0.45594000000E+02  0.51100000000E-03 0. -1.
         23    2    1    2    0    0  0.00000000000E+00  0.00000000000E+00 -0.44408920985E-15  0.91188000000E+02  0.91188000000E+02 0.  0.
    9900012    2    3    3    0    0 -0.10352205178E+02 -0.35243639212E+02 -0.25490528007E+01  0.54367083022E+02  0.39999997365E+02 0.  0.
         12    1    3    3    0    0  0.10352205178E+02  0.35243639212E+02  0.25490528007E+01  0.36820916978E+02  0.00000000000E+00 0. -1.
         11    1    4    4    0    0 -0.12105983068E+02 -0.17490217862E+02 -0.11615103517E+02  0.24235782985E+02  0.51100000000E-03 0. -1.
        -11    1    4    4    0    0  0.87649725845E+01 -0.15464150860E+02 -0.82334523550E+00  0.17794454301E+02  0.51100000000E-03 0.  1.
        -12    1    4    4    0    0 -0.70111946946E+01 -0.22892704898E+01  0.98893959521E+01  0.12336845736E+02  0.00000000000E+00 0.  1.
</event>
<event>
 8    1  0.2534787E-006  0.9118800E+02  0.7816164E-02  0.1184000E+00
        -11   -1    0    0    0    0  0.00000000000E+00  0.00000000000E+00  0.45593999997E+02  0.45594000000E+02  0.51100000000E-03 0.  1.
         11   -1    0    0    0    0 -0.00000000000E+00 -0.00000000000E+00 -0.45593999997E+02  0.45594000000E+02  0.51100000000E-03 0. -1.
         23    2    1    2    0    0  0.71054273576E-14  0.00000000000E+00  0.00000000000E+00  0.91188000000E+02  0.91188000000E+02 0.  0.
    9900012    2    3    3    0    0 -0.33072828979E+02  0.15888850464E+02 -0.30839057513E+01  0.54367108370E+02  0.40000055151E+02 0.  0.
         12    1    3    3    0    0  0.33072828979E+02 -0.15888850464E+02  0.30839057513E+01  0.36820891630E+02  0.00000000000E+00 0. -1.
         11    1    4    4    0    0 -0.35702362702E+01  0.28535823237E+01 -0.96727348015E+01  0.10698192273E+02  0.51100000000E-03 0. -1.
        -11    1    4    4    0    0 -0.11016767384E+02  0.19368284452E+02  0.88963550381E+01  0.23992597597E+02  0.51100000000E-03 0.  1.
        -12    1    4    4    0    0 -0.18485825325E+02 -0.63330163123E+01 -0.23075259879E+01  0.19676318501E+02  0.00000000000E+00 0.  1.
</event>
<event>
 8    1  0.2534787E-006  0.9118800E+02  0.7816164E-02  0.1184000E+00
        -11   -1    0    0    0    0  0.00000000000E+00  0.00000000000E+00  0.45593999997E+02  0.45594000000E+02  0.51100000000E-03 0.  1.
         11   -1    0    0    0    0 -0.00000000000E+00 -0.00000000000E+00 -0.45593999997E+02  0.45594000000E+02  0.51100000000E-03 0. -1.
         23    2    1    2    0    0 -0.44408920985E-15 -0.71054273576E-14 -0.17763568394E-14  0.91188000000E+02  0.91188000000E+02 0.  0.
    9900012    2    3    3    0    0 -0.12219582361E+01 -0.35030824031E+02 -0.11275115225E+02  0.54367081521E+02  0.39999993945E+02 0.  0.
         12    1    3    3    0    0  0.12219582361E+01  0.35030824031E+02  0.11275115225E+02  0.36820918479E+02  0.00000000000E+00 0. -1.
         11    1    4    4    0    0  0.54729795776E+01  0.22448465097E+01  0.17589804319E+01  0.61714547498E+01  0.51100000000E-03 0. -1.
        -11    1    4    4    0    0  0.44115786020E+01 -0.31922636846E+02 -0.15277491787E+02  0.35663966753E+02  0.51100000000E-03 0.  1.
         12    1    4    4    0    0 -0.11106516416E+02 -0.53530336950E+01  0.22433961300E+01  0.12531660019E+02  0.00000000000E+00 0. -1.
</event>
<event>
 8    1  0.2534787E-006  0.9118800E+02  0.7816164E-02  0.1184000E+00
        -11   -1    0    0    0    0  0.00000000000E+00  0.00000000000E+00  0.45593999997E+02  0.45594000000E+02  0.51100000000E-03 0.  1.
         11   -1    0    0    0    0 -0.00000000000E+00 -0.00000000000E+00 -0.45593999997E+02  0.45594000000E+02  0.51100000000E-03 0. -1.
         23    2    1    2    0    0 -0.44408920985E-15  0.00000000000E+00  0.00000000000E+00  0.91188000000E+02  0.91188000000E+02 0.  0.
    9900012    2    3    3    0    0 -0.30929227257E+01  0.34111832121E+02  0.13512589684E+02  0.54367172448E+02  0.40000201230E+02 0.  0.
         12    1    3    3    0    0  0.30929227257E+01 -0.34111832121E+02 -0.13512589684E+02  0.36820827552E+02  0.00000000000E+00 0. -1.
         11    1    4    4    0    0  0.38591587566E+01  0.27605862835E+02  0.82925455326E+00  0.27886635375E+02  0.51100000000E-03 0. -1.
        -11    1    4    4    0    0 -0.33956510068E+01  0.11517448315E+02  0.15593643049E+02  0.19681050918E+02  0.51100000000E-03 0.  1.
         12    1    4    4    0    0 -0.35564304755E+01 -0.50114790291E+01 -0.29103079183E+01  0.67994861546E+01  0.00000000000E+00 0. -1.
</event>
<event>
 8    1  0.2534787E-006  0.9118800E+02  0.7816164E-02  0.1184000E+00
        -11   -1    0    0    0    0  0.00000000000E+00  0.00000000000E+00  0.45593999997E+02  0.45594000000E+02  0.51100000000E-03 0. -1.
         11   -1    0    0    0    0 -0.00000000000E+00 -0.00000000000E+00 -0.45593999997E+02  0.45594000000E+02  0.51100000000E-03 0.  1.
         23    2    1    2    0    0 -0.88817841970E-15  0.17763568394E-14 -0.71054273576E-14  0.91188000000E+02  0.91188000000E+02 0.  0.
    9900012    2    3    3    0    0 -0.66867135001E+01  0.85170763452E+01 -0.35192681247E+02  0.54367115434E+02  0.40000071254E+02 0.  0.
         12    1    3    3    0    0  0.66867135001E+01 -0.85170763452E+01  0.35192681247E+02  0.36820884566E+02  0.00000000000E+00 0. -1.
         11    1    4    4    0    0  0.40383330529E+01  0.27275303423E+01 -0.31175988035E+02  0.31554552537E+02  0.51100000000E-03 0.  1.
        -11    1    4    4    0    0  0.11143093837E+01  0.40582169073E+01 -0.89345312161E+01  0.98760649138E+01  0.51100000000E-03 0. -1.
         12    1    4    4    0    0 -0.11839355937E+02  0.17313290956E+01  0.49178380039E+01  0.12936497983E+02  0.00000000000E+00 0. -1.
</event>
<event>
 8    1  0.2534787E-006  0.9118800E+02  0.7816164E-02  0.1184000E+00
        -11   -1    0    0    0    0  0.00000000000E+00  0.00000000000E+00  0.45593999997E+02  0.45594000000E+02  0.51100000000E-03 0.  1.
         11   -1    0    0    0    0 -0.00000000000E+00 -0.00000000000E+00 -0.45593999997E+02  0.45594000000E+02  0.51100000000E-03 0. -1.
         23    2    1    2    0    0  0.00000000000E+00  0.35527136788E-14 -0.35527136788E-14  0.91188000000E+02  0.91188000000E+02 0.  0.
    9900012    2    3    3    0    0 -0.12393762261E+02 -0.29901386782E+02  0.17552133833E+02  0.54367140741E+02  0.40000128948E+02 0.  0.
         12    1    3    3    0    0  0.12393762261E+02  0.29901386782E+02 -0.17552133833E+02  0.36820859259E+02  0.00000000000E+00 0. -1.
         11    1    4    4    0    0  0.26140912273E+00 -0.12599084786E+02  0.65258380996E+01  0.14191259117E+02  0.51100000000E-03 0. -1.
        -11    1    4    4    0    0 -0.90404339250E+01 -0.22941113404E+02  0.17982847385E+02  0.30518960175E+02  0.51100000000E-03 0.  1.
         12    1    4    4    0    0 -0.36147374590E+01  0.56388114087E+01 -0.69565516520E+01  0.96569214498E+01  0.00000000000E+00 0. -1.
</event>
<event>
 8    1  0.2534787E-006  0.9118800E+02  0.7816164E-02  0.1184000E+00
        -11   -1    0    0    0    0  0.00000000000E+00  0.00000000000E+00  0.45593999997E+02  0.45594000000E+02  0.51100000000E-03 0. -1.
         11   -1    0    0    0    0 -0.00000000000E+00 -0.00000000000E+00 -0.45593999997E+02  0.45594000000E+02  0.51100000000E-03 0.  1.
         23    2    1    2    0    0  0.00000000000E+00  0.17763568394E-14  0.00000000000E+00  0.91188000000E+02  0.91188000000E+02 0.  0.
    9900012    2    3    3    0    0  0.96086522638E+01  0.35727876810E+01 -0.35365078988E+02  0.54367084450E+02  0.40000000621E+02 0.  0.
         12    1    3    3    0    0 -0.96086522638E+01 -0.35727876810E+01  0.35365078988E+02  0.36820915550E+02  0.00000000000E+00 0. -1.
         11    1    4    4    0    0 -0.18991278934E+01 -0.67151945569E+01 -0.19158504075E+02  0.20389919160E+02  0.51100000000E-03 0. -1.
        -11    1    4    4    0    0  0.14756742171E+02  0.91184027573E+01 -0.21519639672E+02  0.27640578869E+02  0.51100000000E-03 0.  1.
        -12    1    4    4    0    0 -0.32489620139E+01  0.11695794807E+01  0.53130647596E+01  0.63365864209E+01  0.00000000000E+00 0.  1.
</event>
<event>
 8    1  0.2534787E-006  0.9118800E+02  0.7816164E-02  0.1184000E+00
        -11   -1    0    0    0    0  0.00000000000E+00  0.00000000000E+00  0.45593999997E+02  0.45594000000E+02  0.51100000000E-03 0. -1.
         11   -1    0    0    0    0 -0.00000000000E+00 -0.00000000000E+00 -0.45593999997E+02  0.45594000000E+02  0.51100000000E-03 0.  1.
         23    2    1    2    0    0  0.17763568394E-14  0.88817841970E-15  0.00000000000E+00  0.91188000000E+02  0.91188000000E+02 0.  0.
    9900012    2    3    3    0    0  0.11293287647E+02  0.76631148259E+01 -0.34198229195E+02  0.54367074498E+02  0.39999977933E+02 0.  0.
         12    1    3    3    0    0 -0.11293287647E+02 -0.76631148259E+01  0.34198229195E+02  0.36820925502E+02  0.00000000000E+00 0. -1.
         11    1    4    4    0    0 -0.10750603464E+01  0.27881066453E+01 -0.79327909809E+00  0.30916962015E+01  0.51100000000E-03 0. -1.
        -11    1    4    4    0    0  0.17420541313E+02  0.15566331650E+02 -0.10742884857E+02  0.25713722329E+02  0.51100000000E-03 0.  1.
         12    1    4    4    0    0 -0.50521933197E+01 -0.10691323469E+02 -0.22662065240E+02  0.25561655968E+02  0.00000000000E+00 0. -1.
</event>
<event>
 8    1  0.2534787E-006  0.9118800E+02  0.7816164E-02  0.1184000E+00
        -11   -1    0    0    0    0  0.00000000000E+00  0.00000000000E+00  0.45593999997E+02  0.45594000000E+02  0.51100000000E-03 0. -1.
         11   -1    0    0    0    0 -0.00000000000E+00 -0.00000000000E+00 -0.45593999997E+02  0.45594000000E+02  0.51100000000E-03 0.  1.
         23    2    1    2    0    0 -0.35527136788E-14  0.35527136788E-14 -0.35527136788E-14  0.91188000000E+02  0.91188000000E+02 0.  0.
    9900012    2    3    3    0    0  0.22833037362E+02  0.23958042173E+02 -0.16138278255E+02  0.54367090112E+02  0.40000013529E+02 0.  0.
        -12    1    3    3    0    0 -0.22833037362E+02 -0.23958042173E+02  0.16138278255E+02  0.36820909888E+02  0.00000000000E+00 0.  1.
         11    1    4    4    0    0  0.21415014122E+02  0.10894149271E+02  0.41263195253E+01  0.24378511670E+02  0.51100000000E-03 0. -1.
        -11    1    4    4    0    0  0.74172230417E+01  0.11757445806E+02 -0.19281848414E+02  0.23770620691E+02  0.51100000000E-03 0.  1.
        -12    1    4    4    0    0 -0.59991998016E+01  0.13064470965E+01 -0.98274936612E+00  0.62179577509E+01  0.00000000000E+00 0.  1.
</event>
<event>
 8    1  0.2534787E-006  0.9118800E+02  0.7816164E-02  0.1184000E+00
        -11   -1    0    0    0    0  0.00000000000E+00  0.00000000000E+00  0.45593999997E+02  0.45594000000E+02  0.51100000000E-03 0.  1.
         11   -1    0    0    0    0 -0.00000000000E+00 -0.00000000000E+00 -0.45593999997E+02  0.45594000000E+02  0.51100000000E-03 0. -1.
         23    2    1    2    0    0 -0.17763568394E-14  0.00000000000E+00  0.44408920985E-15  0.91188000000E+02  0.91188000000E+02 0.  0.
    9900012    2    3    3    0    0 -0.14389488617E+02 -0.33763653692E+02 -0.29561289496E+01  0.54367076714E+02  0.39999982985E+02 0.  0.
        -12    1    3    3    0    0  0.14389488617E+02  0.33763653692E+02  0.29561289496E+01  0.36820923286E+02  0.00000000000E+00 0.  1.
         11    1    4    4    0    0  0.48602434308E+01 -0.95737041404E+01 -0.90048657359E+00  0.10774444464E+02  0.51100000000E-03 0. -1.
        -11    1    4    4    0    0  0.45025067929E+01  0.84622100613E+00  0.65802107623E+01  0.80179692784E+01  0.51100000000E-03 0.  1.
         12    1    4    4    0    0 -0.23752238840E+02 -0.25036170558E+02 -0.86358531383E+01  0.35574662972E+02  0.00000000000E+00 0. -1.
</event>
<event>
 8    1  0.2534787E-006  0.9118800E+02  0.7816164E-02  0.1184000E+00
        -11   -1    0    0    0    0  0.00000000000E+00  0.00000000000E+00  0.45593999997E+02  0.45594000000E+02  0.51100000000E-03 0.  1.
         11   -1    0    0    0    0 -0.00000000000E+00 -0.00000000000E+00 -0.45593999997E+02  0.45594000000E+02  0.51100000000E-03 0. -1.
         23    2    1    2    0    0  0.88817841970E-15  0.00000000000E+00  0.00000000000E+00  0.91188000000E+02  0.91188000000E+02 0.  0.
    9900012    2    3    3    0    0 -0.23428793198E+01 -0.31673905792E+02  0.18629402782E+02  0.54367081494E+02  0.39999993882E+02 0.  0.
         12    1    3    3    0    0  0.23428793198E+01  0.31673905792E+02 -0.18629402782E+02  0.36820918506E+02  0.00000000000E+00 0. -1.
         11    1    4    4    0    0 -0.13206042340E+02 -0.26611732611E+02  0.94926465840E+01  0.31188045888E+02  0.51100000000E-03 0. -1.
        -11    1    4    4    0    0  0.62805693257E+01  0.88252620420E+00 -0.43871604243E+01  0.77117819216E+01  0.51100000000E-03 0.  1.
         12    1    4    4    0    0  0.45825936944E+01 -0.59446993845E+01  0.13523916622E+02  0.15467253685E+02  0.00000000000E+00 0. -1.
</event>
<event>
 8    1  0.2534787E-006  0.9118800E+02  0.7816164E-02  0.1184000E+00
        -11   -1    0    0    0    0  0.00000000000E+00  0.00000000000E+00  0.45593999997E+02  0.45594000000E+02  0.51100000000E-03 0. -1.
         11   -1    0    0    0    0 -0.00000000000E+00 -0.00000000000E+00 -0.45593999997E+02  0.45594000000E+02  0.51100000000E-03 0.  1.
         23    2    1    2    0    0  0.35527136788E-14 -0.35527136788E-14  0.00000000000E+00  0.91188000000E+02  0.91188000000E+02 0.  0.
    9900012    2    3    3    0    0  0.15921612898E+02  0.26914348630E+02 -0.19439718601E+02  0.54367047015E+02  0.39999915280E+02 0.  0.
        -12    1    3    3    0    0 -0.15921612898E+02 -0.26914348630E+02  0.19439718601E+02  0.36820952985E+02  0.00000000000E+00 0.  1.
         11    1    4    4    0    0  0.17082475747E+02  0.97436299113E+01  0.36569097125E+01  0.20003057027E+02  0.51100000000E-03 0. -1.
        -11    1    4    4    0    0 -0.14219357290E+01  0.43581876765E+00 -0.16189745442E+02  0.16257911826E+02  0.51100000000E-03 0.  1.
        -12    1    4    4    0    0  0.26107288009E+00  0.16734899951E+02 -0.69068828711E+01  0.18106078162E+02  0.00000000000E+00 0.  1.
</event>
<event>
 8    1  0.2534787E-006  0.9118800E+02  0.7816164E-02  0.1184000E+00
        -11   -1    0    0    0    0  0.00000000000E+00  0.00000000000E+00  0.45593999997E+02  0.45594000000E+02  0.51100000000E-03 0.  1.
         11   -1    0    0    0    0 -0.00000000000E+00 -0.00000000000E+00 -0.45593999997E+02  0.45594000000E+02  0.51100000000E-03 0. -1.
         23    2    1    2    0    0  0.00000000000E+00  0.00000000000E+00  0.71054273576E-14  0.91188000000E+02  0.91188000000E+02 0.  0.
    9900012    2    3    3    0    0 -0.21701111621E+02  0.17533835634E+02  0.24029277002E+02  0.54367084872E+02  0.40000001582E+02 0.  0.
         12    1    3    3    0    0  0.21701111621E+02 -0.17533835634E+02 -0.24029277002E+02  0.36820915128E+02  0.00000000000E+00 0. -1.
         11    1    4    4    0    0  0.23326395177E+01 -0.39519585902E+01 -0.24555979860E+01  0.52047233882E+01  0.51100000000E-03 0. -1.
        -11    1    4    4    0    0 -0.12966292174E+02 -0.84929271136E-01 -0.38404649183E+00  0.12972256461E+02  0.51100000000E-03 0.  1.
        -12    1    4    4    0    0 -0.11067458965E+02  0.21570723495E+02  0.26868921480E+02  0.36190105022E+02  0.00000000000E+00 0.  1.
</event>
<event>
 8    1  0.2534787E-006  0.9118800E+02  0.7816164E-02  0.1184000E+00
        -11   -1    0    0    0    0  0.00000000000E+00  0.00000000000E+00  0.45593999997E+02  0.45594000000E+02  0.51100000000E-03 0. -1.
         11   -1    0    0    0    0 -0.00000000000E+00 -0.00000000000E+00 -0.45593999997E+02  0.45594000000E+02  0.51100000000E-03 0.  1.
         23    2    1    2    0    0 -0.17763568394E-14  0.17763568394E-14  0.71054273576E-14  0.91188000000E+02  0.91188000000E+02 0.  0.
    9900012    2    3    3    0    0 -0.11740941173E+02  0.81362499337E+01  0.33937166656E+02  0.54367088235E+02  0.40000009249E+02 0.  0.
        -12    1    3    3    0    0  0.11740941173E+02 -0.81362499337E+01 -0.33937166656E+02  0.36820911765E+02  0.00000000000E+00 0.  1.
         11    1    4    4    0    0  0.53139381689E+01  0.15235133688E+02  0.22712675956E+02  0.27860597386E+02  0.51100000000E-03 0. -1.
        -11    1    4    4    0    0 -0.13832409402E+01  0.56586335365E+00  0.87613162757E+01  0.88878692597E+01  0.51100000000E-03 0.  1.
        -12    1    4    4    0    0 -0.15671638402E+02 -0.76647471084E+01  0.24631744236E+01  0.17618621589E+02  0.00000000000E+00 0.  1.
</event>
<event>
 8    1  0.2534787E-006  0.9118800E+02  0.7816164E-02  0.1184000E+00
        -11   -1    0    0    0    0  0.00000000000E+00  0.00000000000E+00  0.45593999997E+02  0.45594000000E+02  0.51100000000E-03 0.  1.
         11   -1    0    0    0    0 -0.00000000000E+00 -0.00000000000E+00 -0.45593999997E+02  0.45594000000E+02  0.51100000000E-03 0. -1.
         23    2    1    2    0    0 -0.35527136788E-14 -0.66613381478E-15  0.00000000000E+00  0.91188000000E+02  0.91188000000E+02 0.  0.
    9900012    2    3    3    0    0 -0.30663215039E+02  0.17062226548E+01  0.20313547430E+02  0.54367025523E+02  0.39999866284E+02 0.  0.
         12    1    3    3    0    0  0.30663215039E+02 -0.17062226548E+01 -0.20313547430E+02  0.36820974477E+02  0.00000000000E+00 0. -1.
         11    1    4    4    0    0 -0.15941733054E+02  0.17891478753E+02  0.12932701734E+02  0.27230472621E+02  0.51100000000E-03 0. -1.
        -11    1    4    4    0    0 -0.77052974516E+01 -0.96870862157E+01 -0.32899327153E+01  0.12807611241E+02  0.51100000000E-03 0.  1.
        -12    1    4    4    0    0 -0.70161845330E+01 -0.64981698826E+01  0.10670778412E+02  0.14328941661E+02  0.00000000000E+00 0.  1.
</event>
<event>
 8    1  0.2534787E-006  0.9118800E+02  0.7816164E-02  0.1184000E+00
        -11   -1    0    0    0    0  0.00000000000E+00  0.00000000000E+00  0.45593999997E+02  0.45594000000E+02  0.51100000000E-03 0.  1.
         11   -1    0    0    0    0 -0.00000000000E+00 -0.00000000000E+00 -0.45593999997E+02  0.45594000000E+02  0.51100000000E-03 0. -1.
         23    2    1    2    0    0  0.00000000000E+00 -0.17763568394E-14  0.44408920985E-15  0.91188000000E+02  0.91188000000E+02 0.  0.
    9900012    2    3    3    0    0 -0.34154994801E+02 -0.13538099888E+02  0.24365886853E+01  0.54367071402E+02  0.39999970874E+02 0.  0.
         12    1    3    3    0    0  0.34154994801E+02  0.13538099888E+02 -0.24365886853E+01  0.36820928598E+02  0.00000000000E+00 0. -1.
         11    1    4    4    0    0 -0.25944102982E+02 -0.78204851320E+01 -0.23491391900E+01  0.27198803695E+02  0.51100000000E-03 0. -1.
        -11    1    4    4    0    0 -0.87438524378E+01 -0.15012942544E+02  0.22513520989E+01  0.17518903671E+02  0.51100000000E-03 0.  1.
         12    1    4    4    0    0  0.53296061948E+00  0.92953277881E+01  0.25343757764E+01  0.96493640353E+01  0.00000000000E+00 0. -1.
</event>
<event>
 8    1  0.2534787E-006  0.9118800E+02  0.7816164E-02  0.1184000E+00
        -11   -1    0    0    0    0  0.00000000000E+00  0.00000000000E+00  0.45593999997E+02  0.45594000000E+02  0.51100000000E-03 0.  1.
         11   -1    0    0    0    0 -0.00000000000E+00 -0.00000000000E+00 -0.45593999997E+02  0.45594000000E+02  0.51100000000E-03 0. -1.
         23    2    1    2    0    0 -0.35527136788E-14 -0.71054273576E-14 -0.55511151231E-15  0.91188000000E+02  0.91188000000E+02 0.  0.
    9900012    2    3    3    0    0  0.17406061444E+02  0.32434259211E+02 -0.91011514691E+00  0.54367075851E+02  0.39999981018E+02 0.  0.
         12    1    3    3    0    0 -0.17406061444E+02 -0.32434259211E+02  0.91011514691E+00  0.36820924149E+02  0.00000000000E+00 0. -1.
         11    1    4    4    0    0  0.20403132476E+02  0.14484209922E+02 -0.50049372525E+01  0.25517240232E+02  0.51100000000E-03 0. -1.
        -11    1    4    4    0    0  0.80840874236E-01 -0.48192615783E+01 -0.17735032036E+01  0.51358671402E+01  0.51100000000E-03 0.  1.
        -12    1    4    4    0    0 -0.30779119061E+01  0.22769310867E+02  0.58683253092E+01  0.23713968479E+02  0.00000000000E+00 0.  1.
</event>
<event>
 8    1  0.2534787E-006  0.9118800E+02  0.7816164E-02  0.1184000E+00
        -11   -1    0    0    0    0  0.00000000000E+00  0.00000000000E+00  0.45593999997E+02  0.45594000000E+02  0.51100000000E-03 0.  1.
         11   -1    0    0    0    0 -0.00000000000E+00 -0.00000000000E+00 -0.45593999997E+02  0.45594000000E+02  0.51100000000E-03 0. -1.
         23    2    1    2    0    0  0.00000000000E+00  0.00000000000E+00  0.00000000000E+00  0.91188000000E+02  0.91188000000E+02 0.  0.
    9900012    2    3    3    0    0 -0.34281600285E+02 -0.94610144769E+01  0.95415649922E+01  0.54367076932E+02  0.39999983482E+02 0.  0.
         12    1    3    3    0    0  0.34281600285E+02  0.94610144769E+01 -0.95415649922E+01  0.36820923068E+02  0.00000000000E+00 0. -1.
         11    1    4    4    0    0 -0.19125840438E+02  0.83522612472E+01  0.14279448073E+02  0.25287559746E+02  0.51100000000E-03 0. -1.
        -11    1    4    4    0    0 -0.68050196859E+01 -0.12041283625E+02  0.52919586761E+01  0.14808971306E+02  0.51100000000E-03 0.  1.
        -12    1    4    4    0    0 -0.83507401620E+01 -0.57719920993E+01 -0.10029841757E+02  0.14270545880E+02  0.00000000000E+00 0.  1.
</event>
<event>
 8    1  0.2534787E-006  0.9118800E+02  0.7816164E-02  0.1184000E+00
        -11   -1    0    0    0    0  0.00000000000E+00  0.00000000000E+00  0.45593999997E+02  0.45594000000E+02  0.51100000000E-03 0. -1.
         11   -1    0    0    0    0 -0.00000000000E+00 -0.00000000000E+00 -0.45593999997E+02  0.45594000000E+02  0.51100000000E-03 0.  1.
         23    2    1    2    0    0  0.00000000000E+00  0.44408920985E-15  0.00000000000E+00  0.91188000000E+02  0.91188000000E+02 0.  0.
    9900012    2    3    3    0    0  0.45359262722E+01  0.25847033710E+01 -0.36448908907E+02  0.54367105400E+02  0.40000048380E+02 0.  0.
         12    1    3    3    0    0 -0.45359262722E+01 -0.25847033710E+01  0.36448908907E+02  0.36820894600E+02  0.00000000000E+00 0. -1.
         11    1    4    4    0    0 -0.11756125017E+02  0.20050095704E+01 -0.85036624534E+01  0.14647143550E+02  0.51100000000E-03 0. -1.
        -11    1    4    4    0    0  0.11126054925E+02 -0.10910391728E+02 -0.16571012918E+02  0.22746960571E+02  0.51100000000E-03 0.  1.
        -12    1    4    4    0    0  0.51659963636E+01  0.11490085528E+02 -0.11374233536E+02  0.16973001279E+02  0.00000000000E+00 0.  1.
</event>
<event>
 8    1  0.2534787E-006  0.9118800E+02  0.7816164E-02  0.1184000E+00
        -11   -1    0    0    0    0  0.00000000000E+00  0.00000000000E+00  0.45593999997E+02  0.45594000000E+02  0.51100000000E-03 0. -1.
         11   -1    0    0    0    0 -0.00000000000E+00 -0.00000000000E+00 -0.45593999997E+02  0.45594000000E+02  0.51100000000E-03 0.  1.
         23    2    1    2    0    0  0.00000000000E+00 -0.88817841970E-15  0.00000000000E+00  0.91188000000E+02  0.91188000000E+02 0.  0.
    9900012    2    3    3    0    0  0.23790072921E+02 -0.56397947004E+01 -0.27531867045E+02  0.54367101629E+02  0.40000039784E+02 0.  0.
         12    1    3    3    0    0 -0.23790072921E+02  0.56397947004E+01  0.27531867045E+02  0.36820898371E+02  0.00000000000E+00 0. -1.
         11    1    4    4    0    0  0.30722134097E+02  0.46056014506E+01 -0.25650137438E+02  0.40286357977E+02  0.51100000000E-03 0. -1.
        -11    1    4    4    0    0 -0.44681641206E+01 -0.10488407055E+02 -0.21110425561E+01  0.11594294894E+02  0.51100000000E-03 0.  1.
         12    1    4    4    0    0 -0.24638970559E+01  0.24301090356E+00  0.22931294863E+00  0.24864487587E+01  0.00000000000E+00 0. -1.
</event>
<event>
 8    1  0.2534787E-006  0.9118800E+02  0.7816164E-02  0.1184000E+00
        -11   -1    0    0    0    0  0.00000000000E+00  0.00000000000E+00  0.45593999997E+02  0.45594000000E+02  0.51100000000E-03 0. -1.
         11   -1    0    0    0    0 -0.00000000000E+00 -0.00000000000E+00 -0.45593999997E+02  0.45594000000E+02  0.51100000000E-03 0.  1.
         23    2    1    2    0    0 -0.22204460493E-15  0.00000000000E+00  0.00000000000E+00  0.91188000000E+02  0.91188000000E+02 0.  0.
    9900012    2    3    3    0    0  0.14072288548E+01 -0.26470720618E+02 -0.25555876349E+02  0.54367052714E+02  0.39999928272E+02 0.  0.
        -12    1    3    3    0    0 -0.14072288548E+01  0.26470720618E+02  0.25555876349E+02  0.36820947286E+02  0.00000000000E+00 0.  1.
         11    1    4    4    0    0 -0.44003777640E+01 -0.28579293275E+02 -0.22547754739E+02  0.36667977482E+02  0.51100000000E-03 0. -1.
        -11    1    4    4    0    0  0.48653852537E+01  0.54092490736E+01 -0.85212995627E+01  0.11204664016E+02  0.51100000000E-03 0.  1.
         12    1    4    4    0    0  0.94222136515E+00 -0.33006764168E+01  0.55131779528E+01  0.64944112165E+01  0.00000000000E+00 0. -1.
</event>
<event>
 8    1  0.2534787E-006  0.9118800E+02  0.7816164E-02  0.1184000E+00
        -11   -1    0    0    0    0  0.00000000000E+00  0.00000000000E+00  0.45593999997E+02  0.45594000000E+02  0.51100000000E-03 0.  1.
         11   -1    0    0    0    0 -0.00000000000E+00 -0.00000000000E+00 -0.45593999997E+02  0.45594000000E+02  0.51100000000E-03 0. -1.
         23    2    1    2    0    0  0.22204460493E-15  0.00000000000E+00 -0.17763568394E-14  0.91188000000E+02  0.91188000000E+02 0.  0.
    9900012    2    3    3    0    0  0.14288862231E+01  0.33601999289E+02  0.14988002880E+02  0.54367132243E+02  0.40000109574E+02 0.  0.
        -12    1    3    3    0    0 -0.14288862231E+01 -0.33601999289E+02 -0.14988002880E+02  0.36820867757E+02  0.00000000000E+00 0.  1.
         11    1    4    4    0    0  0.32574141353E+01  0.26658611710E+01 -0.16501327122E+01  0.45211172138E+01  0.51100000000E-03 0. -1.
        -11    1    4    4    0    0  0.15923039022E+01  0.38579952278E+02  0.13646400066E+02  0.40953295160E+02  0.51100000000E-03 0.  1.
         12    1    4    4    0    0 -0.34208318143E+01 -0.76438141595E+01  0.29917355260E+01  0.88927198688E+01  0.00000000000E+00 0. -1.
</event>
<event>
 8    1  0.2534787E-006  0.9118800E+02  0.7816164E-02  0.1184000E+00
        -11   -1    0    0    0    0  0.00000000000E+00  0.00000000000E+00  0.45593999997E+02  0.45594000000E+02  0.51100000000E-03 0.  1.
         11   -1    0    0    0    0 -0.00000000000E+00 -0.00000000000E+00 -0.45593999997E+02  0.45594000000E+02  0.51100000000E-03 0. -1.
         23    2    1    2    0    0 -0.35527136788E-14 -0.88817841970E-15  0.00000000000E+00  0.91188000000E+02  0.91188000000E+02 0.  0.
    9900012    2    3    3    0    0  0.24392986254E+02  0.77308580475E+01 -0.26476291172E+02  0.54367110023E+02  0.40000058918E+02 0.  0.
        -12    1    3    3    0    0 -0.24392986254E+02 -0.77308580475E+01  0.26476291172E+02  0.36820889977E+02  0.00000000000E+00 0.  1.
         11    1    4    4    0    0  0.65559675229E+01 -0.15350235483E+02 -0.41809372014E+01  0.17207285541E+02  0.51100000000E-03 0. -1.
        -11    1    4    4    0    0  0.15191599036E+02  0.20065131594E+02 -0.16436731700E+02  0.30059280370E+02  0.51100000000E-03 0.  1.
         12    1    4    4    0    0  0.26454196945E+01  0.30159619365E+01 -0.58586222709E+01  0.71005441112E+01  0.00000000000E+00 0. -1.
</event>
<event>
 8    1  0.2534787E-006  0.9118800E+02  0.7816164E-02  0.1184000E+00
        -11   -1    0    0    0    0  0.00000000000E+00  0.00000000000E+00  0.45593999997E+02  0.45594000000E+02  0.51100000000E-03 0. -1.
         11   -1    0    0    0    0 -0.00000000000E+00 -0.00000000000E+00 -0.45593999997E+02  0.45594000000E+02  0.51100000000E-03 0.  1.
         23    2    1    2    0    0  0.00000000000E+00  0.35527136788E-14  0.00000000000E+00  0.91188000000E+02  0.91188000000E+02 0.  0.
    9900012    2    3    3    0    0 -0.18987718248E+02  0.12320607730E+02 -0.29042225636E+02  0.54367059097E+02  0.39999942824E+02 0.  0.
         12    1    3    3    0    0  0.18987718248E+02 -0.12320607730E+02  0.29042225636E+02  0.36820940903E+02  0.00000000000E+00 0. -1.
         11    1    4    4    0    0 -0.20115832518E+02  0.15413410479E+02 -0.12557445778E+02  0.28282669344E+02  0.51100000000E-03 0. -1.
        -11    1    4    4    0    0  0.51653958859E+01 -0.82359840833E+01 -0.16342498605E+01  0.98581702838E+01  0.51100000000E-03 0.  1.
        -12    1    4    4    0    0 -0.40372816160E+01  0.51431813344E+01 -0.14850529997E+02  0.16226219469E+02  0.00000000000E+00 0.  1.
</event>
<event>
 8    1  0.2534787E-006  0.9118800E+02  0.7816164E-02  0.1184000E+00
        -11   -1    0    0    0    0  0.00000000000E+00  0.00000000000E+00  0.45593999997E+02  0.45594000000E+02  0.51100000000E-03 0.  1.
         11   -1    0    0    0    0 -0.00000000000E+00 -0.00000000000E+00 -0.45593999997E+02  0.45594000000E+02  0.51100000000E-03 0. -1.
         23    2    1    2    0    0  0.88817841970E-15  0.00000000000E+00 -0.71054273576E-14  0.91188000000E+02  0.91188000000E+02 0.  0.
    9900012    2    3    3    0    0 -0.55713718179E+01 -0.27031231049E+01  0.36296458002E+02  0.54367083092E+02  0.39999997524E+02 0.  0.
         12    1    3    3    0    0  0.55713718179E+01  0.27031231049E+01 -0.36296458002E+02  0.36820916908E+02  0.00000000000E+00 0. -1.
         11    1    4    4    0    0 -0.48779340674E+01  0.24192280935E+01 -0.64859182041E+01  0.84684142876E+01  0.51100000000E-03 0. -1.
        -11    1    4    4    0    0 -0.31759998671E+01  0.33183870174E+01  0.30188163875E+02  0.30535617006E+02  0.51100000000E-03 0.  1.
         12    1    4    4    0    0  0.24825621166E+01 -0.84407382158E+01  0.12594212332E+02  0.15363051798E+02  0.00000000000E+00 0. -1.
</event>
<event>
 8    1  0.2534787E-006  0.9118800E+02  0.7816164E-02  0.1184000E+00
        -11   -1    0    0    0    0  0.00000000000E+00  0.00000000000E+00  0.45593999997E+02  0.45594000000E+02  0.51100000000E-03 0.  1.
         11   -1    0    0    0    0 -0.00000000000E+00 -0.00000000000E+00 -0.45593999997E+02  0.45594000000E+02  0.51100000000E-03 0. -1.
         23    2    1    2    0    0  0.44408920985E-15  0.17763568394E-14  0.00000000000E+00  0.91188000000E+02  0.91188000000E+02 0.  0.
    9900012    2    3    3    0    0 -0.30349708574E+01 -0.14155457917E+02  0.33855454990E+02  0.54367083803E+02  0.39999999146E+02 0.  0.
         12    1    3    3    0    0  0.30349708574E+01  0.14155457917E+02 -0.33855454990E+02  0.36820916197E+02  0.00000000000E+00 0. -1.
         11    1    4    4    0    0  0.72074684222E+01  0.58350351382E+01  0.23386888418E+02  0.25158334330E+02  0.51100000000E-03 0. -1.
        -11    1    4    4    0    0 -0.26864174748E+01 -0.17776859312E+02  0.11387576728E+02  0.21281693303E+02  0.51100000000E-03 0.  1.
         12    1    4    4    0    0 -0.75560218048E+01 -0.22136337434E+01 -0.91901015492E+00  0.79270561704E+01  0.00000000000E+00 0. -1.
</event>
<event>
 8    1  0.2534787E-006  0.9118800E+02  0.7816164E-02  0.1184000E+00
        -11   -1    0    0    0    0  0.00000000000E+00  0.00000000000E+00  0.45593999997E+02  0.45594000000E+02  0.51100000000E-03 0. -1.
         11   -1    0    0    0    0 -0.00000000000E+00 -0.00000000000E+00 -0.45593999997E+02  0.45594000000E+02  0.51100000000E-03 0.  1.
         23    2    1    2    0    0  0.00000000000E+00  0.00000000000E+00  0.00000000000E+00  0.91188000000E+02  0.91188000000E+02 0.  0.
    9900012    2    3    3    0    0  0.88627701293E+01 -0.31947430089E+02 -0.16018507284E+02  0.54367088017E+02  0.40000008751E+02 0.  0.
         12    1    3    3    0    0 -0.88627701293E+01  0.31947430089E+02  0.16018507284E+02  0.36820911983E+02  0.00000000000E+00 0. -1.
         11    1    4    4    0    0 -0.27201388519E+01 -0.26335984091E+01  0.49491926806E+01  0.62313324743E+01  0.51100000000E-03 0. -1.
        -11    1    4    4    0    0 -0.37216497952E+01 -0.20141202515E+02  0.15860959685E+00  0.20482770155E+02  0.51100000000E-03 0.  1.
        -12    1    4    4    0    0  0.15304558776E+02 -0.91726291653E+01 -0.21126309562E+02  0.27652985387E+02  0.00000000000E+00 0.  1.
</event>
<event>
 8    1  0.2534787E-006  0.9118800E+02  0.7816164E-02  0.1184000E+00
        -11   -1    0    0    0    0  0.00000000000E+00  0.00000000000E+00  0.45593999997E+02  0.45594000000E+02  0.51100000000E-03 0.  1.
         11   -1    0    0    0    0 -0.00000000000E+00 -0.00000000000E+00 -0.45593999997E+02  0.45594000000E+02  0.51100000000E-03 0. -1.
         23    2    1    2    0    0  0.00000000000E+00  0.00000000000E+00  0.00000000000E+00  0.91188000000E+02  0.91188000000E+02 0.  0.
    9900012    2    3    3    0    0 -0.14325523452E+02  0.24071312305E+02 -0.23898335990E+02  0.54367093420E+02  0.40000021070E+02 0.  0.
        -12    1    3    3    0    0  0.14325523452E+02 -0.24071312305E+02  0.23898335990E+02  0.36820906580E+02  0.00000000000E+00 0.  1.
         11    1    4    4    0    0  0.32478312415E+01  0.12142966665E+02 -0.27274585615E+02  0.30031701050E+02  0.51100000000E-03 0. -1.
        -11    1    4    4    0    0 -0.16650424008E+02  0.55063480913E+01  0.16084915022E+01  0.17610898164E+02  0.51100000000E-03 0.  1.
         12    1    4    4    0    0 -0.92293068553E+00  0.64219975480E+01  0.17677581224E+01  0.67244942067E+01  0.00000000000E+00 0. -1.
</event>
<event>
 8    1  0.2534787E-006  0.9118800E+02  0.7816164E-02  0.1184000E+00
        -11   -1    0    0    0    0  0.00000000000E+00  0.00000000000E+00  0.45593999997E+02  0.45594000000E+02  0.51100000000E-03 0.  1.
         11   -1    0    0    0    0 -0.00000000000E+00 -0.00000000000E+00 -0.45593999997E+02  0.45594000000E+02  0.51100000000E-03 0. -1.
         23    2    1    2    0    0  0.17763568394E-14  0.00000000000E+00 -0.88817841970E-15  0.91188000000E+02  0.91188000000E+02 0.  0.
    9900012    2    3    3    0    0  0.52191744555E+01 -0.36354266222E+02 -0.26279976799E+01  0.54367097969E+02  0.40000031440E+02 0.  0.
        -12    1    3    3    0    0 -0.52191744555E+01  0.36354266222E+02  0.26279976799E+01  0.36820902031E+02  0.00000000000E+00 0.  1.
         11    1    4    4    0    0  0.15022889046E+02 -0.19562900405E+02 -0.16817105844E+02  0.29853129095E+02  0.51100000000E-03 0. -1.
        -11    1    4    4    0    0 -0.41887714563E+01 -0.98385230945E+01  0.53998028032E+01  0.11979157465E+02  0.51100000000E-03 0.  1.
         12    1    4    4    0    0 -0.56149431340E+01 -0.69528427233E+01  0.87893053611E+01  0.12534811409E+02  0.00000000000E+00 0. -1.
</event>
<event>
 8    1  0.2534787E-006  0.9118800E+02  0.7816164E-02  0.1184000E+00
        -11   -1    0    0    0    0  0.00000000000E+00  0.00000000000E+00  0.45593999997E+02  0.45594000000E+02  0.51100000000E-03 0.  1.
         11   -1    0    0    0    0 -0.00000000000E+00 -0.00000000000E+00 -0.45593999997E+02  0.45594000000E+02  0.51100000000E-03 0. -1.
         23    2    1    2    0    0  0.00000000000E+00 -0.33306690739E-15  0.00000000000E+00  0.91188000000E+02  0.91188000000E+02 0.  0.
    9900012    2    3    3    0    0  0.35112681919E+02  0.41965491608E+00 -0.11077159704E+02  0.54367081911E+02  0.39999994832E+02 0.  0.
         12    1    3    3    0    0 -0.35112681919E+02 -0.41965491608E+00  0.11077159704E+02  0.36820918089E+02  0.00000000000E+00 0. -1.
         11    1    4    4    0    0  0.19284807970E+02  0.14832094888E+02 -0.19103561505E+02  0.30932845321E+02  0.51100000000E-03 0. -1.
        -11    1    4    4    0    0  0.51357381308E+01 -0.67612895268E+01  0.10645810634E+01  0.85571125571E+01  0.51100000000E-03 0.  1.
         12    1    4    4    0    0  0.10692135818E+02 -0.76511504452E+01  0.69618207378E+01  0.14877124032E+02  0.00000000000E+00 0. -1.
</event>
<event>
 8    1  0.2534787E-006  0.9118800E+02  0.7816164E-02  0.1184000E+00
        -11   -1    0    0    0    0  0.00000000000E+00  0.00000000000E+00  0.45593999997E+02  0.45594000000E+02  0.51100000000E-03 0.  1.
         11   -1    0    0    0    0 -0.00000000000E+00 -0.00000000000E+00 -0.45593999997E+02  0.45594000000E+02  0.51100000000E-03 0. -1.
         23    2    1    2    0    0 -0.88817841970E-15  0.71054273576E-14  0.00000000000E+00  0.91188000000E+02  0.91188000000E+02 0.  0.
    9900012    2    3    3    0    0  0.21599185979E+01 -0.33763719603E+02 -0.14530164818E+02  0.54367086114E+02  0.40000004413E+02 0.  0.
        -12    1    3    3    0    0 -0.21599185979E+01  0.33763719603E+02  0.14530164818E+02  0.36820913886E+02  0.00000000000E+00 0.  1.
         11    1    4    4    0    0  0.55461796224E+01 -0.39121348908E+02 -0.76091385786E+01  0.40238526799E+02  0.51100000000E-03 0. -1.
        -11    1    4    4    0    0 -0.55842187084E+01  0.59708180756E+01 -0.15882279455E+01  0.83280631207E+01  0.51100000000E-03 0.  1.
         12    1    4    4    0    0  0.21979576839E+01 -0.61318877045E+00 -0.53327982936E+01  0.58004961933E+01  0.00000000000E+00 0. -1.
</event>
<event>
 8    1  0.2534787E-006  0.9118800E+02  0.7816164E-02  0.1184000E+00
        -11   -1    0    0    0    0  0.00000000000E+00  0.00000000000E+00  0.45593999997E+02  0.45594000000E+02  0.51100000000E-03 0.  1.
         11   -1    0    0    0    0 -0.00000000000E+00 -0.00000000000E+00 -0.45593999997E+02  0.45594000000E+02  0.51100000000E-03 0. -1.
         23    2    1    2    0    0  0.17763568394E-14 -0.66613381478E-15  0.71054273576E-14  0.91188000000E+02  0.91188000000E+02 0.  0.
    9900012    2    3    3    0    0 -0.87142664822E+01 -0.12793058891E+01 -0.35751998563E+02  0.54367075716E+02  0.39999980710E+02 0.  0.
        -12    1    3    3    0    0  0.87142664822E+01  0.12793058891E+01  0.35751998563E+02  0.36820924284E+02  0.00000000000E+00 0.  1.
         11    1    4    4    0    0  0.18527058463E+01 -0.77714382116E+01 -0.37267999210E+01  0.88157137398E+01  0.51100000000E-03 0. -1.
        -11    1    4    4    0    0  0.16330722858E+01 -0.10878049693E+02 -0.13172736237E+02  0.17161581234E+02  0.51100000000E-03 0.  1.
         12    1    4    4    0    0 -0.12200044614E+02  0.17370182016E+02 -0.18852462405E+02  0.28389780743E+02  0.00000000000E+00 0. -1.
</event>
<event>
 8    1  0.2534787E-006  0.9118800E+02  0.7816164E-02  0.1184000E+00
        -11   -1    0    0    0    0  0.00000000000E+00  0.00000000000E+00  0.45593999997E+02  0.45594000000E+02  0.51100000000E-03 0. -1.
         11   -1    0    0    0    0 -0.00000000000E+00 -0.00000000000E+00 -0.45593999997E+02  0.45594000000E+02  0.51100000000E-03 0.  1.
         23    2    1    2    0    0  0.00000000000E+00  0.35527136788E-14  0.88817841970E-15  0.91188000000E+02  0.91188000000E+02 0.  0.
    9900012    2    3    3    0    0  0.35533132509E+02  0.83115401971E+01 -0.49086162698E+01  0.54367085834E+02  0.40000003776E+02 0.  0.
         12    1    3    3    0    0 -0.35533132509E+02 -0.83115401971E+01  0.49086162698E+01  0.36820914166E+02  0.00000000000E+00 0. -1.
         11    1    4    4    0    0  0.11056270278E+02 -0.98780487120E+01  0.40729650949E+01  0.15375500113E+02  0.51100000000E-03 0. -1.
        -11    1    4    4    0    0  0.26166643533E+02  0.12794187850E+02 -0.13159295892E+02  0.31961719997E+02  0.51100000000E-03 0.  1.
         12    1    4    4    0    0 -0.16897813019E+01  0.53954010588E+01  0.41777145269E+01  0.70298657243E+01  0.00000000000E+00 0. -1.
</event>
<event>
 8    1  0.2534787E-006  0.9118800E+02  0.7816164E-02  0.1184000E+00
        -11   -1    0    0    0    0  0.00000000000E+00  0.00000000000E+00  0.45593999997E+02  0.45594000000E+02  0.51100000000E-03 0.  1.
         11   -1    0    0    0    0 -0.00000000000E+00 -0.00000000000E+00 -0.45593999997E+02  0.45594000000E+02  0.51100000000E-03 0. -1.
         23    2    1    2    0    0  0.00000000000E+00  0.00000000000E+00  0.00000000000E+00  0.91188000000E+02  0.91188000000E+02 0.  0.
    9900012    2    3    3    0    0 -0.34831710329E+02  0.42768422304E+01 -0.11146368074E+02  0.54367069198E+02  0.39999965851E+02 0.  0.
        -12    1    3    3    0    0  0.34831710329E+02 -0.42768422304E+01  0.11146368074E+02  0.36820930802E+02  0.00000000000E+00 0.  1.
         11    1    4    4    0    0 -0.14251268953E+02  0.15785241060E+02 -0.65093249282E+01  0.22240589322E+02  0.51100000000E-03 0. -1.
        -11    1    4    4    0    0 -0.20086839823E+02 -0.67029860364E+01 -0.11217413138E+02  0.23963336864E+02  0.51100000000E-03 0.  1.
        -12    1    4    4    0    0 -0.49360155332E+00 -0.48054127933E+01  0.65803699926E+01  0.81631430128E+01  0.00000000000E+00 0.  1.
</event>
<event>
 8    1  0.2534787E-006  0.9118800E+02  0.7816164E-02  0.1184000E+00
        -11   -1    0    0    0    0  0.00000000000E+00  0.00000000000E+00  0.45593999997E+02  0.45594000000E+02  0.51100000000E-03 0. -1.
         11   -1    0    0    0    0 -0.00000000000E+00 -0.00000000000E+00 -0.45593999997E+02  0.45594000000E+02  0.51100000000E-03 0.  1.
         23    2    1    2    0    0 -0.35527136788E-14  0.00000000000E+00  0.00000000000E+00  0.91188000000E+02  0.91188000000E+02 0.  0.
    9900012    2    3    3    0    0 -0.19693640968E+02 -0.22284703534E+02  0.21710165178E+02  0.54367098623E+02  0.40000032931E+02 0.  0.
        -12    1    3    3    0    0  0.19693640968E+02  0.22284703534E+02 -0.21710165178E+02  0.36820901377E+02  0.00000000000E+00 0.  1.
         11    1    4    4    0    0  0.15336582083E+01 -0.49702806855E+00  0.26446332640E+01  0.30972939419E+01  0.51100000000E-03 0. -1.
        -11    1    4    4    0    0 -0.99693700501E+01 -0.29349671140E+02  0.21183215650E+02  0.37543576824E+02  0.51100000000E-03 0.  1.
         12    1    4    4    0    0 -0.11257929126E+02  0.75619956744E+01 -0.21176837359E+01  0.13726227857E+02  0.00000000000E+00 0. -1.
</event>
<event>
 8    1  0.2534787E-006  0.9118800E+02  0.7816164E-02  0.1184000E+00
        -11   -1    0    0    0    0  0.00000000000E+00  0.00000000000E+00  0.45593999997E+02  0.45594000000E+02  0.51100000000E-03 0.  1.
         11   -1    0    0    0    0 -0.00000000000E+00 -0.00000000000E+00 -0.45593999997E+02  0.45594000000E+02  0.51100000000E-03 0. -1.
         23    2    1    2    0    0  0.00000000000E+00  0.71054273576E-14  0.00000000000E+00  0.91188000000E+02  0.91188000000E+02 0.  0.
    9900012    2    3    3    0    0 -0.20077186953E+02 -0.19843944738E+02  0.23641150330E+02  0.54367087903E+02  0.40000008493E+02 0.  0.
         12    1    3    3    0    0  0.20077186953E+02  0.19843944738E+02 -0.23641150330E+02  0.36820912097E+02  0.00000000000E+00 0. -1.
         11    1    4    4    0    0 -0.22921310438E+02 -0.10850592704E+01  0.19130930348E+02  0.29875681115E+02  0.51100000000E-03 0. -1.
        -11    1    4    4    0    0  0.63903254325E+01 -0.17157583994E+01  0.19351490671E+01  0.68938297188E+01  0.51100000000E-03 0.  1.
        -12    1    4    4    0    0 -0.35462019471E+01 -0.17043127068E+02  0.25750709147E+01  0.17597577070E+02  0.00000000000E+00 0.  1.
</event>
<event>
 8    1  0.2534787E-006  0.9118800E+02  0.7816164E-02  0.1184000E+00
        -11   -1    0    0    0    0  0.00000000000E+00  0.00000000000E+00  0.45593999997E+02  0.45594000000E+02  0.51100000000E-03 0.  1.
         11   -1    0    0    0    0 -0.00000000000E+00 -0.00000000000E+00 -0.45593999997E+02  0.45594000000E+02  0.51100000000E-03 0. -1.
         23    2    1    2    0    0 -0.88817841970E-15  0.71054273576E-14  0.17763568394E-14  0.91188000000E+02  0.91188000000E+02 0.  0.
    9900012    2    3    3    0    0 -0.61222559733E+01  0.32915554843E+02 -0.15325284625E+02  0.54367080434E+02  0.39999991466E+02 0.  0.
        -12    1    3    3    0    0  0.61222559733E+01 -0.32915554843E+02  0.15325284625E+02  0.36820919566E+02  0.00000000000E+00 0.  1.
         11    1    4    4    0    0  0.25474793400E+01  0.25731796971E+02 -0.48709540380E+01  0.26312377692E+02  0.51100000000E-03 0. -1.
        -11    1    4    4    0    0 -0.32985813988E+01  0.11523977329E+02  0.34981941015E+01  0.12486795224E+02  0.51100000000E-03 0.  1.
        -12    1    4    4    0    0 -0.53711539144E+01 -0.43402194565E+01 -0.13952524689E+02  0.15567907518E+02  0.00000000000E+00 0.  1.
</event>
<event>
 8    1  0.2534787E-006  0.9118800E+02  0.7816164E-02  0.1184000E+00
        -11   -1    0    0    0    0  0.00000000000E+00  0.00000000000E+00  0.45593999997E+02  0.45594000000E+02  0.51100000000E-03 0. -1.
         11   -1    0    0    0    0 -0.00000000000E+00 -0.00000000000E+00 -0.45593999997E+02  0.45594000000E+02  0.51100000000E-03 0.  1.
         23    2    1    2    0    0  0.00000000000E+00  0.35527136788E-14  0.00000000000E+00  0.91188000000E+02  0.91188000000E+02 0.  0.
    9900012    2    3    3    0    0 -0.21141635657E+02  0.16981917309E+02 -0.24908325438E+02  0.54367096292E+02  0.40000027616E+02 0.  0.
         12    1    3    3    0    0  0.21141635657E+02 -0.16981917309E+02  0.24908325438E+02  0.36820903708E+02  0.00000000000E+00 0. -1.
         11    1    4    4    0    0 -0.10618620255E+02 -0.83880944056E+01 -0.90792740160E+01  0.16295657114E+02  0.51100000000E-03 0. -1.
        -11    1    4    4    0    0 -0.16223753493E+02  0.18395288745E+02 -0.71157459290E+01  0.25538807056E+02  0.51100000000E-03 0.  1.
         12    1    4    4    0    0  0.57007380909E+01  0.69747229694E+01 -0.87133054932E+01  0.12532632122E+02  0.00000000000E+00 0. -1.
</event>
<event>
 8    1  0.2534787E-006  0.9118800E+02  0.7816164E-02  0.1184000E+00
        -11   -1    0    0    0    0  0.00000000000E+00  0.00000000000E+00  0.45593999997E+02  0.45594000000E+02  0.51100000000E-03 0. -1.
         11   -1    0    0    0    0 -0.00000000000E+00 -0.00000000000E+00 -0.45593999997E+02  0.45594000000E+02  0.51100000000E-03 0.  1.
         23    2    1    2    0    0  0.35527136788E-14  0.00000000000E+00 -0.35527136788E-14  0.91188000000E+02  0.91188000000E+02 0.  0.
    9900012    2    3    3    0    0  0.16431153053E+02 -0.19544089658E+02 -0.26529727755E+02  0.54367072717E+02  0.39999973873E+02 0.  0.
         12    1    3    3    0    0 -0.16431153053E+02  0.19544089658E+02  0.26529727755E+02  0.36820927283E+02  0.00000000000E+00 0. -1.
         11    1    4    4    0    0 -0.30189671154E+01  0.29254842965E+01 -0.90507863532E+00  0.43002079497E+01  0.51100000000E-03 0. -1.
        -11    1    4    4    0    0  0.20413197615E+02  0.44283043760E-01 -0.13552599133E+02  0.24502521122E+02  0.51100000000E-03 0.  1.
         12    1    4    4    0    0 -0.96307744578E+00 -0.22513856998E+02 -0.12072049987E+02  0.25564343645E+02  0.00000000000E+00 0. -1.
</event>
<event>
 8    1  0.2534787E-006  0.9118800E+02  0.7816164E-02  0.1184000E+00
        -11   -1    0    0    0    0  0.00000000000E+00  0.00000000000E+00  0.45593999997E+02  0.45594000000E+02  0.51100000000E-03 0.  1.
         11   -1    0    0    0    0 -0.00000000000E+00 -0.00000000000E+00 -0.45593999997E+02  0.45594000000E+02  0.51100000000E-03 0. -1.
         23    2    1    2    0    0 -0.88817841970E-15 -0.17763568394E-14 -0.71054273576E-14  0.91188000000E+02  0.91188000000E+02 0.  0.
    9900012    2    3    3    0    0 -0.55581558497E+01  0.95599200974E+01  0.35121133197E+02  0.54367093360E+02  0.40000020933E+02 0.  0.
         12    1    3    3    0    0  0.55581558497E+01 -0.95599200974E+01 -0.35121133197E+02  0.36820906640E+02  0.00000000000E+00 0. -1.
         11    1    4    4    0    0 -0.90944924618E+01 -0.50022196926E+00  0.53672837330E+01  0.10572026773E+02  0.51100000000E-03 0. -1.
        -11    1    4    4    0    0 -0.12909420594E+02  0.84123048985E+00  0.90189082998E+01  0.15770273174E+02  0.51100000000E-03 0.  1.
        -12    1    4    4    0    0  0.16445757206E+02  0.92189115768E+01  0.20734941164E+02  0.28024793413E+02  0.00000000000E+00 0.  1.
</event>
<event>
 8    1  0.2534787E-006  0.9118800E+02  0.7816164E-02  0.1184000E+00
        -11   -1    0    0    0    0  0.00000000000E+00  0.00000000000E+00  0.45593999997E+02  0.45594000000E+02  0.51100000000E-03 0.  1.
         11   -1    0    0    0    0 -0.00000000000E+00 -0.00000000000E+00 -0.45593999997E+02  0.45594000000E+02  0.51100000000E-03 0. -1.
         23    2    1    2    0    0  0.00000000000E+00  0.00000000000E+00  0.00000000000E+00  0.91188000000E+02  0.91188000000E+02 0.  0.
    9900012    2    3    3    0    0 -0.97292615582E+01  0.30652926805E+02  0.17930941941E+02  0.54367093831E+02  0.40000022007E+02 0.  0.
         12    1    3    3    0    0  0.97292615582E+01 -0.30652926805E+02 -0.17930941941E+02  0.36820906169E+02  0.00000000000E+00 0. -1.
         11    1    4    4    0    0 -0.48512360168E+01  0.28779552170E+02  0.10307560891E+02  0.30952268508E+02  0.51100000000E-03 0. -1.
        -11    1    4    4    0    0 -0.76760427286E+01  0.10527744862E+02  0.49070531886E+01  0.13922435675E+02  0.51100000000E-03 0.  1.
         12    1    4    4    0    0  0.27980171872E+01 -0.86543702268E+01  0.27163278611E+01  0.94923896491E+01  0.00000000000E+00 0. -1.
</event>
<event>
 8    1  0.2534787E-006  0.9118800E+02  0.7816164E-02  0.1184000E+00
        -11   -1    0    0    0    0  0.00000000000E+00  0.00000000000E+00  0.45593999997E+02  0.45594000000E+02  0.51100000000E-03 0.  1.
         11   -1    0    0    0    0 -0.00000000000E+00 -0.00000000000E+00 -0.45593999997E+02  0.45594000000E+02  0.51100000000E-03 0. -1.
         23    2    1    2    0    0 -0.71054273576E-14 -0.44408920985E-15 -0.26645352591E-14  0.91188000000E+02  0.91188000000E+02 0.  0.
    9900012    2    3    3    0    0  0.36378030699E+02 -0.14074197244E+01  0.55171498886E+01  0.54367069937E+02  0.39999967535E+02 0.  0.
        -12    1    3    3    0    0 -0.36378030699E+02  0.14074197244E+01 -0.55171498886E+01  0.36820930063E+02  0.00000000000E+00 0.  1.
         11    1    4    4    0    0  0.30069184186E+02  0.18488711765E+01 -0.48743310937E+01  0.30517753294E+02  0.51100000000E-03 0. -1.
        -11    1    4    4    0    0  0.53073333555E+01 -0.81235051634E+01 -0.25108499179E+01  0.10023147762E+02  0.51100000000E-03 0.  1.
        -12    1    4    4    0    0  0.10015131579E+01  0.48672142624E+01  0.12902330900E+02  0.13826168882E+02  0.00000000000E+00 0.  1.
</event>
<event>
 8    1  0.2534787E-006  0.9118800E+02  0.7816164E-02  0.1184000E+00
        -11   -1    0    0    0    0  0.00000000000E+00  0.00000000000E+00  0.45593999997E+02  0.45594000000E+02  0.51100000000E-03 0. -1.
         11   -1    0    0    0    0 -0.00000000000E+00 -0.00000000000E+00 -0.45593999997E+02  0.45594000000E+02  0.51100000000E-03 0.  1.
         23    2    1    2    0    0  0.00000000000E+00 -0.35527136788E-14  0.00000000000E+00  0.91188000000E+02  0.91188000000E+02 0.  0.
    9900012    2    3    3    0    0 -0.26038180400E+02 -0.19369337520E+02  0.17396025466E+02  0.54367085066E+02  0.40000002026E+02 0.  0.
        -12    1    3    3    0    0  0.26038180400E+02  0.19369337520E+02 -0.17396025466E+02  0.36820914934E+02  0.00000000000E+00 0.  1.
         11    1    4    4    0    0 -0.34411128931E+01 -0.14701072441E+02  0.17611124048E+02  0.23197294656E+02  0.51100000000E-03 0. -1.
        -11    1    4    4    0    0  0.21647947041E+01  0.32500890958E+01  0.30681304632E+01  0.49661695543E+01  0.51100000000E-03 0.  1.
         12    1    4    4    0    0 -0.24761862211E+02 -0.79183541750E+01 -0.32832290447E+01  0.26203620856E+02  0.00000000000E+00 0. -1.
</event>
<event>
 8    1  0.2534787E-006  0.9118800E+02  0.7816164E-02  0.1184000E+00
        -11   -1    0    0    0    0  0.00000000000E+00  0.00000000000E+00  0.45593999997E+02  0.45594000000E+02  0.51100000000E-03 0.  1.
         11   -1    0    0    0    0 -0.00000000000E+00 -0.00000000000E+00 -0.45593999997E+02  0.45594000000E+02  0.51100000000E-03 0. -1.
         23    2    1    2    0    0  0.00000000000E+00  0.00000000000E+00 -0.14432899320E-14  0.91188000000E+02  0.91188000000E+02 0.  0.
    9900012    2    3    3    0    0  0.17669662918E+02 -0.32299266196E+02 -0.56757663967E+00  0.54367058572E+02  0.39999941626E+02 0.  0.
         12    1    3    3    0    0 -0.17669662918E+02  0.32299266196E+02  0.56757663967E+00  0.36820941428E+02  0.00000000000E+00 0. -1.
         11    1    4    4    0    0  0.23847549036E+02 -0.22253374142E+02 -0.79269795630E+01  0.33567175350E+02  0.51100000000E-03 0. -1.
        -11    1    4    4    0    0  0.37378500050E+01 -0.57304576661E+01 -0.12775595434E+01  0.69600162622E+01  0.51100000000E-03 0.  1.
         12    1    4    4    0    0 -0.99157361227E+01 -0.43154343875E+01  0.86369624667E+01  0.13839866960E+02  0.00000000000E+00 0. -1.
</event>
<event>
 8    1  0.2534787E-006  0.9118800E+02  0.7816164E-02  0.1184000E+00
        -11   -1    0    0    0    0  0.00000000000E+00  0.00000000000E+00  0.45593999997E+02  0.45594000000E+02  0.51100000000E-03 0.  1.
         11   -1    0    0    0    0 -0.00000000000E+00 -0.00000000000E+00 -0.45593999997E+02  0.45594000000E+02  0.51100000000E-03 0. -1.
         23    2    1    2    0    0 -0.35527136788E-14 -0.17763568394E-14  0.00000000000E+00  0.91188000000E+02  0.91188000000E+02 0.  0.
    9900012    2    3    3    0    0  0.25192388193E+02 -0.10232036986E+02  0.24827982407E+02  0.54367085914E+02  0.40000003958E+02 0.  0.
         12    1    3    3    0    0 -0.25192388193E+02  0.10232036986E+02 -0.24827982407E+02  0.36820914086E+02  0.00000000000E+00 0. -1.
         11    1    4    4    0    0  0.19349091427E+02  0.70339424439E+01 -0.53719900132E+00  0.20594957353E+02  0.51100000000E-03 0. -1.
        -11    1    4    4    0    0  0.93359714444E+01 -0.16028862444E+02  0.21886214180E+02  0.28689565445E+02  0.51100000000E-03 0.  1.
         12    1    4    4    0    0 -0.34926746781E+01 -0.12371169859E+01  0.34789672282E+01  0.50825631151E+01  0.00000000000E+00 0. -1.
</event>
<event>
 8    1  0.2534787E-006  0.9118800E+02  0.7816164E-02  0.1184000E+00
        -11   -1    0    0    0    0  0.00000000000E+00  0.00000000000E+00  0.45593999997E+02  0.45594000000E+02  0.51100000000E-03 0.  1.
         11   -1    0    0    0    0 -0.00000000000E+00 -0.00000000000E+00 -0.45593999997E+02  0.45594000000E+02  0.51100000000E-03 0. -1.
         23    2    1    2    0    0  0.71054273576E-14 -0.17763568394E-14  0.88817841970E-15  0.91188000000E+02  0.91188000000E+02 0.  0.
    9900012    2    3    3    0    0  0.35941076044E+02 -0.72284050100E+01  0.34305862655E+01  0.54367085993E+02  0.40000004139E+02 0.  0.
         12    1    3    3    0    0 -0.35941076044E+02  0.72284050100E+01 -0.34305862655E+01  0.36820914007E+02  0.00000000000E+00 0. -1.
         11    1    4    4    0    0  0.10054321996E+02 -0.14939857705E+02  0.91044692400E+01  0.20178704107E+02  0.51100000000E-03 0. -1.
        -11    1    4    4    0    0  0.15852586067E+02 -0.56397874387E+01 -0.10501322503E+01  0.16858661434E+02  0.51100000000E-03 0.  1.
        -12    1    4    4    0    0  0.10034167981E+02  0.13351240134E+02 -0.46237507242E+01  0.17329720452E+02  0.00000000000E+00 0.  1.
</event>
<event>
 8    1  0.2534787E-006  0.9118800E+02  0.7816164E-02  0.1184000E+00
        -11   -1    0    0    0    0  0.00000000000E+00  0.00000000000E+00  0.45593999997E+02  0.45594000000E+02  0.51100000000E-03 0.  1.
         11   -1    0    0    0    0 -0.00000000000E+00 -0.00000000000E+00 -0.45593999997E+02  0.45594000000E+02  0.51100000000E-03 0. -1.
         23    2    1    2    0    0  0.17763568394E-14 -0.71054273576E-14 -0.35527136788E-14  0.91188000000E+02  0.91188000000E+02 0.  0.
    9900012    2    3    3    0    0 -0.65483531777E+01  0.32007029377E+02  0.16983773459E+02  0.54367089911E+02  0.40000013069E+02 0.  0.
         12    1    3    3    0    0  0.65483531777E+01 -0.32007029377E+02 -0.16983773459E+02  0.36820910089E+02  0.00000000000E+00 0. -1.
         11    1    4    4    0    0  0.72790404626E+01  0.31668413157E+01  0.15725686964E+02  0.17615633532E+02  0.51100000000E-03 0. -1.
        -11    1    4    4    0    0  0.43620757178E+01  0.50656323131E+01 -0.86949564831E+00  0.67412430784E+01  0.51100000000E-03 0.  1.
        -12    1    4    4    0    0 -0.18189469358E+02  0.23774555749E+02  0.21275821431E+01  0.30010213301E+02  0.00000000000E+00 0.  1.
</event>
<event>
 8    1  0.2534787E-006  0.9118800E+02  0.7816164E-02  0.1184000E+00
        -11   -1    0    0    0    0  0.00000000000E+00  0.00000000000E+00  0.45593999997E+02  0.45594000000E+02  0.51100000000E-03 0. -1.
         11   -1    0    0    0    0 -0.00000000000E+00 -0.00000000000E+00 -0.45593999997E+02  0.45594000000E+02  0.51100000000E-03 0.  1.
         23    2    1    2    0    0 -0.71054273576E-14  0.00000000000E+00 -0.44408920985E-15  0.91188000000E+02  0.91188000000E+02 0.  0.
    9900012    2    3    3    0    0 -0.33033647591E+02  0.16043536781E+02  0.26763810529E+01  0.54367082560E+02  0.39999996311E+02 0.  0.
        -12    1    3    3    0    0  0.33033647591E+02 -0.16043536781E+02 -0.26763810529E+01  0.36820917440E+02  0.00000000000E+00 0.  1.
         11    1    4    4    0    0 -0.83643673892E+01 -0.51752996781E+01  0.10980765579E+02  0.14741898844E+02  0.51100000000E-03 0. -1.
        -11    1    4    4    0    0  0.31877912298E+01  0.64851332304E+01 -0.12899184222E+01  0.73404942434E+01  0.51100000000E-03 0.  1.
        -12    1    4    4    0    0 -0.27857071432E+02  0.14733703229E+02 -0.70144661035E+01  0.32284689472E+02  0.00000000000E+00 0.  1.
</event>
<event>
 8    1  0.2534787E-006  0.9118800E+02  0.7816164E-02  0.1184000E+00
        -11   -1    0    0    0    0  0.00000000000E+00  0.00000000000E+00  0.45593999997E+02  0.45594000000E+02  0.51100000000E-03 0.  1.
         11   -1    0    0    0    0 -0.00000000000E+00 -0.00000000000E+00 -0.45593999997E+02  0.45594000000E+02  0.51100000000E-03 0. -1.
         23    2    1    2    0    0  0.71054273576E-14  0.00000000000E+00  0.17763568394E-14  0.91188000000E+02  0.91188000000E+02 0.  0.
    9900012    2    3    3    0    0 -0.32450282412E+02  0.11873603178E+02  0.12719140717E+02  0.54367084454E+02  0.40000000630E+02 0.  0.
         12    1    3    3    0    0  0.32450282412E+02 -0.11873603178E+02 -0.12719140717E+02  0.36820915546E+02  0.00000000000E+00 0. -1.
         11    1    4    4    0    0 -0.20039542701E+02 -0.18634496301E+01 -0.57370694185E+01  0.20927725198E+02  0.51100000000E-03 0. -1.
        -11    1    4    4    0    0 -0.27490266809E+01  0.16236269099E+02  0.16418297489E+02  0.23253689485E+02  0.51100000000E-03 0.  1.
        -12    1    4    4    0    0 -0.96617130305E+01 -0.24992162908E+01  0.20379126461E+01  0.10185669772E+02  0.00000000000E+00 0.  1.
</event>
<event>
 8    1  0.2534787E-006  0.9118800E+02  0.7816164E-02  0.1184000E+00
        -11   -1    0    0    0    0  0.00000000000E+00  0.00000000000E+00  0.45593999997E+02  0.45594000000E+02  0.51100000000E-03 0. -1.
         11   -1    0    0    0    0 -0.00000000000E+00 -0.00000000000E+00 -0.45593999997E+02  0.45594000000E+02  0.51100000000E-03 0.  1.
         23    2    1    2    0    0  0.00000000000E+00  0.00000000000E+00 -0.35527136788E-14  0.91188000000E+02  0.91188000000E+02 0.  0.
    9900012    2    3    3    0    0  0.21164258341E+02 -0.16070241234E+02  0.25487297798E+02  0.54367070714E+02  0.39999969306E+02 0.  0.
        -12    1    3    3    0    0 -0.21164258341E+02  0.16070241234E+02 -0.25487297798E+02  0.36820929286E+02  0.00000000000E+00 0.  1.
         11    1    4    4    0    0  0.15195985786E+02 -0.24356071229E+02  0.18436690938E+02  0.34118144187E+02  0.51100000000E-03 0. -1.
        -11    1    4    4    0    0  0.11364510457E+02  0.38605949052E+01  0.45448485072E+01  0.12834014928E+02  0.51100000000E-03 0.  1.
         12    1    4    4    0    0 -0.53962379026E+01  0.44252350898E+01  0.25057583527E+01  0.74149115992E+01  0.00000000000E+00 0. -1.
</event>
<event>
 8    1  0.2534787E-006  0.9118800E+02  0.7816164E-02  0.1184000E+00
        -11   -1    0    0    0    0  0.00000000000E+00  0.00000000000E+00  0.45593999997E+02  0.45594000000E+02  0.51100000000E-03 0. -1.
         11   -1    0    0    0    0 -0.00000000000E+00 -0.00000000000E+00 -0.45593999997E+02  0.45594000000E+02  0.51100000000E-03 0.  1.
         23    2    1    2    0    0 -0.17763568394E-14  0.35527136788E-14  0.35527136788E-14  0.91188000000E+02  0.91188000000E+02 0.  0.
    9900012    2    3    3    0    0  0.15701770772E+02  0.17251969617E+02 -0.28488714295E+02  0.54367042608E+02  0.39999905234E+02 0.  0.
         12    1    3    3    0    0 -0.15701770772E+02 -0.17251969617E+02  0.28488714295E+02  0.36820957392E+02  0.00000000000E+00 0. -1.
         11    1    4    4    0    0 -0.16383680910E+01  0.39133082123E+01 -0.16222454305E+01  0.45420162553E+01  0.51100000000E-03 0. -1.
        -11    1    4    4    0    0  0.19152233963E+02  0.21359627940E+02 -0.29539904754E+02  0.41178243584E+02  0.51100000000E-03 0.  1.
        -12    1    4    4    0    0 -0.18120950997E+01 -0.80209665352E+01  0.26734358892E+01  0.86467827695E+01  0.00000000000E+00 0.  1.
</event>
<event>
 8    1  0.2534787E-006  0.9118800E+02  0.7816164E-02  0.1184000E+00
        -11   -1    0    0    0    0  0.00000000000E+00  0.00000000000E+00  0.45593999997E+02  0.45594000000E+02  0.51100000000E-03 0.  1.
         11   -1    0    0    0    0 -0.00000000000E+00 -0.00000000000E+00 -0.45593999997E+02  0.45594000000E+02  0.51100000000E-03 0. -1.
         23    2    1    2    0    0 -0.17763568394E-14 -0.71054273576E-14  0.71054273576E-14  0.91188000000E+02  0.91188000000E+02 0.  0.
    9900012    2    3    3    0    0  0.99788691567E+01  0.10474649445E+02  0.33859685608E+02  0.54367157803E+02  0.40000167842E+02 0.  0.
         12    1    3    3    0    0 -0.99788691567E+01 -0.10474649445E+02 -0.33859685608E+02  0.36820842197E+02  0.00000000000E+00 0. -1.
         11    1    4    4    0    0 -0.71276676131E+01 -0.10971175166E+02  0.99090346841E+01  0.16412169228E+02  0.51100000000E-03 0. -1.
        -11    1    4    4    0    0  0.65896606654E+01  0.14385058966E+01  0.42558636031E+01  0.79752932341E+01  0.51100000000E-03 0.  1.
         12    1    4    4    0    0  0.10516876104E+02  0.20007318714E+02  0.19694787321E+02  0.29979695341E+02  0.00000000000E+00 0. -1.
</event>
<event>
 8    1  0.2534787E-006  0.9118800E+02  0.7816164E-02  0.1184000E+00
        -11   -1    0    0    0    0  0.00000000000E+00  0.00000000000E+00  0.45593999997E+02  0.45594000000E+02  0.51100000000E-03 0. -1.
         11   -1    0    0    0    0 -0.00000000000E+00 -0.00000000000E+00 -0.45593999997E+02  0.45594000000E+02  0.51100000000E-03 0.  1.
         23    2    1    2    0    0  0.35527136788E-14  0.17763568394E-14 -0.35527136788E-14  0.91188000000E+02  0.91188000000E+02 0.  0.
    9900012    2    3    3    0    0  0.18831946229E+02  0.14673777794E+02 -0.28032389880E+02  0.54367124998E+02  0.40000093058E+02 0.  0.
         12    1    3    3    0    0 -0.18831946229E+02 -0.14673777794E+02  0.28032389880E+02  0.36820875002E+02  0.00000000000E+00 0. -1.
         11    1    4    4    0    0  0.16886717762E+02  0.12889732238E+02 -0.89694413602E+01  0.23059863671E+02  0.51100000000E-03 0. -1.
        -11    1    4    4    0    0  0.40720646382E+01  0.10006359681E+02 -0.20031829902E+02  0.22759243264E+02  0.51100000000E-03 0.  1.
         12    1    4    4    0    0 -0.21268361714E+01 -0.82223141249E+01  0.96888138191E+00  0.85480180627E+01  0.00000000000E+00 0. -1.
</event>
<event>
 8    1  0.2534787E-006  0.9118800E+02  0.7816164E-02  0.1184000E+00
        -11   -1    0    0    0    0  0.00000000000E+00  0.00000000000E+00  0.45593999997E+02  0.45594000000E+02  0.51100000000E-03 0. -1.
         11   -1    0    0    0    0 -0.00000000000E+00 -0.00000000000E+00 -0.45593999997E+02  0.45594000000E+02  0.51100000000E-03 0.  1.
         23    2    1    2    0    0  0.00000000000E+00  0.00000000000E+00  0.17763568394E-14  0.91188000000E+02  0.91188000000E+02 0.  0.
    9900012    2    3    3    0    0  0.34860454967E+02 -0.53024286980E+01 -0.10602465777E+02  0.54367090843E+02  0.40000015195E+02 0.  0.
         12    1    3    3    0    0 -0.34860454967E+02  0.53024286980E+01  0.10602465777E+02  0.36820909157E+02  0.00000000000E+00 0. -1.
         11    1    4    4    0    0  0.73809727637E+00  0.79197858296E+01 -0.12970768704E+02  0.15215407856E+02  0.51100000000E-03 0. -1.
        -11    1    4    4    0    0  0.88499628036E+01  0.18741489304E+01 -0.23291860502E+01  0.93412731336E+01  0.51100000000E-03 0.  1.
         12    1    4    4    0    0  0.25272394887E+02 -0.15096363458E+02  0.46974889779E+01  0.29810409854E+02  0.00000000000E+00 0. -1.
</event>
<event>
 8    1  0.2534787E-006  0.9118800E+02  0.7816164E-02  0.1184000E+00
        -11   -1    0    0    0    0  0.00000000000E+00  0.00000000000E+00  0.45593999997E+02  0.45594000000E+02  0.51100000000E-03 0.  1.
         11   -1    0    0    0    0 -0.00000000000E+00 -0.00000000000E+00 -0.45593999997E+02  0.45594000000E+02  0.51100000000E-03 0. -1.
         23    2    1    2    0    0  0.35527136788E-14  0.35527136788E-14  0.71054273576E-14  0.91188000000E+02  0.91188000000E+02 0.  0.
    9900012    2    3    3    0    0 -0.10687055923E+02 -0.18347191379E+02 -0.30082341806E+02  0.54367083603E+02  0.39999998689E+02 0.  0.
        -12    1    3    3    0    0  0.10687055923E+02  0.18347191379E+02  0.30082341806E+02  0.36820916397E+02  0.00000000000E+00 0.  1.
         11    1    4    4    0    0  0.56104279544E+00 -0.27716248494E+01 -0.86363074485E+01  0.90874902987E+01  0.51100000000E-03 0. -1.
        -11    1    4    4    0    0 -0.17043460207E+02 -0.20129796306E+02 -0.25652372916E+02  0.36793103588E+02  0.51100000000E-03 0.  1.
         12    1    4    4    0    0  0.57953614883E+01  0.45542297766E+01  0.42063385581E+01  0.84864897162E+01  0.00000000000E+00 0. -1.
</event>
<event>
 8    1  0.2534787E-006  0.9118800E+02  0.7816164E-02  0.1184000E+00
        -11   -1    0    0    0    0  0.00000000000E+00  0.00000000000E+00  0.45593999997E+02  0.45594000000E+02  0.51100000000E-03 0.  1.
         11   -1    0    0    0    0 -0.00000000000E+00 -0.00000000000E+00 -0.45593999997E+02  0.45594000000E+02  0.51100000000E-03 0. -1.
         23    2    1    2    0    0  0.35527136788E-14 -0.88817841970E-15  0.00000000000E+00  0.91188000000E+02  0.91188000000E+02 0.  0.
    9900012    2    3    3    0    0  0.18831441430E+02 -0.62832814689E+01  0.31010932963E+02  0.54367071500E+02  0.39999971099E+02 0.  0.
         12    1    3    3    0    0 -0.18831441430E+02  0.62832814689E+01 -0.31010932963E+02  0.36820928500E+02  0.00000000000E+00 0. -1.
         11    1    4    4    0    0 -0.39467105532E-01  0.77895644605E+01  0.64347143520E-02  0.77896671176E+01  0.51100000000E-03 0. -1.
        -11    1    4    4    0    0  0.12317865771E+02 -0.74301600484E+01  0.33884845672E+02  0.36811952705E+02  0.51100000000E-03 0.  1.
        -12    1    4    4    0    0  0.65530427644E+01 -0.66426858810E+01 -0.28803474235E+01  0.97654516775E+01  0.00000000000E+00 0.  1.
</event>
<event>
 8    1  0.2534787E-006  0.9118800E+02  0.7816164E-02  0.1184000E+00
        -11   -1    0    0    0    0  0.00000000000E+00  0.00000000000E+00  0.45593999997E+02  0.45594000000E+02  0.51100000000E-03 0.  1.
         11   -1    0    0    0    0 -0.00000000000E+00 -0.00000000000E+00 -0.45593999997E+02  0.45594000000E+02  0.51100000000E-03 0. -1.
         23    2    1    2    0    0 -0.35527136788E-14  0.35527136788E-14  0.00000000000E+00  0.91188000000E+02  0.91188000000E+02 0.  0.
    9900012    2    3    3    0    0  0.25846045104E+02 -0.18901655348E+02 -0.18179357670E+02  0.54367086545E+02  0.40000005396E+02 0.  0.
        -12    1    3    3    0    0 -0.25846045104E+02  0.18901655348E+02  0.18179357670E+02  0.36820913455E+02  0.00000000000E+00 0.  1.
         11    1    4    4    0    0  0.13556784165E+02 -0.11045441761E+02 -0.16029771628E+02  0.23722178637E+02  0.51100000000E-03 0. -1.
        -11    1    4    4    0    0  0.19885321573E+02 -0.45613438209E+00 -0.24162735725E+01  0.20036777457E+02  0.51100000000E-03 0.  1.
        -12    1    4    4    0    0 -0.75960606348E+01 -0.74000792049E+01  0.26668753062E+00  0.10608130450E+02  0.00000000000E+00 0.  1.
</event>
<event>
 8    1  0.2534787E-006  0.9118800E+02  0.7816164E-02  0.1184000E+00
        -11   -1    0    0    0    0  0.00000000000E+00  0.00000000000E+00  0.45593999997E+02  0.45594000000E+02  0.51100000000E-03 0. -1.
         11   -1    0    0    0    0 -0.00000000000E+00 -0.00000000000E+00 -0.45593999997E+02  0.45594000000E+02  0.51100000000E-03 0.  1.
         23    2    1    2    0    0  0.00000000000E+00 -0.17763568394E-14  0.00000000000E+00  0.91188000000E+02  0.91188000000E+02 0.  0.
    9900012    2    3    3    0    0 -0.29024565407E+02  0.72494281741E+01 -0.21466256323E+02  0.54367085203E+02  0.40000002338E+02 0.  0.
         12    1    3    3    0    0  0.29024565407E+02 -0.72494281741E+01  0.21466256323E+02  0.36820914797E+02  0.00000000000E+00 0. -1.
         11    1    4    4    0    0  0.44288355260E+01  0.89600688171E+01 -0.32348519816E+01  0.10505316984E+02  0.51100000000E-03 0.  1.
        -11    1    4    4    0    0 -0.16347745755E+02 -0.23378507874E+01  0.27949992164E+01  0.16748921113E+02  0.51100000000E-03 0. -1.
        -12    1    4    4    0    0 -0.17105655179E+02  0.62721014443E+00 -0.21026403558E+02  0.27112847107E+02  0.00000000000E+00 0.  1.
</event>
<event>
 8    1  0.2534787E-006  0.9118800E+02  0.7816164E-02  0.1184000E+00
        -11   -1    0    0    0    0  0.00000000000E+00  0.00000000000E+00  0.45593999997E+02  0.45594000000E+02  0.51100000000E-03 0.  1.
         11   -1    0    0    0    0 -0.00000000000E+00 -0.00000000000E+00 -0.45593999997E+02  0.45594000000E+02  0.51100000000E-03 0. -1.
         23    2    1    2    0    0 -0.35527136788E-14 -0.35527136788E-14  0.00000000000E+00  0.91188000000E+02  0.91188000000E+02 0.  0.
    9900012    2    3    3    0    0  0.24746556819E+02  0.21553956439E+02  0.16697777798E+02  0.54367069866E+02  0.39999967373E+02 0.  0.
        -12    1    3    3    0    0 -0.24746556819E+02 -0.21553956439E+02 -0.16697777798E+02  0.36820930134E+02  0.00000000000E+00 0.  1.
         11    1    4    4    0    0 -0.34787371703E+01  0.10635172474E+02 -0.35459471619E+01  0.11738068299E+02  0.51100000000E-03 0. -1.
        -11    1    4    4    0    0  0.17336202023E+02  0.11370896141E+02  0.23418756604E+02  0.31277457390E+02  0.51100000000E-03 0.  1.
         12    1    4    4    0    0  0.10889091966E+02 -0.45211217638E+00 -0.31750316437E+01  0.11351544177E+02  0.00000000000E+00 0. -1.
</event>
<event>
 8    1  0.2534787E-006  0.9118800E+02  0.7816164E-02  0.1184000E+00
        -11   -1    0    0    0    0  0.00000000000E+00  0.00000000000E+00  0.45593999997E+02  0.45594000000E+02  0.51100000000E-03 0. -1.
         11   -1    0    0    0    0 -0.00000000000E+00 -0.00000000000E+00 -0.45593999997E+02  0.45594000000E+02  0.51100000000E-03 0.  1.
         23    2    1    2    0    0  0.00000000000E+00 -0.35527136788E-14  0.71054273576E-14  0.91188000000E+02  0.91188000000E+02 0.  0.
    9900012    2    3    3    0    0 -0.65600849900E+01  0.21804152164E+02 -0.28936554278E+02  0.54367082845E+02  0.39999996961E+02 0.  0.
         12    1    3    3    0    0  0.65600849900E+01 -0.21804152164E+02  0.28936554278E+02  0.36820917155E+02  0.00000000000E+00 0. -1.
         11    1    4    4    0    0  0.57421809079E+01 -0.27613766060E+01 -0.30803005000E+01  0.70771529425E+01  0.51100000000E-03 0. -1.
        -11    1    4    4    0    0 -0.88596595202E-01  0.22037625171E+02 -0.26899037448E+02  0.34773883713E+02  0.51100000000E-03 0.  1.
         12    1    4    4    0    0 -0.12213669303E+02  0.25279035982E+01  0.10427836698E+01  0.12516046190E+02  0.00000000000E+00 0. -1.
</event>
<event>
 8    1  0.2534787E-006  0.9118800E+02  0.7816164E-02  0.1184000E+00
        -11   -1    0    0    0    0  0.00000000000E+00  0.00000000000E+00  0.45593999997E+02  0.45594000000E+02  0.51100000000E-03 0.  1.
         11   -1    0    0    0    0 -0.00000000000E+00 -0.00000000000E+00 -0.45593999997E+02  0.45594000000E+02  0.51100000000E-03 0. -1.
         23    2    1    2    0    0  0.00000000000E+00  0.17763568394E-14  0.00000000000E+00  0.91188000000E+02  0.91188000000E+02 0.  0.
    9900012    2    3    3    0    0  0.21912945761E+02  0.11150363757E+02 -0.27409397330E+02  0.54367043116E+02  0.39999906392E+02 0.  0.
        -12    1    3    3    0    0 -0.21912945761E+02 -0.11150363757E+02  0.27409397330E+02  0.36820956884E+02  0.00000000000E+00 0.  1.
         11    1    4    4    0    0  0.90092520212E+01  0.14249253500E+02 -0.11873726362E+02  0.20620213997E+02  0.51100000000E-03 0. -1.
        -11    1    4    4    0    0 -0.58179402143E+01 -0.86104841521E+01 -0.63370529411E+01  0.12171569575E+02  0.51100000000E-03 0.  1.
         12    1    4    4    0    0  0.18721633954E+02  0.55115944086E+01 -0.91986180272E+01  0.21575259545E+02  0.00000000000E+00 0. -1.
</event>
<event>
 8    1  0.2534787E-006  0.9118800E+02  0.7816164E-02  0.1184000E+00
        -11   -1    0    0    0    0  0.00000000000E+00  0.00000000000E+00  0.45593999997E+02  0.45594000000E+02  0.51100000000E-03 0.  1.
         11   -1    0    0    0    0 -0.00000000000E+00 -0.00000000000E+00 -0.45593999997E+02  0.45594000000E+02  0.51100000000E-03 0. -1.
         23    2    1    2    0    0  0.00000000000E+00  0.00000000000E+00  0.00000000000E+00  0.91188000000E+02  0.91188000000E+02 0.  0.
    9900012    2    3    3    0    0  0.29989015550E+02  0.62234033899E+01 -0.20437892445E+02  0.54367092202E+02  0.40000018294E+02 0.  0.
        -12    1    3    3    0    0 -0.29989015550E+02 -0.62234033899E+01  0.20437892445E+02  0.36820907798E+02  0.00000000000E+00 0.  1.
         11    1    4    4    0    0  0.15326373318E+02 -0.91649860591E+01 -0.15665704777E+02  0.23755188801E+02  0.51100000000E-03 0. -1.
        -11    1    4    4    0    0 -0.52782396867E+01  0.73872965083E+00  0.35897628534E+00  0.53417600023E+01  0.51100000000E-03 0.  1.
        -12    1    4    4    0    0  0.19940881919E+02  0.14649659798E+02 -0.51311639539E+01  0.25270143399E+02  0.00000000000E+00 0.  1.
</event>
<event>
 8    1  0.2534787E-006  0.9118800E+02  0.7816164E-02  0.1184000E+00
        -11   -1    0    0    0    0  0.00000000000E+00  0.00000000000E+00  0.45593999997E+02  0.45594000000E+02  0.51100000000E-03 0. -1.
         11   -1    0    0    0    0 -0.00000000000E+00 -0.00000000000E+00 -0.45593999997E+02  0.45594000000E+02  0.51100000000E-03 0.  1.
         23    2    1    2    0    0  0.00000000000E+00 -0.17763568394E-14  0.71054273576E-14  0.91188000000E+02  0.91188000000E+02 0.  0.
    9900012    2    3    3    0    0  0.24921345830E+01  0.14089618812E+02 -0.33927137996E+02  0.54367098522E+02  0.40000032701E+02 0.  0.
         12    1    3    3    0    0 -0.24921345830E+01 -0.14089618812E+02  0.33927137996E+02  0.36820901478E+02  0.00000000000E+00 0. -1.
         11    1    4    4    0    0  0.29198368357E+01  0.12507038814E+02 -0.32411432976E+02  0.34863339697E+02  0.51100000000E-03 0.  1.
        -11    1    4    4    0    0 -0.96629190531E+01 -0.17360408250E+00  0.11493460885E+01  0.97325813480E+01  0.51100000000E-03 0. -1.
         12    1    4    4    0    0  0.92352168004E+01  0.17561840803E+01 -0.26650511086E+01  0.97711774769E+01  0.00000000000E+00 0. -1.
</event>
<event>
 8    1  0.2534787E-006  0.9118800E+02  0.7816164E-02  0.1184000E+00
        -11   -1    0    0    0    0  0.00000000000E+00  0.00000000000E+00  0.45593999997E+02  0.45594000000E+02  0.51100000000E-03 0.  1.
         11   -1    0    0    0    0 -0.00000000000E+00 -0.00000000000E+00 -0.45593999997E+02  0.45594000000E+02  0.51100000000E-03 0. -1.
         23    2    1    2    0    0 -0.71054273576E-14  0.99920072216E-15 -0.35527136788E-14  0.91188000000E+02  0.91188000000E+02 0.  0.
    9900012    2    3    3    0    0 -0.32134853018E+02 -0.34315096459E+00 -0.17972577830E+02  0.54367080879E+02  0.39999992480E+02 0.  0.
        -12    1    3    3    0    0  0.32134853018E+02  0.34315096459E+00  0.17972577830E+02  0.36820919121E+02  0.00000000000E+00 0.  1.
         11    1    4    4    0    0 -0.10498360591E+01  0.34017384335E+01  0.37385571797E+01  0.51624403307E+01  0.51100000000E-03 0. -1.
        -11    1    4    4    0    0 -0.42797108970E+01 -0.13594202436E+02 -0.17424132960E+01  0.14358073325E+02  0.51100000000E-03 0.  1.
         12    1    4    4    0    0 -0.26805306062E+02  0.98493130383E+01 -0.19968721714E+02  0.34846567224E+02  0.00000000000E+00 0. -1.
</event>
<event>
 8    1  0.2534787E-006  0.9118800E+02  0.7816164E-02  0.1184000E+00
        -11   -1    0    0    0    0  0.00000000000E+00  0.00000000000E+00  0.45593999997E+02  0.45594000000E+02  0.51100000000E-03 0. -1.
         11   -1    0    0    0    0 -0.00000000000E+00 -0.00000000000E+00 -0.45593999997E+02  0.45594000000E+02  0.51100000000E-03 0.  1.
         23    2    1    2    0    0 -0.35527136788E-14  0.00000000000E+00  0.22204460493E-14  0.91188000000E+02  0.91188000000E+02 0.  0.
    9900012    2    3    3    0    0  0.29242965036E+02 -0.22328099701E+02 -0.14420428634E+01  0.54367156338E+02  0.40000164503E+02 0.  0.
         12    1    3    3    0    0 -0.29242965036E+02  0.22328099701E+02  0.14420428634E+01  0.36820843662E+02  0.00000000000E+00 0. -1.
         11    1    4    4    0    0  0.13291046094E+01 -0.11087209409E+02  0.12892179601E+02  0.17055820902E+02  0.51100000000E-03 0. -1.
        -11    1    4    4    0    0  0.11895682127E+02  0.23300363821E+01 -0.42797492794E+00  0.12129282156E+02  0.51100000000E-03 0.  1.
         12    1    4    4    0    0  0.16018178300E+02 -0.13570926674E+02 -0.13906247536E+02  0.25182053280E+02  0.00000000000E+00 0. -1.
</event>
<event>
 8    1  0.2534787E-006  0.9118800E+02  0.7816164E-02  0.1184000E+00
        -11   -1    0    0    0    0  0.00000000000E+00  0.00000000000E+00  0.45593999997E+02  0.45594000000E+02  0.51100000000E-03 0.  1.
         11   -1    0    0    0    0 -0.00000000000E+00 -0.00000000000E+00 -0.45593999997E+02  0.45594000000E+02  0.51100000000E-03 0. -1.
         23    2    1    2    0    0  0.00000000000E+00 -0.35527136788E-14  0.88817841970E-15  0.91188000000E+02  0.91188000000E+02 0.  0.
    9900012    2    3    3    0    0  0.33922412236E+02 -0.13291115258E+02 -0.53288381761E+01  0.54367077782E+02  0.39999985419E+02 0.  0.
        -12    1    3    3    0    0 -0.33922412236E+02  0.13291115258E+02  0.53288381761E+01  0.36820922218E+02  0.00000000000E+00 0.  1.
         11    1    4    4    0    0  0.10596243624E+01 -0.98448038744E+01 -0.42006416641E+01  0.10755852257E+02  0.51100000000E-03 0. -1.
        -11    1    4    4    0    0 -0.19844532751E-01  0.41102624663E+01  0.77063931778E+01  0.87340224078E+01  0.51100000000E-03 0.  1.
        -12    1    4    4    0    0  0.32882632406E+02 -0.75565738502E+01 -0.88345896898E+01  0.34877203117E+02  0.00000000000E+00 0.  1.
</event>
<event>
 8    1  0.2534787E-006  0.9118800E+02  0.7816164E-02  0.1184000E+00
        -11   -1    0    0    0    0  0.00000000000E+00  0.00000000000E+00  0.45593999997E+02  0.45594000000E+02  0.51100000000E-03 0.  1.
         11   -1    0    0    0    0 -0.00000000000E+00 -0.00000000000E+00 -0.45593999997E+02  0.45594000000E+02  0.51100000000E-03 0. -1.
         23    2    1    2    0    0  0.00000000000E+00 -0.71054273576E-14  0.35527136788E-14  0.91188000000E+02  0.91188000000E+02 0.  0.
    9900012    2    3    3    0    0  0.92933447613E+01 -0.26291443325E+02  0.24045058049E+02  0.54367203356E+02  0.40000271690E+02 0.  0.
         12    1    3    3    0    0 -0.92933447613E+01  0.26291443325E+02 -0.24045058049E+02  0.36820796644E+02  0.00000000000E+00 0. -1.
         11    1    4    4    0    0  0.19748269111E+02 -0.13187144161E+02  0.84830054051E+01  0.25216190929E+02  0.51100000000E-03 0. -1.
        -11    1    4    4    0    0 -0.41973091926E+01 -0.13821476455E+02  0.17376483411E+02  0.22596300402E+02  0.51100000000E-03 0.  1.
         12    1    4    4    0    0 -0.62576151575E+01  0.71717729126E+00 -0.18144307669E+01  0.65547120253E+01  0.00000000000E+00 0. -1.
</event>
<event>
 8    1  0.2534787E-006  0.9118800E+02  0.7816164E-02  0.1184000E+00
        -11   -1    0    0    0    0  0.00000000000E+00  0.00000000000E+00  0.45593999997E+02  0.45594000000E+02  0.51100000000E-03 0. -1.
         11   -1    0    0    0    0 -0.00000000000E+00 -0.00000000000E+00 -0.45593999997E+02  0.45594000000E+02  0.51100000000E-03 0.  1.
         23    2    1    2    0    0 -0.35527136788E-14  0.00000000000E+00  0.00000000000E+00  0.91188000000E+02  0.91188000000E+02 0.  0.
    9900012    2    3    3    0    0  0.13288497897E+02  0.67303529130E+01 -0.33673392860E+02  0.54367092714E+02  0.40000019460E+02 0.  0.
         12    1    3    3    0    0 -0.13288497897E+02 -0.67303529130E+01  0.33673392860E+02  0.36820907286E+02  0.00000000000E+00 0. -1.
         11    1    4    4    0    0 -0.88617155140E+01 -0.24347268748E-01 -0.12871032037E+02  0.15626709846E+02  0.51100000000E-03 0. -1.
        -11    1    4    4    0    0 -0.36300506185E+01  0.44377381993E+01 -0.33719712596E+00  0.57432125140E+01  0.51100000000E-03 0.  1.
         12    1    4    4    0    0  0.25780264030E+02  0.23169619824E+01 -0.20465163696E+02  0.32997170354E+02  0.00000000000E+00 0. -1.
</event>
<event>
 8    1  0.2534787E-006  0.9118800E+02  0.7816164E-02  0.1184000E+00
        -11   -1    0    0    0    0  0.00000000000E+00  0.00000000000E+00  0.45593999997E+02  0.45594000000E+02  0.51100000000E-03 0.  1.
         11   -1    0    0    0    0 -0.00000000000E+00 -0.00000000000E+00 -0.45593999997E+02  0.45594000000E+02  0.51100000000E-03 0. -1.
         23    2    1    2    0    0  0.00000000000E+00  0.71054273576E-14  0.44408920985E-15  0.91188000000E+02  0.91188000000E+02 0.  0.
    9900012    2    3    3    0    0  0.94985880095E+01 -0.35376876873E+02  0.37460158408E+01  0.54367092541E+02  0.40000019065E+02 0.  0.
        -12    1    3    3    0    0 -0.94985880095E+01  0.35376876873E+02 -0.37460158408E+01  0.36820907459E+02  0.00000000000E+00 0.  1.
         11    1    4    4    0    0 -0.46883050588E+01 -0.10292258290E+02  0.11207026363E+02  0.15921941628E+02  0.51100000000E-03 0. -1.
        -11    1    4    4    0    0  0.26938221158E+01 -0.17237838025E+02  0.66077762725E+01  0.18656431730E+02  0.51100000000E-03 0.  1.
         12    1    4    4    0    0  0.11493070952E+02 -0.78467805578E+01 -0.14068786795E+02  0.19788719183E+02  0.00000000000E+00 0. -1.
</event>
<event>
 8    1  0.2534787E-006  0.9118800E+02  0.7816164E-02  0.1184000E+00
        -11   -1    0    0    0    0  0.00000000000E+00  0.00000000000E+00  0.45593999997E+02  0.45594000000E+02  0.51100000000E-03 0. -1.
         11   -1    0    0    0    0 -0.00000000000E+00 -0.00000000000E+00 -0.45593999997E+02  0.45594000000E+02  0.51100000000E-03 0.  1.
         23    2    1    2    0    0  0.35527136788E-14  0.77715611724E-15  0.00000000000E+00  0.91188000000E+02  0.91188000000E+02 0.  0.
    9900012    2    3    3    0    0  0.25341247405E+02  0.62525336204E+00 -0.26705996129E+02  0.54367082154E+02  0.39999995386E+02 0.  0.
         12    1    3    3    0    0 -0.25341247405E+02 -0.62525336204E+00  0.26705996129E+02  0.36820917846E+02  0.00000000000E+00 0. -1.
         11    1    4    4    0    0  0.50108547520E+01  0.10326150548E+02 -0.14988435543E+02  0.18878327541E+02  0.51100000000E-03 0.  1.
        -11    1    4    4    0    0 -0.54460573215E+01 -0.41962381261E+01 -0.42927435274E+01  0.81052823525E+01  0.51100000000E-03 0. -1.
        -12    1    4    4    0    0  0.25776449974E+02 -0.55046590594E+01 -0.74248170588E+01  0.27383472260E+02  0.00000000000E+00 0.  1.
</event>
<event>
 8    1  0.2534787E-006  0.9118800E+02  0.7816164E-02  0.1184000E+00
        -11   -1    0    0    0    0  0.00000000000E+00  0.00000000000E+00  0.45593999997E+02  0.45594000000E+02  0.51100000000E-03 0. -1.
         11   -1    0    0    0    0 -0.00000000000E+00 -0.00000000000E+00 -0.45593999997E+02  0.45594000000E+02  0.51100000000E-03 0.  1.
         23    2    1    2    0    0  0.00000000000E+00  0.00000000000E+00 -0.35527136788E-14  0.91188000000E+02  0.91188000000E+02 0.  0.
    9900012    2    3    3    0    0  0.10355486685E+02 -0.32277870464E+02  0.14376440247E+02  0.54367094792E+02  0.40000024198E+02 0.  0.
        -12    1    3    3    0    0 -0.10355486685E+02  0.32277870464E+02 -0.14376440247E+02  0.36820905208E+02  0.00000000000E+00 0.  1.
         11    1    4    4    0    0  0.10868900850E+02 -0.39174823252E+02  0.14423805327E+02  0.43137523607E+02  0.51100000000E-03 0. -1.
        -11    1    4    4    0    0 -0.50937917145E+00 -0.18090703414E+01 -0.14981840360E+01  0.24034887783E+01  0.51100000000E-03 0.  1.
         12    1    4    4    0    0 -0.40349938023E-02  0.87060231298E+01  0.14508189557E+01  0.88260824073E+01  0.00000000000E+00 0. -1.
</event>
<event>
 8    1  0.2534787E-006  0.9118800E+02  0.7816164E-02  0.1184000E+00
        -11   -1    0    0    0    0  0.00000000000E+00  0.00000000000E+00  0.45593999997E+02  0.45594000000E+02  0.51100000000E-03 0.  1.
         11   -1    0    0    0    0 -0.00000000000E+00 -0.00000000000E+00 -0.45593999997E+02  0.45594000000E+02  0.51100000000E-03 0. -1.
         23    2    1    2    0    0  0.00000000000E+00  0.00000000000E+00  0.00000000000E+00  0.91188000000E+02  0.91188000000E+02 0.  0.
    9900012    2    3    3    0    0  0.50950844176E+01  0.25098755946E+02 -0.26455094933E+02  0.54367089050E+02  0.40000011106E+02 0.  0.
        -12    1    3    3    0    0 -0.50950844176E+01 -0.25098755946E+02  0.26455094933E+02  0.36820910950E+02  0.00000000000E+00 0.  1.
         11    1    4    4    0    0  0.38686624226E+01  0.10906446292E+02 -0.21503590665E+02  0.24419695564E+02  0.51100000000E-03 0. -1.
        -11    1    4    4    0    0  0.89493188936E+01  0.18190864258E+02 -0.61102973653E+01  0.21173889234E+02  0.51100000000E-03 0.  1.
        -12    1    4    4    0    0 -0.77228968987E+01 -0.39985546037E+01  0.11587930971E+01  0.87735042525E+01  0.00000000000E+00 0.  1.
</event>
<event>
 8    1  0.2534787E-006  0.9118800E+02  0.7816164E-02  0.1184000E+00
        -11   -1    0    0    0    0  0.00000000000E+00  0.00000000000E+00  0.45593999997E+02  0.45594000000E+02  0.51100000000E-03 0. -1.
         11   -1    0    0    0    0 -0.00000000000E+00 -0.00000000000E+00 -0.45593999997E+02  0.45594000000E+02  0.51100000000E-03 0.  1.
         23    2    1    2    0    0 -0.35527136788E-14  0.35527136788E-14  0.17763568394E-14  0.91188000000E+02  0.91188000000E+02 0.  0.
    9900012    2    3    3    0    0  0.24212849989E+02  0.24555914007E+02 -0.12904411736E+02  0.54367097519E+02  0.40000030414E+02 0.  0.
         12    1    3    3    0    0 -0.24212849989E+02 -0.24555914007E+02  0.12904411736E+02  0.36820902481E+02  0.00000000000E+00 0. -1.
         11    1    4    4    0    0 -0.76331972804E+01  0.48110689345E+01 -0.30802228915E+01  0.95341417200E+01  0.51100000000E-03 0.  1.
        -11    1    4    4    0    0  0.25021187489E+02  0.49429273373E+01  0.55236372455E+00  0.25510732250E+02  0.51100000000E-03 0. -1.
         12    1    4    4    0    0  0.68248597807E+01  0.14801917735E+02 -0.10376552569E+02  0.19322223549E+02  0.00000000000E+00 0. -1.
</event>
<event>
 8    1  0.2534787E-006  0.9118800E+02  0.7816164E-02  0.1184000E+00
        -11   -1    0    0    0    0  0.00000000000E+00  0.00000000000E+00  0.45593999997E+02  0.45594000000E+02  0.51100000000E-03 0.  1.
         11   -1    0    0    0    0 -0.00000000000E+00 -0.00000000000E+00 -0.45593999997E+02  0.45594000000E+02  0.51100000000E-03 0. -1.
         23    2    1    2    0    0  0.17763568394E-14  0.35527136788E-14  0.35527136788E-14  0.91188000000E+02  0.91188000000E+02 0.  0.
    9900012    2    3    3    0    0 -0.13409144812E+02 -0.24020731065E+02 -0.24474031399E+02  0.54367096991E+02  0.40000029210E+02 0.  0.
        -12    1    3    3    0    0  0.13409144812E+02  0.24020731065E+02  0.24474031399E+02  0.36820903009E+02  0.00000000000E+00 0.  1.
         11    1    4    4    0    0  0.55066888670E+01 -0.75916464139E+01 -0.18415125044E+01  0.95576088075E+01  0.51100000000E-03 0. -1.
        -11    1    4    4    0    0 -0.31998895731E+01  0.10776381267E+01 -0.20953251453E+02  0.21223556344E+02  0.51100000000E-03 0.  1.
        -12    1    4    4    0    0 -0.15715944106E+02 -0.17506722778E+02 -0.16792674423E+01  0.23585931839E+02  0.00000000000E+00 0.  1.
</event>
<event>
 8    1  0.2534787E-006  0.9118800E+02  0.7816164E-02  0.1184000E+00
        -11   -1    0    0    0    0  0.00000000000E+00  0.00000000000E+00  0.45593999997E+02  0.45594000000E+02  0.51100000000E-03 0. -1.
         11   -1    0    0    0    0 -0.00000000000E+00 -0.00000000000E+00 -0.45593999997E+02  0.45594000000E+02  0.51100000000E-03 0.  1.
         23    2    1    2    0    0 -0.71054273576E-14  0.00000000000E+00  0.00000000000E+00  0.91188000000E+02  0.91188000000E+02 0.  0.
    9900012    2    3    3    0    0 -0.36058009985E+02 -0.58801750914E+01 -0.45852299202E+01  0.54367070128E+02  0.39999967972E+02 0.  0.
         12    1    3    3    0    0  0.36058009985E+02  0.58801750914E+01  0.45852299202E+01  0.36820929872E+02  0.00000000000E+00 0. -1.
         11    1    4    4    0    0 -0.33839768481E+02  0.86909558678E+01 -0.20231031907E+01  0.34996508276E+02  0.51100000000E-03 0. -1.
        -11    1    4    4    0    0 -0.68281699568E+01 -0.48252588894E+01 -0.18673788670E+01  0.85670375511E+01  0.51100000000E-03 0.  1.
        -12    1    4    4    0    0  0.46099284525E+01 -0.97458720699E+01 -0.69474786257E+00  0.10803524301E+02  0.00000000000E+00 0.  1.
</event>
<event>
 8    1  0.2534787E-006  0.9118800E+02  0.7816164E-02  0.1184000E+00
        -11   -1    0    0    0    0  0.00000000000E+00  0.00000000000E+00  0.45593999997E+02  0.45594000000E+02  0.51100000000E-03 0.  1.
         11   -1    0    0    0    0 -0.00000000000E+00 -0.00000000000E+00 -0.45593999997E+02  0.45594000000E+02  0.51100000000E-03 0. -1.
         23    2    1    2    0    0  0.00000000000E+00  0.35527136788E-14 -0.35527136788E-14  0.91188000000E+02  0.91188000000E+02 0.  0.
    9900012    2    3    3    0    0 -0.77687862671E+01 -0.27589362222E+02  0.23113922070E+02  0.54367077397E+02  0.39999984543E+02 0.  0.
         12    1    3    3    0    0  0.77687862671E+01  0.27589362222E+02 -0.23113922070E+02  0.36820922603E+02  0.00000000000E+00 0. -1.
         11    1    4    4    0    0 -0.12023575350E+02 -0.66185884218E+01  0.54785636249E+00  0.13735800805E+02  0.51100000000E-03 0. -1.
        -11    1    4    4    0    0 -0.35575274445E+00 -0.35996771120E+01  0.22367035857E+02  0.22657637313E+02  0.51100000000E-03 0.  1.
        -12    1    4    4    0    0  0.46105418270E+01 -0.17371096688E+02  0.19902985061E+00  0.17973639280E+02  0.00000000000E+00 0.  1.
</event>
<event>
 8    1  0.2534787E-006  0.9118800E+02  0.7816164E-02  0.1184000E+00
        -11   -1    0    0    0    0  0.00000000000E+00  0.00000000000E+00  0.45593999997E+02  0.45594000000E+02  0.51100000000E-03 0. -1.
         11   -1    0    0    0    0 -0.00000000000E+00 -0.00000000000E+00 -0.45593999997E+02  0.45594000000E+02  0.51100000000E-03 0.  1.
         23    2    1    2    0    0  0.00000000000E+00  0.00000000000E+00  0.00000000000E+00  0.91188000000E+02  0.91188000000E+02 0.  0.
    9900012    2    3    3    0    0 -0.23170143549E+02  0.18402902342E+02  0.21914838243E+02  0.54367048058E+02  0.39999917658E+02 0.  0.
        -12    1    3    3    0    0  0.23170143549E+02 -0.18402902342E+02 -0.21914838243E+02  0.36820951942E+02  0.00000000000E+00 0.  1.
         11    1    4    4    0    0 -0.15163239554E+02  0.83798136657E+01  0.58405762086E+01  0.18282708813E+02  0.51100000000E-03 0. -1.
        -11    1    4    4    0    0  0.78776679494E+01  0.59148105687E+01  0.17003292319E+02  0.19650816429E+02  0.51100000000E-03 0.  1.
        -12    1    4    4    0    0 -0.15884571944E+02  0.41082781074E+01 -0.92903028449E+00  0.16433522815E+02  0.00000000000E+00 0.  1.
</event>
<event>
 8    1  0.2534787E-006  0.9118800E+02  0.7816164E-02  0.1184000E+00
        -11   -1    0    0    0    0  0.00000000000E+00  0.00000000000E+00  0.45593999997E+02  0.45594000000E+02  0.51100000000E-03 0. -1.
         11   -1    0    0    0    0 -0.00000000000E+00 -0.00000000000E+00 -0.45593999997E+02  0.45594000000E+02  0.51100000000E-03 0.  1.
         23    2    1    2    0    0  0.17763568394E-14  0.00000000000E+00  0.00000000000E+00  0.91188000000E+02  0.91188000000E+02 0.  0.
    9900012    2    3    3    0    0  0.98151162161E+01 -0.28791873423E+02  0.20747826863E+02  0.54367071154E+02  0.39999970310E+02 0.  0.
        -12    1    3    3    0    0 -0.98151162161E+01  0.28791873423E+02 -0.20747826863E+02  0.36820928846E+02  0.00000000000E+00 0.  1.
         11    1    4    4    0    0  0.59562257711E+01 -0.25123828833E+02  0.15305004890E+02  0.30015438954E+02  0.51100000000E-03 0. -1.
        -11    1    4    4    0    0  0.17307461885E+01 -0.11695406902E+02 -0.33186578418E+01  0.12279719667E+02  0.51100000000E-03 0.  1.
         12    1    4    4    0    0  0.21281442564E+01  0.80273623117E+01  0.87614798150E+01  0.12071912533E+02  0.00000000000E+00 0. -1.
</event>
<event>
 8    1  0.2534787E-006  0.9118800E+02  0.7816164E-02  0.1184000E+00
        -11   -1    0    0    0    0  0.00000000000E+00  0.00000000000E+00  0.45593999997E+02  0.45594000000E+02  0.51100000000E-03 0. -1.
         11   -1    0    0    0    0 -0.00000000000E+00 -0.00000000000E+00 -0.45593999997E+02  0.45594000000E+02  0.51100000000E-03 0.  1.
         23    2    1    2    0    0  0.00000000000E+00  0.88817841970E-15  0.00000000000E+00  0.91188000000E+02  0.91188000000E+02 0.  0.
    9900012    2    3    3    0    0  0.92539497666E+01  0.75603097532E+01  0.34827942432E+02  0.54367089584E+02  0.40000012324E+02 0.  0.
        -12    1    3    3    0    0 -0.92539497666E+01 -0.75603097532E+01 -0.34827942432E+02  0.36820910416E+02  0.00000000000E+00 0.  1.
         11    1    4    4    0    0  0.72297675085E+01  0.33017279686E+01  0.15868419325E+02  0.17747610485E+02  0.51100000000E-03 0. -1.
        -11    1    4    4    0    0 -0.86890336095E+00 -0.12277506327E+02  0.15010007394E+01  0.12399401524E+02  0.51100000000E-03 0.  1.
        -12    1    4    4    0    0  0.28930856190E+01  0.16536088112E+02  0.17458522368E+02  0.24220077575E+02  0.00000000000E+00 0.  1.
</event>
<event>
 8    1  0.2534787E-006  0.9118800E+02  0.7816164E-02  0.1184000E+00
        -11   -1    0    0    0    0  0.00000000000E+00  0.00000000000E+00  0.45593999997E+02  0.45594000000E+02  0.51100000000E-03 0.  1.
         11   -1    0    0    0    0 -0.00000000000E+00 -0.00000000000E+00 -0.45593999997E+02  0.45594000000E+02  0.51100000000E-03 0. -1.
         23    2    1    2    0    0  0.00000000000E+00  0.00000000000E+00 -0.17763568394E-14  0.91188000000E+02  0.91188000000E+02 0.  0.
    9900012    2    3    3    0    0 -0.27202135974E+02  0.22517050044E+02  0.10430851441E+02  0.54367130836E+02  0.40000106366E+02 0.  0.
         12    1    3    3    0    0  0.27202135974E+02 -0.22517050044E+02 -0.10430851441E+02  0.36820869164E+02  0.00000000000E+00 0. -1.
         11    1    4    4    0    0 -0.11676529617E+02 -0.90441207140E+01  0.10562290298E+01  0.14807197014E+02  0.51100000000E-03 0. -1.
        -11    1    4    4    0    0 -0.15314852004E+02  0.26800135609E+02  0.13078947053E+02  0.33523884274E+02  0.51100000000E-03 0.  1.
         12    1    4    4    0    0 -0.21075435232E+00  0.47610351491E+01 -0.37043246410E+01  0.60360495470E+01  0.00000000000E+00 0. -1.
</event>
<event>
 8    1  0.2534787E-006  0.9118800E+02  0.7816164E-02  0.1184000E+00
        -11   -1    0    0    0    0  0.00000000000E+00  0.00000000000E+00  0.45593999997E+02  0.45594000000E+02  0.51100000000E-03 0.  1.
         11   -1    0    0    0    0 -0.00000000000E+00 -0.00000000000E+00 -0.45593999997E+02  0.45594000000E+02  0.51100000000E-03 0. -1.
         23    2    1    2    0    0  0.00000000000E+00 -0.88817841970E-15  0.35527136788E-14  0.91188000000E+02  0.91188000000E+02 0.  0.
    9900012    2    3    3    0    0 -0.32412261709E+02 -0.40964397983E+01 -0.16983647572E+02  0.54367084572E+02  0.40000000900E+02 0.  0.
        -12    1    3    3    0    0  0.32412261709E+02  0.40964397983E+01  0.16983647572E+02  0.36820915428E+02  0.00000000000E+00 0.  1.
         11    1    4    4    0    0 -0.59588843490E+01 -0.70147685933E+01 -0.12231684651E+01  0.92850106331E+01  0.51100000000E-03 0. -1.
        -11    1    4    4    0    0  0.11391950450E+01 -0.96063762653E+01  0.21124960004E+01  0.99016599575E+01  0.51100000000E-03 0.  1.
         12    1    4    4    0    0 -0.27592572405E+02  0.12524705060E+02 -0.17872975107E+02  0.35180413982E+02  0.00000000000E+00 0. -1.
</event>
<event>
 8    1  0.2534787E-006  0.9118800E+02  0.7816164E-02  0.1184000E+00
        -11   -1    0    0    0    0  0.00000000000E+00  0.00000000000E+00  0.45593999997E+02  0.45594000000E+02  0.51100000000E-03 0.  1.
         11   -1    0    0    0    0 -0.00000000000E+00 -0.00000000000E+00 -0.45593999997E+02  0.45594000000E+02  0.51100000000E-03 0. -1.
         23    2    1    2    0    0 -0.88817841970E-15  0.35527136788E-14 -0.35527136788E-14  0.91188000000E+02  0.91188000000E+02 0.  0.
    9900012    2    3    3    0    0 -0.12393429285E+01  0.20891901251E+02 -0.30294742012E+02  0.54367096937E+02  0.40000029087E+02 0.  0.
        -12    1    3    3    0    0  0.12393429285E+01 -0.20891901251E+02  0.30294742012E+02  0.36820903063E+02  0.00000000000E+00 0.  1.
         11    1    4    4    0    0  0.43584629698E+01  0.13748269674E+02 -0.18082894610E+02  0.23130114488E+02  0.51100000000E-03 0. -1.
        -11    1    4    4    0    0  0.20529142327E+00 -0.77686214245E+01 -0.13077133799E+02  0.15212003552E+02  0.51100000000E-03 0.  1.
        -12    1    4    4    0    0 -0.58030973216E+01  0.14912253001E+02  0.86528639677E+00  0.16024978897E+02  0.00000000000E+00 0.  1.
</event>
<event>
 8    1  0.2534787E-006  0.9118800E+02  0.7816164E-02  0.1184000E+00
        -11   -1    0    0    0    0  0.00000000000E+00  0.00000000000E+00  0.45593999997E+02  0.45594000000E+02  0.51100000000E-03 0. -1.
         11   -1    0    0    0    0 -0.00000000000E+00 -0.00000000000E+00 -0.45593999997E+02  0.45594000000E+02  0.51100000000E-03 0.  1.
         23    2    1    2    0    0  0.17763568394E-14  0.35527136788E-14  0.71054273576E-14  0.91188000000E+02  0.91188000000E+02 0.  0.
    9900012    2    3    3    0    0  0.82579647027E+01  0.15339178936E+02 -0.32439107710E+02  0.54367080668E+02  0.39999991999E+02 0.  0.
         12    1    3    3    0    0 -0.82579647027E+01 -0.15339178936E+02  0.32439107710E+02  0.36820919332E+02  0.00000000000E+00 0. -1.
         11    1    4    4    0    0 -0.43624804029E+01 -0.12645794165E+01  0.68631020381E+01  0.82299797213E+01  0.51100000000E-03 0. -1.
        -11    1    4    4    0    0  0.14226119015E+02  0.10518622965E+02 -0.26376928112E+02  0.31761080401E+02  0.51100000000E-03 0.  1.
         12    1    4    4    0    0 -0.16056739093E+01  0.60851353873E+01 -0.12925281635E+02  0.14376020546E+02  0.00000000000E+00 0. -1.
</event>
<event>
 8    1  0.2534787E-006  0.9118800E+02  0.7816164E-02  0.1184000E+00
        -11   -1    0    0    0    0  0.00000000000E+00  0.00000000000E+00  0.45593999997E+02  0.45594000000E+02  0.51100000000E-03 0. -1.
         11   -1    0    0    0    0 -0.00000000000E+00 -0.00000000000E+00 -0.45593999997E+02  0.45594000000E+02  0.51100000000E-03 0.  1.
         23    2    1    2    0    0  0.35527136788E-14 -0.66613381478E-15 -0.35527136788E-14  0.91188000000E+02  0.91188000000E+02 0.  0.
    9900012    2    3    3    0    0 -0.26907889319E+02 -0.17950801121E+01  0.25070362918E+02  0.54367083159E+02  0.39999997677E+02 0.  0.
        -12    1    3    3    0    0  0.26907889319E+02  0.17950801121E+01 -0.25070362918E+02  0.36820916841E+02  0.00000000000E+00 0.  1.
         11    1    4    4    0    0 -0.19954055215E+02  0.84804926763E+01  0.25160291098E+02  0.33213300407E+02  0.51100000000E-03 0. -1.
        -11    1    4    4    0    0 -0.76276859926E+01 -0.25912502377E+01  0.70033398150E+01  0.10674405849E+02  0.51100000000E-03 0.  1.
        -12    1    4    4    0    0  0.67385188880E+00 -0.76843225507E+01 -0.70932679947E+01  0.10479376903E+02  0.00000000000E+00 0.  1.
</event>
<event>
 8    1  0.2534787E-006  0.9118800E+02  0.7816164E-02  0.1184000E+00
        -11   -1    0    0    0    0  0.00000000000E+00  0.00000000000E+00  0.45593999997E+02  0.45594000000E+02  0.51100000000E-03 0.  1.
         11   -1    0    0    0    0 -0.00000000000E+00 -0.00000000000E+00 -0.45593999997E+02  0.45594000000E+02  0.51100000000E-03 0. -1.
         23    2    1    2    0    0  0.00000000000E+00 -0.35527136788E-14 -0.17763568394E-14  0.91188000000E+02  0.91188000000E+02 0.  0.
    9900012    2    3    3    0    0  0.25723571715E+02  0.23199316732E+02  0.12484766420E+02  0.54367084325E+02  0.40000000335E+02 0.  0.
         12    1    3    3    0    0 -0.25723571715E+02 -0.23199316732E+02 -0.12484766420E+02  0.36820915675E+02  0.00000000000E+00 0. -1.
         11    1    4    4    0    0  0.12140201043E+00 -0.54985146771E+01 -0.18072532090E+01  0.57891766707E+01  0.51100000000E-03 0. -1.
        -11    1    4    4    0    0  0.10378690923E+02  0.48766208448E+01  0.16641929020E+02  0.20210206776E+02  0.51100000000E-03 0.  1.
         12    1    4    4    0    0  0.15223478782E+02  0.23821210565E+02 -0.23499093915E+01  0.28367700878E+02  0.00000000000E+00 0. -1.
</event>
<event>
 8    1  0.2534787E-006  0.9118800E+02  0.7816164E-02  0.1184000E+00
        -11   -1    0    0    0    0  0.00000000000E+00  0.00000000000E+00  0.45593999997E+02  0.45594000000E+02  0.51100000000E-03 0.  1.
         11   -1    0    0    0    0 -0.00000000000E+00 -0.00000000000E+00 -0.45593999997E+02  0.45594000000E+02  0.51100000000E-03 0. -1.
         23    2    1    2    0    0  0.00000000000E+00  0.00000000000E+00  0.35527136788E-14  0.91188000000E+02  0.91188000000E+02 0.  0.
    9900012    2    3    3    0    0 -0.10661895999E+02  0.17975744462E+02 -0.30314624568E+02  0.54367083690E+02  0.39999998888E+02 0.  0.
        -12    1    3    3    0    0  0.10661895999E+02 -0.17975744462E+02  0.30314624568E+02  0.36820916310E+02  0.00000000000E+00 0.  1.
         11    1    4    4    0    0  0.21528205037E+01  0.46740907754E+01 -0.56936226425E+01  0.76745748908E+01  0.51100000000E-03 0. -1.
        -11    1    4    4    0    0 -0.76964490842E+01 -0.22048340470E+01  0.73017638174E+01  0.10835699183E+02  0.51100000000E-03 0.  1.
        -12    1    4    4    0    0 -0.51182674181E+01  0.15506487733E+02 -0.31922765743E+02  0.35856809616E+02  0.00000000000E+00 0.  1.
</event>
<event>
 8    1  0.2534787E-006  0.9118800E+02  0.7816164E-02  0.1184000E+00
        -11   -1    0    0    0    0  0.00000000000E+00  0.00000000000E+00  0.45593999997E+02  0.45594000000E+02  0.51100000000E-03 0. -1.
         11   -1    0    0    0    0 -0.00000000000E+00 -0.00000000000E+00 -0.45593999997E+02  0.45594000000E+02  0.51100000000E-03 0.  1.
         23    2    1    2    0    0  0.00000000000E+00  0.17763568394E-14  0.00000000000E+00  0.91188000000E+02  0.91188000000E+02 0.  0.
    9900012    2    3    3    0    0 -0.98954629808E+01  0.15154215766E+02 -0.32065712876E+02  0.54367076800E+02  0.39999983181E+02 0.  0.
         12    1    3    3    0    0  0.98954629808E+01 -0.15154215766E+02  0.32065712876E+02  0.36820923200E+02  0.00000000000E+00 0. -1.
         11    1    4    4    0    0 -0.80282930077E+01 -0.88851270645E+01 -0.32088366203E+01  0.12397403127E+02  0.51100000000E-03 0. -1.
        -11    1    4    4    0    0  0.67932540113E+01  0.66472092630E+01 -0.16197949352E+02  0.18780501977E+02  0.51100000000E-03 0.  1.
        -12    1    4    4    0    0 -0.86604239845E+01  0.17392133567E+02 -0.12658926903E+02  0.23189171696E+02  0.00000000000E+00 0.  1.
</event>
<event>
 8    1  0.2534787E-006  0.9118800E+02  0.7816164E-02  0.1184000E+00
        -11   -1    0    0    0    0  0.00000000000E+00  0.00000000000E+00  0.45593999997E+02  0.45594000000E+02  0.51100000000E-03 0.  1.
         11   -1    0    0    0    0 -0.00000000000E+00 -0.00000000000E+00 -0.45593999997E+02  0.45594000000E+02  0.51100000000E-03 0. -1.
         23    2    1    2    0    0  0.88817841970E-15  0.00000000000E+00 -0.35527136788E-14  0.91188000000E+02  0.91188000000E+02 0.  0.
    9900012    2    3    3    0    0 -0.36199007582E+01  0.17870891738E+02  0.31989098564E+02  0.54367151559E+02  0.40000153609E+02 0.  0.
         12    1    3    3    0    0  0.36199007582E+01 -0.17870891738E+02 -0.31989098564E+02  0.36820848441E+02  0.00000000000E+00 0. -1.
         11    1    4    4    0    0 -0.11679646404E+02  0.17042988548E+02  0.34534911509E+02  0.40243480366E+02  0.51100000000E-03 0. -1.
        -11    1    4    4    0    0  0.19902575447E+00 -0.26900219602E+01  0.28792453672E+01  0.39453622828E+01  0.51100000000E-03 0.  1.
         12    1    4    4    0    0  0.78607198912E+01  0.35179251504E+01 -0.54250583129E+01  0.10178308910E+02  0.00000000000E+00 0. -1.
</event>
<event>
 8    1  0.2534787E-006  0.9118800E+02  0.7816164E-02  0.1184000E+00
        -11   -1    0    0    0    0  0.00000000000E+00  0.00000000000E+00  0.45593999997E+02  0.45594000000E+02  0.51100000000E-03 0.  1.
         11   -1    0    0    0    0 -0.00000000000E+00 -0.00000000000E+00 -0.45593999997E+02  0.45594000000E+02  0.51100000000E-03 0. -1.
         23    2    1    2    0    0  0.00000000000E+00 -0.35527136788E-14  0.35527136788E-14  0.91188000000E+02  0.91188000000E+02 0.  0.
    9900012    2    3    3    0    0  0.29670949484E+01 -0.20706828981E+02  0.30301883985E+02  0.54367073995E+02  0.39999976786E+02 0.  0.
         12    1    3    3    0    0 -0.29670949484E+01  0.20706828981E+02 -0.30301883985E+02  0.36820926005E+02  0.00000000000E+00 0. -1.
         11    1    4    4    0    0 -0.38720102407E+01 -0.19338723493E+02  0.18150728742E+02  0.26803500588E+02  0.51100000000E-03 0. -1.
        -11    1    4    4    0    0  0.88410839634E+01 -0.11431793907E+02  0.64563209259E+01  0.15828289792E+02  0.51100000000E-03 0.  1.
         12    1    4    4    0    0 -0.20019787743E+01  0.10063688419E+02  0.56948343168E+01  0.11735283614E+02  0.00000000000E+00 0. -1.
</event>
<event>
 8    1  0.2534787E-006  0.9118800E+02  0.7816164E-02  0.1184000E+00
        -11   -1    0    0    0    0  0.00000000000E+00  0.00000000000E+00  0.45593999997E+02  0.45594000000E+02  0.51100000000E-03 0.  1.
         11   -1    0    0    0    0 -0.00000000000E+00 -0.00000000000E+00 -0.45593999997E+02  0.45594000000E+02  0.51100000000E-03 0. -1.
         23    2    1    2    0    0 -0.17763568394E-14  0.22204460493E-15  0.00000000000E+00  0.91188000000E+02  0.91188000000E+02 0.  0.
    9900012    2    3    3    0    0 -0.14598705204E+02 -0.17300323027E+01  0.33758924862E+02  0.54367079136E+02  0.39999988507E+02 0.  0.
         12    1    3    3    0    0  0.14598705204E+02  0.17300323027E+01 -0.33758924862E+02  0.36820920864E+02  0.00000000000E+00 0. -1.
         11    1    4    4    0    0 -0.18480243042E+02  0.22218545608E+01  0.17446383902E+02  0.25511415721E+02  0.51100000000E-03 0. -1.
        -11    1    4    4    0    0  0.16688489520E+01  0.90253241221E+01  0.11778312444E+02  0.14932185929E+02  0.51100000000E-03 0.  1.
         12    1    4    4    0    0  0.22126888856E+01 -0.12977210986E+02  0.45342285161E+01  0.13923477486E+02  0.00000000000E+00 0. -1.
</event>
<event>
 8    1  0.2534787E-006  0.9118800E+02  0.7816164E-02  0.1184000E+00
        -11   -1    0    0    0    0  0.00000000000E+00  0.00000000000E+00  0.45593999997E+02  0.45594000000E+02  0.51100000000E-03 0.  1.
         11   -1    0    0    0    0 -0.00000000000E+00 -0.00000000000E+00 -0.45593999997E+02  0.45594000000E+02  0.51100000000E-03 0. -1.
         23    2    1    2    0    0 -0.44408920985E-15 -0.33306690739E-15  0.71054273576E-14  0.91188000000E+02  0.91188000000E+02 0.  0.
    9900012    2    3    3    0    0 -0.21691709156E+01 -0.86174354310E+00  0.36746849608E+02  0.54367097506E+02  0.40000030384E+02 0.  0.
         12    1    3    3    0    0  0.21691709156E+01  0.86174354310E+00 -0.36746849608E+02  0.36820902494E+02  0.00000000000E+00 0. -1.
         11    1    4    4    0    0 -0.38659101449E+01  0.28971174472E+01  0.22688401301E+02  0.23197027926E+02  0.51100000000E-03 0. -1.
        -11    1    4    4    0    0  0.65343657119E+01 -0.16836793240E+01  0.21228535065E+02  0.22275174805E+02  0.51100000000E-03 0.  1.
         12    1    4    4    0    0 -0.48376264826E+01 -0.20751816663E+01 -0.71700867582E+01  0.88948947747E+01  0.00000000000E+00 0. -1.
</event>
<event>
 8    1  0.2534787E-006  0.9118800E+02  0.7816164E-02  0.1184000E+00
        -11   -1    0    0    0    0  0.00000000000E+00  0.00000000000E+00  0.45593999997E+02  0.45594000000E+02  0.51100000000E-03 0.  1.
         11   -1    0    0    0    0 -0.00000000000E+00 -0.00000000000E+00 -0.45593999997E+02  0.45594000000E+02  0.51100000000E-03 0. -1.
         23    2    1    2    0    0  0.00000000000E+00 -0.35527136788E-14  0.00000000000E+00  0.91188000000E+02  0.91188000000E+02 0.  0.
    9900012    2    3    3    0    0 -0.96849275299E+01 -0.18409979376E+02 -0.30381811178E+02  0.54367087296E+02  0.40000007109E+02 0.  0.
        -12    1    3    3    0    0  0.96849275299E+01  0.18409979376E+02  0.30381811178E+02  0.36820912704E+02  0.00000000000E+00 0.  1.
         11    1    4    4    0    0 -0.76063102541E+01  0.64613187983E+01 -0.42291072955E+01  0.10839277885E+02  0.51100000000E-03 0. -1.
        -11    1    4    4    0    0  0.10344683886E+01 -0.80183365794E+01  0.38658715096E+01  0.89615182384E+01  0.51100000000E-03 0.  1.
        -12    1    4    4    0    0 -0.31130856645E+01 -0.16852961595E+02 -0.30018575392E+02  0.34566291173E+02  0.00000000000E+00 0.  1.
</event>
<event>
 8    1  0.2534787E-006  0.9118800E+02  0.7816164E-02  0.1184000E+00
        -11   -1    0    0    0    0  0.00000000000E+00  0.00000000000E+00  0.45593999997E+02  0.45594000000E+02  0.51100000000E-03 0.  1.
         11   -1    0    0    0    0 -0.00000000000E+00 -0.00000000000E+00 -0.45593999997E+02  0.45594000000E+02  0.51100000000E-03 0. -1.
         23    2    1    2    0    0  0.00000000000E+00  0.00000000000E+00  0.00000000000E+00  0.91188000000E+02  0.91188000000E+02 0.  0.
    9900012    2    3    3    0    0 -0.28195237726E+02  0.10405900117E+02 -0.21272655535E+02  0.54367081202E+02  0.39999993215E+02 0.  0.
        -12    1    3    3    0    0  0.28195237726E+02 -0.10405900117E+02  0.21272655535E+02  0.36820918798E+02  0.00000000000E+00 0.  1.
         11    1    4    4    0    0 -0.31361651890E+02  0.10548035236E+02 -0.11335512228E+02  0.34975821568E+02  0.51100000000E-03 0. -1.
        -11    1    4    4    0    0 -0.47581608484E+01 -0.18647588298E+01  0.15405381862E+01  0.53376659990E+01  0.51100000000E-03 0.  1.
         12    1    4    4    0    0  0.79245750132E+01  0.17226237104E+01 -0.11477681493E+02  0.14053593634E+02  0.00000000000E+00 0. -1.
</event>
<event>
 8    1  0.2534787E-006  0.9118800E+02  0.7816164E-02  0.1184000E+00
        -11   -1    0    0    0    0  0.00000000000E+00  0.00000000000E+00  0.45593999997E+02  0.45594000000E+02  0.51100000000E-03 0. -1.
         11   -1    0    0    0    0 -0.00000000000E+00 -0.00000000000E+00 -0.45593999997E+02  0.45594000000E+02  0.51100000000E-03 0.  1.
         23    2    1    2    0    0 -0.88817841970E-15  0.00000000000E+00  0.71054273576E-14  0.91188000000E+02  0.91188000000E+02 0.  0.
    9900012    2    3    3    0    0 -0.71026874107E+01 -0.84927030855E+01  0.35117028394E+02  0.54367083969E+02  0.39999999524E+02 0.  0.
        -12    1    3    3    0    0  0.71026874107E+01  0.84927030855E+01 -0.35117028394E+02  0.36820916031E+02  0.00000000000E+00 0.  1.
         11    1    4    4    0    0 -0.57268130688E+01  0.16699187163E+01  0.17403369744E+02  0.18397344786E+02  0.51100000000E-03 0. -1.
        -11    1    4    4    0    0  0.11496504659E+02 -0.13674588940E+02  0.11537125572E+02  0.21266623351E+02  0.51100000000E-03 0.  1.
        -12    1    4    4    0    0 -0.12872379001E+02  0.35119671377E+01  0.61765330776E+01  0.14703115832E+02  0.00000000000E+00 0.  1.
</event>
<event>
 8    1  0.2534787E-006  0.9118800E+02  0.7816164E-02  0.1184000E+00
        -11   -1    0    0    0    0  0.00000000000E+00  0.00000000000E+00  0.45593999997E+02  0.45594000000E+02  0.51100000000E-03 0. -1.
         11   -1    0    0    0    0 -0.00000000000E+00 -0.00000000000E+00 -0.45593999997E+02  0.45594000000E+02  0.51100000000E-03 0.  1.
         23    2    1    2    0    0  0.71054273576E-14 -0.17763568394E-14  0.00000000000E+00  0.91188000000E+02  0.91188000000E+02 0.  0.
    9900012    2    3    3    0    0 -0.34043188958E+02  0.12636274365E+02  0.60963717355E+01  0.54367083490E+02  0.39999998433E+02 0.  0.
        -12    1    3    3    0    0  0.34043188958E+02 -0.12636274365E+02 -0.60963717355E+01  0.36820916510E+02  0.00000000000E+00 0.  1.
         11    1    4    4    0    0 -0.28910505342E+02 -0.16072287512E+01  0.22885411329E+01  0.29045445842E+02  0.51100000000E-03 0. -1.
        -11    1    4    4    0    0  0.10256844527E+01  0.14541936104E+01 -0.71634379691E+01  0.73811619309E+01  0.51100000000E-03 0.  1.
        -12    1    4    4    0    0 -0.61583680695E+01  0.12789309505E+02  0.10971268572E+02  0.17940475718E+02  0.00000000000E+00 0.  1.
</event>
<event>
 8    1  0.2534787E-006  0.9118800E+02  0.7816164E-02  0.1184000E+00
        -11   -1    0    0    0    0  0.00000000000E+00  0.00000000000E+00  0.45593999997E+02  0.45594000000E+02  0.51100000000E-03 0. -1.
         11   -1    0    0    0    0 -0.00000000000E+00 -0.00000000000E+00 -0.45593999997E+02  0.45594000000E+02  0.51100000000E-03 0.  1.
         23    2    1    2    0    0  0.00000000000E+00  0.88817841970E-15  0.00000000000E+00  0.91188000000E+02  0.91188000000E+02 0.  0.
    9900012    2    3    3    0    0  0.10328810008E+02 -0.74738876193E+01  0.34543228848E+02  0.54367109577E+02  0.40000057902E+02 0.  0.
        -12    1    3    3    0    0 -0.10328810008E+02  0.74738876193E+01 -0.34543228848E+02  0.36820890423E+02  0.00000000000E+00 0.  1.
         11    1    4    4    0    0  0.12738771319E+02  0.36569087798E+01  0.23683009176E+02  0.27139163591E+02  0.51100000000E-03 0. -1.
        -11    1    4    4    0    0 -0.78192566745E+00 -0.33915775005E+00 -0.65905565592E+01  0.66454399215E+01  0.51100000000E-03 0.  1.
         12    1    4    4    0    0 -0.16280356439E+01 -0.10791638649E+02  0.17450776232E+02  0.20582506064E+02  0.00000000000E+00 0. -1.
</event>
<event>
 8    1  0.2534787E-006  0.9118800E+02  0.7816164E-02  0.1184000E+00
        -11   -1    0    0    0    0  0.00000000000E+00  0.00000000000E+00  0.45593999997E+02  0.45594000000E+02  0.51100000000E-03 0.  1.
         11   -1    0    0    0    0 -0.00000000000E+00 -0.00000000000E+00 -0.45593999997E+02  0.45594000000E+02  0.51100000000E-03 0. -1.
         23    2    1    2    0    0  0.00000000000E+00 -0.71054273576E-14  0.00000000000E+00  0.91188000000E+02  0.91188000000E+02 0.  0.
    9900012    2    3    3    0    0 -0.10205061233E+02 -0.34380581967E+02  0.83434771122E+01  0.54367064359E+02  0.39999954818E+02 0.  0.
        -12    1    3    3    0    0  0.10205061233E+02  0.34380581967E+02 -0.83434771122E+01  0.36820935641E+02  0.00000000000E+00 0.  1.
         11    1    4    4    0    0 -0.16907438072E+02 -0.15199238247E+02  0.10866333008E+02  0.25198323332E+02  0.51100000000E-03 0.  1.
        -11    1    4    4    0    0  0.95257370304E+01 -0.22561489900E+02 -0.32507719112E+01  0.24704817562E+02  0.51100000000E-03 0. -1.
         12    1    4    4    0    0 -0.28233601918E+01  0.33801461802E+01  0.72791601587E+00  0.44639234647E+01  0.00000000000E+00 0. -1.
</event>
<event>
 8    1  0.2534787E-006  0.9118800E+02  0.7816164E-02  0.1184000E+00
        -11   -1    0    0    0    0  0.00000000000E+00  0.00000000000E+00  0.45593999997E+02  0.45594000000E+02  0.51100000000E-03 0.  1.
         11   -1    0    0    0    0 -0.00000000000E+00 -0.00000000000E+00 -0.45593999997E+02  0.45594000000E+02  0.51100000000E-03 0. -1.
         23    2    1    2    0    0  0.00000000000E+00  0.00000000000E+00  0.00000000000E+00  0.91188000000E+02  0.91188000000E+02 0.  0.
    9900012    2    3    3    0    0 -0.11911045449E+02 -0.14543563020E+02  0.31660561378E+02  0.54367090509E+02  0.40000014432E+02 0.  0.
         12    1    3    3    0    0  0.11911045449E+02  0.14543563020E+02 -0.31660561378E+02  0.36820909491E+02  0.00000000000E+00 0. -1.
         11    1    4    4    0    0 -0.43900337895E+01  0.12986020547E+02  0.12349158026E+02  0.18450225758E+02  0.51100000000E-03 0. -1.
        -11    1    4    4    0    0  0.19174897463E+01 -0.13053161325E+01  0.22878033964E+01  0.32580150053E+01  0.51100000000E-03 0.  1.
         12    1    4    4    0    0 -0.94385014061E+01 -0.26224267434E+02  0.17023599955E+02  0.32658849745E+02  0.00000000000E+00 0. -1.
</event>
<event>
 8    1  0.2534787E-006  0.9118800E+02  0.7816164E-02  0.1184000E+00
        -11   -1    0    0    0    0  0.00000000000E+00  0.00000000000E+00  0.45593999997E+02  0.45594000000E+02  0.51100000000E-03 0. -1.
         11   -1    0    0    0    0 -0.00000000000E+00 -0.00000000000E+00 -0.45593999997E+02  0.45594000000E+02  0.51100000000E-03 0.  1.
         23    2    1    2    0    0  0.35527136788E-14  0.00000000000E+00 -0.17763568394E-14  0.91188000000E+02  0.91188000000E+02 0.  0.
    9900012    2    3    3    0    0  0.16938862609E+02  0.32395249108E+02 -0.44049285178E+01  0.54367073525E+02  0.39999975715E+02 0.  0.
         12    1    3    3    0    0 -0.16938862609E+02 -0.32395249108E+02  0.44049285178E+01  0.36820926475E+02  0.00000000000E+00 0. -1.
         11    1    4    4    0    0  0.20571334237E+02  0.29569303568E+02  0.86964309618E+01  0.37056057771E+02  0.51100000000E-03 0. -1.
        -11    1    4    4    0    0 -0.59634871330E+01  0.98956862119E-01 -0.31760140950E+01  0.67572211033E+01  0.51100000000E-03 0.  1.
         12    1    4    4    0    0  0.23310155047E+01  0.27269886773E+01 -0.99253453846E+01  0.10553794651E+02  0.00000000000E+00 0. -1.
</event>
<event>
 8    1  0.2534787E-006  0.9118800E+02  0.7816164E-02  0.1184000E+00
        -11   -1    0    0    0    0  0.00000000000E+00  0.00000000000E+00  0.45593999997E+02  0.45594000000E+02  0.51100000000E-03 0. -1.
         11   -1    0    0    0    0 -0.00000000000E+00 -0.00000000000E+00 -0.45593999997E+02  0.45594000000E+02  0.51100000000E-03 0.  1.
         23    2    1    2    0    0  0.00000000000E+00  0.00000000000E+00  0.00000000000E+00  0.91188000000E+02  0.91188000000E+02 0.  0.
    9900012    2    3    3    0    0 -0.11565235182E+02 -0.34871609181E+02  0.24486444725E+01  0.54367086765E+02  0.40000005899E+02 0.  0.
        -12    1    3    3    0    0  0.11565235182E+02  0.34871609181E+02 -0.24486444725E+01  0.36820913235E+02  0.00000000000E+00 0.  1.
         11    1    4    4    0    0 -0.16164080026E+02 -0.26508610395E+02  0.10328012588E+02  0.32720815278E+02  0.51100000000E-03 0. -1.
        -11    1    4    4    0    0 -0.29665803856E+01  0.15084599401E+01 -0.85664425898E+01  0.91902116123E+01  0.51100000000E-03 0.  1.
         12    1    4    4    0    0  0.75654252297E+01 -0.98714587258E+01  0.68707447470E+00  0.12456059875E+02  0.00000000000E+00 0. -1.
</event>
<event>
 8    1  0.2534787E-006  0.9118800E+02  0.7816164E-02  0.1184000E+00
        -11   -1    0    0    0    0  0.00000000000E+00  0.00000000000E+00  0.45593999997E+02  0.45594000000E+02  0.51100000000E-03 0. -1.
         11   -1    0    0    0    0 -0.00000000000E+00 -0.00000000000E+00 -0.45593999997E+02  0.45594000000E+02  0.51100000000E-03 0.  1.
         23    2    1    2    0    0 -0.17763568394E-14  0.00000000000E+00  0.00000000000E+00  0.91188000000E+02  0.91188000000E+02 0.  0.
    9900012    2    3    3    0    0  0.58234338307E+01 -0.35733629887E+02  0.67063580779E+01  0.54367083048E+02  0.39999997425E+02 0.  0.
         12    1    3    3    0    0 -0.58234338307E+01  0.35733629887E+02 -0.67063580779E+01  0.36820916952E+02  0.00000000000E+00 0. -1.
         11    1    4    4    0    0  0.19181012811E+02 -0.19415147263E+02 -0.15451907687E+00  0.27292546090E+02  0.51100000000E-03 0. -1.
        -11    1    4    4    0    0 -0.42636428072E+00 -0.12773710226E+02  0.35034820368E+01  0.13252314744E+02  0.51100000000E-03 0.  1.
         12    1    4    4    0    0 -0.12931214699E+02 -0.35447723988E+01  0.33573951180E+01  0.13822222214E+02  0.00000000000E+00 0. -1.
</event>
<event>
 8    1  0.2534787E-006  0.9118800E+02  0.7816164E-02  0.1184000E+00
        -11   -1    0    0    0    0  0.00000000000E+00  0.00000000000E+00  0.45593999997E+02  0.45594000000E+02  0.51100000000E-03 0.  1.
         11   -1    0    0    0    0 -0.00000000000E+00 -0.00000000000E+00 -0.45593999997E+02  0.45594000000E+02  0.51100000000E-03 0. -1.
         23    2    1    2    0    0  0.00000000000E+00 -0.71054273576E-14  0.35527136788E-14  0.91188000000E+02  0.91188000000E+02 0.  0.
    9900012    2    3    3    0    0  0.16711981281E+02 -0.31905264766E+02  0.76513672110E+01  0.54367086671E+02  0.40000005684E+02 0.  0.
         12    1    3    3    0    0 -0.16711981281E+02  0.31905264766E+02 -0.76513672110E+01  0.36820913329E+02  0.00000000000E+00 0. -1.
         11    1    4    4    0    0  0.89895626523E+01 -0.96120870732E+01 -0.14037470586E+02  0.19242012247E+02  0.51100000000E-03 0. -1.
        -11    1    4    4    0    0  0.39831786297E+01 -0.62965232008E+01 -0.55642919994E+00  0.74713807379E+01  0.51100000000E-03 0.  1.
        -12    1    4    4    0    0  0.37392399992E+01 -0.15996654492E+02  0.22245266997E+02  0.27653693687E+02  0.00000000000E+00 0.  1.
</event>
<event>
 8    1  0.2534787E-006  0.9118800E+02  0.7816164E-02  0.1184000E+00
        -11   -1    0    0    0    0  0.00000000000E+00  0.00000000000E+00  0.45593999997E+02  0.45594000000E+02  0.51100000000E-03 0. -1.
         11   -1    0    0    0    0 -0.00000000000E+00 -0.00000000000E+00 -0.45593999997E+02  0.45594000000E+02  0.51100000000E-03 0.  1.
         23    2    1    2    0    0  0.00000000000E+00 -0.88817841970E-15  0.00000000000E+00  0.91188000000E+02  0.91188000000E+02 0.  0.
    9900012    2    3    3    0    0  0.34915296014E+02 -0.45052055286E+01 -0.10789236822E+02  0.54367049391E+02  0.39999920696E+02 0.  0.
         12    1    3    3    0    0 -0.34915296014E+02  0.45052055286E+01  0.10789236822E+02  0.36820950609E+02  0.00000000000E+00 0. -1.
         11    1    4    4    0    0  0.87339531504E+00 -0.86823805775E+01  0.16028117438E-01  0.87262139001E+01  0.51100000000E-03 0. -1.
        -11    1    4    4    0    0  0.26202908229E+02  0.15521027541E+02 -0.88457449192E+01  0.31713434046E+02  0.51100000000E-03 0.  1.
        -12    1    4    4    0    0  0.78389924697E+01 -0.11343852492E+02 -0.19595200199E+01  0.13927401445E+02  0.00000000000E+00 0.  1.
</event>
<event>
 8    1  0.2534787E-006  0.9118800E+02  0.7816164E-02  0.1184000E+00
        -11   -1    0    0    0    0  0.00000000000E+00  0.00000000000E+00  0.45593999997E+02  0.45594000000E+02  0.51100000000E-03 0. -1.
         11   -1    0    0    0    0 -0.00000000000E+00 -0.00000000000E+00 -0.45593999997E+02  0.45594000000E+02  0.51100000000E-03 0.  1.
         23    2    1    2    0    0  0.24980018054E-15  0.00000000000E+00  0.00000000000E+00  0.91188000000E+02  0.91188000000E+02 0.  0.
    9900012    2    3    3    0    0 -0.13163246247E+00  0.34077998031E+02  0.13944592376E+02  0.54367096515E+02  0.40000028125E+02 0.  0.
         12    1    3    3    0    0  0.13163246247E+00 -0.34077998031E+02 -0.13944592376E+02  0.36820903485E+02  0.00000000000E+00 0. -1.
         11    1    4    4    0    0 -0.97702552089E+00  0.12542882197E+02 -0.48696353890E+01  0.13490434454E+02  0.51100000000E-03 0. -1.
        -11    1    4    4    0    0  0.62239416697E+01  0.61751378408E+01 -0.64080216349E+01  0.10859673973E+02  0.51100000000E-03 0.  1.
         12    1    4    4    0    0 -0.53785486113E+01  0.15359977994E+02  0.25222249399E+02  0.30016988089E+02  0.00000000000E+00 0. -1.
</event>
<event>
 8    1  0.2534787E-006  0.9118800E+02  0.7816164E-02  0.1184000E+00
        -11   -1    0    0    0    0  0.00000000000E+00  0.00000000000E+00  0.45593999997E+02  0.45594000000E+02  0.51100000000E-03 0.  1.
         11   -1    0    0    0    0 -0.00000000000E+00 -0.00000000000E+00 -0.45593999997E+02  0.45594000000E+02  0.51100000000E-03 0. -1.
         23    2    1    2    0    0  0.00000000000E+00  0.00000000000E+00  0.00000000000E+00  0.91188000000E+02  0.91188000000E+02 0.  0.
    9900012    2    3    3    0    0 -0.32609283448E+02 -0.16516637799E+02  0.44289810630E+01  0.54367074368E+02  0.39999977637E+02 0.  0.
         12    1    3    3    0    0  0.32609283448E+02  0.16516637799E+02 -0.44289810630E+01  0.36820925632E+02  0.00000000000E+00 0. -1.
         11    1    4    4    0    0 -0.17989878164E+02  0.87560383493E+01  0.39793010184E+00  0.20011553477E+02  0.51100000000E-03 0. -1.
        -11    1    4    4    0    0  0.27855860163E+01 -0.70032773517E+01  0.50993131017E+01  0.90999108507E+01  0.51100000000E-03 0.  1.
        -12    1    4    4    0    0 -0.17404991300E+02 -0.18269398796E+02 -0.10682621406E+01  0.25255610040E+02  0.00000000000E+00 0.  1.
</event>
<event>
 8    1  0.2534787E-006  0.9118800E+02  0.7816164E-02  0.1184000E+00
        -11   -1    0    0    0    0  0.00000000000E+00  0.00000000000E+00  0.45593999997E+02  0.45594000000E+02  0.51100000000E-03 0. -1.
         11   -1    0    0    0    0 -0.00000000000E+00 -0.00000000000E+00 -0.45593999997E+02  0.45594000000E+02  0.51100000000E-03 0.  1.
         23    2    1    2    0    0  0.35527136788E-14 -0.35527136788E-14 -0.88817841970E-15  0.91188000000E+02  0.91188000000E+02 0.  0.
    9900012    2    3    3    0    0  0.19064448384E+02 -0.30634654608E+02  0.73378894472E+01  0.54367083707E+02  0.39999998927E+02 0.  0.
         12    1    3    3    0    0 -0.19064448384E+02  0.30634654608E+02 -0.73378894472E+01  0.36820916293E+02  0.00000000000E+00 0. -1.
         11    1    4    4    0    0  0.40353050663E+01 -0.20372623956E+01  0.82967369642E+01  0.94482786560E+01  0.51100000000E-03 0. -1.
        -11    1    4    4    0    0 -0.18084644960E+01 -0.20067602693E+02  0.10618968128E+02  0.22775901871E+02  0.51100000000E-03 0.  1.
        -12    1    4    4    0    0  0.16837607813E+02 -0.85297895197E+01 -0.11577815645E+02  0.22142903180E+02  0.00000000000E+00 0.  1.
</event>
<event>
 8    1  0.2534787E-006  0.9118800E+02  0.7816164E-02  0.1184000E+00
        -11   -1    0    0    0    0  0.00000000000E+00  0.00000000000E+00  0.45593999997E+02  0.45594000000E+02  0.51100000000E-03 0.  1.
         11   -1    0    0    0    0 -0.00000000000E+00 -0.00000000000E+00 -0.45593999997E+02  0.45594000000E+02  0.51100000000E-03 0. -1.
         23    2    1    2    0    0 -0.35527136788E-14 -0.44408920985E-15 -0.35527136788E-14  0.91188000000E+02  0.91188000000E+02 0.  0.
    9900012    2    3    3    0    0  0.25256752393E+02 -0.21185221845E+01  0.26709245911E+02  0.54367143209E+02  0.40000134573E+02 0.  0.
         12    1    3    3    0    0 -0.25256752393E+02  0.21185221845E+01 -0.26709245911E+02  0.36820856791E+02  0.00000000000E+00 0. -1.
         11    1    4    4    0    0  0.12863280750E+02 -0.17216571713E+02  0.12900252447E+02  0.25065730523E+02  0.51100000000E-03 0. -1.
        -11    1    4    4    0    0  0.87123855804E+01 -0.21621500506E+00  0.96668537650E+01  0.13015393709E+02  0.51100000000E-03 0.  1.
        -12    1    4    4    0    0  0.36810860628E+01  0.15314264534E+02  0.41421396987E+01  0.16286018976E+02  0.00000000000E+00 0.  1.
</event>
<event>
 8    1  0.2534787E-006  0.9118800E+02  0.7816164E-02  0.1184000E+00
        -11   -1    0    0    0    0  0.00000000000E+00  0.00000000000E+00  0.45593999997E+02  0.45594000000E+02  0.51100000000E-03 0. -1.
         11   -1    0    0    0    0 -0.00000000000E+00 -0.00000000000E+00 -0.45593999997E+02  0.45594000000E+02  0.51100000000E-03 0.  1.
         23    2    1    2    0    0  0.35527136788E-14  0.00000000000E+00 -0.71054273576E-14  0.91188000000E+02  0.91188000000E+02 0.  0.
    9900012    2    3    3    0    0 -0.16543397983E+02  0.14356751413E+02  0.29596941402E+02  0.54367091968E+02  0.40000017760E+02 0.  0.
        -12    1    3    3    0    0  0.16543397983E+02 -0.14356751413E+02 -0.29596941402E+02  0.36820908032E+02  0.00000000000E+00 0.  1.
         11    1    4    4    0    0 -0.52303333927E+01 -0.91782015625E+00  0.37722536867E+01  0.65137300662E+01  0.51100000000E-03 0.  1.
        -11    1    4    4    0    0 -0.17201761701E+02  0.20747005650E+02  0.28648523138E+02  0.39332896249E+02  0.51100000000E-03 0. -1.
         12    1    4    4    0    0  0.58886971114E+01 -0.54724340813E+01 -0.28238354230E+01  0.85204656528E+01  0.00000000000E+00 0. -1.
</event>
<event>
 8    1  0.2534787E-006  0.9118800E+02  0.7816164E-02  0.1184000E+00
        -11   -1    0    0    0    0  0.00000000000E+00  0.00000000000E+00  0.45593999997E+02  0.45594000000E+02  0.51100000000E-03 0. -1.
         11   -1    0    0    0    0 -0.00000000000E+00 -0.00000000000E+00 -0.45593999997E+02  0.45594000000E+02  0.51100000000E-03 0.  1.
         23    2    1    2    0    0  0.35527136788E-14  0.00000000000E+00  0.00000000000E+00  0.91188000000E+02  0.91188000000E+02 0.  0.
    9900012    2    3    3    0    0 -0.28129654986E+02 -0.62413472854E+01  0.22924819338E+02  0.54367092253E+02  0.40000018410E+02 0.  0.
        -12    1    3    3    0    0  0.28129654986E+02  0.62413472854E+01 -0.22924819338E+02  0.36820907747E+02  0.00000000000E+00 0.  1.
         11    1    4    4    0    0  0.16136163757E+01 -0.77804867737E+01 -0.94178079052E+00  0.80016675488E+01  0.51100000000E-03 0. -1.
        -11    1    4    4    0    0 -0.20879083857E+02  0.10182868776E+02  0.49405701962E+01  0.23749446169E+02  0.51100000000E-03 0.  1.
         12    1    4    4    0    0 -0.88641875056E+01 -0.86437292874E+01  0.18926029933E+02  0.22615978536E+02  0.00000000000E+00 0. -1.
</event>
<event>
 8    1  0.2534787E-006  0.9118800E+02  0.7816164E-02  0.1184000E+00
        -11   -1    0    0    0    0  0.00000000000E+00  0.00000000000E+00  0.45593999997E+02  0.45594000000E+02  0.51100000000E-03 0. -1.
         11   -1    0    0    0    0 -0.00000000000E+00 -0.00000000000E+00 -0.45593999997E+02  0.45594000000E+02  0.51100000000E-03 0.  1.
         23    2    1    2    0    0  0.00000000000E+00  0.00000000000E+00  0.00000000000E+00  0.91188000000E+02  0.91188000000E+02 0.  0.
    9900012    2    3    3    0    0  0.10225363322E+02  0.17128848486E+02  0.30948782805E+02  0.54367045876E+02  0.39999912683E+02 0.  0.
        -12    1    3    3    0    0 -0.10225363322E+02 -0.17128848486E+02 -0.30948782805E+02  0.36820954124E+02  0.00000000000E+00 0.  1.
         11    1    4    4    0    0  0.11303862875E+02  0.89149912640E+01  0.26585077158E+02  0.30232775474E+02  0.51100000000E-03 0. -1.
        -11    1    4    4    0    0 -0.11243166723E+02  0.55034702786E+01  0.52562774223E+01  0.13576650385E+02  0.51100000000E-03 0.  1.
         12    1    4    4    0    0  0.10164667170E+02  0.27103869432E+01 -0.89257177520E+00  0.10557620017E+02  0.00000000000E+00 0. -1.
</event>
<event>
 8    1  0.2534787E-006  0.9118800E+02  0.7816164E-02  0.1184000E+00
        -11   -1    0    0    0    0  0.00000000000E+00  0.00000000000E+00  0.45593999997E+02  0.45594000000E+02  0.51100000000E-03 0.  1.
         11   -1    0    0    0    0 -0.00000000000E+00 -0.00000000000E+00 -0.45593999997E+02  0.45594000000E+02  0.51100000000E-03 0. -1.
         23    2    1    2    0    0  0.00000000000E+00  0.00000000000E+00  0.00000000000E+00  0.91188000000E+02  0.91188000000E+02 0.  0.
    9900012    2    3    3    0    0  0.72922586439E+01 -0.12444400971E+02  0.33878314799E+02  0.54367077072E+02  0.39999983801E+02 0.  0.
         12    1    3    3    0    0 -0.72922586439E+01  0.12444400971E+02 -0.33878314799E+02  0.36820922928E+02  0.00000000000E+00 0. -1.
         11    1    4    4    0    0 -0.31042315868E+00 -0.11581088124E+00 -0.31482503144E+01  0.31656365870E+01  0.51100000000E-03 0. -1.
        -11    1    4    4    0    0 -0.10982029996E+02 -0.88034960896E+01  0.25282122046E+02  0.28936002171E+02  0.51100000000E-03 0.  1.
        -12    1    4    4    0    0  0.18584711798E+02 -0.35250940002E+01  0.11744443067E+02  0.22265438314E+02  0.00000000000E+00 0.  1.
</event>
<event>
 8    1  0.2534787E-006  0.9118800E+02  0.7816164E-02  0.1184000E+00
        -11   -1    0    0    0    0  0.00000000000E+00  0.00000000000E+00  0.45593999997E+02  0.45594000000E+02  0.51100000000E-03 0. -1.
         11   -1    0    0    0    0 -0.00000000000E+00 -0.00000000000E+00 -0.45593999997E+02  0.45594000000E+02  0.51100000000E-03 0.  1.
         23    2    1    2    0    0 -0.88817841970E-15  0.00000000000E+00  0.00000000000E+00  0.91188000000E+02  0.91188000000E+02 0.  0.
    9900012    2    3    3    0    0  0.52496378902E+01 -0.30527420297E+02  0.19907229981E+02  0.54367083479E+02  0.39999998406E+02 0.  0.
        -12    1    3    3    0    0 -0.52496378902E+01  0.30527420297E+02 -0.19907229981E+02  0.36820916521E+02  0.00000000000E+00 0.  1.
         11    1    4    4    0    0  0.13170032546E+02 -0.22557569608E+02  0.19186098054E+02  0.32409876005E+02  0.51100000000E-03 0. -1.
        -11    1    4    4    0    0 -0.10602034380E+01 -0.97572774408E+01 -0.65519416992E+01  0.11800696364E+02  0.51100000000E-03 0.  1.
         12    1    4    4    0    0 -0.68601912182E+01  0.17874267516E+01  0.72730736264E+01  0.10156511109E+02  0.00000000000E+00 0. -1.
</event>
<event>
 8    1  0.2534787E-006  0.9118800E+02  0.7816164E-02  0.1184000E+00
        -11   -1    0    0    0    0  0.00000000000E+00  0.00000000000E+00  0.45593999997E+02  0.45594000000E+02  0.51100000000E-03 0.  1.
         11   -1    0    0    0    0 -0.00000000000E+00 -0.00000000000E+00 -0.45593999997E+02  0.45594000000E+02  0.51100000000E-03 0. -1.
         23    2    1    2    0    0  0.00000000000E+00  0.00000000000E+00  0.35527136788E-14  0.91188000000E+02  0.91188000000E+02 0.  0.
    9900012    2    3    3    0    0 -0.22812188931E+02  0.21428773140E+02 -0.19395674048E+02  0.54367075869E+02  0.39999981059E+02 0.  0.
        -12    1    3    3    0    0  0.22812188931E+02 -0.21428773140E+02  0.19395674048E+02  0.36820924131E+02  0.00000000000E+00 0.  1.
         11    1    4    4    0    0 -0.28038202478E+02  0.42435612028E+01 -0.15531540625E+02  0.32332295995E+02  0.51100000000E-03 0. -1.
        -11    1    4    4    0    0  0.70121924188E+01  0.15072309918E+02  0.76568633676E+00  0.16641263312E+02  0.51100000000E-03 0.  1.
         12    1    4    4    0    0 -0.17861788716E+01  0.21129020191E+01 -0.46298197598E+01  0.53935165627E+01  0.00000000000E+00 0. -1.
</event>
<event>
 8    1  0.2534787E-006  0.9118800E+02  0.7816164E-02  0.1184000E+00
        -11   -1    0    0    0    0  0.00000000000E+00  0.00000000000E+00  0.45593999997E+02  0.45594000000E+02  0.51100000000E-03 0.  1.
         11   -1    0    0    0    0 -0.00000000000E+00 -0.00000000000E+00 -0.45593999997E+02  0.45594000000E+02  0.51100000000E-03 0. -1.
         23    2    1    2    0    0 -0.35527136788E-14 -0.35527136788E-14  0.00000000000E+00  0.91188000000E+02  0.91188000000E+02 0.  0.
    9900012    2    3    3    0    0 -0.23369383178E+02  0.16810796321E+02  0.22957606438E+02  0.54367046232E+02  0.39999913495E+02 0.  0.
         12    1    3    3    0    0  0.23369383178E+02 -0.16810796321E+02 -0.22957606438E+02  0.36820953768E+02  0.00000000000E+00 0. -1.
         11    1    4    4    0    0 -0.10388420369E+02 -0.49228596333E+01 -0.37421117537E+01  0.12089550255E+02  0.51100000000E-03 0. -1.
        -11    1    4    4    0    0 -0.11895597630E+02  0.12463119602E+01  0.12665778398E+02  0.17420691122E+02  0.51100000000E-03 0.  1.
         12    1    4    4    0    0 -0.10853651792E+01  0.20487343994E+02  0.14033939794E+02  0.24856804856E+02  0.00000000000E+00 0. -1.
</event>
<event>
 8    1  0.2534787E-006  0.9118800E+02  0.7816164E-02  0.1184000E+00
        -11   -1    0    0    0    0  0.00000000000E+00  0.00000000000E+00  0.45593999997E+02  0.45594000000E+02  0.51100000000E-03 0. -1.
         11   -1    0    0    0    0 -0.00000000000E+00 -0.00000000000E+00 -0.45593999997E+02  0.45594000000E+02  0.51100000000E-03 0.  1.
         23    2    1    2    0    0  0.00000000000E+00  0.00000000000E+00 -0.17763568394E-14  0.91188000000E+02  0.91188000000E+02 0.  0.
    9900012    2    3    3    0    0  0.29480508754E+02 -0.18972698078E+02  0.11257195836E+02  0.54366971676E+02  0.39999743529E+02 0.  0.
        -12    1    3    3    0    0 -0.29480508754E+02  0.18972698078E+02 -0.11257195836E+02  0.36821028324E+02  0.00000000000E+00 0.  1.
         11    1    4    4    0    0 -0.11533642094E+01 -0.16065275392E+02  0.15621869623E+02  0.22438051012E+02  0.51100000000E-03 0. -1.
        -11    1    4    4    0    0  0.12198703546E+02 -0.25725002268E+01 -0.51148553821E+01  0.13475454406E+02  0.51100000000E-03 0.  1.
         12    1    4    4    0    0  0.18435169417E+02 -0.33492245925E+00  0.75018159502E+00  0.18453466258E+02  0.00000000000E+00 0. -1.
</event>
<event>
 8    1  0.2534787E-006  0.9118800E+02  0.7816164E-02  0.1184000E+00
        -11   -1    0    0    0    0  0.00000000000E+00  0.00000000000E+00  0.45593999997E+02  0.45594000000E+02  0.51100000000E-03 0. -1.
         11   -1    0    0    0    0 -0.00000000000E+00 -0.00000000000E+00 -0.45593999997E+02  0.45594000000E+02  0.51100000000E-03 0.  1.
         23    2    1    2    0    0  0.00000000000E+00  0.44408920985E-15  0.88817841970E-15  0.91188000000E+02  0.91188000000E+02 0.  0.
    9900012    2    3    3    0    0 -0.36245250530E+02  0.33549132423E+01  0.55503139482E+01  0.54367087277E+02  0.40000007065E+02 0.  0.
        -12    1    3    3    0    0  0.36245250530E+02 -0.33549132423E+01 -0.55503139482E+01  0.36820912723E+02  0.00000000000E+00 0.  1.
         11    1    4    4    0    0 -0.17428942125E+02  0.56471920550E+01  0.57082648480E+01  0.19189661006E+02  0.51100000000E-03 0. -1.
        -11    1    4    4    0    0 -0.25253937829E+02 -0.20998874749E+01 -0.64758575668E+01  0.26155451339E+02  0.51100000000E-03 0.  1.
        -12    1    4    4    0    0  0.64376294230E+01 -0.19239133787E+00  0.63179066670E+01  0.90219749317E+01  0.00000000000E+00 0.  1.
</event>
<event>
 8    1  0.2534787E-006  0.9118800E+02  0.7816164E-02  0.1184000E+00
        -11   -1    0    0    0    0  0.00000000000E+00  0.00000000000E+00  0.45593999997E+02  0.45594000000E+02  0.51100000000E-03 0.  1.
         11   -1    0    0    0    0 -0.00000000000E+00 -0.00000000000E+00 -0.45593999997E+02  0.45594000000E+02  0.51100000000E-03 0. -1.
         23    2    1    2    0    0  0.17763568394E-14  0.71054273576E-14  0.17763568394E-14  0.91188000000E+02  0.91188000000E+02 0.  0.
    9900012    2    3    3    0    0  0.11539777863E+02  0.31824145082E+02  0.14485721015E+02  0.54367098373E+02  0.40000032360E+02 0.  0.
         12    1    3    3    0    0 -0.11539777863E+02 -0.31824145082E+02 -0.14485721015E+02  0.36820901627E+02  0.00000000000E+00 0. -1.
         11    1    4    4    0    0 -0.78188734918E+01  0.78394599224E+00 -0.18293988549E+01  0.80682125921E+01  0.51100000000E-03 0. -1.
        -11    1    4    4    0    0 -0.31105707181E+01  0.23759644012E+01 -0.31301063572E+01  0.50118283188E+01  0.51100000000E-03 0.  1.
        -12    1    4    4    0    0  0.22469222073E+02  0.28664234689E+02  0.19445226227E+02  0.41287057462E+02  0.00000000000E+00 0.  1.
</event>
<event>
 8    1  0.2534787E-006  0.9118800E+02  0.7816164E-02  0.1184000E+00
        -11   -1    0    0    0    0  0.00000000000E+00  0.00000000000E+00  0.45593999997E+02  0.45594000000E+02  0.51100000000E-03 0. -1.
         11   -1    0    0    0    0 -0.00000000000E+00 -0.00000000000E+00 -0.45593999997E+02  0.45594000000E+02  0.51100000000E-03 0.  1.
         23    2    1    2    0    0  0.00000000000E+00  0.00000000000E+00 -0.35527136788E-14  0.91188000000E+02  0.91188000000E+02 0.  0.
    9900012    2    3    3    0    0 -0.23565111414E+02 -0.15669742762E+02  0.23556821252E+02  0.54367093687E+02  0.40000021679E+02 0.  0.
        -12    1    3    3    0    0  0.23565111414E+02  0.15669742762E+02 -0.23556821252E+02  0.36820906313E+02  0.00000000000E+00 0.  1.
         11    1    4    4    0    0  0.23646505011E+01 -0.52155034421E+01  0.71420705116E+01  0.91543552258E+01  0.51100000000E-03 0. -1.
        -11    1    4    4    0    0 -0.21913491888E+02 -0.20579761871E+02  0.71212364119E+01  0.30894008055E+02  0.51100000000E-03 0.  1.
        -12    1    4    4    0    0 -0.40162700264E+01  0.10125522552E+02  0.92935143290E+01  0.14318730406E+02  0.00000000000E+00 0.  1.
</event>
<event>
 8    1  0.2534787E-006  0.9118800E+02  0.7816164E-02  0.1184000E+00
        -11   -1    0    0    0    0  0.00000000000E+00  0.00000000000E+00  0.45593999997E+02  0.45594000000E+02  0.51100000000E-03 0. -1.
         11   -1    0    0    0    0 -0.00000000000E+00 -0.00000000000E+00 -0.45593999997E+02  0.45594000000E+02  0.51100000000E-03 0.  1.
         23    2    1    2    0    0  0.00000000000E+00  0.00000000000E+00 -0.35527136788E-14  0.91188000000E+02  0.91188000000E+02 0.  0.
    9900012    2    3    3    0    0  0.18124214762E+02  0.25241561264E+02  0.19752369115E+02  0.54367086630E+02  0.40000005589E+02 0.  0.
         12    1    3    3    0    0 -0.18124214762E+02 -0.25241561264E+02 -0.19752369115E+02  0.36820913370E+02  0.00000000000E+00 0. -1.
         11    1    4    4    0    0  0.12577558091E+01 -0.36078433821E+01 -0.18517581803E+00  0.38252808903E+01  0.51100000000E-03 0. -1.
        -11    1    4    4    0    0  0.72693563221E+01  0.18031519995E+02 -0.64228729137E+01  0.20475169142E+02  0.51100000000E-03 0.  1.
        -12    1    4    4    0    0  0.95971026310E+01  0.10817884651E+02  0.26360417847E+02  0.30066636598E+02  0.00000000000E+00 0.  1.
</event>
<event>
 8    1  0.2534787E-006  0.9118800E+02  0.7816164E-02  0.1184000E+00
        -11   -1    0    0    0    0  0.00000000000E+00  0.00000000000E+00  0.45593999997E+02  0.45594000000E+02  0.51100000000E-03 0.  1.
         11   -1    0    0    0    0 -0.00000000000E+00 -0.00000000000E+00 -0.45593999997E+02  0.45594000000E+02  0.51100000000E-03 0. -1.
         23    2    1    2    0    0  0.00000000000E+00 -0.49960036108E-15 -0.71054273576E-14  0.91188000000E+02  0.91188000000E+02 0.  0.
    9900012    2    3    3    0    0  0.84063688524E+01  0.33030486923E+00 -0.35846945412E+02  0.54367087003E+02  0.40000006441E+02 0.  0.
        -12    1    3    3    0    0 -0.84063688524E+01 -0.33030486923E+00  0.35846945412E+02  0.36820912997E+02  0.00000000000E+00 0.  1.
         11    1    4    4    0    0 -0.64893923086E+01 -0.11526960168E+01 -0.13557950402E+02  0.15075109950E+02  0.51100000000E-03 0. -1.
        -11    1    4    4    0    0 -0.58492436238E+01  0.54874573845E+01  0.72182946462E+00  0.80527558980E+01  0.51100000000E-03 0.  1.
         12    1    4    4    0    0  0.20745004785E+02 -0.40044564984E+01 -0.23010824474E+02  0.31239221155E+02  0.00000000000E+00 0. -1.
</event>
<event>
 8    1  0.2534787E-006  0.9118800E+02  0.7816164E-02  0.1184000E+00
        -11   -1    0    0    0    0  0.00000000000E+00  0.00000000000E+00  0.45593999997E+02  0.45594000000E+02  0.51100000000E-03 0. -1.
         11   -1    0    0    0    0 -0.00000000000E+00 -0.00000000000E+00 -0.45593999997E+02  0.45594000000E+02  0.51100000000E-03 0.  1.
         23    2    1    2    0    0 -0.17763568394E-14  0.00000000000E+00 -0.17763568394E-14  0.91188000000E+02  0.91188000000E+02 0.  0.
    9900012    2    3    3    0    0  0.12195802899E+02  0.33065867785E+02  0.10662584173E+02  0.54367083091E+02  0.39999997523E+02 0.  0.
         12    1    3    3    0    0 -0.12195802899E+02 -0.33065867785E+02 -0.10662584173E+02  0.36820916909E+02  0.00000000000E+00 0. -1.
         11    1    4    4    0    0  0.14106981423E+02 -0.35410418133E-02  0.11851638560E+02  0.18424664833E+02  0.51100000000E-03 0. -1.
        -11    1    4    4    0    0 -0.57133823897E+01  0.29936768074E+02 -0.31512110544E+01  0.30639565147E+02  0.51100000000E-03 0.  1.
        -12    1    4    4    0    0  0.38022038665E+01  0.31326407534E+01  0.19621566667E+01  0.53028531110E+01  0.00000000000E+00 0.  1.
</event>
<event>
 8    1  0.2534787E-006  0.9118800E+02  0.7816164E-02  0.1184000E+00
        -11   -1    0    0    0    0  0.00000000000E+00  0.00000000000E+00  0.45593999997E+02  0.45594000000E+02  0.51100000000E-03 0.  1.
         11   -1    0    0    0    0 -0.00000000000E+00 -0.00000000000E+00 -0.45593999997E+02  0.45594000000E+02  0.51100000000E-03 0. -1.
         23    2    1    2    0    0 -0.47184478547E-15 -0.71054273576E-14 -0.17763568394E-14  0.91188000000E+02  0.91188000000E+02 0.  0.
    9900012    2    3    3    0    0 -0.21970998412E+00  0.35859651451E+02  0.83563682479E+01  0.54366922273E+02  0.39999630905E+02 0.  0.
         12    1    3    3    0    0  0.21970998412E+00 -0.35859651451E+02 -0.83563682479E+01  0.36821077727E+02  0.00000000000E+00 0. -1.
         11    1    4    4    0    0 -0.41407115665E+01 -0.12984448488E+01 -0.99142299717E+01  0.10822356836E+02  0.51100000000E-03 0. -1.
        -11    1    4    4    0    0  0.35184421474E+01  0.18788882946E+02  0.16196015906E+02  0.25054191047E+02  0.51100000000E-03 0.  1.
        -12    1    4    4    0    0  0.40255943497E+00  0.18369213353E+02  0.20745823135E+01  0.18490374390E+02  0.00000000000E+00 0.  1.
</event>
<event>
 8    1  0.2534787E-006  0.9118800E+02  0.7816164E-02  0.1184000E+00
        -11   -1    0    0    0    0  0.00000000000E+00  0.00000000000E+00  0.45593999997E+02  0.45594000000E+02  0.51100000000E-03 0.  1.
         11   -1    0    0    0    0 -0.00000000000E+00 -0.00000000000E+00 -0.45593999997E+02  0.45594000000E+02  0.51100000000E-03 0. -1.
         23    2    1    2    0    0  0.35527136788E-14  0.00000000000E+00  0.00000000000E+00  0.91188000000E+02  0.91188000000E+02 0.  0.
    9900012    2    3    3    0    0  0.28455744801E+02  0.32270689343E+01  0.23143827037E+02  0.54367080457E+02  0.39999991518E+02 0.  0.
         12    1    3    3    0    0 -0.28455744801E+02 -0.32270689343E+01 -0.23143827037E+02  0.36820919543E+02  0.00000000000E+00 0. -1.
         11    1    4    4    0    0  0.39203663802E+01  0.11649655062E+02  0.52818316580E+01  0.13378396075E+02  0.51100000000E-03 0. -1.
        -11    1    4    4    0    0 -0.26098054834E+00  0.59184536629E+01  0.94160718760E+01  0.11124684914E+02  0.51100000000E-03 0.  1.
        -12    1    4    4    0    0  0.24796358969E+02 -0.14341039791E+02  0.84459235026E+01  0.29863999468E+02  0.00000000000E+00 0.  1.
</event>
<event>
 8    1  0.2534787E-006  0.9118800E+02  0.7816164E-02  0.1184000E+00
        -11   -1    0    0    0    0  0.00000000000E+00  0.00000000000E+00  0.45593999997E+02  0.45594000000E+02  0.51100000000E-03 0. -1.
         11   -1    0    0    0    0 -0.00000000000E+00 -0.00000000000E+00 -0.45593999997E+02  0.45594000000E+02  0.51100000000E-03 0.  1.
         23    2    1    2    0    0  0.00000000000E+00  0.00000000000E+00  0.71054273576E-14  0.91188000000E+02  0.91188000000E+02 0.  0.
    9900012    2    3    3    0    0 -0.17063930442E+02  0.12562503176E+02 -0.30112766803E+02  0.54367178000E+02  0.40000213887E+02 0.  0.
         12    1    3    3    0    0  0.17063930442E+02 -0.12562503176E+02  0.30112766803E+02  0.36820822000E+02  0.00000000000E+00 0. -1.
         11    1    4    4    0    0 -0.53136322137E+01  0.11436967032E+02 -0.19173898598E+02  0.22949450754E+02  0.51100000000E-03 0.  1.
        -11    1    4    4    0    0  0.11330910298E+01 -0.28459976877E+01 -0.16538221432E+02  0.16819523374E+02  0.51100000000E-03 0. -1.
         12    1    4    4    0    0 -0.12883389258E+02  0.39715338312E+01  0.55993532269E+01  0.14598203873E+02  0.00000000000E+00 0. -1.
</event>
<event>
 8    1  0.2534787E-006  0.9118800E+02  0.7816164E-02  0.1184000E+00
        -11   -1    0    0    0    0  0.00000000000E+00  0.00000000000E+00  0.45593999997E+02  0.45594000000E+02  0.51100000000E-03 0.  1.
         11   -1    0    0    0    0 -0.00000000000E+00 -0.00000000000E+00 -0.45593999997E+02  0.45594000000E+02  0.51100000000E-03 0. -1.
         23    2    1    2    0    0  0.00000000000E+00  0.35527136788E-14  0.00000000000E+00  0.91188000000E+02  0.91188000000E+02 0.  0.
    9900012    2    3    3    0    0  0.16874885056E+02  0.18196058760E+02 -0.27201515565E+02  0.54367071860E+02  0.39999971918E+02 0.  0.
        -12    1    3    3    0    0 -0.16874885056E+02 -0.18196058760E+02  0.27201515565E+02  0.36820928140E+02  0.00000000000E+00 0.  1.
         11    1    4    4    0    0  0.12616829213E+02  0.18403314017E+02 -0.27041710370E+02  0.35058814101E+02  0.51100000000E-03 0. -1.
        -11    1    4    4    0    0  0.89194189634E+01 -0.17558723835E+01 -0.65818154074E+01  0.11223164295E+02  0.51100000000E-03 0.  1.
        -12    1    4    4    0    0 -0.46613631200E+01  0.15486171268E+01  0.64220102123E+01  0.80850934632E+01  0.00000000000E+00 0.  1.
</event>
<event>
 8    1  0.2534787E-006  0.9118800E+02  0.7816164E-02  0.1184000E+00
        -11   -1    0    0    0    0  0.00000000000E+00  0.00000000000E+00  0.45593999997E+02  0.45594000000E+02  0.51100000000E-03 0.  1.
         11   -1    0    0    0    0 -0.00000000000E+00 -0.00000000000E+00 -0.45593999997E+02  0.45594000000E+02  0.51100000000E-03 0. -1.
         23    2    1    2    0    0 -0.88817841970E-15  0.00000000000E+00  0.00000000000E+00  0.91188000000E+02  0.91188000000E+02 0.  0.
    9900012    2    3    3    0    0  0.40476870959E+01 -0.30445662564E+01 -0.36470891979E+02  0.54367094032E+02  0.40000022465E+02 0.  0.
        -12    1    3    3    0    0 -0.40476870959E+01  0.30445662564E+01  0.36470891979E+02  0.36820905968E+02  0.00000000000E+00 0.  1.
         11    1    4    4    0    0  0.11770167456E+02 -0.10388213400E+02 -0.23347926159E+02  0.28134986686E+02  0.51100000000E-03 0. -1.
        -11    1    4    4    0    0 -0.13414748912E+02  0.26661603585E-01 -0.84031309194E+01  0.15829365393E+02  0.51100000000E-03 0.  1.
         12    1    4    4    0    0  0.56922685519E+01  0.73169855405E+01 -0.47198349008E+01  0.10402741954E+02  0.00000000000E+00 0. -1.
</event>
<event>
 8    1  0.2534787E-006  0.9118800E+02  0.7816164E-02  0.1184000E+00
        -11   -1    0    0    0    0  0.00000000000E+00  0.00000000000E+00  0.45593999997E+02  0.45594000000E+02  0.51100000000E-03 0.  1.
         11   -1    0    0    0    0 -0.00000000000E+00 -0.00000000000E+00 -0.45593999997E+02  0.45594000000E+02  0.51100000000E-03 0. -1.
         23    2    1    2    0    0  0.22204460493E-15  0.00000000000E+00  0.00000000000E+00  0.91188000000E+02  0.91188000000E+02 0.  0.
    9900012    2    3    3    0    0  0.11989587384E+01 -0.14116791154E+02 -0.33986152434E+02  0.54367084044E+02  0.39999999696E+02 0.  0.
        -12    1    3    3    0    0 -0.11989587384E+01  0.14116791154E+02  0.33986152434E+02  0.36820915956E+02  0.00000000000E+00 0.  1.
         11    1    4    4    0    0 -0.43279618314E+01  0.92241163126E+00 -0.49852724672E-01  0.44254471398E+01  0.51100000000E-03 0. -1.
        -11    1    4    4    0    0 -0.38837354863E+01  0.31517691939E+01  0.42801265611E+01  0.65830489911E+01  0.51100000000E-03 0.  1.
        -12    1    4    4    0    0  0.94106560561E+01 -0.18190971979E+02 -0.38216426270E+02  0.43358587913E+02  0.00000000000E+00 0.  1.
</event>
<event>
 8    1  0.2534787E-006  0.9118800E+02  0.7816164E-02  0.1184000E+00
        -11   -1    0    0    0    0  0.00000000000E+00  0.00000000000E+00  0.45593999997E+02  0.45594000000E+02  0.51100000000E-03 0.  1.
         11   -1    0    0    0    0 -0.00000000000E+00 -0.00000000000E+00 -0.45593999997E+02  0.45594000000E+02  0.51100000000E-03 0. -1.
         23    2    1    2    0    0  0.00000000000E+00  0.00000000000E+00  0.00000000000E+00  0.91188000000E+02  0.91188000000E+02 0.  0.
    9900012    2    3    3    0    0 -0.30065271692E+02  0.97603757496E+01 -0.18883692394E+02  0.54367091061E+02  0.40000015692E+02 0.  0.
        -12    1    3    3    0    0  0.30065271692E+02 -0.97603757496E+01  0.18883692394E+02  0.36820908939E+02  0.00000000000E+00 0.  1.
         11    1    4    4    0    0 -0.28167286026E+02  0.25690272342E+01 -0.12962813801E+02  0.31113187637E+02  0.51100000000E-03 0. -1.
        -11    1    4    4    0    0  0.54092939695E+01 -0.51808023665E+01 -0.46789161164E+01  0.88313889448E+01  0.51100000000E-03 0.  1.
         12    1    4    4    0    0 -0.73072796351E+01  0.12372150882E+02 -0.12419624758E+01  0.14422514479E+02  0.00000000000E+00 0. -1.
</event>
<event>
 8    1  0.2534787E-006  0.9118800E+02  0.7816164E-02  0.1184000E+00
        -11   -1    0    0    0    0  0.00000000000E+00  0.00000000000E+00  0.45593999997E+02  0.45594000000E+02  0.51100000000E-03 0. -1.
         11   -1    0    0    0    0 -0.00000000000E+00 -0.00000000000E+00 -0.45593999997E+02  0.45594000000E+02  0.51100000000E-03 0.  1.
         23    2    1    2    0    0  0.00000000000E+00  0.22204460493E-15  0.71054273576E-14  0.91188000000E+02  0.91188000000E+02 0.  0.
    9900012    2    3    3    0    0  0.15591675458E+02 -0.93755265308E+00  0.33343684275E+02  0.54367073482E+02  0.39999975618E+02 0.  0.
        -12    1    3    3    0    0 -0.15591675458E+02  0.93755265308E+00 -0.33343684275E+02  0.36820926518E+02  0.00000000000E+00 0.  1.
         11    1    4    4    0    0 -0.52711653952E+01  0.14795791076E+02  0.12504456048E+02  0.20076405044E+02  0.51100000000E-03 0.  1.
        -11    1    4    4    0    0  0.73120652120E+01 -0.93466593289E+01  0.12097131029E+02  0.16946000050E+02  0.51100000000E-03 0. -1.
        -12    1    4    4    0    0  0.13550775641E+02 -0.63866844000E+01  0.87420971982E+01  0.17344668389E+02  0.00000000000E+00 0.  1.
</event>
<event>
 8    1  0.2534787E-006  0.9118800E+02  0.7816164E-02  0.1184000E+00
        -11   -1    0    0    0    0  0.00000000000E+00  0.00000000000E+00  0.45593999997E+02  0.45594000000E+02  0.51100000000E-03 0. -1.
         11   -1    0    0    0    0 -0.00000000000E+00 -0.00000000000E+00 -0.45593999997E+02  0.45594000000E+02  0.51100000000E-03 0.  1.
         23    2    1    2    0    0 -0.35527136788E-14  0.00000000000E+00  0.00000000000E+00  0.91188000000E+02  0.91188000000E+02 0.  0.
    9900012    2    3    3    0    0  0.25055068849E+02  0.24557662532E+02 -0.11177846074E+02  0.54367088728E+02  0.40000010372E+02 0.  0.
        -12    1    3    3    0    0 -0.25055068849E+02 -0.24557662532E+02  0.11177846074E+02  0.36820911272E+02  0.00000000000E+00 0.  1.
         11    1    4    4    0    0  0.24827333155E+02  0.48546439000E+01 -0.74072745348E+01  0.26359661517E+02  0.51100000000E-03 0. -1.
        -11    1    4    4    0    0  0.95947610789E+01  0.10211986451E+02 -0.43142284977E+01  0.14661400862E+02  0.51100000000E-03 0.  1.
        -12    1    4    4    0    0 -0.93670253848E+01  0.94910321812E+01  0.54365695801E+00  0.13346026349E+02  0.00000000000E+00 0.  1.
</event>
<event>
 8    1  0.2534787E-006  0.9118800E+02  0.7816164E-02  0.1184000E+00
        -11   -1    0    0    0    0  0.00000000000E+00  0.00000000000E+00  0.45593999997E+02  0.45594000000E+02  0.51100000000E-03 0. -1.
         11   -1    0    0    0    0 -0.00000000000E+00 -0.00000000000E+00 -0.45593999997E+02  0.45594000000E+02  0.51100000000E-03 0.  1.
         23    2    1    2    0    0  0.00000000000E+00 -0.88817841970E-15  0.35527136788E-14  0.91188000000E+02  0.91188000000E+02 0.  0.
    9900012    2    3    3    0    0 -0.24409810288E+02  0.64454367414E+01  0.26802960716E+02  0.54367065789E+02  0.39999958078E+02 0.  0.
         12    1    3    3    0    0  0.24409810288E+02 -0.64454367414E+01 -0.26802960716E+02  0.36820934211E+02  0.00000000000E+00 0. -1.
         11    1    4    4    0    0  0.48171637266E+00  0.87313677458E+00  0.11737993550E+02  0.11780276369E+02  0.51100000000E-03 0. -1.
        -11    1    4    4    0    0  0.35746406267E+01  0.64565979160E+00  0.13140592470E+02  0.13633418607E+02  0.51100000000E-03 0.  1.
        -12    1    4    4    0    0 -0.28466167287E+02  0.49266401752E+01  0.19243746953E+01  0.28953370813E+02  0.00000000000E+00 0.  1.
</event>
<event>
 8    1  0.2534787E-006  0.9118800E+02  0.7816164E-02  0.1184000E+00
        -11   -1    0    0    0    0  0.00000000000E+00  0.00000000000E+00  0.45593999997E+02  0.45594000000E+02  0.51100000000E-03 0.  1.
         11   -1    0    0    0    0 -0.00000000000E+00 -0.00000000000E+00 -0.45593999997E+02  0.45594000000E+02  0.51100000000E-03 0. -1.
         23    2    1    2    0    0  0.00000000000E+00  0.17763568394E-14  0.00000000000E+00  0.91188000000E+02  0.91188000000E+02 0.  0.
    9900012    2    3    3    0    0  0.17313987619E+02 -0.10247766126E+02 -0.30838124493E+02  0.54367071167E+02  0.39999970340E+02 0.  0.
        -12    1    3    3    0    0 -0.17313987619E+02  0.10247766126E+02  0.30838124493E+02  0.36820928833E+02  0.00000000000E+00 0.  1.
         11    1    4    4    0    0  0.74088133689E+01 -0.25417066586E+02 -0.18895415596E+02  0.32526212816E+02  0.51100000000E-03 0. -1.
        -11    1    4    4    0    0  0.33014002667E+01  0.43807377619E+01 -0.49433935256E+01  0.73842566904E+01  0.51100000000E-03 0.  1.
         12    1    4    4    0    0  0.66037739835E+01  0.10788562698E+02 -0.69993153712E+01  0.14456601661E+02  0.00000000000E+00 0. -1.
</event>
<event>
 8    1  0.2534787E-006  0.9118800E+02  0.7816164E-02  0.1184000E+00
        -11   -1    0    0    0    0  0.00000000000E+00  0.00000000000E+00  0.45593999997E+02  0.45594000000E+02  0.51100000000E-03 0.  1.
         11   -1    0    0    0    0 -0.00000000000E+00 -0.00000000000E+00 -0.45593999997E+02  0.45594000000E+02  0.51100000000E-03 0. -1.
         23    2    1    2    0    0  0.00000000000E+00  0.17763568394E-14  0.88817841970E-15  0.91188000000E+02  0.91188000000E+02 0.  0.
    9900012    2    3    3    0    0 -0.35149954745E+02 -0.10834585957E+02  0.16946929595E+01  0.54367088066E+02  0.40000008864E+02 0.  0.
        -12    1    3    3    0    0  0.35149954745E+02  0.10834585957E+02 -0.16946929595E+01  0.36820911934E+02  0.00000000000E+00 0.  1.
         11    1    4    4    0    0 -0.18175953746E+02  0.70080556099E+01 -0.13690022441E+01  0.19528243788E+02  0.51100000000E-03 0. -1.
        -11    1    4    4    0    0 -0.11020665207E+02  0.40176318841E+01 -0.11766672591E+01  0.11789019198E+02  0.51100000000E-03 0.  1.
        -12    1    4    4    0    0 -0.59533357913E+01 -0.21860273451E+02  0.42403624627E+01  0.23049825080E+02  0.00000000000E+00 0.  1.
</event>
<event>
 8    1  0.2534787E-006  0.9118800E+02  0.7816164E-02  0.1184000E+00
        -11   -1    0    0    0    0  0.00000000000E+00  0.00000000000E+00  0.45593999997E+02  0.45594000000E+02  0.51100000000E-03 0. -1.
         11   -1    0    0    0    0 -0.00000000000E+00 -0.00000000000E+00 -0.45593999997E+02  0.45594000000E+02  0.51100000000E-03 0.  1.
         23    2    1    2    0    0  0.00000000000E+00  0.00000000000E+00  0.10658141036E-13  0.91188000000E+02  0.91188000000E+02 0.  0.
    9900012    2    3    3    0    0 -0.17642358170E+02  0.52259385696E+01  0.31893811942E+02  0.54367102728E+02  0.40000042290E+02 0.  0.
        -12    1    3    3    0    0  0.17642358170E+02 -0.52259385696E+01 -0.31893811942E+02  0.36820897272E+02  0.00000000000E+00 0.  1.
         11    1    4    4    0    0  0.10624031249E+01  0.31283077357E+01  0.19321125209E+01  0.38272795486E+01  0.51100000000E-03 0. -1.
        -11    1    4    4    0    0 -0.98927593066E+01  0.12687899755E+02 -0.15349585315E+01  0.16161855860E+02  0.51100000000E-03 0.  1.
         12    1    4    4    0    0 -0.88120019878E+01 -0.10590268921E+02  0.31496657952E+02  0.34377967320E+02  0.00000000000E+00 0. -1.
</event>
<event>
 8    1  0.2534787E-006  0.9118800E+02  0.7816164E-02  0.1184000E+00
        -11   -1    0    0    0    0  0.00000000000E+00  0.00000000000E+00  0.45593999997E+02  0.45594000000E+02  0.51100000000E-03 0.  1.
         11   -1    0    0    0    0 -0.00000000000E+00 -0.00000000000E+00 -0.45593999997E+02  0.45594000000E+02  0.51100000000E-03 0. -1.
         23    2    1    2    0    0  0.88817841970E-15 -0.66613381478E-15  0.00000000000E+00  0.91188000000E+02  0.91188000000E+02 0.  0.
    9900012    2    3    3    0    0  0.77282106677E+01  0.10465113113E+01 -0.35985533503E+02  0.54367094966E+02  0.40000024594E+02 0.  0.
        -12    1    3    3    0    0 -0.77282106677E+01 -0.10465113113E+01  0.35985533503E+02  0.36820905034E+02  0.00000000000E+00 0.  1.
         11    1    4    4    0    0  0.12102091027E+02  0.12160000171E+01 -0.23995412812E+02  0.26902027796E+02  0.51100000000E-03 0. -1.
        -11    1    4    4    0    0 -0.64755584716E+01  0.82680611563E+01  0.22872178830E+01  0.10748258404E+02  0.51100000000E-03 0.  1.
        -12    1    4    4    0    0  0.21016781118E+01 -0.84375498621E+01 -0.14277338574E+02  0.16716808766E+02  0.00000000000E+00 0.  1.
</event>
<event>
 8    1  0.2534787E-006  0.9118800E+02  0.7816164E-02  0.1184000E+00
        -11   -1    0    0    0    0  0.00000000000E+00  0.00000000000E+00  0.45593999997E+02  0.45594000000E+02  0.51100000000E-03 0.  1.
         11   -1    0    0    0    0 -0.00000000000E+00 -0.00000000000E+00 -0.45593999997E+02  0.45594000000E+02  0.51100000000E-03 0. -1.
         23    2    1    2    0    0  0.35527136788E-14  0.35527136788E-14  0.35527136788E-14  0.91188000000E+02  0.91188000000E+02 0.  0.
    9900012    2    3    3    0    0 -0.18965329198E+02 -0.16827204159E+02 -0.26700961576E+02  0.54367083927E+02  0.39999999427E+02 0.  0.
        -12    1    3    3    0    0  0.18965329198E+02  0.16827204159E+02  0.26700961576E+02  0.36820916073E+02  0.00000000000E+00 0.  1.
         11    1    4    4    0    0 -0.24592386951E+02  0.37335727360E+01 -0.17828509881E+02  0.30603608058E+02  0.51100000000E-03 0. -1.
        -11    1    4    4    0    0  0.17633492566E+01 -0.15453373918E+02 -0.53098611325E+01  0.16435047659E+02  0.51100000000E-03 0.  1.
         12    1    4    4    0    0  0.38637084957E+01 -0.51074029769E+01 -0.35625905622E+01  0.73284282095E+01  0.00000000000E+00 0. -1.
</event>
<event>
 8    1  0.2534787E-006  0.9118800E+02  0.7816164E-02  0.1184000E+00
        -11   -1    0    0    0    0  0.00000000000E+00  0.00000000000E+00  0.45593999997E+02  0.45594000000E+02  0.51100000000E-03 0.  1.
         11   -1    0    0    0    0 -0.00000000000E+00 -0.00000000000E+00 -0.45593999997E+02  0.45594000000E+02  0.51100000000E-03 0. -1.
         23    2    1    2    0    0  0.35527136788E-14  0.35527136788E-14  0.35527136788E-14  0.91188000000E+02  0.91188000000E+02 0.  0.
    9900012    2    3    3    0    0  0.23914105440E+02  0.27297944386E+02  0.62223582278E+01  0.54367082730E+02  0.39999996700E+02 0.  0.
         12    1    3    3    0    0 -0.23914105440E+02 -0.27297944386E+02 -0.62223582278E+01  0.36820917270E+02  0.00000000000E+00 0. -1.
         11    1    4    4    0    0 -0.48253998991E+01 -0.12158137795E+01  0.98018856015E+01  0.10992708899E+02  0.51100000000E-03 0. -1.
        -11    1    4    4    0    0  0.95354415452E+01  0.13095069149E+01 -0.29568829352E+01  0.10068893225E+02  0.51100000000E-03 0.  1.
        -12    1    4    4    0    0  0.19204063794E+02  0.27204251251E+02 -0.62264443843E+00  0.33305480606E+02  0.00000000000E+00 0.  1.
</event>
<event>
 8    1  0.2534787E-006  0.9118800E+02  0.7816164E-02  0.1184000E+00
        -11   -1    0    0    0    0  0.00000000000E+00  0.00000000000E+00  0.45593999997E+02  0.45594000000E+02  0.51100000000E-03 0. -1.
         11   -1    0    0    0    0 -0.00000000000E+00 -0.00000000000E+00 -0.45593999997E+02  0.45594000000E+02  0.51100000000E-03 0.  1.
         23    2    1    2    0    0  0.00000000000E+00 -0.88817841970E-15  0.00000000000E+00  0.91188000000E+02  0.91188000000E+02 0.  0.
    9900012    2    3    3    0    0 -0.10172303357E+02  0.76170605486E+01 -0.34558404007E+02  0.54367100303E+02  0.40000036761E+02 0.  0.
         12    1    3    3    0    0  0.10172303357E+02 -0.76170605486E+01  0.34558404007E+02  0.36820899697E+02  0.00000000000E+00 0. -1.
         11    1    4    4    0    0 -0.57364515161E+01  0.10273077160E+02  0.57329641018E+01  0.13088539567E+02  0.51100000000E-03 0. -1.
        -11    1    4    4    0    0 -0.21528457696E+01 -0.39277110353E+01 -0.11087823634E+02  0.11958323130E+02  0.51100000000E-03 0.  1.
        -12    1    4    4    0    0 -0.22830060717E+01  0.12716944237E+01 -0.29203544475E+02  0.29320237607E+02  0.00000000000E+00 0.  1.
</event>
<event>
 8    1  0.2534787E-006  0.9118800E+02  0.7816164E-02  0.1184000E+00
        -11   -1    0    0    0    0  0.00000000000E+00  0.00000000000E+00  0.45593999997E+02  0.45594000000E+02  0.51100000000E-03 0.  1.
         11   -1    0    0    0    0 -0.00000000000E+00 -0.00000000000E+00 -0.45593999997E+02  0.45594000000E+02  0.51100000000E-03 0. -1.
         23    2    1    2    0    0 -0.35527136788E-14  0.00000000000E+00  0.00000000000E+00  0.91188000000E+02  0.91188000000E+02 0.  0.
    9900012    2    3    3    0    0 -0.25972086965E+02  0.58746378179E+01 -0.25430857867E+02  0.54366957067E+02  0.39999710225E+02 0.  0.
        -12    1    3    3    0    0  0.25972086965E+02 -0.58746378179E+01  0.25430857867E+02  0.36821042933E+02  0.00000000000E+00 0.  1.
         11    1    4    4    0    0 -0.20671334094E+02  0.12334851396E+02 -0.28556630038E+02  0.37348811649E+02  0.51100000000E-03 0. -1.
        -11    1    4    4    0    0 -0.78251922604E+01  0.28262535846E+00 -0.21172876849E+01  0.81114991467E+01  0.51100000000E-03 0.  1.
         12    1    4    4    0    0  0.25244393893E+01 -0.67428389367E+01  0.52430598561E+01  0.89066462718E+01  0.00000000000E+00 0. -1.
</event>
<event>
 8    1  0.2534787E-006  0.9118800E+02  0.7816164E-02  0.1184000E+00
        -11   -1    0    0    0    0  0.00000000000E+00  0.00000000000E+00  0.45593999997E+02  0.45594000000E+02  0.51100000000E-03 0. -1.
         11   -1    0    0    0    0 -0.00000000000E+00 -0.00000000000E+00 -0.45593999997E+02  0.45594000000E+02  0.51100000000E-03 0.  1.
         23    2    1    2    0    0  0.35527136788E-14  0.00000000000E+00  0.17763568394E-14  0.91188000000E+02  0.91188000000E+02 0.  0.
    9900012    2    3    3    0    0 -0.31853745833E+02  0.17539633345E+02 -0.57861052425E+01  0.54367097304E+02  0.40000029925E+02 0.  0.
         12    1    3    3    0    0  0.31853745833E+02 -0.17539633345E+02  0.57861052425E+01  0.36820902696E+02  0.00000000000E+00 0. -1.
         11    1    4    4    0    0  0.28113219512E+01  0.21164036362E+01  0.64572355497E+01  0.73538144299E+01  0.51100000000E-03 0. -1.
        -11    1    4    4    0    0  0.15862528577E+01 -0.28060220786E+01 -0.47656477458E+01  0.57533778541E+01  0.51100000000E-03 0.  1.
        -12    1    4    4    0    0 -0.36251320641E+02  0.18229251788E+02 -0.74776930463E+01  0.41259905020E+02  0.00000000000E+00 0.  1.
</event>
<event>
 8    1  0.2534787E-006  0.9118800E+02  0.7816164E-02  0.1184000E+00
        -11   -1    0    0    0    0  0.00000000000E+00  0.00000000000E+00  0.45593999997E+02  0.45594000000E+02  0.51100000000E-03 0.  1.
         11   -1    0    0    0    0 -0.00000000000E+00 -0.00000000000E+00 -0.45593999997E+02  0.45594000000E+02  0.51100000000E-03 0. -1.
         23    2    1    2    0    0  0.00000000000E+00  0.53290705182E-14  0.00000000000E+00  0.91188000000E+02  0.91188000000E+02 0.  0.
    9900012    2    3    3    0    0 -0.16283374538E+02 -0.14443925292E+02 -0.29698561783E+02  0.54367084257E+02  0.40000000180E+02 0.  0.
        -12    1    3    3    0    0  0.16283374538E+02  0.14443925292E+02  0.29698561783E+02  0.36820915743E+02  0.00000000000E+00 0.  1.
         11    1    4    4    0    0 -0.18028588392E+02  0.23365256576E+00 -0.26350925605E+02  0.31928919078E+02  0.51100000000E-03 0. -1.
        -11    1    4    4    0    0  0.32821768100E+01 -0.65818607163E+00 -0.70953089517E+01  0.78453363789E+01  0.51100000000E-03 0.  1.
         12    1    4    4    0    0 -0.15369629563E+01 -0.14019391786E+02  0.37476727741E+01  0.14592828800E+02  0.00000000000E+00 0. -1.
</event>
<event>
 8    1  0.2534787E-006  0.9118800E+02  0.7816164E-02  0.1184000E+00
        -11   -1    0    0    0    0  0.00000000000E+00  0.00000000000E+00  0.45593999997E+02  0.45594000000E+02  0.51100000000E-03 0.  1.
         11   -1    0    0    0    0 -0.00000000000E+00 -0.00000000000E+00 -0.45593999997E+02  0.45594000000E+02  0.51100000000E-03 0. -1.
         23    2    1    2    0    0 -0.35527136788E-14  0.00000000000E+00 -0.17763568394E-14  0.91188000000E+02  0.91188000000E+02 0.  0.
    9900012    2    3    3    0    0 -0.26044930421E+02  0.24628144724E+02 -0.84202970948E+01  0.54367009840E+02  0.39999830532E+02 0.  0.
         12    1    3    3    0    0  0.26044930421E+02 -0.24628144724E+02  0.84202970948E+01  0.36820990160E+02  0.00000000000E+00 0. -1.
         11    1    4    4    0    0 -0.15792924112E+02  0.32065261661E+02 -0.13423849663E+02  0.38181110479E+02  0.51100000000E-03 0. -1.
        -11    1    4    4    0    0 -0.22613715524E+01  0.19236721003E+01  0.17862662650E+01  0.34648323305E+01  0.51100000000E-03 0.  1.
         12    1    4    4    0    0 -0.79906347571E+01 -0.93607890377E+01  0.32172863030E+01  0.12721067030E+02  0.00000000000E+00 0. -1.
</event>
<event>
 8    1  0.2534787E-006  0.9118800E+02  0.7816164E-02  0.1184000E+00
        -11   -1    0    0    0    0  0.00000000000E+00  0.00000000000E+00  0.45593999997E+02  0.45594000000E+02  0.51100000000E-03 0.  1.
         11   -1    0    0    0    0 -0.00000000000E+00 -0.00000000000E+00 -0.45593999997E+02  0.45594000000E+02  0.51100000000E-03 0. -1.
         23    2    1    2    0    0  0.71054273576E-14  0.00000000000E+00 -0.88817841970E-15  0.91188000000E+02  0.91188000000E+02 0.  0.
    9900012    2    3    3    0    0  0.34632582420E+02 -0.11755222025E+02  0.42636953030E+01  0.54367080572E+02  0.39999991780E+02 0.  0.
         12    1    3    3    0    0 -0.34632582420E+02  0.11755222025E+02 -0.42636953030E+01  0.36820919428E+02  0.00000000000E+00 0. -1.
         11    1    4    4    0    0 -0.54749105437E-01 -0.10115923035E+01 -0.12241704340E+01  0.15889965279E+01  0.51100000000E-03 0. -1.
        -11    1    4    4    0    0  0.39745127727E+02 -0.14480453728E+02  0.11751052651E+02  0.43902687354E+02  0.51100000000E-03 0.  1.
        -12    1    4    4    0    0 -0.50577962021E+01  0.37368240067E+01 -0.62631869144E+01  0.88753966900E+01  0.00000000000E+00 0.  1.
</event>
<event>
 8    1  0.2534787E-006  0.9118800E+02  0.7816164E-02  0.1184000E+00
        -11   -1    0    0    0    0  0.00000000000E+00  0.00000000000E+00  0.45593999997E+02  0.45594000000E+02  0.51100000000E-03 0. -1.
         11   -1    0    0    0    0 -0.00000000000E+00 -0.00000000000E+00 -0.45593999997E+02  0.45594000000E+02  0.51100000000E-03 0.  1.
         23    2    1    2    0    0  0.00000000000E+00  0.00000000000E+00  0.17763568394E-14  0.91188000000E+02  0.91188000000E+02 0.  0.
    9900012    2    3    3    0    0 -0.30061156770E+02  0.16023804884E+02  0.13976479375E+02  0.54367116727E+02  0.40000074202E+02 0.  0.
        -12    1    3    3    0    0  0.30061156770E+02 -0.16023804884E+02 -0.13976479375E+02  0.36820883273E+02  0.00000000000E+00 0.  1.
         11    1    4    4    0    0 -0.21569474608E+01  0.11337419028E+02  0.12340724411E+02  0.16896241352E+02  0.51100000000E-03 0. -1.
        -11    1    4    4    0    0 -0.25774712023E+02  0.61808689578E+01  0.10290962576E+02  0.28433129127E+02  0.51100000000E-03 0.  1.
        -12    1    4    4    0    0 -0.21294972864E+01 -0.14944831024E+01 -0.86552076119E+01  0.90377462479E+01  0.00000000000E+00 0.  1.
</event>
<event>
 8    1  0.2534787E-006  0.9118800E+02  0.7816164E-02  0.1184000E+00
        -11   -1    0    0    0    0  0.00000000000E+00  0.00000000000E+00  0.45593999997E+02  0.45594000000E+02  0.51100000000E-03 0.  1.
         11   -1    0    0    0    0 -0.00000000000E+00 -0.00000000000E+00 -0.45593999997E+02  0.45594000000E+02  0.51100000000E-03 0. -1.
         23    2    1    2    0    0  0.00000000000E+00  0.00000000000E+00  0.00000000000E+00  0.91188000000E+02  0.91188000000E+02 0.  0.
    9900012    2    3    3    0    0 -0.26293804847E+02 -0.10249994583E+02 -0.23650676920E+02  0.54367067352E+02  0.39999961642E+02 0.  0.
        -12    1    3    3    0    0  0.26293804847E+02  0.10249994583E+02  0.23650676920E+02  0.36820932648E+02  0.00000000000E+00 0.  1.
         11    1    4    4    0    0 -0.15705185222E+02 -0.32789407884E+01 -0.23737394042E+02  0.28650797052E+02  0.51100000000E-03 0. -1.
        -11    1    4    4    0    0 -0.55147649114E+01  0.79706358197E+01 -0.16836418683E+01  0.98375971456E+01  0.51100000000E-03 0.  1.
        -12    1    4    4    0    0 -0.50738547139E+01 -0.14941689614E+02  0.17703589897E+01  0.15878673154E+02  0.00000000000E+00 0.  1.
</event>
<event>
 8    1  0.2534787E-006  0.9118800E+02  0.7816164E-02  0.1184000E+00
        -11   -1    0    0    0    0  0.00000000000E+00  0.00000000000E+00  0.45593999997E+02  0.45594000000E+02  0.51100000000E-03 0. -1.
         11   -1    0    0    0    0 -0.00000000000E+00 -0.00000000000E+00 -0.45593999997E+02  0.45594000000E+02  0.51100000000E-03 0.  1.
         23    2    1    2    0    0  0.71054273576E-14  0.00000000000E+00  0.17763568394E-14  0.91188000000E+02  0.91188000000E+02 0.  0.
    9900012    2    3    3    0    0 -0.33550598177E+02 -0.31629843141E+01 -0.14837087157E+02  0.54366996984E+02  0.39999801224E+02 0.  0.
         12    1    3    3    0    0  0.33550598177E+02  0.31629843141E+01  0.14837087157E+02  0.36821003016E+02  0.00000000000E+00 0. -1.
         11    1    4    4    0    0  0.29883394345E+01  0.16214397655E+01  0.73645110952E+01  0.81114279521E+01  0.51100000000E-03 0. -1.
        -11    1    4    4    0    0 -0.17233432289E+02  0.20730101683E+01 -0.18623417602E+02  0.25458205810E+02  0.51100000000E-03 0.  1.
         12    1    4    4    0    0 -0.19305505322E+02 -0.68574342479E+01 -0.35781806504E+01  0.20797363222E+02  0.00000000000E+00 0. -1.
</event>
<event>
 8    1  0.2534787E-006  0.9118800E+02  0.7816164E-02  0.1184000E+00
        -11   -1    0    0    0    0  0.00000000000E+00  0.00000000000E+00  0.45593999997E+02  0.45594000000E+02  0.51100000000E-03 0.  1.
         11   -1    0    0    0    0 -0.00000000000E+00 -0.00000000000E+00 -0.45593999997E+02  0.45594000000E+02  0.51100000000E-03 0. -1.
         23    2    1    2    0    0 -0.71054273576E-14  0.00000000000E+00  0.35527136788E-14  0.91188000000E+02  0.91188000000E+02 0.  0.
    9900012    2    3    3    0    0  0.31528390405E+02  0.17347203660E+01 -0.18940131436E+02  0.54367119577E+02  0.40000080700E+02 0.  0.
         12    1    3    3    0    0 -0.31528390405E+02 -0.17347203660E+01  0.18940131436E+02  0.36820880423E+02  0.00000000000E+00 0. -1.
         11    1    4    4    0    0 -0.18830593254E+01  0.69041739331E+01  0.14133892245E+01  0.72946007076E+01  0.51100000000E-03 0. -1.
        -11    1    4    4    0    0  0.86920925095E+01  0.91538102092E+01 -0.12069489653E+01  0.12680750751E+02  0.51100000000E-03 0.  1.
         12    1    4    4    0    0  0.24719357221E+02 -0.14323263776E+02 -0.19146571696E+02  0.34391768119E+02  0.00000000000E+00 0. -1.
</event>
<event>
 8    1  0.2534787E-006  0.9118800E+02  0.7816164E-02  0.1184000E+00
        -11   -1    0    0    0    0  0.00000000000E+00  0.00000000000E+00  0.45593999997E+02  0.45594000000E+02  0.51100000000E-03 0.  1.
         11   -1    0    0    0    0 -0.00000000000E+00 -0.00000000000E+00 -0.45593999997E+02  0.45594000000E+02  0.51100000000E-03 0. -1.
         23    2    1    2    0    0  0.00000000000E+00 -0.88817841970E-15 -0.17763568394E-14  0.91188000000E+02  0.91188000000E+02 0.  0.
    9900012    2    3    3    0    0  0.35725128506E+02  0.24463811372E+01  0.85737883310E+01  0.54367089720E+02  0.40000012636E+02 0.  0.
         12    1    3    3    0    0 -0.35725128506E+02 -0.24463811372E+01 -0.85737883310E+01  0.36820910280E+02  0.00000000000E+00 0. -1.
         11    1    4    4    0    0  0.13056111637E+02 -0.56644527827E+01  0.98424512825E+01  0.17303812410E+02  0.51100000000E-03 0. -1.
        -11    1    4    4    0    0  0.13306566725E+02  0.67669858842E+01  0.13099844012E+02  0.19861085805E+02  0.51100000000E-03 0.  1.
         12    1    4    4    0    0  0.93624501445E+01  0.13438480356E+01 -0.14368506963E+02  0.17202191506E+02  0.00000000000E+00 0. -1.
</event>
<event>
 8    1  0.2534787E-006  0.9118800E+02  0.7816164E-02  0.1184000E+00
        -11   -1    0    0    0    0  0.00000000000E+00  0.00000000000E+00  0.45593999997E+02  0.45594000000E+02  0.51100000000E-03 0. -1.
         11   -1    0    0    0    0 -0.00000000000E+00 -0.00000000000E+00 -0.45593999997E+02  0.45594000000E+02  0.51100000000E-03 0.  1.
         23    2    1    2    0    0 -0.35527136788E-14  0.00000000000E+00 -0.35527136788E-14  0.91188000000E+02  0.91188000000E+02 0.  0.
    9900012    2    3    3    0    0  0.24281610981E+02 -0.17587784105E+02  0.21374006687E+02  0.54367150697E+02  0.40000151643E+02 0.  0.
        -12    1    3    3    0    0 -0.24281610981E+02  0.17587784105E+02 -0.21374006687E+02  0.36820849303E+02  0.00000000000E+00 0.  1.
         11    1    4    4    0    0  0.75637097960E+00 -0.12279810331E+02  0.10366294677E+02  0.16088067144E+02  0.51100000000E-03 0. -1.
        -11    1    4    4    0    0  0.16181019496E+02 -0.15722576334E+02  0.11893758095E+02  0.25504632528E+02  0.51100000000E-03 0.  1.
        -12    1    4    4    0    0  0.73442205055E+01  0.10414602560E+02 -0.88604608485E+00  0.12774451025E+02  0.00000000000E+00 0.  1.
</event>
<event>
 8    1  0.2534787E-006  0.9118800E+02  0.7816164E-02  0.1184000E+00
        -11   -1    0    0    0    0  0.00000000000E+00  0.00000000000E+00  0.45593999997E+02  0.45594000000E+02  0.51100000000E-03 0.  1.
         11   -1    0    0    0    0 -0.00000000000E+00 -0.00000000000E+00 -0.45593999997E+02  0.45594000000E+02  0.51100000000E-03 0. -1.
         23    2    1    2    0    0  0.00000000000E+00  0.00000000000E+00 -0.71054273576E-14  0.91188000000E+02  0.91188000000E+02 0.  0.
    9900012    2    3    3    0    0 -0.90389669428E+01  0.14559132225E+02 -0.32590203186E+02  0.54366910958E+02  0.39999605109E+02 0.  0.
        -12    1    3    3    0    0  0.90389669428E+01 -0.14559132225E+02  0.32590203186E+02  0.36821089042E+02  0.00000000000E+00 0.  1.
         11    1    4    4    0    0  0.14875860645E-01  0.19495351943E+02 -0.28636058073E+02  0.34642355447E+02  0.51100000000E-03 0. -1.
        -11    1    4    4    0    0 -0.10411433818E+01 -0.53237699697E+01 -0.88108491416E+01  0.10346862765E+02  0.51100000000E-03 0.  1.
        -12    1    4    4    0    0 -0.80126994216E+01  0.38755025178E+00  0.48567040287E+01  0.93776927462E+01  0.00000000000E+00 0.  1.
</event>
<event>
 8    1  0.2534787E-006  0.9118800E+02  0.7816164E-02  0.1184000E+00
        -11   -1    0    0    0    0  0.00000000000E+00  0.00000000000E+00  0.45593999997E+02  0.45594000000E+02  0.51100000000E-03 0.  1.
         11   -1    0    0    0    0 -0.00000000000E+00 -0.00000000000E+00 -0.45593999997E+02  0.45594000000E+02  0.51100000000E-03 0. -1.
         23    2    1    2    0    0  0.00000000000E+00 -0.71054273576E-14  0.00000000000E+00  0.91188000000E+02  0.91188000000E+02 0.  0.
    9900012    2    3    3    0    0 -0.84685956925E+01 -0.35247952110E+02  0.64532178266E+01  0.54367092064E+02  0.40000017977E+02 0.  0.
         12    1    3    3    0    0  0.84685956925E+01  0.35247952110E+02 -0.64532178266E+01  0.36820907936E+02  0.00000000000E+00 0. -1.
         11    1    4    4    0    0 -0.98563248143E+00  0.68242735347E+01  0.89577856458E+01  0.11304163154E+02  0.51100000000E-03 0. -1.
        -11    1    4    4    0    0 -0.66453481037E+01 -0.39152302477E+02 -0.35002652864E+01  0.39866217503E+02  0.51100000000E-03 0.  1.
         12    1    4    4    0    0 -0.83761510729E+00 -0.29199231677E+01  0.99569746717E+00  0.31967114070E+01  0.00000000000E+00 0. -1.
</event>
<event>
 8    1  0.2534787E-006  0.9118800E+02  0.7816164E-02  0.1184000E+00
        -11   -1    0    0    0    0  0.00000000000E+00  0.00000000000E+00  0.45593999997E+02  0.45594000000E+02  0.51100000000E-03 0. -1.
         11   -1    0    0    0    0 -0.00000000000E+00 -0.00000000000E+00 -0.45593999997E+02  0.45594000000E+02  0.51100000000E-03 0.  1.
         23    2    1    2    0    0 -0.35527136788E-14  0.00000000000E+00  0.00000000000E+00  0.91188000000E+02  0.91188000000E+02 0.  0.
    9900012    2    3    3    0    0  0.18253571573E+02 -0.11474890219E+02  0.29848177038E+02  0.54367086741E+02  0.40000005844E+02 0.  0.
        -12    1    3    3    0    0 -0.18253571573E+02  0.11474890219E+02 -0.29848177038E+02  0.36820913259E+02  0.00000000000E+00 0.  1.
         11    1    4    4    0    0  0.98550699756E+01  0.61123540380E+01  0.11273133303E+02  0.16173027263E+02  0.51100000000E-03 0. -1.
        -11    1    4    4    0    0 -0.70514762650E+01 -0.64538187940E+01  0.16458819022E+02  0.19033334401E+02  0.51100000000E-03 0.  1.
        -12    1    4    4    0    0  0.15449977862E+02 -0.11133425463E+02  0.21162247131E+01  0.19160725078E+02  0.00000000000E+00 0.  1.
</event>
<event>
 8    1  0.2534787E-006  0.9118800E+02  0.7816164E-02  0.1184000E+00
        -11   -1    0    0    0    0  0.00000000000E+00  0.00000000000E+00  0.45593999997E+02  0.45594000000E+02  0.51100000000E-03 0. -1.
         11   -1    0    0    0    0 -0.00000000000E+00 -0.00000000000E+00 -0.45593999997E+02  0.45594000000E+02  0.51100000000E-03 0.  1.
         23    2    1    2    0    0  0.00000000000E+00  0.00000000000E+00  0.00000000000E+00  0.91188000000E+02  0.91188000000E+02 0.  0.
    9900012    2    3    3    0    0 -0.29245027008E+02 -0.63005533636E+01 -0.21466558506E+02  0.54367058792E+02  0.39999942127E+02 0.  0.
         12    1    3    3    0    0  0.29245027008E+02  0.63005533636E+01  0.21466558506E+02  0.36820941208E+02  0.00000000000E+00 0. -1.
         11    1    4    4    0    0 -0.44349130017E+00 -0.79341945040E+01 -0.10338440086E+02  0.13039611598E+02  0.51100000000E-03 0. -1.
        -11    1    4    4    0    0 -0.15125993917E+02  0.14241126852E+02 -0.88744190935E+01  0.22591164213E+02  0.51100000000E-03 0.  1.
         12    1    4    4    0    0 -0.13675541791E+02 -0.12607485712E+02 -0.22536993261E+01  0.18736282980E+02  0.00000000000E+00 0. -1.
</event>
<event>
 8    1  0.2534787E-006  0.9118800E+02  0.7816164E-02  0.1184000E+00
        -11   -1    0    0    0    0  0.00000000000E+00  0.00000000000E+00  0.45593999997E+02  0.45594000000E+02  0.51100000000E-03 0.  1.
         11   -1    0    0    0    0 -0.00000000000E+00 -0.00000000000E+00 -0.45593999997E+02  0.45594000000E+02  0.51100000000E-03 0. -1.
         23    2    1    2    0    0  0.17763568394E-14  0.00000000000E+00  0.00000000000E+00  0.91188000000E+02  0.91188000000E+02 0.  0.
    9900012    2    3    3    0    0  0.51294054613E+01  0.11134092672E+02 -0.34720324505E+02  0.54367085376E+02  0.40000002732E+02 0.  0.
        -12    1    3    3    0    0 -0.51294054613E+01 -0.11134092672E+02  0.34720324505E+02  0.36820914624E+02  0.00000000000E+00 0.  1.
         11    1    4    4    0    0 -0.41878116763E+01  0.98298593984E+01  0.23043330451E+01  0.10930409575E+02  0.51100000000E-03 0. -1.
        -11    1    4    4    0    0 -0.17601375528E+01  0.84144286255E+01 -0.88447774083E+01  0.12334130734E+02  0.51100000000E-03 0.  1.
         12    1    4    4    0    0  0.11077354690E+02 -0.71101953517E+01 -0.28179880142E+02  0.31102545067E+02  0.00000000000E+00 0. -1.
</event>
<event>
 8    1  0.2534787E-006  0.9118800E+02  0.7816164E-02  0.1184000E+00
        -11   -1    0    0    0    0  0.00000000000E+00  0.00000000000E+00  0.45593999997E+02  0.45594000000E+02  0.51100000000E-03 0. -1.
         11   -1    0    0    0    0 -0.00000000000E+00 -0.00000000000E+00 -0.45593999997E+02  0.45594000000E+02  0.51100000000E-03 0.  1.
         23    2    1    2    0    0 -0.88817841970E-15 -0.44408920985E-15  0.71054273576E-14  0.91188000000E+02  0.91188000000E+02 0.  0.
    9900012    2    3    3    0    0 -0.70119779928E+01  0.14244181791E+01  0.36118985486E+02  0.54367110344E+02  0.40000059652E+02 0.  0.
        -12    1    3    3    0    0  0.70119779928E+01 -0.14244181791E+01 -0.36118985486E+02  0.36820889656E+02  0.00000000000E+00 0.  1.
         11    1    4    4    0    0 -0.44930158177E-01 -0.19215343861E+01  0.23213118460E+01  0.30137687475E+01  0.51100000000E-03 0.  1.
        -11    1    4    4    0    0  0.61818115335E+00  0.86303234434E+01 -0.59785261276E+01  0.10517005543E+02  0.51100000000E-03 0. -1.
         12    1    4    4    0    0 -0.75852289879E+01 -0.52843708781E+01  0.39776199767E+02  0.40836336054E+02  0.00000000000E+00 0. -1.
</event>
<event>
 8    1  0.2534787E-006  0.9118800E+02  0.7816164E-02  0.1184000E+00
        -11   -1    0    0    0    0  0.00000000000E+00  0.00000000000E+00  0.45593999997E+02  0.45594000000E+02  0.51100000000E-03 0. -1.
         11   -1    0    0    0    0 -0.00000000000E+00 -0.00000000000E+00 -0.45593999997E+02  0.45594000000E+02  0.51100000000E-03 0.  1.
         23    2    1    2    0    0 -0.35527136788E-14  0.00000000000E+00  0.17763568394E-14  0.91188000000E+02  0.91188000000E+02 0.  0.
    9900012    2    3    3    0    0 -0.29703160709E+02 -0.19666630737E+02  0.93126296251E+01  0.54367093015E+02  0.40000020147E+02 0.  0.
         12    1    3    3    0    0  0.29703160709E+02  0.19666630737E+02 -0.93126296251E+01  0.36820906985E+02  0.00000000000E+00 0. -1.
         11    1    4    4    0    0 -0.14855506206E+02 -0.71437580836E+01  0.20173612567E+01  0.16606898895E+02  0.51100000000E-03 0. -1.
        -11    1    4    4    0    0 -0.21886793152E+02 -0.12082783788E+02 -0.31065076300E+01  0.25192772147E+02  0.51100000000E-03 0.  1.
         12    1    4    4    0    0  0.70391386494E+01 -0.44008886560E+00  0.10401775998E+02  0.12567421973E+02  0.00000000000E+00 0. -1.
</event>
<event>
 8    1  0.2534787E-006  0.9118800E+02  0.7816164E-02  0.1184000E+00
        -11   -1    0    0    0    0  0.00000000000E+00  0.00000000000E+00  0.45593999997E+02  0.45594000000E+02  0.51100000000E-03 0.  1.
         11   -1    0    0    0    0 -0.00000000000E+00 -0.00000000000E+00 -0.45593999997E+02  0.45594000000E+02  0.51100000000E-03 0. -1.
         23    2    1    2    0    0 -0.35527136788E-14 -0.35527136788E-14 -0.17763568394E-14  0.91188000000E+02  0.91188000000E+02 0.  0.
    9900012    2    3    3    0    0 -0.17284672028E+02 -0.31670455768E+02 -0.73483659560E+01  0.54367134477E+02  0.40000114666E+02 0.  0.
        -12    1    3    3    0    0  0.17284672028E+02  0.31670455768E+02  0.73483659560E+01  0.36820865523E+02  0.00000000000E+00 0.  1.
         11    1    4    4    0    0 -0.51324147837E+01 -0.92990505443E+01 -0.96238041854E+01  0.14332886304E+02  0.51100000000E-03 0. -1.
        -11    1    4    4    0    0 -0.19269810751E+02 -0.19984930302E+02 -0.64729152373E+01  0.28506519912E+02  0.51100000000E-03 0.  1.
         12    1    4    4    0    0  0.71175535071E+01 -0.23864749222E+01  0.87483534667E+01  0.11527728261E+02  0.00000000000E+00 0. -1.
</event>
<event>
 8    1  0.2534787E-006  0.9118800E+02  0.7816164E-02  0.1184000E+00
        -11   -1    0    0    0    0  0.00000000000E+00  0.00000000000E+00  0.45593999997E+02  0.45594000000E+02  0.51100000000E-03 0.  1.
         11   -1    0    0    0    0 -0.00000000000E+00 -0.00000000000E+00 -0.45593999997E+02  0.45594000000E+02  0.51100000000E-03 0. -1.
         23    2    1    2    0    0 -0.83266726847E-15  0.71054273576E-14  0.00000000000E+00  0.91188000000E+02  0.91188000000E+02 0.  0.
    9900012    2    3    3    0    0 -0.17436193906E+00 -0.35840916959E+02  0.84367579838E+01  0.54367073670E+02  0.39999976045E+02 0.  0.
         12    1    3    3    0    0  0.17436193906E+00  0.35840916959E+02 -0.84367579838E+01  0.36820926330E+02  0.00000000000E+00 0. -1.
         11    1    4    4    0    0  0.23294435629E+01 -0.14082255759E+01 -0.38870251519E+01  0.47453526084E+01  0.51100000000E-03 0. -1.
        -11    1    4    4    0    0 -0.13867281546E+02 -0.18057681142E+02  0.17858103823E+02  0.28936019389E+02  0.51100000000E-03 0.  1.
        -12    1    4    4    0    0  0.11363476044E+02 -0.16375010241E+02 -0.55343206870E+01  0.20685701672E+02  0.00000000000E+00 0.  1.
</event>
<event>
 8    1  0.2534787E-006  0.9118800E+02  0.7816164E-02  0.1184000E+00
        -11   -1    0    0    0    0  0.00000000000E+00  0.00000000000E+00  0.45593999997E+02  0.45594000000E+02  0.51100000000E-03 0.  1.
         11   -1    0    0    0    0 -0.00000000000E+00 -0.00000000000E+00 -0.45593999997E+02  0.45594000000E+02  0.51100000000E-03 0. -1.
         23    2    1    2    0    0 -0.35527136788E-14  0.00000000000E+00  0.00000000000E+00  0.91188000000E+02  0.91188000000E+02 0.  0.
    9900012    2    3    3    0    0  0.27051707681E+02  0.17161143263E+02 -0.18151563675E+02  0.54367095742E+02  0.40000026362E+02 0.  0.
        -12    1    3    3    0    0 -0.27051707681E+02 -0.17161143263E+02  0.18151563675E+02  0.36820904258E+02  0.00000000000E+00 0.  1.
         11    1    4    4    0    0  0.61741956950E+00  0.16901194008E+02 -0.45237799470E+01  0.17507031476E+02  0.51100000000E-03 0. -1.
        -11    1    4    4    0    0  0.73982847902E+00 -0.60800641501E+01  0.15950124211E+01  0.63291856611E+01  0.51100000000E-03 0.  1.
         12    1    4    4    0    0  0.25694459633E+02  0.63400134049E+01 -0.15222796149E+02  0.30530878605E+02  0.00000000000E+00 0. -1.
</event>
<event>
 8    1  0.2534787E-006  0.9118800E+02  0.7816164E-02  0.1184000E+00
        -11   -1    0    0    0    0  0.00000000000E+00  0.00000000000E+00  0.45593999997E+02  0.45594000000E+02  0.51100000000E-03 0.  1.
         11   -1    0    0    0    0 -0.00000000000E+00 -0.00000000000E+00 -0.45593999997E+02  0.45594000000E+02  0.51100000000E-03 0. -1.
         23    2    1    2    0    0  0.00000000000E+00  0.00000000000E+00  0.88817841970E-15  0.91188000000E+02  0.91188000000E+02 0.  0.
    9900012    2    3    3    0    0  0.29459713816E+02  0.21457429980E+02 -0.52427209431E+01  0.54367052669E+02  0.39999928170E+02 0.  0.
         12    1    3    3    0    0 -0.29459713816E+02 -0.21457429980E+02  0.52427209431E+01  0.36820947331E+02  0.00000000000E+00 0. -1.
         11    1    4    4    0    0  0.10545446054E+02  0.81308169075E+01 -0.85512324427E+01  0.15825302291E+02  0.51100000000E-03 0. -1.
        -11    1    4    4    0    0 -0.78141513153E+01  0.24231980876E+01  0.50638593581E+01  0.96216174113E+01  0.51100000000E-03 0.  1.
         12    1    4    4    0    0  0.26728419077E+02  0.10903414985E+02 -0.17553478585E+01  0.28920132967E+02  0.00000000000E+00 0. -1.
</event>
<event>
 8    1  0.2534787E-006  0.9118800E+02  0.7816164E-02  0.1184000E+00
        -11   -1    0    0    0    0  0.00000000000E+00  0.00000000000E+00  0.45593999997E+02  0.45594000000E+02  0.51100000000E-03 0.  1.
         11   -1    0    0    0    0 -0.00000000000E+00 -0.00000000000E+00 -0.45593999997E+02  0.45594000000E+02  0.51100000000E-03 0. -1.
         23    2    1    2    0    0  0.00000000000E+00  0.44408920985E-15  0.35527136788E-14  0.91188000000E+02  0.91188000000E+02 0.  0.
    9900012    2    3    3    0    0  0.35241735748E+02  0.10769574796E+01  0.10613451475E+02  0.54367012396E+02  0.39999836359E+02 0.  0.
         12    1    3    3    0    0 -0.35241735748E+02 -0.10769574796E+01 -0.10613451475E+02  0.36820987604E+02  0.00000000000E+00 0. -1.
         11    1    4    4    0    0  0.57581626527E+01 -0.49955607316E+01  0.69978246905E+01  0.10348024682E+02  0.51100000000E-03 0. -1.
        -11    1    4    4    0    0  0.27036253015E+02 -0.20324810239E+00  0.14904577854E+02  0.30873074485E+02  0.51100000000E-03 0.  1.
         12    1    4    4    0    0  0.24473200801E+01  0.62757663136E+01 -0.11288951069E+02  0.13145913230E+02  0.00000000000E+00 0. -1.
</event>
<event>
 8    1  0.2534787E-006  0.9118800E+02  0.7816164E-02  0.1184000E+00
        -11   -1    0    0    0    0  0.00000000000E+00  0.00000000000E+00  0.45593999997E+02  0.45594000000E+02  0.51100000000E-03 0. -1.
         11   -1    0    0    0    0 -0.00000000000E+00 -0.00000000000E+00 -0.45593999997E+02  0.45594000000E+02  0.51100000000E-03 0.  1.
         23    2    1    2    0    0  0.00000000000E+00  0.35527136788E-14  0.35527136788E-14  0.91188000000E+02  0.91188000000E+02 0.  0.
    9900012    2    3    3    0    0  0.83336359275E+01 -0.23974484695E+02  0.26675086714E+02  0.54367005237E+02  0.39999820038E+02 0.  0.
        -12    1    3    3    0    0 -0.83336359275E+01  0.23974484695E+02 -0.26675086714E+02  0.36820994763E+02  0.00000000000E+00 0.  1.
         11    1    4    4    0    0  0.26012218991E+01  0.64292943381E+01  0.18175474943E+01  0.71697740696E+01  0.51100000000E-03 0. -1.
        -11    1    4    4    0    0 -0.39109552270E+01 -0.10433169614E+02 -0.30490718544E+01  0.11551772090E+02  0.51100000000E-03 0.  1.
         12    1    4    4    0    0  0.96433692554E+01 -0.19970609419E+02  0.27906611074E+02  0.35645459077E+02  0.00000000000E+00 0. -1.
</event>
<event>
 8    1  0.2534787E-006  0.9118800E+02  0.7816164E-02  0.1184000E+00
        -11   -1    0    0    0    0  0.00000000000E+00  0.00000000000E+00  0.45593999997E+02  0.45594000000E+02  0.51100000000E-03 0.  1.
         11   -1    0    0    0    0 -0.00000000000E+00 -0.00000000000E+00 -0.45593999997E+02  0.45594000000E+02  0.51100000000E-03 0. -1.
         23    2    1    2    0    0  0.00000000000E+00  0.00000000000E+00  0.00000000000E+00  0.91188000000E+02  0.91188000000E+02 0.  0.
    9900012    2    3    3    0    0 -0.22212514111E+02 -0.13990026594E+02  0.25819802221E+02  0.54367098137E+02  0.40000031824E+02 0.  0.
         12    1    3    3    0    0  0.22212514111E+02  0.13990026594E+02 -0.25819802221E+02  0.36820901863E+02  0.00000000000E+00 0. -1.
         11    1    4    4    0    0  0.10428412865E+01 -0.52716781766E+01  0.17904889923E+02  0.18693934636E+02  0.51100000000E-03 0. -1.
        -11    1    4    4    0    0 -0.21474566789E+02 -0.15440478157E+02  0.10208032071E+02  0.28350825447E+02  0.51100000000E-03 0.  1.
        -12    1    4    4    0    0 -0.17807886090E+01  0.67221297391E+01 -0.22931197732E+01  0.73223380551E+01  0.00000000000E+00 0.  1.
</event>
<event>
 8    1  0.2534787E-006  0.9118800E+02  0.7816164E-02  0.1184000E+00
        -11   -1    0    0    0    0  0.00000000000E+00  0.00000000000E+00  0.45593999997E+02  0.45594000000E+02  0.51100000000E-03 0. -1.
         11   -1    0    0    0    0 -0.00000000000E+00 -0.00000000000E+00 -0.45593999997E+02  0.45594000000E+02  0.51100000000E-03 0.  1.
         23    2    1    2    0    0 -0.44408920985E-15 -0.88817841970E-15  0.00000000000E+00  0.91188000000E+02  0.91188000000E+02 0.  0.
    9900012    2    3    3    0    0 -0.67282819354E+00  0.79075269791E+01 -0.35955499929E+02  0.54367086706E+02  0.40000005763E+02 0.  0.
         12    1    3    3    0    0  0.67282819354E+00 -0.79075269791E+01  0.35955499929E+02  0.36820913294E+02  0.00000000000E+00 0. -1.
         11    1    4    4    0    0  0.11004513601E+01 -0.41093824853E+00 -0.53219620301E+01  0.54500590411E+01  0.51100000000E-03 0. -1.
        -11    1    4    4    0    0  0.11912515805E+02  0.15262423066E+02 -0.26864711674E+02  0.33114382438E+02  0.51100000000E-03 0.  1.
        -12    1    4    4    0    0 -0.13685795358E+02 -0.69439578382E+01 -0.37688262242E+01  0.15802645227E+02  0.00000000000E+00 0.  1.
</event>
<event>
 8    1  0.2534787E-006  0.9118800E+02  0.7816164E-02  0.1184000E+00
        -11   -1    0    0    0    0  0.00000000000E+00  0.00000000000E+00  0.45593999997E+02  0.45594000000E+02  0.51100000000E-03 0.  1.
         11   -1    0    0    0    0 -0.00000000000E+00 -0.00000000000E+00 -0.45593999997E+02  0.45594000000E+02  0.51100000000E-03 0. -1.
         23    2    1    2    0    0  0.88817841970E-15  0.00000000000E+00  0.88817841970E-15  0.91188000000E+02  0.91188000000E+02 0.  0.
    9900012    2    3    3    0    0  0.19394405852E+01  0.36506745192E+02  0.43904375860E+01  0.54367084524E+02  0.40000000789E+02 0.  0.
         12    1    3    3    0    0 -0.19394405852E+01 -0.36506745192E+02 -0.43904375860E+01  0.36820915476E+02  0.00000000000E+00 0. -1.
         11    1    4    4    0    0  0.87792482099E+01  0.30455314734E+02  0.91190248332E+01  0.32981176584E+02  0.51100000000E-03 0. -1.
        -11    1    4    4    0    0  0.48131812507E+01  0.20755257696E+01  0.37426196316E+01  0.64406306322E+01  0.51100000000E-03 0.  1.
         12    1    4    4    0    0 -0.11652988875E+02  0.39759046884E+01 -0.84712068788E+01  0.14945277308E+02  0.00000000000E+00 0. -1.
</event>
<event>
 8    1  0.2534787E-006  0.9118800E+02  0.7816164E-02  0.1184000E+00
        -11   -1    0    0    0    0  0.00000000000E+00  0.00000000000E+00  0.45593999997E+02  0.45594000000E+02  0.51100000000E-03 0. -1.
         11   -1    0    0    0    0 -0.00000000000E+00 -0.00000000000E+00 -0.45593999997E+02  0.45594000000E+02  0.51100000000E-03 0.  1.
         23    2    1    2    0    0  0.22204460493E-15 -0.35527136788E-14  0.00000000000E+00  0.91188000000E+02  0.91188000000E+02 0.  0.
    9900012    2    3    3    0    0 -0.18051316306E+01  0.19936861221E+02 -0.30903764483E+02  0.54367087535E+02  0.40000007653E+02 0.  0.
         12    1    3    3    0    0  0.18051316306E+01 -0.19936861221E+02  0.30903764483E+02  0.36820912465E+02  0.00000000000E+00 0. -1.
         11    1    4    4    0    0 -0.54955014915E+01 -0.51718245322E+01 -0.15187987664E+02  0.16959459755E+02  0.51100000000E-03 0. -1.
        -11    1    4    4    0    0 -0.40913927004E+01  0.19977219571E+02 -0.18651135421E+02  0.27635007667E+02  0.51100000000E-03 0.  1.
        -12    1    4    4    0    0  0.77817625613E+01  0.51314661819E+01  0.29353586019E+01  0.97726201123E+01  0.00000000000E+00 0.  1.
</event>
<event>
 8    1  0.2534787E-006  0.9118800E+02  0.7816164E-02  0.1184000E+00
        -11   -1    0    0    0    0  0.00000000000E+00  0.00000000000E+00  0.45593999997E+02  0.45594000000E+02  0.51100000000E-03 0.  1.
         11   -1    0    0    0    0 -0.00000000000E+00 -0.00000000000E+00 -0.45593999997E+02  0.45594000000E+02  0.51100000000E-03 0. -1.
         23    2    1    2    0    0  0.00000000000E+00  0.00000000000E+00 -0.17763568394E-14  0.91188000000E+02  0.91188000000E+02 0.  0.
    9900012    2    3    3    0    0  0.31268073230E+02  0.16583061790E+02  0.10153384734E+02  0.54367060802E+02  0.39999946710E+02 0.  0.
         12    1    3    3    0    0 -0.31268073230E+02 -0.16583061790E+02 -0.10153384734E+02  0.36820939198E+02  0.00000000000E+00 0. -1.
         11    1    4    4    0    0  0.20922964809E+02  0.13422161249E+02 -0.94782007702E+01  0.26603780917E+02  0.51100000000E-03 0. -1.
        -11    1    4    4    0    0  0.12608122543E+02  0.57335718492E+01  0.88168585166E+01  0.16418757401E+02  0.51100000000E-03 0.  1.
         12    1    4    4    0    0 -0.22630141226E+01 -0.25726713076E+01  0.10814726987E+02  0.11344522484E+02  0.00000000000E+00 0. -1.
</event>
<event>
 8    1  0.2534787E-006  0.9118800E+02  0.7816164E-02  0.1184000E+00
        -11   -1    0    0    0    0  0.00000000000E+00  0.00000000000E+00  0.45593999997E+02  0.45594000000E+02  0.51100000000E-03 0. -1.
         11   -1    0    0    0    0 -0.00000000000E+00 -0.00000000000E+00 -0.45593999997E+02  0.45594000000E+02  0.51100000000E-03 0.  1.
         23    2    1    2    0    0 -0.35527136788E-14  0.00000000000E+00  0.17763568394E-14  0.91188000000E+02  0.91188000000E+02 0.  0.
    9900012    2    3    3    0    0  0.23908232279E+02  0.27596274660E+02  0.47560020726E+01  0.54367115960E+02  0.40000072453E+02 0.  0.
        -12    1    3    3    0    0 -0.23908232279E+02 -0.27596274660E+02 -0.47560020726E+01  0.36820884040E+02  0.00000000000E+00 0.  1.
         11    1    4    4    0    0  0.22947310330E+02  0.71339779465E+01 -0.11884792963E+01  0.24060032752E+02  0.51100000000E-03 0. -1.
        -11    1    4    4    0    0 -0.36145527263E+01 -0.82972552181E+00 -0.47650893651E+01  0.60381713102E+01  0.51100000000E-03 0.  1.
         12    1    4    4    0    0  0.45754746746E+01  0.21292022235E+02  0.10709570734E+02  0.24268911897E+02  0.00000000000E+00 0. -1.
</event>
<event>
 8    1  0.2534787E-006  0.9118800E+02  0.7816164E-02  0.1184000E+00
        -11   -1    0    0    0    0  0.00000000000E+00  0.00000000000E+00  0.45593999997E+02  0.45594000000E+02  0.51100000000E-03 0.  1.
         11   -1    0    0    0    0 -0.00000000000E+00 -0.00000000000E+00 -0.45593999997E+02  0.45594000000E+02  0.51100000000E-03 0. -1.
         23    2    1    2    0    0  0.00000000000E+00  0.35527136788E-14  0.35527136788E-14  0.91188000000E+02  0.91188000000E+02 0.  0.
    9900012    2    3    3    0    0  0.23823457932E+02  0.18794363035E+02 -0.20856892005E+02  0.54366875983E+02  0.39999525376E+02 0.  0.
        -12    1    3    3    0    0 -0.23823457932E+02 -0.18794363035E+02  0.20856892005E+02  0.36821124017E+02  0.00000000000E+00 0.  1.
         11    1    4    4    0    0  0.12048688537E+02  0.69724332989E+01 -0.56138172890E+01  0.15010018867E+02  0.51100000000E-03 0. -1.
        -11    1    4    4    0    0  0.14751924874E+02 -0.28625062374E+01 -0.18690431218E+02  0.23982190243E+02  0.51100000000E-03 0.  1.
        -12    1    4    4    0    0 -0.29771554793E+01  0.14684435974E+02  0.34473565026E+01  0.15374666873E+02  0.00000000000E+00 0.  1.
</event>
<event>
 8    1  0.2534787E-006  0.9118800E+02  0.7816164E-02  0.1184000E+00
        -11   -1    0    0    0    0  0.00000000000E+00  0.00000000000E+00  0.45593999997E+02  0.45594000000E+02  0.51100000000E-03 0.  1.
         11   -1    0    0    0    0 -0.00000000000E+00 -0.00000000000E+00 -0.45593999997E+02  0.45594000000E+02  0.51100000000E-03 0. -1.
         23    2    1    2    0    0 -0.44408920985E-15  0.00000000000E+00  0.00000000000E+00  0.91188000000E+02  0.91188000000E+02 0.  0.
    9900012    2    3    3    0    0  0.32837197791E+01 -0.20735214870E+02 -0.30249804231E+02  0.54367046627E+02  0.39999914396E+02 0.  0.
        -12    1    3    3    0    0 -0.32837197791E+01  0.20735214870E+02  0.30249804231E+02  0.36820953373E+02  0.00000000000E+00 0.  1.
         11    1    4    4    0    0  0.81667064714E+01 -0.24859306497E+02 -0.89316607370E+01  0.27648775342E+02  0.51100000000E-03 0. -1.
        -11    1    4    4    0    0 -0.94926077575E+01  0.58620009678E+01 -0.14119783492E+02  0.17995581221E+02  0.51100000000E-03 0.  1.
        -12    1    4    4    0    0  0.46096210652E+01 -0.17379093404E+01 -0.71983600019E+01  0.87226900642E+01  0.00000000000E+00 0.  1.
</event>
<event>
 8    1  0.2534787E-006  0.9118800E+02  0.7816164E-02  0.1184000E+00
        -11   -1    0    0    0    0  0.00000000000E+00  0.00000000000E+00  0.45593999997E+02  0.45594000000E+02  0.51100000000E-03 0.  1.
         11   -1    0    0    0    0 -0.00000000000E+00 -0.00000000000E+00 -0.45593999997E+02  0.45594000000E+02  0.51100000000E-03 0. -1.
         23    2    1    2    0    0  0.00000000000E+00  0.00000000000E+00  0.00000000000E+00  0.91188000000E+02  0.91188000000E+02 0.  0.
    9900012    2    3    3    0    0 -0.18522992857E+02  0.30584100573E+02 -0.87915548332E+01  0.54367083273E+02  0.39999997938E+02 0.  0.
        -12    1    3    3    0    0  0.18522992857E+02 -0.30584100573E+02  0.87915548332E+01  0.36820916727E+02  0.00000000000E+00 0.  1.
         11    1    4    4    0    0 -0.91202709593E+01  0.25673558188E+02 -0.28755251521E+01  0.27396707422E+02  0.51100000000E-03 0. -1.
        -11    1    4    4    0    0 -0.50080663539E+01 -0.75758600213E+01  0.44916879962E+01  0.10131616109E+02  0.51100000000E-03 0.  1.
        -12    1    4    4    0    0 -0.43946555437E+01  0.12486402406E+02 -0.10407717677E+02  0.16838759742E+02  0.00000000000E+00 0.  1.
</event>
<event>
 8    1  0.2534787E-006  0.9118800E+02  0.7816164E-02  0.1184000E+00
        -11   -1    0    0    0    0  0.00000000000E+00  0.00000000000E+00  0.45593999997E+02  0.45594000000E+02  0.51100000000E-03 0. -1.
         11   -1    0    0    0    0 -0.00000000000E+00 -0.00000000000E+00 -0.45593999997E+02  0.45594000000E+02  0.51100000000E-03 0.  1.
         23    2    1    2    0    0  0.00000000000E+00  0.17763568394E-14  0.22204460493E-15  0.91188000000E+02  0.91188000000E+02 0.  0.
    9900012    2    3    3    0    0 -0.35644920948E+02  0.92214876831E+01  0.42770466448E+00  0.54367093496E+02  0.40000021243E+02 0.  0.
        -12    1    3    3    0    0  0.35644920948E+02 -0.92214876831E+01 -0.42770466448E+00  0.36820906504E+02  0.00000000000E+00 0.  1.
         11    1    4    4    0    0 -0.24126914644E+02  0.20750398247E+02 -0.67749501236E+01  0.32535933783E+02  0.51100000000E-03 0. -1.
        -11    1    4    4    0    0  0.15163199466E+01 -0.60195830657E+01  0.37951557043E+01  0.72758376525E+01  0.51100000000E-03 0.  1.
         12    1    4    4    0    0 -0.13034326251E+02 -0.55093274985E+01  0.34074990838E+01  0.14555322061E+02  0.00000000000E+00 0. -1.
</event>
<event>
 8    1  0.2534787E-006  0.9118800E+02  0.7816164E-02  0.1184000E+00
        -11   -1    0    0    0    0  0.00000000000E+00  0.00000000000E+00  0.45593999997E+02  0.45594000000E+02  0.51100000000E-03 0.  1.
         11   -1    0    0    0    0 -0.00000000000E+00 -0.00000000000E+00 -0.45593999997E+02  0.45594000000E+02  0.51100000000E-03 0. -1.
         23    2    1    2    0    0 -0.17763568394E-14  0.35527136788E-14  0.00000000000E+00  0.91188000000E+02  0.91188000000E+02 0.  0.
    9900012    2    3    3    0    0  0.11701645377E+02 -0.29522173138E+02  0.18636210739E+02  0.54366870713E+02  0.39999513361E+02 0.  0.
         12    1    3    3    0    0 -0.11701645377E+02  0.29522173138E+02 -0.18636210739E+02  0.36821129287E+02  0.00000000000E+00 0. -1.
         11    1    4    4    0    0 -0.45677442684E+01 -0.47514837068E+01  0.10153636315E+02  0.12105255709E+02  0.51100000000E-03 0. -1.
        -11    1    4    4    0    0  0.11356544346E+02 -0.79952974396E+01  0.17701352411E+02  0.22499639065E+02  0.51100000000E-03 0.  1.
         12    1    4    4    0    0  0.49128452995E+01 -0.16775391991E+02 -0.92187779869E+01  0.19761975938E+02  0.00000000000E+00 0. -1.
</event>
<event>
 8    1  0.2534787E-006  0.9118800E+02  0.7816164E-02  0.1184000E+00
        -11   -1    0    0    0    0  0.00000000000E+00  0.00000000000E+00  0.45593999997E+02  0.45594000000E+02  0.51100000000E-03 0. -1.
         11   -1    0    0    0    0 -0.00000000000E+00 -0.00000000000E+00 -0.45593999997E+02  0.45594000000E+02  0.51100000000E-03 0.  1.
         23    2    1    2    0    0  0.00000000000E+00 -0.35527136788E-14 -0.88817841970E-15  0.91188000000E+02  0.91188000000E+02 0.  0.
    9900012    2    3    3    0    0  0.23309690590E+02  0.27541627080E+02  0.73415854000E+01  0.54367057945E+02  0.39999940198E+02 0.  0.
        -12    1    3    3    0    0 -0.23309690590E+02 -0.27541627080E+02 -0.73415854000E+01  0.36820942055E+02  0.00000000000E+00 0.  1.
         11    1    4    4    0    0  0.31017511826E+02  0.21941496947E+02  0.79122029174E+01  0.38808739781E+02  0.51100000000E-03 0. -1.
        -11    1    4    4    0    0 -0.37907931633E+01 -0.26311188643E+01 -0.37060561669E+01  0.59184247785E+01  0.51100000000E-03 0.  1.
        -12    1    4    4    0    0 -0.39170280721E+01  0.82312489971E+01  0.31354386495E+01  0.96398933861E+01  0.00000000000E+00 0.  1.
</event>
<event>
 8    1  0.2534787E-006  0.9118800E+02  0.7816164E-02  0.1184000E+00
        -11   -1    0    0    0    0  0.00000000000E+00  0.00000000000E+00  0.45593999997E+02  0.45594000000E+02  0.51100000000E-03 0. -1.
         11   -1    0    0    0    0 -0.00000000000E+00 -0.00000000000E+00 -0.45593999997E+02  0.45594000000E+02  0.51100000000E-03 0.  1.
         23    2    1    2    0    0  0.00000000000E+00  0.88817841970E-15  0.00000000000E+00  0.91188000000E+02  0.91188000000E+02 0.  0.
    9900012    2    3    3    0    0  0.20693683144E+02  0.30862176480E+01 -0.30298877524E+02  0.54367146661E+02  0.40000142442E+02 0.  0.
         12    1    3    3    0    0 -0.20693683144E+02 -0.30862176480E+01  0.30298877524E+02  0.36820853339E+02  0.00000000000E+00 0. -1.
         11    1    4    4    0    0  0.12723906950E+02  0.93055464871E+01  0.53260187662E+00  0.15772592321E+02  0.51100000000E-03 0. -1.
        -11    1    4    4    0    0 -0.50433780344E+01  0.40686734536E+01 -0.10696499278E+02  0.12506192975E+02  0.51100000000E-03 0.  1.
        -12    1    4    4    0    0  0.13013154228E+02 -0.10288002293E+02 -0.20134980123E+02  0.26088361365E+02  0.00000000000E+00 0.  1.
</event>
<event>
 8    1  0.2534787E-006  0.9118800E+02  0.7816164E-02  0.1184000E+00
        -11   -1    0    0    0    0  0.00000000000E+00  0.00000000000E+00  0.45593999997E+02  0.45594000000E+02  0.51100000000E-03 0. -1.
         11   -1    0    0    0    0 -0.00000000000E+00 -0.00000000000E+00 -0.45593999997E+02  0.45594000000E+02  0.51100000000E-03 0.  1.
         23    2    1    2    0    0  0.35527136788E-14  0.00000000000E+00  0.17763568394E-14  0.91188000000E+02  0.91188000000E+02 0.  0.
    9900012    2    3    3    0    0 -0.22961409718E+02 -0.24057300068E+02 -0.15805042776E+02  0.54367090180E+02  0.40000013683E+02 0.  0.
        -12    1    3    3    0    0  0.22961409718E+02  0.24057300068E+02  0.15805042776E+02  0.36820909820E+02  0.00000000000E+00 0.  1.
         11    1    4    4    0    0 -0.57824977434E+01 -0.88386415371E+01 -0.15547742879E+02  0.18796041425E+02  0.51100000000E-03 0. -1.
        -11    1    4    4    0    0 -0.22265987319E+02 -0.57959352526E+01 -0.54881961504E+01  0.23653485029E+02  0.51100000000E-03 0.  1.
         12    1    4    4    0    0  0.50870753443E+01 -0.94227232786E+01  0.52308962532E+01  0.11917563726E+02  0.00000000000E+00 0. -1.
</event>
<event>
 8    1  0.2534787E-006  0.9118800E+02  0.7816164E-02  0.1184000E+00
        -11   -1    0    0    0    0  0.00000000000E+00  0.00000000000E+00  0.45593999997E+02  0.45594000000E+02  0.51100000000E-03 0.  1.
         11   -1    0    0    0    0 -0.00000000000E+00 -0.00000000000E+00 -0.45593999997E+02  0.45594000000E+02  0.51100000000E-03 0. -1.
         23    2    1    2    0    0 -0.11102230246E-14 -0.35527136788E-14  0.35527136788E-14  0.91188000000E+02  0.91188000000E+02 0.  0.
    9900012    2    3    3    0    0  0.18294702509E+01  0.28925014060E+02 -0.22710717707E+02  0.54367080694E+02  0.39999992057E+02 0.  0.
         12    1    3    3    0    0 -0.18294702509E+01 -0.28925014060E+02  0.22710717707E+02  0.36820919306E+02  0.00000000000E+00 0. -1.
         11    1    4    4    0    0  0.84087281612E+01 -0.24055945537E+01 -0.13392402030E+02  0.15995312653E+02  0.51100000000E-03 0. -1.
        -11    1    4    4    0    0  0.60748759775E+01  0.17216889177E+02 -0.41252766396E+01  0.18717459729E+02  0.51100000000E-03 0.  1.
         12    1    4    4    0    0 -0.12654133888E+02  0.14113719437E+02 -0.51930390372E+01  0.19654308312E+02  0.00000000000E+00 0. -1.
</event>
<event>
 8    1  0.2534787E-006  0.9118800E+02  0.7816164E-02  0.1184000E+00
        -11   -1    0    0    0    0  0.00000000000E+00  0.00000000000E+00  0.45593999997E+02  0.45594000000E+02  0.51100000000E-03 0.  1.
         11   -1    0    0    0    0 -0.00000000000E+00 -0.00000000000E+00 -0.45593999997E+02  0.45594000000E+02  0.51100000000E-03 0. -1.
         23    2    1    2    0    0  0.71054273576E-14 -0.17763568394E-14 -0.17763568394E-14  0.91188000000E+02  0.91188000000E+02 0.  0.
    9900012    2    3    3    0    0 -0.33711972266E+02 -0.14343851967E+02  0.36790866315E+01  0.54367097760E+02  0.40000030964E+02 0.  0.
        -12    1    3    3    0    0  0.33711972266E+02  0.14343851967E+02 -0.36790866315E+01  0.36820902240E+02  0.00000000000E+00 0.  1.
         11    1    4    4    0    0 -0.89353132763E+01 -0.16579118571E+02 -0.49093072707E+01  0.19462998075E+02  0.51100000000E-03 0.  1.
        -11    1    4    4    0    0  0.51903121034E-01 -0.31729667570E+01 -0.51259023086E+01  0.60287052270E+01  0.51100000000E-03 0. -1.
        -12    1    4    4    0    0 -0.24828562111E+02  0.54082333609E+01  0.13714296211E+02  0.28875394458E+02  0.00000000000E+00 0.  1.
</event>
<event>
 8    1  0.2534787E-006  0.9118800E+02  0.7816164E-02  0.1184000E+00
        -11   -1    0    0    0    0  0.00000000000E+00  0.00000000000E+00  0.45593999997E+02  0.45594000000E+02  0.51100000000E-03 0. -1.
         11   -1    0    0    0    0 -0.00000000000E+00 -0.00000000000E+00 -0.45593999997E+02  0.45594000000E+02  0.51100000000E-03 0.  1.
         23    2    1    2    0    0 -0.35527136788E-14  0.88817841970E-15  0.00000000000E+00  0.91188000000E+02  0.91188000000E+02 0.  0.
    9900012    2    3    3    0    0 -0.24100005698E+02 -0.28621297573E+01  0.27690770867E+02  0.54367070455E+02  0.39999968716E+02 0.  0.
        -12    1    3    3    0    0  0.24100005698E+02  0.28621297573E+01 -0.27690770867E+02  0.36820929545E+02  0.00000000000E+00 0.  1.
         11    1    4    4    0    0 -0.20253194675E+02  0.65559133543E+01  0.18225107677E+02  0.28023676500E+02  0.51100000000E-03 0. -1.
        -11    1    4    4    0    0 -0.13131206096E+01  0.73545672189E+01  0.15752358226E+01  0.76351367290E+01  0.51100000000E-03 0.  1.
         12    1    4    4    0    0 -0.25336904129E+01 -0.16772610331E+02  0.78904273669E+01  0.18708257226E+02  0.00000000000E+00 0. -1.
</event>
<event>
 8    1  0.2534787E-006  0.9118800E+02  0.7816164E-02  0.1184000E+00
        -11   -1    0    0    0    0  0.00000000000E+00  0.00000000000E+00  0.45593999997E+02  0.45594000000E+02  0.51100000000E-03 0.  1.
         11   -1    0    0    0    0 -0.00000000000E+00 -0.00000000000E+00 -0.45593999997E+02  0.45594000000E+02  0.51100000000E-03 0. -1.
         23    2    1    2    0    0  0.00000000000E+00  0.71054273576E-14 -0.88817841970E-15  0.91188000000E+02  0.91188000000E+02 0.  0.
    9900012    2    3    3    0    0 -0.26601936997E+01  0.36485861614E+02  0.41816393783E+01  0.54367070678E+02  0.39999969225E+02 0.  0.
         12    1    3    3    0    0  0.26601936997E+01 -0.36485861614E+02 -0.41816393783E+01  0.36820929322E+02  0.00000000000E+00 0. -1.
         11    1    4    4    0    0 -0.75425802986E+01 -0.38718530762E+01 -0.25025015106E+01  0.88399252189E+01  0.51100000000E-03 0. -1.
        -11    1    4    4    0    0  0.74473859014E+01  0.36502279531E+02  0.11358543361E+02  0.38947355177E+02  0.51100000000E-03 0.  1.
        -12    1    4    4    0    0 -0.25649993025E+01  0.38554351594E+01 -0.46744024725E+01  0.65797902828E+01  0.00000000000E+00 0.  1.
</event>
<event>
 8    1  0.2534787E-006  0.9118800E+02  0.7816164E-02  0.1184000E+00
        -11   -1    0    0    0    0  0.00000000000E+00  0.00000000000E+00  0.45593999997E+02  0.45594000000E+02  0.51100000000E-03 0.  1.
         11   -1    0    0    0    0 -0.00000000000E+00 -0.00000000000E+00 -0.45593999997E+02  0.45594000000E+02  0.51100000000E-03 0. -1.
         23    2    1    2    0    0 -0.44408920985E-15  0.17763568394E-14  0.00000000000E+00  0.91188000000E+02  0.91188000000E+02 0.  0.
    9900012    2    3    3    0    0  0.35855638012E+01 -0.13715793416E+02  0.33982348422E+02  0.54367092066E+02  0.40000017983E+02 0.  0.
         12    1    3    3    0    0 -0.35855638012E+01  0.13715793416E+02 -0.33982348422E+02  0.36820907934E+02  0.00000000000E+00 0. -1.
         11    1    4    4    0    0  0.80086616337E+01  0.61061022561E+01  0.21004198939E+02  0.23293765674E+02  0.51100000000E-03 0. -1.
        -11    1    4    4    0    0  0.53799027911E+01 -0.58440532815E+00  0.66504649205E+01  0.85740053388E+01  0.51100000000E-03 0.  1.
         12    1    4    4    0    0 -0.98030006236E+01 -0.19237490344E+02  0.63276845626E+01  0.22499321054E+02  0.00000000000E+00 0. -1.
</event>
<event>
 8    1  0.2534787E-006  0.9118800E+02  0.7816164E-02  0.1184000E+00
        -11   -1    0    0    0    0  0.00000000000E+00  0.00000000000E+00  0.45593999997E+02  0.45594000000E+02  0.51100000000E-03 0. -1.
         11   -1    0    0    0    0 -0.00000000000E+00 -0.00000000000E+00 -0.45593999997E+02  0.45594000000E+02  0.51100000000E-03 0.  1.
         23    2    1    2    0    0  0.00000000000E+00  0.00000000000E+00  0.00000000000E+00  0.91188000000E+02  0.91188000000E+02 0.  0.
    9900012    2    3    3    0    0 -0.25188984791E+02 -0.25605639250E+02 -0.81023547895E+01  0.54367056648E+02  0.39999937240E+02 0.  0.
         12    1    3    3    0    0  0.25188984791E+02  0.25605639250E+02  0.81023547895E+01  0.36820943352E+02  0.00000000000E+00 0. -1.
         11    1    4    4    0    0 -0.21022978428E+02 -0.41365649577E+01 -0.22456295166E+01  0.21543436212E+02  0.51100000000E-03 0. -1.
        -11    1    4    4    0    0 -0.92150529976E+01  0.66661672236E+00 -0.39220007494E+01  0.10037114612E+02  0.51100000000E-03 0.  1.
         12    1    4    4    0    0  0.50490466349E+01 -0.22135691015E+02 -0.19347245235E+01  0.22786505823E+02  0.00000000000E+00 0. -1.
</event>
<event>
 8    1  0.2534787E-006  0.9118800E+02  0.7816164E-02  0.1184000E+00
        -11   -1    0    0    0    0  0.00000000000E+00  0.00000000000E+00  0.45593999997E+02  0.45594000000E+02  0.51100000000E-03 0.  1.
         11   -1    0    0    0    0 -0.00000000000E+00 -0.00000000000E+00 -0.45593999997E+02  0.45594000000E+02  0.51100000000E-03 0. -1.
         23    2    1    2    0    0 -0.35527136788E-14  0.00000000000E+00 -0.35527136788E-14  0.91188000000E+02  0.91188000000E+02 0.  0.
    9900012    2    3    3    0    0 -0.28111141091E+02  0.48816882772E+01 -0.23274697402E+02  0.54367100051E+02  0.40000036186E+02 0.  0.
        -12    1    3    3    0    0  0.28111141091E+02 -0.48816882772E+01  0.23274697402E+02  0.36820899949E+02  0.00000000000E+00 0.  1.
         11    1    4    4    0    0  0.65742236006E+01  0.23563170343E+01 -0.15735523969E+01  0.71588206657E+01  0.51100000000E-03 0. -1.
        -11    1    4    4    0    0  0.10960677541E+01 -0.44176551874E+01 -0.59760210207E+01  0.75119817210E+01  0.51100000000E-03 0.  1.
         12    1    4    4    0    0 -0.35781432446E+02  0.69430264303E+01 -0.15725123985E+02  0.39696297664E+02  0.00000000000E+00 0. -1.
</event>
<event>
 8    1  0.2534787E-006  0.9118800E+02  0.7816164E-02  0.1184000E+00
        -11   -1    0    0    0    0  0.00000000000E+00  0.00000000000E+00  0.45593999997E+02  0.45594000000E+02  0.51100000000E-03 0. -1.
         11   -1    0    0    0    0 -0.00000000000E+00 -0.00000000000E+00 -0.45593999997E+02  0.45594000000E+02  0.51100000000E-03 0.  1.
         23    2    1    2    0    0  0.00000000000E+00  0.17763568394E-14  0.00000000000E+00  0.91188000000E+02  0.91188000000E+02 0.  0.
    9900012    2    3    3    0    0  0.15796258399E+02  0.89060864805E+01 -0.32045894749E+02  0.54367088468E+02  0.40000009780E+02 0.  0.
         12    1    3    3    0    0 -0.15796258399E+02 -0.89060864805E+01  0.32045894749E+02  0.36820911532E+02  0.00000000000E+00 0. -1.
         11    1    4    4    0    0  0.33993248461E+01  0.88125489386E+01  0.32545188915E+01  0.99904114871E+01  0.51100000000E-03 0. -1.
        -11    1    4    4    0    0  0.11500045220E+02 -0.23585948983E+01 -0.31965855938E+01  0.12166847154E+02  0.51100000000E-03 0.  1.
         12    1    4    4    0    0  0.89688833259E+00  0.24521324403E+01 -0.32103828047E+02  0.32209829827E+02  0.00000000000E+00 0. -1.
</event>
<event>
 8    1  0.2534787E-006  0.9118800E+02  0.7816164E-02  0.1184000E+00
        -11   -1    0    0    0    0  0.00000000000E+00  0.00000000000E+00  0.45593999997E+02  0.45594000000E+02  0.51100000000E-03 0.  1.
         11   -1    0    0    0    0 -0.00000000000E+00 -0.00000000000E+00 -0.45593999997E+02  0.45594000000E+02  0.51100000000E-03 0. -1.
         23    2    1    2    0    0  0.17763568394E-14 -0.71054273576E-14 -0.44408920985E-15  0.91188000000E+02  0.91188000000E+02 0.  0.
    9900012    2    3    3    0    0 -0.15256355448E+02  0.33327634697E+02  0.35059816707E+01  0.54367088502E+02  0.40000009859E+02 0.  0.
        -12    1    3    3    0    0  0.15256355448E+02 -0.33327634697E+02 -0.35059816707E+01  0.36820911498E+02  0.00000000000E+00 0.  1.
         11    1    4    4    0    0 -0.92104703472E+01  0.29097373804E+02 -0.11959982324E+02  0.32780041241E+02  0.51100000000E-03 0. -1.
        -11    1    4    4    0    0  0.21060815786E+01  0.37244175101E+01  0.11953463992E+02  0.12696147726E+02  0.51100000000E-03 0.  1.
         12    1    4    4    0    0 -0.81519666794E+01  0.50584338219E+00  0.35125000027E+01  0.88908995348E+01  0.00000000000E+00 0. -1.
</event>
<event>
 8    1  0.2534787E-006  0.9118800E+02  0.7816164E-02  0.1184000E+00
        -11   -1    0    0    0    0  0.00000000000E+00  0.00000000000E+00  0.45593999997E+02  0.45594000000E+02  0.51100000000E-03 0.  1.
         11   -1    0    0    0    0 -0.00000000000E+00 -0.00000000000E+00 -0.45593999997E+02  0.45594000000E+02  0.51100000000E-03 0. -1.
         23    2    1    2    0    0  0.35527136788E-14  0.18873791419E-14  0.00000000000E+00  0.91188000000E+02  0.91188000000E+02 0.  0.
    9900012    2    3    3    0    0 -0.29344868619E+02 -0.58202572249E+00  0.22233283437E+02  0.54367096147E+02  0.40000027286E+02 0.  0.
         12    1    3    3    0    0  0.29344868619E+02  0.58202572249E+00 -0.22233283437E+02  0.36820903853E+02  0.00000000000E+00 0. -1.
         11    1    4    4    0    0 -0.33243538382E+02 -0.67605190584E+01  0.11035936061E+02  0.35673930917E+02  0.51100000000E-03 0. -1.
        -11    1    4    4    0    0  0.24240008851E+01 -0.33118428957E+01  0.72055667658E+01  0.82924228266E+01  0.51100000000E-03 0.  1.
         12    1    4    4    0    0  0.14746688784E+01  0.94903362317E+01  0.39917806099E+01  0.10400742403E+02  0.00000000000E+00 0. -1.
</event>
<event>
 8    1  0.2534787E-006  0.9118800E+02  0.7816164E-02  0.1184000E+00
        -11   -1    0    0    0    0  0.00000000000E+00  0.00000000000E+00  0.45593999997E+02  0.45594000000E+02  0.51100000000E-03 0. -1.
         11   -1    0    0    0    0 -0.00000000000E+00 -0.00000000000E+00 -0.45593999997E+02  0.45594000000E+02  0.51100000000E-03 0.  1.
         23    2    1    2    0    0 -0.71054273576E-14 -0.17763568394E-14  0.00000000000E+00  0.91188000000E+02  0.91188000000E+02 0.  0.
    9900012    2    3    3    0    0 -0.35650535605E+02 -0.80287469599E+01  0.45120063805E+01  0.54367086537E+02  0.40000005379E+02 0.  0.
        -12    1    3    3    0    0  0.35650535605E+02  0.80287469599E+01 -0.45120063805E+01  0.36820913463E+02  0.00000000000E+00 0.  1.
         11    1    4    4    0    0  0.53069295253E+00  0.62217655519E+01 -0.39802653668E+01  0.74050330346E+01  0.51100000000E-03 0. -1.
        -11    1    4    4    0    0  0.22458214394E+01 -0.60372391245E+01 -0.10464933800E+01  0.65258806946E+01  0.51100000000E-03 0.  1.
         12    1    4    4    0    0 -0.38427049997E+02 -0.82132733872E+01  0.95387651272E+01  0.40436172808E+02  0.00000000000E+00 0. -1.
</event>
<event>
 8    1  0.2534787E-006  0.9118800E+02  0.7816164E-02  0.1184000E+00
        -11   -1    0    0    0    0  0.00000000000E+00  0.00000000000E+00  0.45593999997E+02  0.45594000000E+02  0.51100000000E-03 0.  1.
         11   -1    0    0    0    0 -0.00000000000E+00 -0.00000000000E+00 -0.45593999997E+02  0.45594000000E+02  0.51100000000E-03 0. -1.
         23    2    1    2    0    0  0.00000000000E+00  0.17763568394E-14  0.00000000000E+00  0.91188000000E+02  0.91188000000E+02 0.  0.
    9900012    2    3    3    0    0 -0.45870782421E+01  0.12009977914E+02  0.34503639441E+02  0.54367054996E+02  0.39999933475E+02 0.  0.
         12    1    3    3    0    0  0.45870782421E+01 -0.12009977914E+02 -0.34503639441E+02  0.36820945004E+02  0.00000000000E+00 0. -1.
         11    1    4    4    0    0 -0.10972411958E+02 -0.12249459293E+00 -0.44919116536E+01  0.11856900930E+02  0.51100000000E-03 0. -1.
        -11    1    4    4    0    0  0.49245409663E+01  0.19342851493E+01  0.22073521257E+02  0.22698742338E+02  0.51100000000E-03 0.  1.
         12    1    4    4    0    0  0.14607927497E+01  0.10198187358E+02  0.16922029838E+02  0.19811411728E+02  0.00000000000E+00 0. -1.
</event>
<event>
 8    1  0.2534787E-006  0.9118800E+02  0.7816164E-02  0.1184000E+00
        -11   -1    0    0    0    0  0.00000000000E+00  0.00000000000E+00  0.45593999997E+02  0.45594000000E+02  0.51100000000E-03 0. -1.
         11   -1    0    0    0    0 -0.00000000000E+00 -0.00000000000E+00 -0.45593999997E+02  0.45594000000E+02  0.51100000000E-03 0.  1.
         23    2    1    2    0    0  0.38857805862E-15  0.00000000000E+00  0.00000000000E+00  0.91188000000E+02  0.91188000000E+02 0.  0.
    9900012    2    3    3    0    0  0.17317560774E+00  0.11204962678E+02  0.35074045233E+02  0.54367220169E+02  0.40000310017E+02 0.  0.
        -12    1    3    3    0    0 -0.17317560774E+00 -0.11204962678E+02 -0.35074045233E+02  0.36820779831E+02  0.00000000000E+00 0.  1.
         11    1    4    4    0    0  0.82122095894E+01  0.10899331507E+02  0.23509537099E+02  0.27183343218E+02  0.51100000000E-03 0. -1.
        -11    1    4    4    0    0 -0.15466122061E+02  0.89796134973E+00  0.12181404531E+02  0.19707711252E+02  0.51100000000E-03 0.  1.
         12    1    4    4    0    0  0.74270880795E+01 -0.59233017943E+00 -0.61689639720E+00  0.74761656982E+01  0.00000000000E+00 0. -1.
</event>
<event>
 8    1  0.2534787E-006  0.9118800E+02  0.7816164E-02  0.1184000E+00
        -11   -1    0    0    0    0  0.00000000000E+00  0.00000000000E+00  0.45593999997E+02  0.45594000000E+02  0.51100000000E-03 0. -1.
         11   -1    0    0    0    0 -0.00000000000E+00 -0.00000000000E+00 -0.45593999997E+02  0.45594000000E+02  0.51100000000E-03 0.  1.
         23    2    1    2    0    0  0.71054273576E-14 -0.44408920985E-15  0.00000000000E+00  0.91188000000E+02  0.91188000000E+02 0.  0.
    9900012    2    3    3    0    0  0.34396069961E+02  0.28971063013E+01  0.12817811128E+02  0.54367093768E+02  0.40000021862E+02 0.  0.
        -12    1    3    3    0    0 -0.34396069961E+02 -0.28971063013E+01 -0.12817811128E+02  0.36820906232E+02  0.00000000000E+00 0.  1.
         11    1    4    4    0    0  0.33350661092E+02  0.52274157157E+01  0.11863402588E+02  0.35781738241E+02  0.51100000000E-03 0. -1.
        -11    1    4    4    0    0  0.95109346120E+01 -0.24810369406E+01  0.20714654553E+01  0.10045117764E+02  0.51100000000E-03 0.  1.
        -12    1    4    4    0    0 -0.84655257428E+01  0.15072752618E+00 -0.11170569161E+01  0.85402377627E+01  0.00000000000E+00 0.  1.
</event>
<event>
 8    1  0.2534787E-006  0.9118800E+02  0.7816164E-02  0.1184000E+00
        -11   -1    0    0    0    0  0.00000000000E+00  0.00000000000E+00  0.45593999997E+02  0.45594000000E+02  0.51100000000E-03 0.  1.
         11   -1    0    0    0    0 -0.00000000000E+00 -0.00000000000E+00 -0.45593999997E+02  0.45594000000E+02  0.51100000000E-03 0. -1.
         23    2    1    2    0    0  0.00000000000E+00  0.71054273576E-14 -0.17763568394E-14  0.91188000000E+02  0.91188000000E+02 0.  0.
    9900012    2    3    3    0    0 -0.10415071777E+02  0.33603564413E+02 -0.10867638852E+02  0.54367097844E+02  0.40000031155E+02 0.  0.
        -12    1    3    3    0    0  0.10415071777E+02 -0.33603564413E+02  0.10867638852E+02  0.36820902156E+02  0.00000000000E+00 0.  1.
         11    1    4    4    0    0 -0.46450198382E-01  0.58568577553E+01  0.38532128551E+00  0.58697029858E+01  0.51100000000E-03 0. -1.
        -11    1    4    4    0    0  0.73667115591E+00  0.15592701752E+02 -0.23335985122E+02  0.28075669791E+02  0.51100000000E-03 0.  1.
        -12    1    4    4    0    0 -0.11105292734E+02  0.12154004906E+02  0.12083024984E+02  0.20421725068E+02  0.00000000000E+00 0.  1.
</event>
<event>
 8    1  0.2534787E-006  0.9118800E+02  0.7816164E-02  0.1184000E+00
        -11   -1    0    0    0    0  0.00000000000E+00  0.00000000000E+00  0.45593999997E+02  0.45594000000E+02  0.51100000000E-03 0. -1.
         11   -1    0    0    0    0 -0.00000000000E+00 -0.00000000000E+00 -0.45593999997E+02  0.45594000000E+02  0.51100000000E-03 0.  1.
         23    2    1    2    0    0 -0.16653345369E-15  0.17763568394E-14  0.71054273576E-14  0.91188000000E+02  0.91188000000E+02 0.  0.
    9900012    2    3    3    0    0  0.37596850817E+00 -0.91179513766E+01 -0.35672126345E+02  0.54367095780E+02  0.40000026449E+02 0.  0.
         12    1    3    3    0    0 -0.37596850817E+00  0.91179513766E+01  0.35672126345E+02  0.36820904220E+02  0.00000000000E+00 0. -1.
         11    1    4    4    0    0 -0.13601417903E+02 -0.85122677935E+01 -0.20686369955E+02  0.26179823799E+02  0.51100000000E-03 0. -1.
        -11    1    4    4    0    0 -0.20083583926E+01  0.16927688405E+01 -0.11327441023E+02  0.11627978765E+02  0.51100000000E-03 0.  1.
        -12    1    4    4    0    0  0.15985744804E+02 -0.22984524237E+01 -0.36583153675E+01  0.16559293216E+02  0.00000000000E+00 0.  1.
</event>
<event>
 8    1  0.2534787E-006  0.9118800E+02  0.7816164E-02  0.1184000E+00
        -11   -1    0    0    0    0  0.00000000000E+00  0.00000000000E+00  0.45593999997E+02  0.45594000000E+02  0.51100000000E-03 0. -1.
         11   -1    0    0    0    0 -0.00000000000E+00 -0.00000000000E+00 -0.45593999997E+02  0.45594000000E+02  0.51100000000E-03 0.  1.
         23    2    1    2    0    0 -0.35527136788E-14  0.35527136788E-14  0.17763568394E-14  0.91188000000E+02  0.91188000000E+02 0.  0.
    9900012    2    3    3    0    0  0.31477757112E+02 -0.11712143432E+02 -0.15091603065E+02  0.54367082309E+02  0.39999995739E+02 0.  0.
         12    1    3    3    0    0 -0.31477757112E+02  0.11712143432E+02  0.15091603065E+02  0.36820917691E+02  0.00000000000E+00 0. -1.
         11    1    4    4    0    0  0.41597524542E+01  0.71153500302E+00 -0.89373467855E+01  0.98836223302E+01  0.51100000000E-03 0. -1.
        -11    1    4    4    0    0  0.86605097455E+01  0.53006628792E+01 -0.14257386925E+02  0.17503557872E+02  0.51100000000E-03 0.  1.
         12    1    4    4    0    0  0.18657494912E+02 -0.17724341314E+02  0.81031306449E+01  0.26979902106E+02  0.00000000000E+00 0. -1.
</event>
<event>
 8    1  0.2534787E-006  0.9118800E+02  0.7816164E-02  0.1184000E+00
        -11   -1    0    0    0    0  0.00000000000E+00  0.00000000000E+00  0.45593999997E+02  0.45594000000E+02  0.51100000000E-03 0.  1.
         11   -1    0    0    0    0 -0.00000000000E+00 -0.00000000000E+00 -0.45593999997E+02  0.45594000000E+02  0.51100000000E-03 0. -1.
         23    2    1    2    0    0  0.53290705182E-14  0.35527136788E-14  0.71054273576E-14  0.91188000000E+02  0.91188000000E+02 0.  0.
    9900012    2    3    3    0    0 -0.11863072787E+02 -0.19029135570E+02 -0.29205122602E+02  0.54367086341E+02  0.40000004932E+02 0.  0.
        -12    1    3    3    0    0  0.11863072787E+02  0.19029135570E+02  0.29205122602E+02  0.36820913659E+02  0.00000000000E+00 0.  1.
         11    1    4    4    0    0  0.90397990179E+00 -0.10459513802E+02 -0.26291854970E+02  0.28310426466E+02  0.51100000000E-03 0. -1.
        -11    1    4    4    0    0  0.47600640696E+01 -0.65725363260E+01  0.32349605099E+00  0.81216435319E+01  0.51100000000E-03 0.  1.
        -12    1    4    4    0    0 -0.17527116758E+02 -0.19970854425E+01 -0.32367636825E+01  0.17935016344E+02  0.00000000000E+00 0.  1.
</event>
<event>
 8    1  0.2534787E-006  0.9118800E+02  0.7816164E-02  0.1184000E+00
        -11   -1    0    0    0    0  0.00000000000E+00  0.00000000000E+00  0.45593999997E+02  0.45594000000E+02  0.51100000000E-03 0. -1.
         11   -1    0    0    0    0 -0.00000000000E+00 -0.00000000000E+00 -0.45593999997E+02  0.45594000000E+02  0.51100000000E-03 0.  1.
         23    2    1    2    0    0  0.00000000000E+00  0.00000000000E+00 -0.35527136788E-14  0.91188000000E+02  0.91188000000E+02 0.  0.
    9900012    2    3    3    0    0 -0.10486353038E+02  0.29372392363E+02 -0.19572408928E+02  0.54367078985E+02  0.39999988163E+02 0.  0.
         12    1    3    3    0    0  0.10486353038E+02 -0.29372392363E+02  0.19572408928E+02  0.36820921015E+02  0.00000000000E+00 0. -1.
         11    1    4    4    0    0  0.10877988955E+02  0.13036100846E+02 -0.66151213218E+01  0.18221701329E+02  0.51100000000E-03 0. -1.
        -11    1    4    4    0    0 -0.13323340818E+02  0.98309989476E+01 -0.18153522472E+02  0.24570517480E+02  0.51100000000E-03 0.  1.
         12    1    4    4    0    0 -0.80410011745E+01  0.65052925688E+01  0.51962348661E+01  0.11574860175E+02  0.00000000000E+00 0. -1.
</event>
<event>
 8    1  0.2534787E-006  0.9118800E+02  0.7816164E-02  0.1184000E+00
        -11   -1    0    0    0    0  0.00000000000E+00  0.00000000000E+00  0.45593999997E+02  0.45594000000E+02  0.51100000000E-03 0.  1.
         11   -1    0    0    0    0 -0.00000000000E+00 -0.00000000000E+00 -0.45593999997E+02  0.45594000000E+02  0.51100000000E-03 0. -1.
         23    2    1    2    0    0  0.00000000000E+00  0.35527136788E-14  0.00000000000E+00  0.91188000000E+02  0.91188000000E+02 0.  0.
    9900012    2    3    3    0    0 -0.51902323858E+01  0.28062803026E+02  0.23266329151E+02  0.54367061689E+02  0.39999948733E+02 0.  0.
        -12    1    3    3    0    0  0.51902323858E+01 -0.28062803026E+02 -0.23266329151E+02  0.36820938311E+02  0.00000000000E+00 0.  1.
         11    1    4    4    0    0 -0.52032425686E+01  0.27613416923E+02  0.95040905617E+01  0.29663146580E+02  0.51100000000E-03 0. -1.
        -11    1    4    4    0    0 -0.31408369020E+01  0.82276837718E+01  0.26624463403E+00  0.88108185295E+01  0.51100000000E-03 0.  1.
        -12    1    4    4    0    0  0.31538470848E+01 -0.77782976683E+01  0.13495993955E+02  0.15893096580E+02  0.00000000000E+00 0.  1.
</event>
<event>
 8    1  0.2534787E-006  0.9118800E+02  0.7816164E-02  0.1184000E+00
        -11   -1    0    0    0    0  0.00000000000E+00  0.00000000000E+00  0.45593999997E+02  0.45594000000E+02  0.51100000000E-03 0.  1.
         11   -1    0    0    0    0 -0.00000000000E+00 -0.00000000000E+00 -0.45593999997E+02  0.45594000000E+02  0.51100000000E-03 0. -1.
         23    2    1    2    0    0 -0.35527136788E-14  0.35527136788E-14  0.17763568394E-14  0.91188000000E+02  0.91188000000E+02 0.  0.
    9900012    2    3    3    0    0 -0.21237910507E+02  0.27055159908E+02  0.13143410280E+02  0.54367085371E+02  0.40000002720E+02 0.  0.
         12    1    3    3    0    0  0.21237910507E+02 -0.27055159908E+02 -0.13143410280E+02  0.36820914629E+02  0.00000000000E+00 0. -1.
         11    1    4    4    0    0  0.41746549703E+01  0.19843818102E+00  0.11701054051E+02  0.12425046801E+02  0.51100000000E-03 0. -1.
        -11    1    4    4    0    0 -0.11856473475E+02  0.25697831699E+02  0.14146241447E+01  0.28336472593E+02  0.51100000000E-03 0.  1.
        -12    1    4    4    0    0 -0.13556092003E+02  0.11588900273E+01  0.27732084690E-01  0.13605565977E+02  0.00000000000E+00 0.  1.
</event>
<event>
 8    1  0.2534787E-006  0.9118800E+02  0.7816164E-02  0.1184000E+00
        -11   -1    0    0    0    0  0.00000000000E+00  0.00000000000E+00  0.45593999997E+02  0.45594000000E+02  0.51100000000E-03 0.  1.
         11   -1    0    0    0    0 -0.00000000000E+00 -0.00000000000E+00 -0.45593999997E+02  0.45594000000E+02  0.51100000000E-03 0. -1.
         23    2    1    2    0    0  0.00000000000E+00  0.00000000000E+00 -0.17763568394E-14  0.91188000000E+02  0.91188000000E+02 0.  0.
    9900012    2    3    3    0    0 -0.26859520470E+02  0.19495945894E+02 -0.15945045811E+02  0.54367214673E+02  0.40000297489E+02 0.  0.
        -12    1    3    3    0    0  0.26859520470E+02 -0.19495945894E+02  0.15945045811E+02  0.36820785327E+02  0.00000000000E+00 0.  1.
         11    1    4    4    0    0 -0.36809155010E+01 -0.75669846551E+00 -0.76408753556E+01  0.85149696391E+01  0.51100000000E-03 0. -1.
        -11    1    4    4    0    0 -0.20871044735E+02 -0.30851400174E+01 -0.39058159880E+00  0.21101449038E+02  0.51100000000E-03 0.  1.
        -12    1    4    4    0    0 -0.23075602345E+01  0.23337784377E+02 -0.79135888566E+01  0.24750795996E+02  0.00000000000E+00 0.  1.
</event>
<event>
 8    1  0.2534787E-006  0.9118800E+02  0.7816164E-02  0.1184000E+00
        -11   -1    0    0    0    0  0.00000000000E+00  0.00000000000E+00  0.45593999997E+02  0.45594000000E+02  0.51100000000E-03 0.  1.
         11   -1    0    0    0    0 -0.00000000000E+00 -0.00000000000E+00 -0.45593999997E+02  0.45594000000E+02  0.51100000000E-03 0. -1.
         23    2    1    2    0    0 -0.44408920985E-15  0.35527136788E-14  0.00000000000E+00  0.91188000000E+02  0.91188000000E+02 0.  0.
    9900012    2    3    3    0    0 -0.19026557997E+01 -0.29697583513E+02 -0.21684393844E+02  0.54367088795E+02  0.40000010525E+02 0.  0.
        -12    1    3    3    0    0  0.19026557997E+01  0.29697583513E+02  0.21684393844E+02  0.36820911205E+02  0.00000000000E+00 0.  1.
         11    1    4    4    0    0 -0.76481693403E+01 -0.25649900328E+02  0.40509485793E+01  0.27070686466E+02  0.51100000000E-03 0.  1.
        -11    1    4    4    0    0 -0.10101469193E+01 -0.12660794554E+01 -0.70472877296E+01  0.72310178115E+01  0.51100000000E-03 0. -1.
         12    1    4    4    0    0  0.67556604598E+01 -0.27816037295E+01 -0.18688054694E+02  0.20065384517E+02  0.00000000000E+00 0. -1.
</event>
<event>
 8    1  0.2534787E-006  0.9118800E+02  0.7816164E-02  0.1184000E+00
        -11   -1    0    0    0    0  0.00000000000E+00  0.00000000000E+00  0.45593999997E+02  0.45594000000E+02  0.51100000000E-03 0.  1.
         11   -1    0    0    0    0 -0.00000000000E+00 -0.00000000000E+00 -0.45593999997E+02  0.45594000000E+02  0.51100000000E-03 0. -1.
         23    2    1    2    0    0 -0.88817841970E-15  0.00000000000E+00  0.00000000000E+00  0.91188000000E+02  0.91188000000E+02 0.  0.
    9900012    2    3    3    0    0 -0.63145035173E+01 -0.10430474269E+02 -0.34743514918E+02  0.54367087776E+02  0.40000008203E+02 0.  0.
        -12    1    3    3    0    0  0.63145035173E+01  0.10430474269E+02  0.34743514918E+02  0.36820912224E+02  0.00000000000E+00 0.  1.
         11    1    4    4    0    0 -0.55006902075E+01  0.27171114083E+01 -0.36998236090E+02  0.37503463323E+02  0.51100000000E-03 0. -1.
        -11    1    4    4    0    0 -0.41824889750E+01 -0.74126217268E+01 -0.22829331862E+01  0.88120349003E+01  0.51100000000E-03 0.  1.
         12    1    4    4    0    0  0.33686756652E+01 -0.57349639500E+01  0.45376543584E+01  0.80515895525E+01  0.00000000000E+00 0. -1.
</event>
<event>
 8    1  0.2534787E-006  0.9118800E+02  0.7816164E-02  0.1184000E+00
        -11   -1    0    0    0    0  0.00000000000E+00  0.00000000000E+00  0.45593999997E+02  0.45594000000E+02  0.51100000000E-03 0. -1.
         11   -1    0    0    0    0 -0.00000000000E+00 -0.00000000000E+00 -0.45593999997E+02  0.45594000000E+02  0.51100000000E-03 0.  1.
         23    2    1    2    0    0 -0.35527136788E-14  0.00000000000E+00 -0.17763568394E-14  0.91188000000E+02  0.91188000000E+02 0.  0.
    9900012    2    3    3    0    0  0.27933154575E+02  0.20047080568E+02 -0.13176935772E+02  0.54367106472E+02  0.40000050825E+02 0.  0.
         12    1    3    3    0    0 -0.27933154575E+02 -0.20047080568E+02  0.13176935772E+02  0.36820893528E+02  0.00000000000E+00 0. -1.
         11    1    4    4    0    0  0.10597914598E+01 -0.75623295144E+00  0.96736012440E+00  0.16219839970E+01  0.51100000000E-03 0. -1.
        -11    1    4    4    0    0  0.32264423773E+02  0.53370422654E+01 -0.15730691906E+02  0.36289554002E+02  0.51100000000E-03 0.  1.
         12    1    4    4    0    0 -0.53910606570E+01  0.15466271254E+02  0.15863960092E+01  0.16455568474E+02  0.00000000000E+00 0. -1.
</event>
<event>
 8    1  0.2534787E-006  0.9118800E+02  0.7816164E-02  0.1184000E+00
        -11   -1    0    0    0    0  0.00000000000E+00  0.00000000000E+00  0.45593999997E+02  0.45594000000E+02  0.51100000000E-03 0. -1.
         11   -1    0    0    0    0 -0.00000000000E+00 -0.00000000000E+00 -0.45593999997E+02  0.45594000000E+02  0.51100000000E-03 0.  1.
         23    2    1    2    0    0 -0.17763568394E-14  0.00000000000E+00  0.17763568394E-14  0.91188000000E+02  0.91188000000E+02 0.  0.
    9900012    2    3    3    0    0  0.10215545390E+02 -0.33882312821E+02 -0.10169161947E+02  0.54367077355E+02  0.39999984446E+02 0.  0.
        -12    1    3    3    0    0 -0.10215545390E+02  0.33882312821E+02  0.10169161947E+02  0.36820922645E+02  0.00000000000E+00 0.  1.
         11    1    4    4    0    0  0.15819870342E+02 -0.33237170191E+02 -0.46033671781E+01  0.37096748774E+02  0.51100000000E-03 0. -1.
        -11    1    4    4    0    0 -0.27685456749E+01  0.52378020497E+01 -0.82939958898E+01  0.10192633789E+02  0.51100000000E-03 0.  1.
         12    1    4    4    0    0 -0.28357792777E+01 -0.58829446802E+01  0.27282011209E+01  0.70776947927E+01  0.00000000000E+00 0. -1.
</event>
<event>
 8    1  0.2534787E-006  0.9118800E+02  0.7816164E-02  0.1184000E+00
        -11   -1    0    0    0    0  0.00000000000E+00  0.00000000000E+00  0.45593999997E+02  0.45594000000E+02  0.51100000000E-03 0. -1.
         11   -1    0    0    0    0 -0.00000000000E+00 -0.00000000000E+00 -0.45593999997E+02  0.45594000000E+02  0.51100000000E-03 0.  1.
         23    2    1    2    0    0  0.00000000000E+00  0.88817841970E-15  0.17763568394E-14  0.91188000000E+02  0.91188000000E+02 0.  0.
    9900012    2    3    3    0    0  0.33758096233E+02  0.46340467816E+01  0.13953325985E+02  0.54367098913E+02  0.40000033592E+02 0.  0.
        -12    1    3    3    0    0 -0.33758096233E+02 -0.46340467816E+01 -0.13953325985E+02  0.36820901087E+02  0.00000000000E+00 0.  1.
         11    1    4    4    0    0  0.70649607228E+01 -0.57143563588E+01 -0.34085860714E+00  0.90930590816E+01  0.51100000000E-03 0. -1.
        -11    1    4    4    0    0  0.27923853445E+02  0.18993049468E+02  0.13940338019E+02  0.36535059103E+02  0.51100000000E-03 0.  1.
        -12    1    4    4    0    0 -0.12307179355E+01 -0.86446463279E+01  0.35384657346E+00  0.87389807283E+01  0.00000000000E+00 0.  1.
</event>
<event>
 8    1  0.2534787E-006  0.9118800E+02  0.7816164E-02  0.1184000E+00
        -11   -1    0    0    0    0  0.00000000000E+00  0.00000000000E+00  0.45593999997E+02  0.45594000000E+02  0.51100000000E-03 0. -1.
         11   -1    0    0    0    0 -0.00000000000E+00 -0.00000000000E+00 -0.45593999997E+02  0.45594000000E+02  0.51100000000E-03 0.  1.
         23    2    1    2    0    0  0.00000000000E+00  0.00000000000E+00 -0.35527136788E-14  0.91188000000E+02  0.91188000000E+02 0.  0.
    9900012    2    3    3    0    0  0.14079103512E+02  0.26125881835E+02  0.21794425070E+02  0.54367084456E+02  0.40000000635E+02 0.  0.
        -12    1    3    3    0    0 -0.14079103512E+02 -0.26125881835E+02 -0.21794425070E+02  0.36820915544E+02  0.00000000000E+00 0.  1.
         11    1    4    4    0    0  0.69473500615E+01  0.19614650601E+02 -0.28588815224E+01  0.21004128044E+02  0.51100000000E-03 0. -1.
        -11    1    4    4    0    0 -0.28439337090E+01 -0.57761185962E+01  0.93118615558E+01  0.11320877655E+02  0.51100000000E-03 0.  1.
        -12    1    4    4    0    0  0.99756871591E+01  0.12287349830E+02  0.15341445036E+02  0.22042078757E+02  0.00000000000E+00 0.  1.
</event>
<event>
 8    1  0.2534787E-006  0.9118800E+02  0.7816164E-02  0.1184000E+00
        -11   -1    0    0    0    0  0.00000000000E+00  0.00000000000E+00  0.45593999997E+02  0.45594000000E+02  0.51100000000E-03 0.  1.
         11   -1    0    0    0    0 -0.00000000000E+00 -0.00000000000E+00 -0.45593999997E+02  0.45594000000E+02  0.51100000000E-03 0. -1.
         23    2    1    2    0    0  0.35527136788E-14  0.35527136788E-14 -0.17763568394E-14  0.91188000000E+02  0.91188000000E+02 0.  0.
    9900012    2    3    3    0    0 -0.25400279455E+02 -0.23735434061E+02  0.12134048008E+02  0.54367080029E+02  0.39999990542E+02 0.  0.
         12    1    3    3    0    0  0.25400279455E+02  0.23735434061E+02 -0.12134048008E+02  0.36820919971E+02  0.00000000000E+00 0. -1.
         11    1    4    4    0    0 -0.14127860298E+02 -0.17615105714E+02 -0.35098165337E+01  0.22851853279E+02  0.51100000000E-03 0. -1.
        -11    1    4    4    0    0 -0.51046368976E+01  0.25395718545E+01 -0.54539167435E+01  0.78899905682E+01  0.51100000000E-03 0.  1.
        -12    1    4    4    0    0 -0.61677822601E+01 -0.86599002016E+01  0.21097781285E+02  0.23625236182E+02  0.00000000000E+00 0.  1.
</event>
<event>
 8    1  0.2534787E-006  0.9118800E+02  0.7816164E-02  0.1184000E+00
        -11   -1    0    0    0    0  0.00000000000E+00  0.00000000000E+00  0.45593999997E+02  0.45594000000E+02  0.51100000000E-03 0. -1.
         11   -1    0    0    0    0 -0.00000000000E+00 -0.00000000000E+00 -0.45593999997E+02  0.45594000000E+02  0.51100000000E-03 0.  1.
         23    2    1    2    0    0  0.35527136788E-14 -0.44408920985E-15 -0.35527136788E-14  0.91188000000E+02  0.91188000000E+02 0.  0.
    9900012    2    3    3    0    0  0.24562627815E+02  0.77353455656E+00  0.27420029441E+02  0.54367094858E+02  0.40000024348E+02 0.  0.
        -12    1    3    3    0    0 -0.24562627815E+02 -0.77353455656E+00 -0.27420029441E+02  0.36820905142E+02  0.00000000000E+00 0.  1.
         11    1    4    4    0    0 -0.68285490190E+00 -0.99494302851E+01  0.82536718042E+00  0.10006931850E+02  0.51100000000E-03 0. -1.
        -11    1    4    4    0    0  0.71306571952E+01  0.10701614573E+02  0.85888498503E+00  0.12888309050E+02  0.51100000000E-03 0.  1.
         12    1    4    4    0    0  0.18114825522E+02  0.21350268899E-01  0.25735777276E+02  0.31471853957E+02  0.00000000000E+00 0. -1.
</event>
<event>
 8    1  0.2534787E-006  0.9118800E+02  0.7816164E-02  0.1184000E+00
        -11   -1    0    0    0    0  0.00000000000E+00  0.00000000000E+00  0.45593999997E+02  0.45594000000E+02  0.51100000000E-03 0.  1.
         11   -1    0    0    0    0 -0.00000000000E+00 -0.00000000000E+00 -0.45593999997E+02  0.45594000000E+02  0.51100000000E-03 0. -1.
         23    2    1    2    0    0 -0.35527136788E-14  0.35527136788E-14  0.00000000000E+00  0.91188000000E+02  0.91188000000E+02 0.  0.
    9900012    2    3    3    0    0 -0.17697105786E+02  0.18400906201E+02  0.26532962303E+02  0.54367095736E+02  0.40000026350E+02 0.  0.
         12    1    3    3    0    0  0.17697105786E+02 -0.18400906201E+02 -0.26532962303E+02  0.36820904264E+02  0.00000000000E+00 0. -1.
         11    1    4    4    0    0  0.53881010034E+01  0.63442387619E+01 -0.49270179602E+01  0.96724611207E+01  0.51100000000E-03 0. -1.
        -11    1    4    4    0    0 -0.15158178839E+02  0.12937729880E+02  0.11062624024E+02  0.22793351897E+02  0.51100000000E-03 0.  1.
         12    1    4    4    0    0 -0.79270279510E+01 -0.88106244025E+00  0.20397356239E+02  0.21901282719E+02  0.00000000000E+00 0. -1.
</event>
<event>
 8    1  0.2534787E-006  0.9118800E+02  0.7816164E-02  0.1184000E+00
        -11   -1    0    0    0    0  0.00000000000E+00  0.00000000000E+00  0.45593999997E+02  0.45594000000E+02  0.51100000000E-03 0.  1.
         11   -1    0    0    0    0 -0.00000000000E+00 -0.00000000000E+00 -0.45593999997E+02  0.45594000000E+02  0.51100000000E-03 0. -1.
         23    2    1    2    0    0  0.00000000000E+00 -0.35527136788E-14  0.00000000000E+00  0.91188000000E+02  0.91188000000E+02 0.  0.
    9900012    2    3    3    0    0 -0.30164270623E+02  0.19769903249E+02  0.74182119452E+01  0.54367324216E+02  0.40000547212E+02 0.  0.
         12    1    3    3    0    0  0.30164270623E+02 -0.19769903249E+02 -0.74182119452E+01  0.36820675784E+02  0.00000000000E+00 0. -1.
         11    1    4    4    0    0 -0.83156755908E+01  0.10699005364E+02  0.12726932896E+02  0.18590158620E+02  0.51100000000E-03 0.  1.
        -11    1    4    4    0    0 -0.26894682159E+01  0.11823016420E+02 -0.10164099708E+02  0.15821690165E+02  0.51100000000E-03 0. -1.
         12    1    4    4    0    0 -0.19159126817E+02 -0.27521185346E+01  0.48553787569E+01  0.19955475431E+02  0.00000000000E+00 0. -1.
</event>
<event>
 8    1  0.2534787E-006  0.9118800E+02  0.7816164E-02  0.1184000E+00
        -11   -1    0    0    0    0  0.00000000000E+00  0.00000000000E+00  0.45593999997E+02  0.45594000000E+02  0.51100000000E-03 0. -1.
         11   -1    0    0    0    0 -0.00000000000E+00 -0.00000000000E+00 -0.45593999997E+02  0.45594000000E+02  0.51100000000E-03 0.  1.
         23    2    1    2    0    0  0.00000000000E+00 -0.88817841970E-15  0.00000000000E+00  0.91188000000E+02  0.91188000000E+02 0.  0.
    9900012    2    3    3    0    0 -0.12197111300E+02 -0.70732311656E+01  0.34014446762E+02  0.54367045209E+02  0.39999911162E+02 0.  0.
        -12    1    3    3    0    0  0.12197111300E+02  0.70732311656E+01 -0.34014446762E+02  0.36820954791E+02  0.00000000000E+00 0.  1.
         11    1    4    4    0    0  0.40399147580E+01 -0.70818963166E+01  0.52023538873E+01  0.96715382913E+01  0.51100000000E-03 0. -1.
        -11    1    4    4    0    0 -0.12978795447E+02  0.11243368890E+02  0.45553499011E+01  0.17765519645E+02  0.51100000000E-03 0.  1.
        -12    1    4    4    0    0 -0.32582306104E+01 -0.11234703739E+02  0.24256742974E+02  0.26929987273E+02  0.00000000000E+00 0.  1.
</event>
<event>
 8    1  0.2534787E-006  0.9118800E+02  0.7816164E-02  0.1184000E+00
        -11   -1    0    0    0    0  0.00000000000E+00  0.00000000000E+00  0.45593999997E+02  0.45594000000E+02  0.51100000000E-03 0.  1.
         11   -1    0    0    0    0 -0.00000000000E+00 -0.00000000000E+00 -0.45593999997E+02  0.45594000000E+02  0.51100000000E-03 0. -1.
         23    2    1    2    0    0 -0.35527136788E-14  0.88817841970E-15 -0.35527136788E-14  0.91188000000E+02  0.91188000000E+02 0.  0.
    9900012    2    3    3    0    0  0.19413609913E+02 -0.13446469928E+01  0.31258406954E+02  0.54367023225E+02  0.39999861046E+02 0.  0.
         12    1    3    3    0    0 -0.19413609913E+02  0.13446469928E+01 -0.31258406954E+02  0.36820976775E+02  0.00000000000E+00 0. -1.
         11    1    4    4    0    0 -0.72963082445E+00 -0.15157174420E-01 -0.17083957469E+01  0.18577424927E+01  0.51100000000E-03 0. -1.
        -11    1    4    4    0    0  0.14202372878E+01  0.35127181185E+01 -0.70841152929E+01  0.80337383750E+01  0.51100000000E-03 0.  1.
        -12    1    4    4    0    0  0.18723003449E+02 -0.48422079368E+01  0.40050917994E+02  0.44475542357E+02  0.00000000000E+00 0.  1.
</event>
<event>
 8    1  0.2534787E-006  0.9118800E+02  0.7816164E-02  0.1184000E+00
        -11   -1    0    0    0    0  0.00000000000E+00  0.00000000000E+00  0.45593999997E+02  0.45594000000E+02  0.51100000000E-03 0.  1.
         11   -1    0    0    0    0 -0.00000000000E+00 -0.00000000000E+00 -0.45593999997E+02  0.45594000000E+02  0.51100000000E-03 0. -1.
         23    2    1    2    0    0  0.22898349883E-15  0.21094237468E-14  0.00000000000E+00  0.91188000000E+02  0.91188000000E+02 0.  0.
    9900012    2    3    3    0    0 -0.40192783517E-01  0.76719091059E+00 -0.36812956805E+02  0.54367027904E+02  0.39999871713E+02 0.  0.
        -12    1    3    3    0    0  0.40192783517E-01 -0.76719091059E+00  0.36812956805E+02  0.36820972096E+02  0.00000000000E+00 0.  1.
         11    1    4    4    0    0 -0.26083969763E+01 -0.16154353946E+02 -0.30735542102E+02  0.34820115376E+02  0.51100000000E-03 0. -1.
        -11    1    4    4    0    0 -0.20724611101E+01  0.49348557798E+01 -0.55769198258E-01  0.53526635505E+01  0.51100000000E-03 0.  1.
         12    1    4    4    0    0  0.46406653029E+01  0.11986689077E+02 -0.60216455046E+01  0.14194248978E+02  0.00000000000E+00 0. -1.
</event>
<event>
 8    1  0.2534787E-006  0.9118800E+02  0.7816164E-02  0.1184000E+00
        -11   -1    0    0    0    0  0.00000000000E+00  0.00000000000E+00  0.45593999997E+02  0.45594000000E+02  0.51100000000E-03 0.  1.
         11   -1    0    0    0    0 -0.00000000000E+00 -0.00000000000E+00 -0.45593999997E+02  0.45594000000E+02  0.51100000000E-03 0. -1.
         23    2    1    2    0    0 -0.35527136788E-14 -0.22204460493E-15 -0.35527136788E-14  0.91188000000E+02  0.91188000000E+02 0.  0.
    9900012    2    3    3    0    0 -0.18172919743E+02 -0.19160375237E+01 -0.31966682061E+02  0.54366878701E+02  0.39999531571E+02 0.  0.
        -12    1    3    3    0    0  0.18172919743E+02  0.19160375237E+01  0.31966682061E+02  0.36821121299E+02  0.00000000000E+00 0.  1.
         11    1    4    4    0    0 -0.80031454696E+00 -0.38022272032E+01 -0.17669371135E+02  0.18091548072E+02  0.51100000000E-03 0. -1.
        -11    1    4    4    0    0 -0.24358980165E+02  0.43873238004E-01 -0.15610432220E+02  0.28931772049E+02  0.51100000000E-03 0.  1.
        -12    1    4    4    0    0  0.69863749695E+01  0.18423164415E+01  0.13131212932E+01  0.73435585799E+01  0.00000000000E+00 0.  1.
</event>
<event>
 8    1  0.2534787E-006  0.9118800E+02  0.7816164E-02  0.1184000E+00
        -11   -1    0    0    0    0  0.00000000000E+00  0.00000000000E+00  0.45593999997E+02  0.45594000000E+02  0.51100000000E-03 0. -1.
         11   -1    0    0    0    0 -0.00000000000E+00 -0.00000000000E+00 -0.45593999997E+02  0.45594000000E+02  0.51100000000E-03 0.  1.
         23    2    1    2    0    0 -0.35527136788E-14  0.00000000000E+00 -0.44408920985E-15  0.91188000000E+02  0.91188000000E+02 0.  0.
    9900012    2    3    3    0    0  0.25054838370E+02 -0.26811901920E+02 -0.30256729201E+01  0.54367113171E+02  0.40000066095E+02 0.  0.
         12    1    3    3    0    0 -0.25054838370E+02  0.26811901920E+02  0.30256729201E+01  0.36820886829E+02  0.00000000000E+00 0. -1.
         11    1    4    4    0    0  0.10148401930E+02 -0.18253361144E+01 -0.67151258374E+01  0.12305073301E+02  0.51100000000E-03 0. -1.
        -11    1    4    4    0    0  0.21054806570E+02 -0.64246249412E+01 -0.68951459609E+00  0.22023989556E+02  0.51100000000E-03 0.  1.
         12    1    4    4    0    0 -0.61483701301E+01 -0.18561940864E+02  0.43789675133E+01  0.20038050314E+02  0.00000000000E+00 0. -1.
</event>
<event>
 8    1  0.2534787E-006  0.9118800E+02  0.7816164E-02  0.1184000E+00
        -11   -1    0    0    0    0  0.00000000000E+00  0.00000000000E+00  0.45593999997E+02  0.45594000000E+02  0.51100000000E-03 0. -1.
         11   -1    0    0    0    0 -0.00000000000E+00 -0.00000000000E+00 -0.45593999997E+02  0.45594000000E+02  0.51100000000E-03 0.  1.
         23    2    1    2    0    0  0.00000000000E+00  0.00000000000E+00  0.00000000000E+00  0.91188000000E+02  0.91188000000E+02 0.  0.
    9900012    2    3    3    0    0  0.18785206868E+02  0.24978057098E+02  0.19467736252E+02  0.54367080834E+02  0.39999992377E+02 0.  0.
        -12    1    3    3    0    0 -0.18785206868E+02 -0.24978057098E+02 -0.19467736252E+02  0.36820919166E+02  0.00000000000E+00 0.  1.
         11    1    4    4    0    0  0.27177508168E+02  0.10463113120E+02  0.70112126208E+01  0.29954144772E+02  0.51100000000E-03 0. -1.
        -11    1    4    4    0    0 -0.65072046440E+01  0.21493912772E+01  0.92284607788E+01  0.11494698071E+02  0.51100000000E-03 0.  1.
         12    1    4    4    0    0 -0.18850966560E+01  0.12365552701E+02  0.32280628526E+01  0.12918237990E+02  0.00000000000E+00 0. -1.
</event>
<event>
 8    1  0.2534787E-006  0.9118800E+02  0.7816164E-02  0.1184000E+00
        -11   -1    0    0    0    0  0.00000000000E+00  0.00000000000E+00  0.45593999997E+02  0.45594000000E+02  0.51100000000E-03 0.  1.
         11   -1    0    0    0    0 -0.00000000000E+00 -0.00000000000E+00 -0.45593999997E+02  0.45594000000E+02  0.51100000000E-03 0. -1.
         23    2    1    2    0    0 -0.44408920985E-15 -0.71054273576E-14  0.35527136788E-14  0.91188000000E+02  0.91188000000E+02 0.  0.
    9900012    2    3    3    0    0 -0.21532632153E+01 -0.31161176063E+02  0.19496842760E+02  0.54367050613E+02  0.39999923483E+02 0.  0.
         12    1    3    3    0    0  0.21532632153E+01  0.31161176063E+02 -0.19496842760E+02  0.36820949387E+02  0.00000000000E+00 0. -1.
         11    1    4    4    0    0  0.46955617783E+00  0.60179404986E+01 -0.15326885955E+01  0.62277785318E+01  0.51100000000E-03 0. -1.
        -11    1    4    4    0    0  0.25065499778E+01 -0.10482117028E+02  0.17737802336E+02  0.20755413803E+02  0.51100000000E-03 0.  1.
         12    1    4    4    0    0 -0.51293693709E+01 -0.26696999534E+02  0.32917290204E+01  0.27383858278E+02  0.00000000000E+00 0. -1.
</event>
<event>
 8    1  0.2534787E-006  0.9118800E+02  0.7816164E-02  0.1184000E+00
        -11   -1    0    0    0    0  0.00000000000E+00  0.00000000000E+00  0.45593999997E+02  0.45594000000E+02  0.51100000000E-03 0. -1.
         11   -1    0    0    0    0 -0.00000000000E+00 -0.00000000000E+00 -0.45593999997E+02  0.45594000000E+02  0.51100000000E-03 0.  1.
         23    2    1    2    0    0  0.35527136788E-14 -0.35527136788E-14  0.00000000000E+00  0.91188000000E+02  0.91188000000E+02 0.  0.
    9900012    2    3    3    0    0 -0.30076218320E+02  0.19489122350E+02 -0.84483337039E+01  0.54367093699E+02  0.40000021707E+02 0.  0.
        -12    1    3    3    0    0  0.30076218320E+02 -0.19489122350E+02  0.84483337039E+01  0.36820906301E+02  0.00000000000E+00 0.  1.
         11    1    4    4    0    0 -0.30988093512E+02  0.41279927088E+01 -0.27488325229E+01  0.31382452801E+02  0.51100000000E-03 0. -1.
        -11    1    4    4    0    0 -0.13080431831E+01  0.16017861474E+02  0.79402809915E+00  0.16090784445E+02  0.51100000000E-03 0.  1.
         12    1    4    4    0    0  0.22199183749E+01 -0.65673183245E+00 -0.64935292802E+01  0.68938564537E+01  0.00000000000E+00 0. -1.
</event>
<event>
 8    1  0.2534787E-006  0.9118800E+02  0.7816164E-02  0.1184000E+00
        -11   -1    0    0    0    0  0.00000000000E+00  0.00000000000E+00  0.45593999997E+02  0.45594000000E+02  0.51100000000E-03 0.  1.
         11   -1    0    0    0    0 -0.00000000000E+00 -0.00000000000E+00 -0.45593999997E+02  0.45594000000E+02  0.51100000000E-03 0. -1.
         23    2    1    2    0    0  0.00000000000E+00 -0.17763568394E-14 -0.71054273576E-14  0.91188000000E+02  0.91188000000E+02 0.  0.
    9900012    2    3    3    0    0 -0.51649734238E+01  0.10321750013E+02  0.34965223992E+02  0.54367049949E+02  0.39999921969E+02 0.  0.
         12    1    3    3    0    0  0.51649734238E+01 -0.10321750013E+02 -0.34965223992E+02  0.36820950051E+02  0.00000000000E+00 0. -1.
         11    1    4    4    0    0 -0.15850989106E+02 -0.61024252173E+00  0.20315921696E+02  0.25775238625E+02  0.51100000000E-03 0. -1.
        -11    1    4    4    0    0 -0.28540772641E+01 -0.64028652631E+00  0.96622106493E+01  0.10095248326E+02  0.51100000000E-03 0.  1.
        -12    1    4    4    0    0  0.13540092946E+02  0.11572279061E+02  0.49870916474E+01  0.18496562999E+02  0.00000000000E+00 0.  1.
</event>
<event>
 8    1  0.2534787E-006  0.9118800E+02  0.7816164E-02  0.1184000E+00
        -11   -1    0    0    0    0  0.00000000000E+00  0.00000000000E+00  0.45593999997E+02  0.45594000000E+02  0.51100000000E-03 0.  1.
         11   -1    0    0    0    0 -0.00000000000E+00 -0.00000000000E+00 -0.45593999997E+02  0.45594000000E+02  0.51100000000E-03 0. -1.
         23    2    1    2    0    0  0.00000000000E+00  0.00000000000E+00  0.00000000000E+00  0.91188000000E+02  0.91188000000E+02 0.  0.
    9900012    2    3    3    0    0  0.35376764932E+02 -0.82723368904E+01 -0.59859950186E+01  0.54367093017E+02  0.40000020151E+02 0.  0.
        -12    1    3    3    0    0 -0.35376764932E+02  0.82723368904E+01  0.59859950186E+01  0.36820906983E+02  0.00000000000E+00 0.  1.
         11    1    4    4    0    0  0.20937571114E+02 -0.71115900307E+01 -0.86967869040E+01  0.23761117390E+02  0.51100000000E-03 0. -1.
        -11    1    4    4    0    0  0.21435390523E+02 -0.18029200745E+01 -0.27790327970E+01  0.21689848114E+02  0.51100000000E-03 0.  1.
        -12    1    4    4    0    0 -0.69961967052E+01  0.64217321487E+00  0.54898246824E+01  0.89161275126E+01  0.00000000000E+00 0.  1.
</event>
<event>
 8    1  0.2534787E-006  0.9118800E+02  0.7816164E-02  0.1184000E+00
        -11   -1    0    0    0    0  0.00000000000E+00  0.00000000000E+00  0.45593999997E+02  0.45594000000E+02  0.51100000000E-03 0.  1.
         11   -1    0    0    0    0 -0.00000000000E+00 -0.00000000000E+00 -0.45593999997E+02  0.45594000000E+02  0.51100000000E-03 0. -1.
         23    2    1    2    0    0 -0.35527136788E-14  0.00000000000E+00  0.00000000000E+00  0.91188000000E+02  0.91188000000E+02 0.  0.
    9900012    2    3    3    0    0 -0.24982924871E+02  0.90204299407E+01  0.25500276262E+02  0.54367098587E+02  0.40000032849E+02 0.  0.
         12    1    3    3    0    0  0.24982924871E+02 -0.90204299407E+01 -0.25500276262E+02  0.36820901413E+02  0.00000000000E+00 0. -1.
         11    1    4    4    0    0 -0.18494795335E+02  0.10979422282E+02  0.81218334672E+00  0.21523587298E+02  0.51100000000E-03 0. -1.
        -11    1    4    4    0    0 -0.11515231805E+02  0.52186512488E+01  0.17002074466E+02  0.21187388249E+02  0.51100000000E-03 0.  1.
        -12    1    4    4    0    0  0.50271022695E+01 -0.71776435898E+01  0.76860184490E+01  0.11656123040E+02  0.00000000000E+00 0.  1.
</event>
<event>
 8    1  0.2534787E-006  0.9118800E+02  0.7816164E-02  0.1184000E+00
        -11   -1    0    0    0    0  0.00000000000E+00  0.00000000000E+00  0.45593999997E+02  0.45594000000E+02  0.51100000000E-03 0. -1.
         11   -1    0    0    0    0 -0.00000000000E+00 -0.00000000000E+00 -0.45593999997E+02  0.45594000000E+02  0.51100000000E-03 0.  1.
         23    2    1    2    0    0  0.17763568394E-14  0.00000000000E+00  0.00000000000E+00  0.91188000000E+02  0.91188000000E+02 0.  0.
    9900012    2    3    3    0    0 -0.66154206781E+01  0.34823889135E+02  0.99655705742E+01  0.54367086892E+02  0.40000006188E+02 0.  0.
        -12    1    3    3    0    0  0.66154206781E+01 -0.34823889135E+02 -0.99655705742E+01  0.36820913108E+02  0.00000000000E+00 0.  1.
         11    1    4    4    0    0  0.20292891945E+00  0.13278060914E+02  0.26104634504E+01  0.13533757847E+02  0.51100000000E-03 0. -1.
        -11    1    4    4    0    0 -0.16970759307E+02  0.99809184228E+00  0.53721039370E+01  0.17828694841E+02  0.51100000000E-03 0.  1.
        -12    1    4    4    0    0  0.10152409709E+02  0.20547736379E+02  0.19830031868E+01  0.23004634204E+02  0.00000000000E+00 0.  1.
</event>
<event>
 8    1  0.2534787E-006  0.9118800E+02  0.7816164E-02  0.1184000E+00
        -11   -1    0    0    0    0  0.00000000000E+00  0.00000000000E+00  0.45593999997E+02  0.45594000000E+02  0.51100000000E-03 0.  1.
         11   -1    0    0    0    0 -0.00000000000E+00 -0.00000000000E+00 -0.45593999997E+02  0.45594000000E+02  0.51100000000E-03 0. -1.
         23    2    1    2    0    0  0.00000000000E+00  0.00000000000E+00 -0.17763568394E-14  0.91188000000E+02  0.91188000000E+02 0.  0.
    9900012    2    3    3    0    0 -0.32075213809E+02 -0.91914549447E+01 -0.15571689131E+02  0.54367086278E+02  0.40000004789E+02 0.  0.
        -12    1    3    3    0    0  0.32075213809E+02  0.91914549447E+01  0.15571689131E+02  0.36820913722E+02  0.00000000000E+00 0.  1.
         11    1    4    4    0    0 -0.23952560228E+00 -0.47269127343E+01 -0.11774397524E+02  0.12690055706E+02  0.51100000000E-03 0. -1.
        -11    1    4    4    0    0 -0.29034240783E+02 -0.12860477790E+02 -0.65186166804E+01  0.32417146551E+02  0.51100000000E-03 0.  1.
        -12    1    4    4    0    0 -0.28014474232E+01  0.83959355795E+01  0.27213250733E+01  0.92598840206E+01  0.00000000000E+00 0.  1.
</event>
<event>
 8    1  0.2534787E-006  0.9118800E+02  0.7816164E-02  0.1184000E+00
        -11   -1    0    0    0    0  0.00000000000E+00  0.00000000000E+00  0.45593999997E+02  0.45594000000E+02  0.51100000000E-03 0.  1.
         11   -1    0    0    0    0 -0.00000000000E+00 -0.00000000000E+00 -0.45593999997E+02  0.45594000000E+02  0.51100000000E-03 0. -1.
         23    2    1    2    0    0  0.00000000000E+00  0.00000000000E+00  0.00000000000E+00  0.91188000000E+02  0.91188000000E+02 0.  0.
    9900012    2    3    3    0    0 -0.33325098729E+02  0.39204112464E+01  0.15160760031E+02  0.54367075590E+02  0.39999980423E+02 0.  0.
        -12    1    3    3    0    0  0.33325098729E+02 -0.39204112464E+01 -0.15160760031E+02  0.36820924410E+02  0.00000000000E+00 0.  1.
         11    1    4    4    0    0 -0.13126937176E+02  0.68367764280E+01 -0.66813405477E+01  0.16238790082E+02  0.51100000000E-03 0. -1.
        -11    1    4    4    0    0  0.37345213373E+01  0.23504064443E+01  0.99610077325E+01  0.10894619561E+02  0.51100000000E-03 0.  1.
         12    1    4    4    0    0 -0.23932682890E+02 -0.52667716260E+01  0.11881092846E+02  0.27233665947E+02  0.00000000000E+00 0. -1.
</event>
<event>
 8    1  0.2534787E-006  0.9118800E+02  0.7816164E-02  0.1184000E+00
        -11   -1    0    0    0    0  0.00000000000E+00  0.00000000000E+00  0.45593999997E+02  0.45594000000E+02  0.51100000000E-03 0. -1.
         11   -1    0    0    0    0 -0.00000000000E+00 -0.00000000000E+00 -0.45593999997E+02  0.45594000000E+02  0.51100000000E-03 0.  1.
         23    2    1    2    0    0 -0.71054273576E-14  0.17763568394E-14  0.17763568394E-14  0.91188000000E+02  0.91188000000E+02 0.  0.
    9900012    2    3    3    0    0  0.31956654132E+02  0.13584615758E+02 -0.12247897801E+02  0.54367074846E+02  0.39999978727E+02 0.  0.
        -12    1    3    3    0    0 -0.31956654132E+02 -0.13584615758E+02  0.12247897801E+02  0.36820925154E+02  0.00000000000E+00 0.  1.
         11    1    4    4    0    0 -0.96311166928E+00  0.41701749195E+01 -0.17939754892E+01  0.46407209854E+01  0.51100000000E-03 0. -1.
        -11    1    4    4    0    0  0.74505786383E+01 -0.10006570311E+02 -0.12463154383E+02  0.17634420570E+02  0.51100000000E-03 0.  1.
        -12    1    4    4    0    0  0.25469187163E+02  0.19421011149E+02  0.20092320706E+01  0.32091933291E+02  0.00000000000E+00 0.  1.
</event>
<event>
 8    1  0.2534787E-006  0.9118800E+02  0.7816164E-02  0.1184000E+00
        -11   -1    0    0    0    0  0.00000000000E+00  0.00000000000E+00  0.45593999997E+02  0.45594000000E+02  0.51100000000E-03 0.  1.
         11   -1    0    0    0    0 -0.00000000000E+00 -0.00000000000E+00 -0.45593999997E+02  0.45594000000E+02  0.51100000000E-03 0. -1.
         23    2    1    2    0    0 -0.35527136788E-14 -0.35527136788E-14 -0.35527136788E-14  0.91188000000E+02  0.91188000000E+02 0.  0.
    9900012    2    3    3    0    0  0.25384433736E+02  0.20186054233E+02 -0.17433740610E+02  0.54367060668E+02  0.39999946405E+02 0.  0.
        -12    1    3    3    0    0 -0.25384433736E+02 -0.20186054233E+02  0.17433740610E+02  0.36820939332E+02  0.00000000000E+00 0.  1.
         11    1    4    4    0    0  0.35903096604E+01  0.11787098824E+02 -0.16943374170E+02  0.20950034622E+02  0.51100000000E-03 0. -1.
        -11    1    4    4    0    0  0.12651875137E+02 -0.49421520412E+01  0.73497636719E+01  0.15443893213E+02  0.51100000000E-03 0.  1.
        -12    1    4    4    0    0  0.91422489392E+01  0.13341107450E+02 -0.78401301117E+01  0.17973132833E+02  0.00000000000E+00 0.  1.
</event>
<event>
 8    1  0.2534787E-006  0.9118800E+02  0.7816164E-02  0.1184000E+00
        -11   -1    0    0    0    0  0.00000000000E+00  0.00000000000E+00  0.45593999997E+02  0.45594000000E+02  0.51100000000E-03 0.  1.
         11   -1    0    0    0    0 -0.00000000000E+00 -0.00000000000E+00 -0.45593999997E+02  0.45594000000E+02  0.51100000000E-03 0. -1.
         23    2    1    2    0    0  0.00000000000E+00 -0.35527136788E-14 -0.71054273576E-14  0.91188000000E+02  0.91188000000E+02 0.  0.
    9900012    2    3    3    0    0  0.14259506384E+02  0.19760407009E+02  0.27603860316E+02  0.54367077797E+02  0.39999985454E+02 0.  0.
         12    1    3    3    0    0 -0.14259506384E+02 -0.19760407009E+02 -0.27603860316E+02  0.36820922203E+02  0.00000000000E+00 0. -1.
         11    1    4    4    0    0 -0.10710596065E+02  0.92500676693E+01  0.81081979912E+01  0.16310226696E+02  0.51100000000E-03 0.  1.
        -11    1    4    4    0    0  0.17832214055E+02  0.14237895025E+02  0.83331916632E+01  0.24292953637E+02  0.51100000000E-03 0. -1.
        -12    1    4    4    0    0  0.71378883943E+01 -0.37275556847E+01  0.11162470662E+02  0.13763897464E+02  0.00000000000E+00 0.  1.
</event>
<event>
 8    1  0.2534787E-006  0.9118800E+02  0.7816164E-02  0.1184000E+00
        -11   -1    0    0    0    0  0.00000000000E+00  0.00000000000E+00  0.45593999997E+02  0.45594000000E+02  0.51100000000E-03 0.  1.
         11   -1    0    0    0    0 -0.00000000000E+00 -0.00000000000E+00 -0.45593999997E+02  0.45594000000E+02  0.51100000000E-03 0. -1.
         23    2    1    2    0    0  0.00000000000E+00  0.17763568394E-14  0.35527136788E-14  0.91188000000E+02  0.91188000000E+02 0.  0.
    9900012    2    3    3    0    0  0.27417780721E+02  0.15862046234E+02  0.18773397236E+02  0.54367086728E+02  0.40000005813E+02 0.  0.
         12    1    3    3    0    0 -0.27417780721E+02 -0.15862046234E+02 -0.18773397236E+02  0.36820913272E+02  0.00000000000E+00 0. -1.
         11    1    4    4    0    0  0.28084171467E+01  0.15993088350E+02 -0.73571539483E+00  0.16254456597E+02  0.51100000000E-03 0. -1.
        -11    1    4    4    0    0  0.24891155607E+02  0.24653513036E+01  0.22845439862E+02  0.33875680174E+02  0.51100000000E-03 0.  1.
         12    1    4    4    0    0 -0.28179203272E+00 -0.25963934204E+01 -0.33363272310E+01  0.42369499566E+01  0.00000000000E+00 0. -1.
</event>
<event>
 8    1  0.2534787E-006  0.9118800E+02  0.7816164E-02  0.1184000E+00
        -11   -1    0    0    0    0  0.00000000000E+00  0.00000000000E+00  0.45593999997E+02  0.45594000000E+02  0.51100000000E-03 0.  1.
         11   -1    0    0    0    0 -0.00000000000E+00 -0.00000000000E+00 -0.45593999997E+02  0.45594000000E+02  0.51100000000E-03 0. -1.
         23    2    1    2    0    0  0.71054273576E-14 -0.35527136788E-14 -0.35527136788E-14  0.91188000000E+02  0.91188000000E+02 0.  0.
    9900012    2    3    3    0    0 -0.28557947122E+02  0.16695033099E+02  0.16170958701E+02  0.54367076882E+02  0.39999983367E+02 0.  0.
         12    1    3    3    0    0  0.28557947122E+02 -0.16695033099E+02 -0.16170958701E+02  0.36820923118E+02  0.00000000000E+00 0. -1.
         11    1    4    4    0    0  0.22623221475E+01 -0.56521248774E+01  0.10416272576E+02  0.12064963812E+02  0.51100000000E-03 0. -1.
        -11    1    4    4    0    0 -0.54987889193E+01 -0.28156866234E+01  0.14488247665E+01  0.63453813286E+01  0.51100000000E-03 0.  1.
        -12    1    4    4    0    0 -0.25321480350E+02  0.25162844600E+02  0.43058613576E+01  0.35956731741E+02  0.00000000000E+00 0.  1.
</event>
<event>
 8    1  0.2534787E-006  0.9118800E+02  0.7816164E-02  0.1184000E+00
        -11   -1    0    0    0    0  0.00000000000E+00  0.00000000000E+00  0.45593999997E+02  0.45594000000E+02  0.51100000000E-03 0. -1.
         11   -1    0    0    0    0 -0.00000000000E+00 -0.00000000000E+00 -0.45593999997E+02  0.45594000000E+02  0.51100000000E-03 0.  1.
         23    2    1    2    0    0 -0.35527136788E-14 -0.17763568394E-14  0.35527136788E-14  0.91188000000E+02  0.91188000000E+02 0.  0.
    9900012    2    3    3    0    0  0.21743582405E+02 -0.15487073473E+02 -0.25360349445E+02  0.54367080070E+02  0.39999990635E+02 0.  0.
         12    1    3    3    0    0 -0.21743582405E+02  0.15487073473E+02  0.25360349445E+02  0.36820919930E+02  0.00000000000E+00 0. -1.
         11    1    4    4    0    0  0.34562738823E+01  0.72896299876E+01 -0.20700073034E+02  0.22216605465E+02  0.51100000000E-03 0. -1.
        -11    1    4    4    0    0  0.11532339458E+02 -0.19239199224E+02 -0.80152255416E+01  0.23819854763E+02  0.51100000000E-03 0.  1.
         12    1    4    4    0    0  0.67549690646E+01 -0.35375042361E+01  0.33549491309E+01  0.83306198422E+01  0.00000000000E+00 0. -1.
</event>
<event>
 8    1  0.2534787E-006  0.9118800E+02  0.7816164E-02  0.1184000E+00
        -11   -1    0    0    0    0  0.00000000000E+00  0.00000000000E+00  0.45593999997E+02  0.45594000000E+02  0.51100000000E-03 0.  1.
         11   -1    0    0    0    0 -0.00000000000E+00 -0.00000000000E+00 -0.45593999997E+02  0.45594000000E+02  0.51100000000E-03 0. -1.
         23    2    1    2    0    0 -0.17763568394E-14  0.00000000000E+00 -0.88817841970E-15  0.91188000000E+02  0.91188000000E+02 0.  0.
    9900012    2    3    3    0    0 -0.98342109639E+01 -0.35015692541E+02 -0.57418340575E+01  0.54367094420E+02  0.40000023349E+02 0.  0.
         12    1    3    3    0    0  0.98342109639E+01  0.35015692541E+02  0.57418340575E+01  0.36820905580E+02  0.00000000000E+00 0. -1.
         11    1    4    4    0    0  0.67626721098E+01 -0.13482504862E+02 -0.13154296335E+02  0.20013674919E+02  0.51100000000E-03 0. -1.
        -11    1    4    4    0    0  0.13220111323E+01 -0.13820759262E+02  0.46988415237E+01  0.14657428558E+02  0.51100000000E-03 0.  1.
         12    1    4    4    0    0 -0.17918894206E+02 -0.77124284170E+01  0.27136207535E+01  0.19695990943E+02  0.00000000000E+00 0. -1.
</event>
<event>
 8    1  0.2534787E-006  0.9118800E+02  0.7816164E-02  0.1184000E+00
        -11   -1    0    0    0    0  0.00000000000E+00  0.00000000000E+00  0.45593999997E+02  0.45594000000E+02  0.51100000000E-03 0.  1.
         11   -1    0    0    0    0 -0.00000000000E+00 -0.00000000000E+00 -0.45593999997E+02  0.45594000000E+02  0.51100000000E-03 0. -1.
         23    2    1    2    0    0  0.00000000000E+00  0.35527136788E-14  0.35527136788E-14  0.91188000000E+02  0.91188000000E+02 0.  0.
    9900012    2    3    3    0    0 -0.11090264478E+02  0.18581066761E+02  0.29791451353E+02  0.54367074131E+02  0.39999977095E+02 0.  0.
         12    1    3    3    0    0  0.11090264478E+02 -0.18581066761E+02 -0.29791451353E+02  0.36820925869E+02  0.00000000000E+00 0. -1.
         11    1    4    4    0    0 -0.70510011051E+01  0.10508962901E+02 -0.10072052073E+01  0.12695250310E+02  0.51100000000E-03 0. -1.
        -11    1    4    4    0    0 -0.71381291840E+01  0.11152970475E+02  0.30594014323E+01  0.13590495798E+02  0.51100000000E-03 0.  1.
        -12    1    4    4    0    0  0.30988658111E+01 -0.30808666154E+01  0.27739255128E+02  0.28081328022E+02  0.00000000000E+00 0.  1.
</event>
<event>
 8    1  0.2534787E-006  0.9118800E+02  0.7816164E-02  0.1184000E+00
        -11   -1    0    0    0    0  0.00000000000E+00  0.00000000000E+00  0.45593999997E+02  0.45594000000E+02  0.51100000000E-03 0. -1.
         11   -1    0    0    0    0 -0.00000000000E+00 -0.00000000000E+00 -0.45593999997E+02  0.45594000000E+02  0.51100000000E-03 0.  1.
         23    2    1    2    0    0 -0.71054273576E-14  0.00000000000E+00  0.00000000000E+00  0.91188000000E+02  0.91188000000E+02 0.  0.
    9900012    2    3    3    0    0 -0.34805361581E+02 -0.36554664641E+01 -0.11445726183E+02  0.54367078261E+02  0.39999986511E+02 0.  0.
         12    1    3    3    0    0  0.34805361581E+02  0.36554664641E+01  0.11445726183E+02  0.36820921739E+02  0.00000000000E+00 0. -1.
         11    1    4    4    0    0 -0.57411480605E+01 -0.88247895114E+01 -0.28857081169E+01  0.10916272375E+02  0.51100000000E-03 0. -1.
        -11    1    4    4    0    0 -0.31613221273E+02 -0.45025695022E+01 -0.97268211161E+01  0.33380831935E+02  0.51100000000E-03 0.  1.
         12    1    4    4    0    0  0.25490077525E+01  0.96718925494E+01  0.11668030500E+01  0.10069973951E+02  0.00000000000E+00 0. -1.
</event>
<event>
 8    1  0.2534787E-006  0.9118800E+02  0.7816164E-02  0.1184000E+00
        -11   -1    0    0    0    0  0.00000000000E+00  0.00000000000E+00  0.45593999997E+02  0.45594000000E+02  0.51100000000E-03 0.  1.
         11   -1    0    0    0    0 -0.00000000000E+00 -0.00000000000E+00 -0.45593999997E+02  0.45594000000E+02  0.51100000000E-03 0. -1.
         23    2    1    2    0    0  0.00000000000E+00  0.00000000000E+00  0.00000000000E+00  0.91188000000E+02  0.91188000000E+02 0.  0.
    9900012    2    3    3    0    0  0.13975960342E+02  0.22897523593E+02  0.25222161701E+02  0.54367061730E+02  0.39999948826E+02 0.  0.
        -12    1    3    3    0    0 -0.13975960342E+02 -0.22897523593E+02 -0.25222161701E+02  0.36820938270E+02  0.00000000000E+00 0.  1.
         11    1    4    4    0    0 -0.16682640941E+01 -0.25315408334E+00  0.51608211808E+01  0.54296655145E+01  0.51100000000E-03 0.  1.
        -11    1    4    4    0    0 -0.73698930689E+01  0.18879033776E+02  0.14382009413E+02  0.24851065071E+02  0.51100000000E-03 0. -1.
         12    1    4    4    0    0  0.23014117505E+02  0.42716439006E+01  0.56793311074E+01  0.24086331144E+02  0.00000000000E+00 0. -1.
</event>
<event>
 8    1  0.2534787E-006  0.9118800E+02  0.7816164E-02  0.1184000E+00
        -11   -1    0    0    0    0  0.00000000000E+00  0.00000000000E+00  0.45593999997E+02  0.45594000000E+02  0.51100000000E-03 0. -1.
         11   -1    0    0    0    0 -0.00000000000E+00 -0.00000000000E+00 -0.45593999997E+02  0.45594000000E+02  0.51100000000E-03 0.  1.
         23    2    1    2    0    0  0.00000000000E+00 -0.35527136788E-14  0.00000000000E+00  0.91188000000E+02  0.91188000000E+02 0.  0.
    9900012    2    3    3    0    0 -0.72223410337E+01 -0.11652549504E+02 -0.34173336768E+02  0.54367339145E+02  0.40000581245E+02 0.  0.
         12    1    3    3    0    0  0.72223410337E+01  0.11652549504E+02  0.34173336768E+02  0.36820660855E+02  0.00000000000E+00 0. -1.
         11    1    4    4    0    0 -0.89080121304E+01 -0.20909774981E+02 -0.18421636398E+02  0.29256248182E+02  0.51100000000E-03 0. -1.
        -11    1    4    4    0    0 -0.64895844007E+00 -0.45777407502E+01 -0.95724146786E+00  0.47215642453E+01  0.51100000000E-03 0.  1.
         12    1    4    4    0    0  0.23346295367E+01  0.13834966227E+02 -0.14794458902E+02  0.20389526718E+02  0.00000000000E+00 0. -1.
</event>
<event>
 8    1  0.2534787E-006  0.9118800E+02  0.7816164E-02  0.1184000E+00
        -11   -1    0    0    0    0  0.00000000000E+00  0.00000000000E+00  0.45593999997E+02  0.45594000000E+02  0.51100000000E-03 0. -1.
         11   -1    0    0    0    0 -0.00000000000E+00 -0.00000000000E+00 -0.45593999997E+02  0.45594000000E+02  0.51100000000E-03 0.  1.
         23    2    1    2    0    0  0.00000000000E+00  0.17763568394E-14  0.00000000000E+00  0.91188000000E+02  0.91188000000E+02 0.  0.
    9900012    2    3    3    0    0  0.29834774577E+02 -0.11905024284E+01  0.21546410065E+02  0.54367097556E+02  0.40000030499E+02 0.  0.
        -12    1    3    3    0    0 -0.29834774577E+02  0.11905024284E+01 -0.21546410065E+02  0.36820902444E+02  0.00000000000E+00 0.  1.
         11    1    4    4    0    0  0.19384636259E+02  0.91628514779E+01  0.17741128659E+02  0.27829294214E+02  0.51100000000E-03 0. -1.
        -11    1    4    4    0    0  0.15269258090E+02 -0.97713865736E+01  0.82857278862E+01  0.19931972432E+02  0.51100000000E-03 0.  1.
         12    1    4    4    0    0 -0.48191197715E+01 -0.58196733271E+00 -0.44804464804E+01  0.66058309100E+01  0.00000000000E+00 0. -1.
</event>
<event>
 8    1  0.2534787E-006  0.9118800E+02  0.7816164E-02  0.1184000E+00
        -11   -1    0    0    0    0  0.00000000000E+00  0.00000000000E+00  0.45593999997E+02  0.45594000000E+02  0.51100000000E-03 0. -1.
         11   -1    0    0    0    0 -0.00000000000E+00 -0.00000000000E+00 -0.45593999997E+02  0.45594000000E+02  0.51100000000E-03 0.  1.
         23    2    1    2    0    0  0.00000000000E+00  0.00000000000E+00 -0.88817841970E-15  0.91188000000E+02  0.91188000000E+02 0.  0.
    9900012    2    3    3    0    0 -0.11303840758E+02  0.34439811688E+02  0.64731737309E+01  0.54367089866E+02  0.40000012967E+02 0.  0.
        -12    1    3    3    0    0  0.11303840758E+02 -0.34439811688E+02 -0.64731737309E+01  0.36820910134E+02  0.00000000000E+00 0.  1.
         11    1    4    4    0    0  0.32752034993E+00  0.18849242151E+02  0.22587748829E+01  0.18986923486E+02  0.51100000000E-03 0. -1.
        -11    1    4    4    0    0 -0.64346376259E+01  0.10073177649E+02 -0.12335846700E+02  0.17176920079E+02  0.51100000000E-03 0.  1.
         12    1    4    4    0    0 -0.51967234817E+01  0.55173918880E+01  0.16550245548E+02  0.18203246301E+02  0.00000000000E+00 0. -1.
</event>
<event>
 8    1  0.2534787E-006  0.9118800E+02  0.7816164E-02  0.1184000E+00
        -11   -1    0    0    0    0  0.00000000000E+00  0.00000000000E+00  0.45593999997E+02  0.45594000000E+02  0.51100000000E-03 0. -1.
         11   -1    0    0    0    0 -0.00000000000E+00 -0.00000000000E+00 -0.45593999997E+02  0.45594000000E+02  0.51100000000E-03 0.  1.
         23    2    1    2    0    0  0.35527136788E-14  0.00000000000E+00  0.00000000000E+00  0.91188000000E+02  0.91188000000E+02 0.  0.
    9900012    2    3    3    0    0 -0.10155918284E+02  0.19966525535E+02  0.29222827023E+02  0.54367103252E+02  0.40000043484E+02 0.  0.
        -12    1    3    3    0    0  0.10155918284E+02 -0.19966525535E+02 -0.29222827023E+02  0.36820896748E+02  0.00000000000E+00 0.  1.
         11    1    4    4    0    0 -0.17445266121E+01  0.98975433401E+01  0.27687077680E+02  0.29454694159E+02  0.51100000000E-03 0. -1.
        -11    1    4    4    0    0  0.51276808104E+00  0.14734994922E+02  0.13068427134E+00  0.14744493382E+02  0.51100000000E-03 0.  1.
         12    1    4    4    0    0 -0.89241597526E+01 -0.46660127268E+01  0.14050650709E+01  0.10167915711E+02  0.00000000000E+00 0. -1.
</event>
<event>
 8    1  0.2534787E-006  0.9118800E+02  0.7816164E-02  0.1184000E+00
        -11   -1    0    0    0    0  0.00000000000E+00  0.00000000000E+00  0.45593999997E+02  0.45594000000E+02  0.51100000000E-03 0. -1.
         11   -1    0    0    0    0 -0.00000000000E+00 -0.00000000000E+00 -0.45593999997E+02  0.45594000000E+02  0.51100000000E-03 0.  1.
         23    2    1    2    0    0 -0.35527136788E-14  0.00000000000E+00  0.00000000000E+00  0.91188000000E+02  0.91188000000E+02 0.  0.
    9900012    2    3    3    0    0  0.20989015621E+02  0.22613442314E+02 -0.20096585563E+02  0.54367091520E+02  0.40000016738E+02 0.  0.
         12    1    3    3    0    0 -0.20989015621E+02 -0.22613442314E+02  0.20096585563E+02  0.36820908480E+02  0.00000000000E+00 0. -1.
         11    1    4    4    0    0  0.21754698992E+02  0.20539807271E+02 -0.27551356425E+02  0.40672199990E+02  0.51100000000E-03 0. -1.
        -11    1    4    4    0    0 -0.27277835949E+00  0.61739135465E+01  0.13519932569E+01  0.63260969437E+01  0.51100000000E-03 0.  1.
         12    1    4    4    0    0 -0.49290501114E+00 -0.41002785037E+01  0.61027776046E+01  0.73687945859E+01  0.00000000000E+00 0. -1.
</event>
<event>
 8    1  0.2534787E-006  0.9118800E+02  0.7816164E-02  0.1184000E+00
        -11   -1    0    0    0    0  0.00000000000E+00  0.00000000000E+00  0.45593999997E+02  0.45594000000E+02  0.51100000000E-03 0.  1.
         11   -1    0    0    0    0 -0.00000000000E+00 -0.00000000000E+00 -0.45593999997E+02  0.45594000000E+02  0.51100000000E-03 0. -1.
         23    2    1    2    0    0  0.00000000000E+00  0.00000000000E+00  0.00000000000E+00  0.91188000000E+02  0.91188000000E+02 0.  0.
    9900012    2    3    3    0    0 -0.13681481536E+02 -0.21356950440E+02 -0.26692275900E+02  0.54367083909E+02  0.39999999387E+02 0.  0.
        -12    1    3    3    0    0  0.13681481536E+02  0.21356950440E+02  0.26692275900E+02  0.36820916091E+02  0.00000000000E+00 0.  1.
         11    1    4    4    0    0 -0.10130234526E+02 -0.52627506462E+01 -0.81362739963E+01  0.14018457501E+02  0.51100000000E-03 0. -1.
        -11    1    4    4    0    0  0.90177370945E+01  0.34699983329E+01 -0.13416480666E+02  0.16533675467E+02  0.51100000000E-03 0.  1.
        -12    1    4    4    0    0 -0.12568984105E+02 -0.19564198126E+02 -0.51395212375E+01  0.23814950940E+02  0.00000000000E+00 0.  1.
</event>
<event>
 8    1  0.2534787E-006  0.9118800E+02  0.7816164E-02  0.1184000E+00
        -11   -1    0    0    0    0  0.00000000000E+00  0.00000000000E+00  0.45593999997E+02  0.45594000000E+02  0.51100000000E-03 0.  1.
         11   -1    0    0    0    0 -0.00000000000E+00 -0.00000000000E+00 -0.45593999997E+02  0.45594000000E+02  0.51100000000E-03 0. -1.
         23    2    1    2    0    0  0.00000000000E+00 -0.17763568394E-14  0.00000000000E+00  0.91188000000E+02  0.91188000000E+02 0.  0.
    9900012    2    3    3    0    0 -0.25595431580E+02  0.95484610108E+01 -0.24687554650E+02  0.54367155631E+02  0.40000162891E+02 0.  0.
        -12    1    3    3    0    0  0.25595431580E+02 -0.95484610108E+01  0.24687554650E+02  0.36820844369E+02  0.00000000000E+00 0.  1.
         11    1    4    4    0    0 -0.50165301651E+01 -0.12351690991E+02 -0.10909697709E+02  0.17226472349E+02  0.51100000000E-03 0. -1.
        -11    1    4    4    0    0  0.12607540565E+01  0.79320475910E+01 -0.61546381792E+01  0.10118619034E+02  0.51100000000E-03 0.  1.
         12    1    4    4    0    0 -0.21839655472E+02  0.13968104410E+02 -0.76232187619E+01  0.27022064248E+02  0.00000000000E+00 0. -1.
</event>
<event>
 8    1  0.2534787E-006  0.9118800E+02  0.7816164E-02  0.1184000E+00
        -11   -1    0    0    0    0  0.00000000000E+00  0.00000000000E+00  0.45593999997E+02  0.45594000000E+02  0.51100000000E-03 0. -1.
         11   -1    0    0    0    0 -0.00000000000E+00 -0.00000000000E+00 -0.45593999997E+02  0.45594000000E+02  0.51100000000E-03 0.  1.
         23    2    1    2    0    0  0.35527136788E-14  0.00000000000E+00  0.35527136788E-14  0.91188000000E+02  0.91188000000E+02 0.  0.
    9900012    2    3    3    0    0 -0.22213779455E+02 -0.89926172307E+01 -0.27954615297E+02  0.54367086395E+02  0.40000005054E+02 0.  0.
         12    1    3    3    0    0  0.22213779455E+02  0.89926172307E+01  0.27954615297E+02  0.36820913605E+02  0.00000000000E+00 0. -1.
         11    1    4    4    0    0 -0.42777633741E+01  0.76667498452E+01 -0.74873650404E+01  0.11538585190E+02  0.51100000000E-03 0.  1.
        -11    1    4    4    0    0  0.65358845192E+01 -0.90649026303E+01 -0.10502038653E+02  0.15335679388E+02  0.51100000000E-03 0. -1.
        -12    1    4    4    0    0 -0.24471900600E+02 -0.75944644457E+01 -0.99652116031E+01  0.27492821817E+02  0.00000000000E+00 0.  1.
</event>
<event>
 8    1  0.2534787E-006  0.9118800E+02  0.7816164E-02  0.1184000E+00
        -11   -1    0    0    0    0  0.00000000000E+00  0.00000000000E+00  0.45593999997E+02  0.45594000000E+02  0.51100000000E-03 0. -1.
         11   -1    0    0    0    0 -0.00000000000E+00 -0.00000000000E+00 -0.45593999997E+02  0.45594000000E+02  0.51100000000E-03 0.  1.
         23    2    1    2    0    0  0.00000000000E+00  0.00000000000E+00  0.00000000000E+00  0.91188000000E+02  0.91188000000E+02 0.  0.
    9900012    2    3    3    0    0 -0.17709973487E+02  0.26748918528E+02 -0.18073172750E+02  0.54366981864E+02  0.39999766754E+02 0.  0.
         12    1    3    3    0    0  0.17709973487E+02 -0.26748918528E+02  0.18073172750E+02  0.36821018136E+02  0.00000000000E+00 0. -1.
         11    1    4    4    0    0 -0.14024127582E+02 -0.31917681543E+01 -0.10421396970E+02  0.17761448518E+02  0.51100000000E-03 0. -1.
        -11    1    4    4    0    0 -0.50492036593E+01  0.18680008677E+01 -0.65494410555E+01  0.84781521121E+01  0.51100000000E-03 0.  1.
         12    1    4    4    0    0  0.13633577546E+01  0.28072685815E+02 -0.11023347245E+01  0.28127381234E+02  0.00000000000E+00 0. -1.
</event>
<event>
 8    1  0.2534787E-006  0.9118800E+02  0.7816164E-02  0.1184000E+00
        -11   -1    0    0    0    0  0.00000000000E+00  0.00000000000E+00  0.45593999997E+02  0.45594000000E+02  0.51100000000E-03 0. -1.
         11   -1    0    0    0    0 -0.00000000000E+00 -0.00000000000E+00 -0.45593999997E+02  0.45594000000E+02  0.51100000000E-03 0.  1.
         23    2    1    2    0    0  0.00000000000E+00 -0.99920072216E-15  0.00000000000E+00  0.91188000000E+02  0.91188000000E+02 0.  0.
    9900012    2    3    3    0    0 -0.11042532228E+02 -0.89593876392E+00  0.35114662396E+02  0.54367085570E+02  0.40000003174E+02 0.  0.
        -12    1    3    3    0    0  0.11042532228E+02  0.89593876392E+00 -0.35114662396E+02  0.36820914430E+02  0.00000000000E+00 0.  1.
         11    1    4    4    0    0 -0.87527860474E+01 -0.11215708080E+02  0.11670332515E+02  0.18401087811E+02  0.51100000000E-03 0. -1.
        -11    1    4    4    0    0 -0.80308185668E+01  0.13644281692E+02  0.53790468344E+01  0.16721082945E+02  0.51100000000E-03 0.  1.
         12    1    4    4    0    0  0.57410723859E+01 -0.33245123762E+01  0.18065283046E+02  0.19244914814E+02  0.00000000000E+00 0. -1.
</event>
<event>
 8    1  0.2534787E-006  0.9118800E+02  0.7816164E-02  0.1184000E+00
        -11   -1    0    0    0    0  0.00000000000E+00  0.00000000000E+00  0.45593999997E+02  0.45594000000E+02  0.51100000000E-03 0.  1.
         11   -1    0    0    0    0 -0.00000000000E+00 -0.00000000000E+00 -0.45593999997E+02  0.45594000000E+02  0.51100000000E-03 0. -1.
         23    2    1    2    0    0  0.00000000000E+00 -0.18596235662E-14  0.00000000000E+00  0.91188000000E+02  0.91188000000E+02 0.  0.
    9900012    2    3    3    0    0  0.26684121337E+02 -0.12684608543E+00 -0.25371684408E+02  0.54367071288E+02  0.39999970616E+02 0.  0.
        -12    1    3    3    0    0 -0.26684121337E+02  0.12684608543E+00  0.25371684408E+02  0.36820928712E+02  0.00000000000E+00 0.  1.
         11    1    4    4    0    0  0.69599931596E+01  0.39156027033E+01 -0.11983401862E+02  0.14400533662E+02  0.51100000000E-03 0. -1.
        -11    1    4    4    0    0  0.15531514031E+02  0.11445869206E+02 -0.14113305127E+02  0.23904418668E+02  0.51100000000E-03 0.  1.
        -12    1    4    4    0    0  0.41926141470E+01 -0.15488317995E+02  0.72502258035E+00  0.16062118959E+02  0.00000000000E+00 0.  1.
</event>
<event>
 8    1  0.2534787E-006  0.9118800E+02  0.7816164E-02  0.1184000E+00
        -11   -1    0    0    0    0  0.00000000000E+00  0.00000000000E+00  0.45593999997E+02  0.45594000000E+02  0.51100000000E-03 0. -1.
         11   -1    0    0    0    0 -0.00000000000E+00 -0.00000000000E+00 -0.45593999997E+02  0.45594000000E+02  0.51100000000E-03 0.  1.
         23    2    1    2    0    0  0.00000000000E+00  0.00000000000E+00 -0.35527136788E-14  0.91188000000E+02  0.91188000000E+02 0.  0.
    9900012    2    3    3    0    0 -0.13600641048E+02 -0.18471347456E+02  0.28802981679E+02  0.54367083833E+02  0.39999999214E+02 0.  0.
        -12    1    3    3    0    0  0.13600641048E+02  0.18471347456E+02 -0.28802981679E+02  0.36820916167E+02  0.00000000000E+00 0.  1.
         11    1    4    4    0    0 -0.22641218319E+01  0.98553897125E+00  0.96018922737E+01  0.99143265143E+01  0.51100000000E-03 0. -1.
        -11    1    4    4    0    0  0.36340078891E+01  0.66062191835E+01 -0.18425633459E+01  0.77616483548E+01  0.51100000000E-03 0.  1.
        -12    1    4    4    0    0 -0.14970527105E+02 -0.26063105611E+02  0.21043652751E+02  0.36691108964E+02  0.00000000000E+00 0.  1.
</event>
<event>
 8    1  0.2534787E-006  0.9118800E+02  0.7816164E-02  0.1184000E+00
        -11   -1    0    0    0    0  0.00000000000E+00  0.00000000000E+00  0.45593999997E+02  0.45594000000E+02  0.51100000000E-03 0. -1.
         11   -1    0    0    0    0 -0.00000000000E+00 -0.00000000000E+00 -0.45593999997E+02  0.45594000000E+02  0.51100000000E-03 0.  1.
         23    2    1    2    0    0 -0.35527136788E-14  0.00000000000E+00  0.71054273576E-14  0.91188000000E+02  0.91188000000E+02 0.  0.
    9900012    2    3    3    0    0 -0.10703806417E+02  0.13898762594E+02  0.32373326704E+02  0.54367090786E+02  0.40000015066E+02 0.  0.
        -12    1    3    3    0    0  0.10703806417E+02 -0.13898762594E+02 -0.32373326704E+02  0.36820909214E+02  0.00000000000E+00 0.  1.
         11    1    4    4    0    0 -0.42973045187E+01 -0.24295390581E+01  0.45324261100E+01  0.67016694088E+01  0.51100000000E-03 0. -1.
        -11    1    4    4    0    0  0.65686341908E+01 -0.80527521189E+01  0.38511013523E+01  0.11082632977E+02  0.51100000000E-03 0.  1.
         12    1    4    4    0    0 -0.12975136089E+02  0.24381053771E+02  0.23989799241E+02  0.36582788400E+02  0.00000000000E+00 0. -1.
</event>
<event>
 8    1  0.2534787E-006  0.9118800E+02  0.7816164E-02  0.1184000E+00
        -11   -1    0    0    0    0  0.00000000000E+00  0.00000000000E+00  0.45593999997E+02  0.45594000000E+02  0.51100000000E-03 0. -1.
         11   -1    0    0    0    0 -0.00000000000E+00 -0.00000000000E+00 -0.45593999997E+02  0.45594000000E+02  0.51100000000E-03 0.  1.
         23    2    1    2    0    0  0.00000000000E+00  0.00000000000E+00  0.00000000000E+00  0.91188000000E+02  0.91188000000E+02 0.  0.
    9900012    2    3    3    0    0 -0.17947280210E+02 -0.16400444030E+02 -0.27653202130E+02  0.54367095348E+02  0.40000025466E+02 0.  0.
         12    1    3    3    0    0  0.17947280210E+02  0.16400444030E+02  0.27653202130E+02  0.36820904652E+02  0.00000000000E+00 0. -1.
         11    1    4    4    0    0 -0.12076220748E+02 -0.38583597718E+01 -0.63066857023E+01  0.14159672754E+02  0.51100000000E-03 0.  1.
        -11    1    4    4    0    0 -0.11546967396E+02  0.11009495523E+01  0.27685778209E+01  0.11925165382E+02  0.51100000000E-03 0. -1.
         12    1    4    4    0    0  0.56759079346E+01 -0.13643033810E+02 -0.24115094249E+02  0.28282257213E+02  0.00000000000E+00 0. -1.
</event>
<event>
 8    1  0.2534787E-006  0.9118800E+02  0.7816164E-02  0.1184000E+00
        -11   -1    0    0    0    0  0.00000000000E+00  0.00000000000E+00  0.45593999997E+02  0.45594000000E+02  0.51100000000E-03 0. -1.
         11   -1    0    0    0    0 -0.00000000000E+00 -0.00000000000E+00 -0.45593999997E+02  0.45594000000E+02  0.51100000000E-03 0.  1.
         23    2    1    2    0    0  0.00000000000E+00  0.00000000000E+00  0.00000000000E+00  0.91188000000E+02  0.91188000000E+02 0.  0.
    9900012    2    3    3    0    0  0.44659231908E+01  0.36347142932E+02  0.38366253743E+01  0.54367096107E+02  0.40000027195E+02 0.  0.
         12    1    3    3    0    0 -0.44659231908E+01 -0.36347142932E+02 -0.38366253743E+01  0.36820903893E+02  0.00000000000E+00 0. -1.
         11    1    4    4    0    0 -0.15122130530E+02  0.75454267190E+01  0.21571342254E+01  0.17037180649E+02  0.51100000000E-03 0. -1.
        -11    1    4    4    0    0  0.14898437623E+02  0.26754708830E+02  0.52775794605E+01  0.31074599489E+02  0.51100000000E-03 0.  1.
         12    1    4    4    0    0  0.46896160983E+01  0.20470073823E+01 -0.35980883115E+01  0.62553159688E+01  0.00000000000E+00 0. -1.
</event>
<event>
 8    1  0.2534787E-006  0.9118800E+02  0.7816164E-02  0.1184000E+00
        -11   -1    0    0    0    0  0.00000000000E+00  0.00000000000E+00  0.45593999997E+02  0.45594000000E+02  0.51100000000E-03 0.  1.
         11   -1    0    0    0    0 -0.00000000000E+00 -0.00000000000E+00 -0.45593999997E+02  0.45594000000E+02  0.51100000000E-03 0. -1.
         23    2    1    2    0    0  0.00000000000E+00  0.17763568394E-14  0.00000000000E+00  0.91188000000E+02  0.91188000000E+02 0.  0.
    9900012    2    3    3    0    0 -0.23967116053E+02  0.92491483874E+01  0.26378256251E+02  0.54367057581E+02  0.39999939367E+02 0.  0.
         12    1    3    3    0    0  0.23967116053E+02 -0.92491483874E+01 -0.26378256251E+02  0.36820942419E+02  0.00000000000E+00 0. -1.
         11    1    4    4    0    0 -0.20784264253E+02  0.12121495333E+02  0.65720477326E+01  0.24942094967E+02  0.51100000000E-03 0. -1.
        -11    1    4    4    0    0 -0.99819752469E+01 -0.83384675538E+01  0.11084700688E+02  0.17089191337E+02  0.51100000000E-03 0.  1.
         12    1    4    4    0    0  0.67991234470E+01  0.54661206084E+01  0.87215078306E+01  0.12335771277E+02  0.00000000000E+00 0. -1.
</event>
<event>
 8    1  0.2534787E-006  0.9118800E+02  0.7816164E-02  0.1184000E+00
        -11   -1    0    0    0    0  0.00000000000E+00  0.00000000000E+00  0.45593999997E+02  0.45594000000E+02  0.51100000000E-03 0.  1.
         11   -1    0    0    0    0 -0.00000000000E+00 -0.00000000000E+00 -0.45593999997E+02  0.45594000000E+02  0.51100000000E-03 0. -1.
         23    2    1    2    0    0 -0.71054273576E-14  0.00000000000E+00 -0.17763568394E-14  0.91188000000E+02  0.91188000000E+02 0.  0.
    9900012    2    3    3    0    0  0.35620930804E+02  0.49333868821E+01  0.79111964509E+01  0.54367135714E+02  0.40000117488E+02 0.  0.
         12    1    3    3    0    0 -0.35620930804E+02 -0.49333868821E+01 -0.79111964509E+01  0.36820864286E+02  0.00000000000E+00 0. -1.
         11    1    4    4    0    0  0.73814269928E+01  0.12291936976E+02  0.82074069007E+01  0.16520856739E+02  0.51100000000E-03 0. -1.
        -11    1    4    4    0    0  0.51094039153E+01  0.33444533536E+01 -0.90334131617E+01  0.10903849330E+02  0.51100000000E-03 0.  1.
        -12    1    4    4    0    0  0.23130099896E+02 -0.10703003448E+02  0.87372027119E+01  0.26942429646E+02  0.00000000000E+00 0.  1.
</event>
<event>
 8    1  0.2534787E-006  0.9118800E+02  0.7816164E-02  0.1184000E+00
        -11   -1    0    0    0    0  0.00000000000E+00  0.00000000000E+00  0.45593999997E+02  0.45594000000E+02  0.51100000000E-03 0. -1.
         11   -1    0    0    0    0 -0.00000000000E+00 -0.00000000000E+00 -0.45593999997E+02  0.45594000000E+02  0.51100000000E-03 0.  1.
         23    2    1    2    0    0  0.00000000000E+00  0.00000000000E+00 -0.17763568394E-14  0.91188000000E+02  0.91188000000E+02 0.  0.
    9900012    2    3    3    0    0  0.33464614449E+02 -0.11544972106E+02 -0.10129804384E+02  0.54367085590E+02  0.40000003220E+02 0.  0.
         12    1    3    3    0    0 -0.33464614449E+02  0.11544972106E+02  0.10129804384E+02  0.36820914410E+02  0.00000000000E+00 0. -1.
         11    1    4    4    0    0 -0.13202443058E+01 -0.17811682051E+02 -0.55107323799E+01  0.18691367904E+02  0.51100000000E-03 0. -1.
        -11    1    4    4    0    0  0.19465155803E+02  0.41288060371E+01 -0.21984765110E+01  0.20019306405E+02  0.51100000000E-03 0.  1.
         12    1    4    4    0    0  0.15319702952E+02  0.21379039075E+01 -0.24205954929E+01  0.15656411280E+02  0.00000000000E+00 0. -1.
</event>
<event>
 8    1  0.2534787E-006  0.9118800E+02  0.7816164E-02  0.1184000E+00
        -11   -1    0    0    0    0  0.00000000000E+00  0.00000000000E+00  0.45593999997E+02  0.45594000000E+02  0.51100000000E-03 0. -1.
         11   -1    0    0    0    0 -0.00000000000E+00 -0.00000000000E+00 -0.45593999997E+02  0.45594000000E+02  0.51100000000E-03 0.  1.
         23    2    1    2    0    0  0.88817841970E-15  0.00000000000E+00  0.00000000000E+00  0.91188000000E+02  0.91188000000E+02 0.  0.
    9900012    2    3    3    0    0  0.32738994612E+01  0.34734216471E+02 -0.11772785663E+02  0.54367045452E+02  0.39999911717E+02 0.  0.
         12    1    3    3    0    0 -0.32738994612E+01 -0.34734216471E+02  0.11772785663E+02  0.36820954548E+02  0.00000000000E+00 0. -1.
         11    1    4    4    0    0  0.58619614857E+01  0.20138371200E+02 -0.66751096758E+01  0.22010762742E+02  0.51100000000E-03 0. -1.
        -11    1    4    4    0    0  0.41380804779E+01  0.18059485984E+02  0.55077990367E+01  0.19328853937E+02  0.51100000000E-03 0.  1.
         12    1    4    4    0    0 -0.67261425024E+01 -0.34636407121E+01 -0.10605475024E+02  0.13027428773E+02  0.00000000000E+00 0. -1.
</event>
<event>
 8    1  0.2534787E-006  0.9118800E+02  0.7816164E-02  0.1184000E+00
        -11   -1    0    0    0    0  0.00000000000E+00  0.00000000000E+00  0.45593999997E+02  0.45594000000E+02  0.51100000000E-03 0.  1.
         11   -1    0    0    0    0 -0.00000000000E+00 -0.00000000000E+00 -0.45593999997E+02  0.45594000000E+02  0.51100000000E-03 0. -1.
         23    2    1    2    0    0  0.00000000000E+00  0.35527136788E-14  0.35527136788E-14  0.91188000000E+02  0.91188000000E+02 0.  0.
    9900012    2    3    3    0    0  0.72719422171E+01  0.19770978645E+02 -0.30199471588E+02  0.54367070837E+02  0.39999969587E+02 0.  0.
        -12    1    3    3    0    0 -0.72719422171E+01 -0.19770978645E+02  0.30199471588E+02  0.36820929163E+02  0.00000000000E+00 0.  1.
         11    1    4    4    0    0  0.75848032177E+01  0.15260405251E+01  0.25866410352E+00  0.77411205206E+01  0.51100000000E-03 0. -1.
        -11    1    4    4    0    0  0.43527651884E+01  0.15298166407E+02 -0.23905561600E+00  0.15907155876E+02  0.51100000000E-03 0.  1.
         12    1    4    4    0    0 -0.46656261890E+01  0.29467717131E+01 -0.30219080076E+02  0.30718794441E+02  0.00000000000E+00 0. -1.
</event>
<event>
 8    1  0.2534787E-006  0.9118800E+02  0.7816164E-02  0.1184000E+00
        -11   -1    0    0    0    0  0.00000000000E+00  0.00000000000E+00  0.45593999997E+02  0.45594000000E+02  0.51100000000E-03 0.  1.
         11   -1    0    0    0    0 -0.00000000000E+00 -0.00000000000E+00 -0.45593999997E+02  0.45594000000E+02  0.51100000000E-03 0. -1.
         23    2    1    2    0    0  0.17763568394E-14  0.35527136788E-14  0.00000000000E+00  0.91188000000E+02  0.91188000000E+02 0.  0.
    9900012    2    3    3    0    0  0.10213516923E+02  0.17631301959E+02  0.30669213991E+02  0.54367089860E+02  0.40000012954E+02 0.  0.
         12    1    3    3    0    0 -0.10213516923E+02 -0.17631301959E+02 -0.30669213991E+02  0.36820910140E+02  0.00000000000E+00 0. -1.
         11    1    4    4    0    0  0.30619333759E+00 -0.84347241401E+01  0.14094195053E+02  0.16428166670E+02  0.51100000000E-03 0. -1.
        -11    1    4    4    0    0 -0.79000314519E+00  0.22009608573E+02  0.72719945900E+01  0.23193293860E+02  0.51100000000E-03 0.  1.
         12    1    4    4    0    0  0.10697326730E+02  0.40564175267E+01  0.93030243481E+01  0.14745629330E+02  0.00000000000E+00 0. -1.
</event>
<event>
 8    1  0.2534787E-006  0.9118800E+02  0.7816164E-02  0.1184000E+00
        -11   -1    0    0    0    0  0.00000000000E+00  0.00000000000E+00  0.45593999997E+02  0.45594000000E+02  0.51100000000E-03 0.  1.
         11   -1    0    0    0    0 -0.00000000000E+00 -0.00000000000E+00 -0.45593999997E+02  0.45594000000E+02  0.51100000000E-03 0. -1.
         23    2    1    2    0    0  0.00000000000E+00  0.00000000000E+00 -0.35527136788E-14  0.91188000000E+02  0.91188000000E+02 0.  0.
    9900012    2    3    3    0    0  0.25481698395E+01  0.18469977786E+02 -0.31751324460E+02  0.54367084016E+02  0.39999999631E+02 0.  0.
        -12    1    3    3    0    0 -0.25481698395E+01 -0.18469977786E+02  0.31751324460E+02  0.36820915984E+02  0.00000000000E+00 0.  1.
         11    1    4    4    0    0 -0.32507277555E+01  0.17204011243E+02 -0.23748732753E+02  0.29505042644E+02  0.51100000000E-03 0. -1.
        -11    1    4    4    0    0 -0.77668982971E+01  0.28535059026E+01 -0.75419547458E+01  0.11195904909E+02  0.51100000000E-03 0.  1.
        -12    1    4    4    0    0  0.13565795892E+02 -0.15875393593E+01 -0.46063696094E+00  0.13666136462E+02  0.00000000000E+00 0.  1.
</event>
<event>
 8    1  0.2534787E-006  0.9118800E+02  0.7816164E-02  0.1184000E+00
        -11   -1    0    0    0    0  0.00000000000E+00  0.00000000000E+00  0.45593999997E+02  0.45594000000E+02  0.51100000000E-03 0. -1.
         11   -1    0    0    0    0 -0.00000000000E+00 -0.00000000000E+00 -0.45593999997E+02  0.45594000000E+02  0.51100000000E-03 0.  1.
         23    2    1    2    0    0 -0.35527136788E-14  0.17763568394E-14  0.00000000000E+00  0.91188000000E+02  0.91188000000E+02 0.  0.
    9900012    2    3    3    0    0  0.30355204237E+02 -0.13170662247E+02  0.16151686094E+02  0.54367058514E+02  0.39999941494E+02 0.  0.
        -12    1    3    3    0    0 -0.30355204237E+02  0.13170662247E+02 -0.16151686094E+02  0.36820941486E+02  0.00000000000E+00 0.  1.
         11    1    4    4    0    0  0.84665851739E+01 -0.14791059568E+02  0.71867478771E+01  0.18496157789E+02  0.51100000000E-03 0. -1.
        -11    1    4    4    0    0  0.15462264017E+02 -0.32478233868E+01 -0.75366490425E+01  0.17505171931E+02  0.51100000000E-03 0.  1.
        -12    1    4    4    0    0  0.64263550456E+01  0.48682207083E+01  0.16501587259E+02  0.18365728793E+02  0.00000000000E+00 0.  1.
</event>
<event>
 8    1  0.2534787E-006  0.9118800E+02  0.7816164E-02  0.1184000E+00
        -11   -1    0    0    0    0  0.00000000000E+00  0.00000000000E+00  0.45593999997E+02  0.45594000000E+02  0.51100000000E-03 0.  1.
         11   -1    0    0    0    0 -0.00000000000E+00 -0.00000000000E+00 -0.45593999997E+02  0.45594000000E+02  0.51100000000E-03 0. -1.
         23    2    1    2    0    0 -0.13322676296E-14  0.00000000000E+00  0.00000000000E+00  0.91188000000E+02  0.91188000000E+02 0.  0.
    9900012    2    3    3    0    0 -0.34766569461E+01  0.43601455272E+01 -0.36396167353E+02  0.54367095468E+02  0.40000025738E+02 0.  0.
        -12    1    3    3    0    0  0.34766569461E+01 -0.43601455272E+01  0.36396167353E+02  0.36820904532E+02  0.00000000000E+00 0.  1.
         11    1    4    4    0    0  0.36094606137E+00 -0.38795757124E+01 -0.12211232517E+02  0.12817784115E+02  0.51100000000E-03 0. -1.
        -11    1    4    4    0    0 -0.16586184986E+02  0.87164815011E+01 -0.66872072315E+01  0.19894655638E+02  0.51100000000E-03 0.  1.
        -12    1    4    4    0    0  0.12748581978E+02 -0.47676026156E+00 -0.17497727605E+02  0.21654655715E+02  0.00000000000E+00 0.  1.
</event>
<event>
 8    1  0.2534787E-006  0.9118800E+02  0.7816164E-02  0.1184000E+00
        -11   -1    0    0    0    0  0.00000000000E+00  0.00000000000E+00  0.45593999997E+02  0.45594000000E+02  0.51100000000E-03 0.  1.
         11   -1    0    0    0    0 -0.00000000000E+00 -0.00000000000E+00 -0.45593999997E+02  0.45594000000E+02  0.51100000000E-03 0. -1.
         23    2    1    2    0    0  0.00000000000E+00  0.14988010832E-14  0.00000000000E+00  0.91188000000E+02  0.91188000000E+02 0.  0.
    9900012    2    3    3    0    0  0.20401924838E+02 -0.29829033228E+00  0.30650562357E+02  0.54367021102E+02  0.39999856205E+02 0.  0.
         12    1    3    3    0    0 -0.20401924838E+02  0.29829033228E+00 -0.30650562357E+02  0.36820978898E+02  0.00000000000E+00 0. -1.
         11    1    4    4    0    0  0.10306674510E+01  0.11358318134E+02  0.14121631975E+02  0.18151973891E+02  0.51100000000E-03 0. -1.
        -11    1    4    4    0    0  0.21907266858E+02 -0.29605626516E+01  0.15709514880E+02  0.27119773790E+02  0.51100000000E-03 0.  1.
        -12    1    4    4    0    0 -0.25360094707E+01 -0.86960458143E+01  0.81941550188E+00  0.90952734211E+01  0.00000000000E+00 0.  1.
</event>
<event>
 8    1  0.2534787E-006  0.9118800E+02  0.7816164E-02  0.1184000E+00
        -11   -1    0    0    0    0  0.00000000000E+00  0.00000000000E+00  0.45593999997E+02  0.45594000000E+02  0.51100000000E-03 0.  1.
         11   -1    0    0    0    0 -0.00000000000E+00 -0.00000000000E+00 -0.45593999997E+02  0.45594000000E+02  0.51100000000E-03 0. -1.
         23    2    1    2    0    0  0.00000000000E+00  0.00000000000E+00 -0.17763568394E-14  0.91188000000E+02  0.91188000000E+02 0.  0.
    9900012    2    3    3    0    0 -0.34346747233E+02 -0.63773979812E+01  0.11636588289E+02  0.54367076092E+02  0.39999981566E+02 0.  0.
        -12    1    3    3    0    0  0.34346747233E+02  0.63773979812E+01 -0.11636588289E+02  0.36820923908E+02  0.00000000000E+00 0.  1.
         11    1    4    4    0    0 -0.20095632263E+02 -0.60987794472E+01  0.17068261592E+02  0.27062060173E+02  0.51100000000E-03 0.  1.
        -11    1    4    4    0    0  0.23781766649E+01 -0.58618875474E+01  0.39042896487E+01  0.74337694200E+01  0.51100000000E-03 0. -1.
         12    1    4    4    0    0 -0.16629291635E+02  0.55832690134E+01 -0.93359629523E+01  0.19871246498E+02  0.00000000000E+00 0. -1.
</event>
<event>
 8    1  0.2534787E-006  0.9118800E+02  0.7816164E-02  0.1184000E+00
        -11   -1    0    0    0    0  0.00000000000E+00  0.00000000000E+00  0.45593999997E+02  0.45594000000E+02  0.51100000000E-03 0. -1.
         11   -1    0    0    0    0 -0.00000000000E+00 -0.00000000000E+00 -0.45593999997E+02  0.45594000000E+02  0.51100000000E-03 0.  1.
         23    2    1    2    0    0  0.17763568394E-14  0.00000000000E+00  0.35527136788E-14  0.91188000000E+02  0.91188000000E+02 0.  0.
    9900012    2    3    3    0    0 -0.11462192307E+02  0.17477214492E+02 -0.30313971119E+02  0.54367194416E+02  0.40000251309E+02 0.  0.
         12    1    3    3    0    0  0.11462192307E+02 -0.17477214492E+02  0.30313971119E+02  0.36820805584E+02  0.00000000000E+00 0. -1.
         11    1    4    4    0    0 -0.82822248441E+01  0.40847531795E+01 -0.34541065935E+02  0.35754240211E+02  0.51100000000E-03 0.  1.
        -11    1    4    4    0    0 -0.25277562270E+01  0.15002816080E+02  0.13788554021E+01  0.15276625424E+02  0.51100000000E-03 0. -1.
        -12    1    4    4    0    0 -0.65221123540E+00 -0.16103547675E+01  0.28482394139E+01  0.33363287805E+01  0.00000000000E+00 0.  1.
</event>
<event>
 8    1  0.2534787E-006  0.9118800E+02  0.7816164E-02  0.1184000E+00
        -11   -1    0    0    0    0  0.00000000000E+00  0.00000000000E+00  0.45593999997E+02  0.45594000000E+02  0.51100000000E-03 0. -1.
         11   -1    0    0    0    0 -0.00000000000E+00 -0.00000000000E+00 -0.45593999997E+02  0.45594000000E+02  0.51100000000E-03 0.  1.
         23    2    1    2    0    0  0.00000000000E+00  0.00000000000E+00  0.00000000000E+00  0.91188000000E+02  0.91188000000E+02 0.  0.
    9900012    2    3    3    0    0  0.55404013197E+01  0.15997741885E+02  0.32697902920E+02  0.54367127556E+02  0.40000098888E+02 0.  0.
        -12    1    3    3    0    0 -0.55404013197E+01 -0.15997741885E+02 -0.32697902920E+02  0.36820872444E+02  0.00000000000E+00 0.  1.
         11    1    4    4    0    0  0.42224484712E+01  0.51657540455E+01  0.91829289182E+01  0.11350782780E+02  0.51100000000E-03 0. -1.
        -11    1    4    4    0    0  0.14064338387E+02 -0.53515527205E+01  0.13008723074E+02  0.19891495848E+02  0.51100000000E-03 0.  1.
         12    1    4    4    0    0 -0.12746385538E+02  0.16183540560E+02  0.10506250928E+02  0.23124848927E+02  0.00000000000E+00 0. -1.
</event>
<event>
 8    1  0.2534787E-006  0.9118800E+02  0.7816164E-02  0.1184000E+00
        -11   -1    0    0    0    0  0.00000000000E+00  0.00000000000E+00  0.45593999997E+02  0.45594000000E+02  0.51100000000E-03 0. -1.
         11   -1    0    0    0    0 -0.00000000000E+00 -0.00000000000E+00 -0.45593999997E+02  0.45594000000E+02  0.51100000000E-03 0.  1.
         23    2    1    2    0    0  0.00000000000E+00  0.00000000000E+00  0.00000000000E+00  0.91188000000E+02  0.91188000000E+02 0.  0.
    9900012    2    3    3    0    0  0.20684691912E+02  0.13407498705E+02 -0.27352551646E+02  0.54367087701E+02  0.40000008031E+02 0.  0.
         12    1    3    3    0    0 -0.20684691912E+02 -0.13407498705E+02  0.27352551646E+02  0.36820912299E+02  0.00000000000E+00 0. -1.
         11    1    4    4    0    0  0.49892336429E+01  0.10500052134E+02  0.21078534884E+01  0.11814677048E+02  0.51100000000E-03 0. -1.
        -11    1    4    4    0    0  0.20599200611E+02  0.71456251922E+01 -0.28676134363E+02  0.36023710351E+02  0.51100000000E-03 0.  1.
         12    1    4    4    0    0 -0.49037423417E+01 -0.42381786216E+01 -0.78427077151E+00  0.65287003014E+01  0.00000000000E+00 0. -1.
</event>
<event>
 8    1  0.2534787E-006  0.9118800E+02  0.7816164E-02  0.1184000E+00
        -11   -1    0    0    0    0  0.00000000000E+00  0.00000000000E+00  0.45593999997E+02  0.45594000000E+02  0.51100000000E-03 0.  1.
         11   -1    0    0    0    0 -0.00000000000E+00 -0.00000000000E+00 -0.45593999997E+02  0.45594000000E+02  0.51100000000E-03 0. -1.
         23    2    1    2    0    0 -0.17763568394E-14  0.00000000000E+00  0.00000000000E+00  0.91188000000E+02  0.91188000000E+02 0.  0.
    9900012    2    3    3    0    0 -0.12671068395E+02  0.49054184801E+01 -0.34222259254E+02  0.54367053065E+02  0.39999929073E+02 0.  0.
        -12    1    3    3    0    0  0.12671068395E+02 -0.49054184801E+01  0.34222259254E+02  0.36820946935E+02  0.00000000000E+00 0.  1.
         11    1    4    4    0    0 -0.67028099710E+01 -0.37014121165E+01 -0.96447636357E+01  0.12314608358E+02  0.51100000000E-03 0. -1.
        -11    1    4    4    0    0 -0.18137477250E+02  0.27404442104E+00 -0.78892770700E+01  0.19780896701E+02  0.51100000000E-03 0.  1.
        -12    1    4    4    0    0  0.12169218826E+02  0.83327861755E+01 -0.16688218548E+02  0.22271548006E+02  0.00000000000E+00 0.  1.
</event>
<event>
 8    1  0.2534787E-006  0.9118800E+02  0.7816164E-02  0.1184000E+00
        -11   -1    0    0    0    0  0.00000000000E+00  0.00000000000E+00  0.45593999997E+02  0.45594000000E+02  0.51100000000E-03 0.  1.
         11   -1    0    0    0    0 -0.00000000000E+00 -0.00000000000E+00 -0.45593999997E+02  0.45594000000E+02  0.51100000000E-03 0. -1.
         23    2    1    2    0    0  0.00000000000E+00  0.00000000000E+00  0.00000000000E+00  0.91188000000E+02  0.91188000000E+02 0.  0.
    9900012    2    3    3    0    0 -0.18528283662E+02 -0.24227073246E+02 -0.20628405283E+02  0.54367089120E+02  0.40000011266E+02 0.  0.
        -12    1    3    3    0    0  0.18528283662E+02  0.24227073246E+02  0.20628405283E+02  0.36820910880E+02  0.00000000000E+00 0.  1.
         11    1    4    4    0    0 -0.41828866670E+01 -0.28987494106E+02 -0.46430222576E+01  0.29653482281E+02  0.51100000000E-03 0. -1.
        -11    1    4    4    0    0 -0.46157631887E+01  0.71549221375E+01 -0.96003886234E+01  0.12832211134E+02  0.51100000000E-03 0.  1.
        -12    1    4    4    0    0 -0.97296338067E+01 -0.23945012767E+01 -0.63849944024E+01  0.11881395705E+02  0.00000000000E+00 0.  1.
</event>
<event>
 8    1  0.2534787E-006  0.9118800E+02  0.7816164E-02  0.1184000E+00
        -11   -1    0    0    0    0  0.00000000000E+00  0.00000000000E+00  0.45593999997E+02  0.45594000000E+02  0.51100000000E-03 0.  1.
         11   -1    0    0    0    0 -0.00000000000E+00 -0.00000000000E+00 -0.45593999997E+02  0.45594000000E+02  0.51100000000E-03 0. -1.
         23    2    1    2    0    0 -0.35527136788E-14  0.00000000000E+00  0.35527136788E-14  0.91188000000E+02  0.91188000000E+02 0.  0.
    9900012    2    3    3    0    0 -0.24591252452E+02 -0.17520252202E+02  0.21073488034E+02  0.54367070730E+02  0.39999969344E+02 0.  0.
        -12    1    3    3    0    0  0.24591252452E+02  0.17520252202E+02 -0.21073488034E+02  0.36820929270E+02  0.00000000000E+00 0.  1.
         11    1    4    4    0    0 -0.14050724526E+02 -0.11767848183E+02  0.11827896739E+02  0.21812937723E+02  0.51100000000E-03 0. -1.
        -11    1    4    4    0    0  0.26557936296E+01 -0.14153753036E+01  0.16576602278E+02  0.16847559775E+02  0.51100000000E-03 0.  1.
        -12    1    4    4    0    0 -0.13196321555E+02 -0.43370287153E+01 -0.73310109827E+01  0.15706573232E+02  0.00000000000E+00 0.  1.
</event>
<event>
 8    1  0.2534787E-006  0.9118800E+02  0.7816164E-02  0.1184000E+00
        -11   -1    0    0    0    0  0.00000000000E+00  0.00000000000E+00  0.45593999997E+02  0.45594000000E+02  0.51100000000E-03 0.  1.
         11   -1    0    0    0    0 -0.00000000000E+00 -0.00000000000E+00 -0.45593999997E+02  0.45594000000E+02  0.51100000000E-03 0. -1.
         23    2    1    2    0    0  0.00000000000E+00  0.35527136788E-14  0.35527136788E-14  0.91188000000E+02  0.91188000000E+02 0.  0.
    9900012    2    3    3    0    0 -0.16453845070E+02 -0.13665346660E+02  0.29971806779E+02  0.54367083138E+02  0.39999997630E+02 0.  0.
         12    1    3    3    0    0  0.16453845070E+02  0.13665346660E+02 -0.29971806779E+02  0.36820916862E+02  0.00000000000E+00 0. -1.
         11    1    4    4    0    0 -0.15011091136E+01  0.13196760819E+01 -0.90960057189E+00  0.21959615191E+01  0.51100000000E-03 0. -1.
        -11    1    4    4    0    0 -0.10445625216E+02 -0.25420023962E+02  0.30127559088E+02  0.40779388437E+02  0.51100000000E-03 0.  1.
        -12    1    4    4    0    0 -0.45071107404E+01  0.10435001220E+02  0.75384826297E+00  0.11391733182E+02  0.00000000000E+00 0.  1.
</event>
<event>
 8    1  0.2534787E-006  0.9118800E+02  0.7816164E-02  0.1184000E+00
        -11   -1    0    0    0    0  0.00000000000E+00  0.00000000000E+00  0.45593999997E+02  0.45594000000E+02  0.51100000000E-03 0.  1.
         11   -1    0    0    0    0 -0.00000000000E+00 -0.00000000000E+00 -0.45593999997E+02  0.45594000000E+02  0.51100000000E-03 0. -1.
         23    2    1    2    0    0  0.35527136788E-14  0.00000000000E+00  0.00000000000E+00  0.91188000000E+02  0.91188000000E+02 0.  0.
    9900012    2    3    3    0    0 -0.16268605354E+02  0.21222145964E+02 -0.25312581788E+02  0.54367166274E+02  0.40000187155E+02 0.  0.
        -12    1    3    3    0    0  0.16268605354E+02 -0.21222145964E+02  0.25312581788E+02  0.36820833726E+02  0.00000000000E+00 0.  1.
         11    1    4    4    0    0  0.46395083673E+01  0.64247905361E+01 -0.25110484719E+02  0.26331339017E+02  0.51100000000E-03 0. -1.
        -11    1    4    4    0    0 -0.11580786914E+02  0.10328374050E+02  0.52023495732E+01  0.16366257281E+02  0.51100000000E-03 0.  1.
         12    1    4    4    0    0 -0.93273268072E+01  0.44689813777E+01 -0.54044466424E+01  0.11669569976E+02  0.00000000000E+00 0. -1.
</event>
<event>
 8    1  0.2534787E-006  0.9118800E+02  0.7816164E-02  0.1184000E+00
        -11   -1    0    0    0    0  0.00000000000E+00  0.00000000000E+00  0.45593999997E+02  0.45594000000E+02  0.51100000000E-03 0. -1.
         11   -1    0    0    0    0 -0.00000000000E+00 -0.00000000000E+00 -0.45593999997E+02  0.45594000000E+02  0.51100000000E-03 0.  1.
         23    2    1    2    0    0  0.13322676296E-14  0.71054273576E-14  0.00000000000E+00  0.91188000000E+02  0.91188000000E+02 0.  0.
    9900012    2    3    3    0    0  0.17919209981E+01  0.23413975044E+02  0.28361132585E+02  0.54367094936E+02  0.40000024525E+02 0.  0.
         12    1    3    3    0    0 -0.17919209981E+01 -0.23413975044E+02 -0.28361132585E+02  0.36820905064E+02  0.00000000000E+00 0. -1.
         11    1    4    4    0    0  0.48584127007E+01  0.11915994421E+02  0.16623302616E+02  0.21022114240E+02  0.51100000000E-03 0. -1.
        -11    1    4    4    0    0 -0.11178793578E+02 -0.17023092490E+01 -0.32734529137E+01  0.11771948729E+02  0.51100000000E-03 0.  1.
        -12    1    4    4    0    0  0.81123018757E+01  0.13200289872E+02  0.15011282883E+02  0.21573031966E+02  0.00000000000E+00 0.  1.
</event>
<event>
 8    1  0.2534787E-006  0.9118800E+02  0.7816164E-02  0.1184000E+00
        -11   -1    0    0    0    0  0.00000000000E+00  0.00000000000E+00  0.45593999997E+02  0.45594000000E+02  0.51100000000E-03 0.  1.
         11   -1    0    0    0    0 -0.00000000000E+00 -0.00000000000E+00 -0.45593999997E+02  0.45594000000E+02  0.51100000000E-03 0. -1.
         23    2    1    2    0    0  0.17763568394E-14  0.00000000000E+00  0.00000000000E+00  0.91188000000E+02  0.91188000000E+02 0.  0.
    9900012    2    3    3    0    0 -0.10095731251E+02  0.34505501570E+02  0.79516321638E+01  0.54367056474E+02  0.39999936844E+02 0.  0.
         12    1    3    3    0    0  0.10095731251E+02 -0.34505501570E+02 -0.79516321638E+01  0.36820943526E+02  0.00000000000E+00 0. -1.
         11    1    4    4    0    0  0.12255617519E+02  0.65451036638E+01 -0.40586129710E+01  0.14474490742E+02  0.51100000000E-03 0. -1.
        -11    1    4    4    0    0 -0.99520314723E+01  0.21746365299E+02  0.98126389800E+01  0.25850245998E+02  0.51100000000E-03 0.  1.
        -12    1    4    4    0    0 -0.12399317298E+02  0.62140326068E+01  0.21976061548E+01  0.14042319733E+02  0.00000000000E+00 0.  1.
</event>
<event>
 8    1  0.2534787E-006  0.9118800E+02  0.7816164E-02  0.1184000E+00
        -11   -1    0    0    0    0  0.00000000000E+00  0.00000000000E+00  0.45593999997E+02  0.45594000000E+02  0.51100000000E-03 0. -1.
         11   -1    0    0    0    0 -0.00000000000E+00 -0.00000000000E+00 -0.45593999997E+02  0.45594000000E+02  0.51100000000E-03 0.  1.
         23    2    1    2    0    0  0.17763568394E-14  0.35527136788E-14  0.00000000000E+00  0.91188000000E+02  0.91188000000E+02 0.  0.
    9900012    2    3    3    0    0 -0.13693702324E+02  0.86332860126E+01 -0.33071568095E+02  0.54367085740E+02  0.40000003561E+02 0.  0.
         12    1    3    3    0    0  0.13693702324E+02 -0.86332860126E+01  0.33071568095E+02  0.36820914260E+02  0.00000000000E+00 0. -1.
         11    1    4    4    0    0 -0.44379356440E+01  0.41503607574E+01 -0.40193080831E+01  0.72853006063E+01  0.51100000000E-03 0. -1.
        -11    1    4    4    0    0 -0.71220846699E+01  0.19462875623E+02 -0.22507118327E+02  0.30595718543E+02  0.51100000000E-03 0.  1.
        -12    1    4    4    0    0 -0.21336820104E+01 -0.14979950367E+02 -0.65451416850E+01  0.16486066590E+02  0.00000000000E+00 0.  1.
</event>
<event>
 8    1  0.2534787E-006  0.9118800E+02  0.7816164E-02  0.1184000E+00
        -11   -1    0    0    0    0  0.00000000000E+00  0.00000000000E+00  0.45593999997E+02  0.45594000000E+02  0.51100000000E-03 0.  1.
         11   -1    0    0    0    0 -0.00000000000E+00 -0.00000000000E+00 -0.45593999997E+02  0.45594000000E+02  0.51100000000E-03 0. -1.
         23    2    1    2    0    0  0.00000000000E+00 -0.35527136788E-14  0.00000000000E+00  0.91188000000E+02  0.91188000000E+02 0.  0.
    9900012    2    3    3    0    0 -0.18405832806E+02  0.30147228748E+02 -0.10399504975E+02  0.54367084936E+02  0.40000001728E+02 0.  0.
        -12    1    3    3    0    0  0.18405832806E+02 -0.30147228748E+02  0.10399504975E+02  0.36820915064E+02  0.00000000000E+00 0.  1.
         11    1    4    4    0    0 -0.17293728104E+01  0.47171793415E+00  0.99232793824E+01  0.10083884276E+02  0.51100000000E-03 0.  1.
        -11    1    4    4    0    0 -0.77522889977E+01  0.21736564860E+02 -0.22398234364E+02  0.32159868462E+02  0.51100000000E-03 0. -1.
         12    1    4    4    0    0 -0.89241709979E+01  0.79389459535E+01  0.20754500058E+01  0.12123332198E+02  0.00000000000E+00 0. -1.
</event>
<event>
 8    1  0.2534787E-006  0.9118800E+02  0.7816164E-02  0.1184000E+00
        -11   -1    0    0    0    0  0.00000000000E+00  0.00000000000E+00  0.45593999997E+02  0.45594000000E+02  0.51100000000E-03 0.  1.
         11   -1    0    0    0    0 -0.00000000000E+00 -0.00000000000E+00 -0.45593999997E+02  0.45594000000E+02  0.51100000000E-03 0. -1.
         23    2    1    2    0    0  0.00000000000E+00  0.00000000000E+00  0.00000000000E+00  0.91188000000E+02  0.91188000000E+02 0.  0.
    9900012    2    3    3    0    0 -0.82800739564E+01 -0.51380445032E+01 -0.35508054490E+02  0.54367067642E+02  0.39999962304E+02 0.  0.
        -12    1    3    3    0    0  0.82800739564E+01  0.51380445032E+01  0.35508054490E+02  0.36820932358E+02  0.00000000000E+00 0.  1.
         11    1    4    4    0    0 -0.11764759406E+02 -0.59772144915E+01 -0.42372729352E+02  0.44380005070E+02  0.51100000000E-03 0. -1.
        -11    1    4    4    0    0 -0.27071314368E+00  0.13590746215E+01  0.59198549341E+01  0.60798891548E+01  0.51100000000E-03 0.  1.
         12    1    4    4    0    0  0.37553985931E+01 -0.51990463314E+00  0.94481992830E+00  0.39071734179E+01  0.00000000000E+00 0. -1.
</event>
<event>
 8    1  0.2534787E-006  0.9118800E+02  0.7816164E-02  0.1184000E+00
        -11   -1    0    0    0    0  0.00000000000E+00  0.00000000000E+00  0.45593999997E+02  0.45594000000E+02  0.51100000000E-03 0. -1.
         11   -1    0    0    0    0 -0.00000000000E+00 -0.00000000000E+00 -0.45593999997E+02  0.45594000000E+02  0.51100000000E-03 0.  1.
         23    2    1    2    0    0  0.35527136788E-14  0.00000000000E+00  0.00000000000E+00  0.91188000000E+02  0.91188000000E+02 0.  0.
    9900012    2    3    3    0    0  0.16456120225E+02 -0.92019497692E+01 -0.31627526700E+02  0.54367079078E+02  0.39999988373E+02 0.  0.
         12    1    3    3    0    0 -0.16456120225E+02  0.92019497692E+01  0.31627526700E+02  0.36820920922E+02  0.00000000000E+00 0. -1.
         11    1    4    4    0    0  0.15964349877E+02 -0.21592441439E+02 -0.13370152858E+02  0.29997582936E+02  0.51100000000E-03 0. -1.
        -11    1    4    4    0    0  0.32847526273E+01  0.19690938816E+01 -0.10224908475E+02  0.10918593505E+02  0.51100000000E-03 0.  1.
         12    1    4    4    0    0 -0.27929822793E+01  0.10421397788E+02 -0.80324653669E+01  0.13450902637E+02  0.00000000000E+00 0. -1.
</event>
<event>
 8    1  0.2534787E-006  0.9118800E+02  0.7816164E-02  0.1184000E+00
        -11   -1    0    0    0    0  0.00000000000E+00  0.00000000000E+00  0.45593999997E+02  0.45594000000E+02  0.51100000000E-03 0.  1.
         11   -1    0    0    0    0 -0.00000000000E+00 -0.00000000000E+00 -0.45593999997E+02  0.45594000000E+02  0.51100000000E-03 0. -1.
         23    2    1    2    0    0  0.17763568394E-14  0.88817841970E-15  0.00000000000E+00  0.91188000000E+02  0.91188000000E+02 0.  0.
    9900012    2    3    3    0    0  0.13603489140E+02  0.29553142240E+01 -0.34087987152E+02  0.54367086553E+02  0.40000005415E+02 0.  0.
        -12    1    3    3    0    0 -0.13603489140E+02 -0.29553142240E+01  0.34087987152E+02  0.36820913447E+02  0.00000000000E+00 0.  1.
         11    1    4    4    0    0 -0.43684696831E+01  0.16948265487E+02 -0.20015473784E+02  0.26588464068E+02  0.51100000000E-03 0. -1.
        -11    1    4    4    0    0  0.14471917563E+02 -0.14407260030E+02 -0.11796021738E+02  0.23582868117E+02  0.51100000000E-03 0.  1.
         12    1    4    4    0    0  0.35000412609E+01  0.41430876652E+00 -0.22764916296E+01  0.41957543686E+01  0.00000000000E+00 0. -1.
</event>
<event>
 8    1  0.2534787E-006  0.9118800E+02  0.7816164E-02  0.1184000E+00
        -11   -1    0    0    0    0  0.00000000000E+00  0.00000000000E+00  0.45593999997E+02  0.45594000000E+02  0.51100000000E-03 0.  1.
         11   -1    0    0    0    0 -0.00000000000E+00 -0.00000000000E+00 -0.45593999997E+02  0.45594000000E+02  0.51100000000E-03 0. -1.
         23    2    1    2    0    0  0.35527136788E-14  0.00000000000E+00  0.00000000000E+00  0.91188000000E+02  0.91188000000E+02 0.  0.
    9900012    2    3    3    0    0  0.28993685952E+02  0.22186574718E+02 -0.47857230655E+01  0.54367067528E+02  0.39999962044E+02 0.  0.
        -12    1    3    3    0    0 -0.28993685952E+02 -0.22186574718E+02  0.47857230655E+01  0.36820932472E+02  0.00000000000E+00 0.  1.
         11    1    4    4    0    0  0.16521659214E+02  0.50374728717E+01 -0.13107346281E+02  0.21682801547E+02  0.51100000000E-03 0. -1.
        -11    1    4    4    0    0  0.16467426305E+02  0.19332526235E+02  0.10688204591E+02  0.27552865865E+02  0.51100000000E-03 0.  1.
        -12    1    4    4    0    0 -0.39953995665E+01 -0.21834243882E+01 -0.23665813749E+01  0.51314001168E+01  0.00000000000E+00 0.  1.
</event>
<event>
 8    1  0.2534787E-006  0.9118800E+02  0.7816164E-02  0.1184000E+00
        -11   -1    0    0    0    0  0.00000000000E+00  0.00000000000E+00  0.45593999997E+02  0.45594000000E+02  0.51100000000E-03 0.  1.
         11   -1    0    0    0    0 -0.00000000000E+00 -0.00000000000E+00 -0.45593999997E+02  0.45594000000E+02  0.51100000000E-03 0. -1.
         23    2    1    2    0    0  0.17763568394E-14  0.00000000000E+00  0.35527136788E-14  0.91188000000E+02  0.91188000000E+02 0.  0.
    9900012    2    3    3    0    0 -0.11393923657E+02  0.15880376796E+02 -0.31205319228E+02  0.54367084590E+02  0.40000000940E+02 0.  0.
        -12    1    3    3    0    0  0.11393923657E+02 -0.15880376796E+02  0.31205319228E+02  0.36820915410E+02  0.00000000000E+00 0.  1.
         11    1    4    4    0    0  0.41840403311E+01 -0.79837159867E+01 -0.96563352633E+01  0.13209493761E+02  0.51100000000E-03 0. -1.
        -11    1    4    4    0    0 -0.11893308973E+02  0.26122686661E+02 -0.22802282872E+02  0.36657736716E+02  0.51100000000E-03 0.  1.
        -12    1    4    4    0    0 -0.36846550150E+01 -0.22585938776E+01  0.12532989074E+01  0.44998541126E+01  0.00000000000E+00 0.  1.
</event>
<event>
 8    1  0.2534787E-006  0.9118800E+02  0.7816164E-02  0.1184000E+00
        -11   -1    0    0    0    0  0.00000000000E+00  0.00000000000E+00  0.45593999997E+02  0.45594000000E+02  0.51100000000E-03 0.  1.
         11   -1    0    0    0    0 -0.00000000000E+00 -0.00000000000E+00 -0.45593999997E+02  0.45594000000E+02  0.51100000000E-03 0. -1.
         23    2    1    2    0    0  0.00000000000E+00  0.00000000000E+00 -0.35527136788E-14  0.91188000000E+02  0.91188000000E+02 0.  0.
    9900012    2    3    3    0    0  0.99933967325E+01 -0.19495296686E+02  0.29594658136E+02  0.54367104285E+02  0.40000045838E+02 0.  0.
         12    1    3    3    0    0 -0.99933967325E+01  0.19495296686E+02 -0.29594658136E+02  0.36820895715E+02  0.00000000000E+00 0. -1.
         11    1    4    4    0    0  0.14286338143E+02 -0.16437348699E+02  0.14443348491E+02  0.26132282825E+02  0.51100000000E-03 0. -1.
        -11    1    4    4    0    0 -0.99078252625E+01 -0.27367493965E+01  0.18873194732E+02  0.21490748668E+02  0.51100000000E-03 0.  1.
        -12    1    4    4    0    0  0.56148838524E+01 -0.32119859003E+00 -0.37218850868E+01  0.67440727909E+01  0.00000000000E+00 0.  1.
</event>
<event>
 8    1  0.2534787E-006  0.9118800E+02  0.7816164E-02  0.1184000E+00
        -11   -1    0    0    0    0  0.00000000000E+00  0.00000000000E+00  0.45593999997E+02  0.45594000000E+02  0.51100000000E-03 0.  1.
         11   -1    0    0    0    0 -0.00000000000E+00 -0.00000000000E+00 -0.45593999997E+02  0.45594000000E+02  0.51100000000E-03 0. -1.
         23    2    1    2    0    0  0.00000000000E+00  0.35527136788E-14  0.00000000000E+00  0.91188000000E+02  0.91188000000E+02 0.  0.
    9900012    2    3    3    0    0 -0.11664817451E+02 -0.19246641611E+02  0.29142387701E+02  0.54367082842E+02  0.39999996955E+02 0.  0.
         12    1    3    3    0    0  0.11664817451E+02  0.19246641611E+02 -0.29142387701E+02  0.36820917158E+02  0.00000000000E+00 0. -1.
         11    1    4    4    0    0 -0.30568076431E+01  0.24987033225E+00  0.95267470322E+00  0.32115568656E+01  0.51100000000E-03 0. -1.
        -11    1    4    4    0    0  0.20615783792E+01 -0.26941116547E+02  0.26824556500E+02  0.38074016046E+02  0.51100000000E-03 0.  1.
        -12    1    4    4    0    0 -0.10669588187E+02  0.74446046040E+01  0.13651564974E+01  0.13081509930E+02  0.00000000000E+00 0.  1.
</event>
<event>
 8    1  0.2534787E-006  0.9118800E+02  0.7816164E-02  0.1184000E+00
        -11   -1    0    0    0    0  0.00000000000E+00  0.00000000000E+00  0.45593999997E+02  0.45594000000E+02  0.51100000000E-03 0.  1.
         11   -1    0    0    0    0 -0.00000000000E+00 -0.00000000000E+00 -0.45593999997E+02  0.45594000000E+02  0.51100000000E-03 0. -1.
         23    2    1    2    0    0 -0.35527136788E-14  0.00000000000E+00  0.00000000000E+00  0.91188000000E+02  0.91188000000E+02 0.  0.
    9900012    2    3    3    0    0 -0.24163201123E+02 -0.12727392827E+02 -0.24696826123E+02  0.54367081527E+02  0.39999993956E+02 0.  0.
         12    1    3    3    0    0  0.24163201123E+02  0.12727392827E+02  0.24696826123E+02  0.36820918473E+02  0.00000000000E+00 0. -1.
         11    1    4    4    0    0 -0.88380893426E+01 -0.20993408943E+02 -0.57338203306E+01  0.23488544828E+02  0.51100000000E-03 0. -1.
        -11    1    4    4    0    0 -0.69437056174E+01  0.11290547969E+02 -0.47048054666E+01  0.14065088548E+02  0.51100000000E-03 0.  1.
        -12    1    4    4    0    0 -0.83814061630E+01 -0.30245318526E+01 -0.14258200325E+02  0.16813448151E+02  0.00000000000E+00 0.  1.
</event>
<event>
 8    1  0.2534787E-006  0.9118800E+02  0.7816164E-02  0.1184000E+00
        -11   -1    0    0    0    0  0.00000000000E+00  0.00000000000E+00  0.45593999997E+02  0.45594000000E+02  0.51100000000E-03 0. -1.
         11   -1    0    0    0    0 -0.00000000000E+00 -0.00000000000E+00 -0.45593999997E+02  0.45594000000E+02  0.51100000000E-03 0.  1.
         23    2    1    2    0    0  0.17763568394E-14  0.00000000000E+00 -0.35527136788E-14  0.91188000000E+02  0.91188000000E+02 0.  0.
    9900012    2    3    3    0    0 -0.91557036302E+01 -0.25657246402E+02  0.24772124461E+02  0.54367090829E+02  0.40000015162E+02 0.  0.
         12    1    3    3    0    0  0.91557036302E+01  0.25657246402E+02 -0.24772124461E+02  0.36820909171E+02  0.00000000000E+00 0. -1.
         11    1    4    4    0    0 -0.78466238240E+01 -0.19609133103E+02 -0.31622484465E+01  0.21356203360E+02  0.51100000000E-03 0. -1.
        -11    1    4    4    0    0  0.11963235249E+01 -0.84625535612E+01  0.51840290549E+01  0.99960072157E+01  0.51100000000E-03 0.  1.
         12    1    4    4    0    0 -0.25054033311E+01  0.24144402617E+01  0.22750343853E+02  0.23014880253E+02  0.00000000000E+00 0. -1.
</event>
<event>
 8    1  0.2534787E-006  0.9118800E+02  0.7816164E-02  0.1184000E+00
        -11   -1    0    0    0    0  0.00000000000E+00  0.00000000000E+00  0.45593999997E+02  0.45594000000E+02  0.51100000000E-03 0. -1.
         11   -1    0    0    0    0 -0.00000000000E+00 -0.00000000000E+00 -0.45593999997E+02  0.45594000000E+02  0.51100000000E-03 0.  1.
         23    2    1    2    0    0 -0.17763568394E-14  0.00000000000E+00 -0.17763568394E-14  0.91188000000E+02  0.91188000000E+02 0.  0.
    9900012    2    3    3    0    0 -0.14963214627E+02 -0.30297611762E+02  0.14626585556E+02  0.54367081006E+02  0.39999992770E+02 0.  0.
         12    1    3    3    0    0  0.14963214627E+02  0.30297611762E+02 -0.14626585556E+02  0.36820918994E+02  0.00000000000E+00 0. -1.
         11    1    4    4    0    0 -0.89470097559E+01 -0.12555464411E+02  0.13585719819E+02  0.20548976943E+02  0.51100000000E-03 0. -1.
        -11    1    4    4    0    0  0.72011523580E+01 -0.14492839530E+02 -0.74078703351E+01  0.17798189124E+02  0.51100000000E-03 0.  1.
        -12    1    4    4    0    0 -0.13217357230E+02 -0.32493078219E+01  0.84487360719E+01  0.16019914939E+02  0.00000000000E+00 0.  1.
</event>
<event>
 8    1  0.2534787E-006  0.9118800E+02  0.7816164E-02  0.1184000E+00
        -11   -1    0    0    0    0  0.00000000000E+00  0.00000000000E+00  0.45593999997E+02  0.45594000000E+02  0.51100000000E-03 0.  1.
         11   -1    0    0    0    0 -0.00000000000E+00 -0.00000000000E+00 -0.45593999997E+02  0.45594000000E+02  0.51100000000E-03 0. -1.
         23    2    1    2    0    0  0.35527136788E-14  0.35527136788E-14 -0.35527136788E-14  0.91188000000E+02  0.91188000000E+02 0.  0.
    9900012    2    3    3    0    0 -0.19870147849E+02 -0.17603269118E+02  0.25516282176E+02  0.54367102194E+02  0.40000041071E+02 0.  0.
         12    1    3    3    0    0  0.19870147849E+02  0.17603269118E+02 -0.25516282176E+02  0.36820897806E+02  0.00000000000E+00 0. -1.
         11    1    4    4    0    0 -0.55106457908E+01 -0.44324182586E+00  0.27543379097E+02  0.28092728822E+02  0.51100000000E-03 0.  1.
        -11    1    4    4    0    0 -0.15854784380E+02 -0.13396822930E+02  0.16262595784E+01  0.20820513270E+02  0.51100000000E-03 0. -1.
         12    1    4    4    0    0  0.14952823223E+01 -0.37632043619E+01 -0.36533564990E+01  0.54538601010E+01  0.00000000000E+00 0. -1.
</event>
<event>
 8    1  0.2534787E-006  0.9118800E+02  0.7816164E-02  0.1184000E+00
        -11   -1    0    0    0    0  0.00000000000E+00  0.00000000000E+00  0.45593999997E+02  0.45594000000E+02  0.51100000000E-03 0.  1.
         11   -1    0    0    0    0 -0.00000000000E+00 -0.00000000000E+00 -0.45593999997E+02  0.45594000000E+02  0.51100000000E-03 0. -1.
         23    2    1    2    0    0 -0.35527136788E-14  0.00000000000E+00  0.00000000000E+00  0.91188000000E+02  0.91188000000E+02 0.  0.
    9900012    2    3    3    0    0 -0.28981297689E+02 -0.14668447277E+02 -0.17340529811E+02  0.54367177964E+02  0.40000213804E+02 0.  0.
        -12    1    3    3    0    0  0.28981297689E+02  0.14668447277E+02  0.17340529811E+02  0.36820822036E+02  0.00000000000E+00 0.  1.
         11    1    4    4    0    0 -0.18113235571E+02  0.66724570076E+00 -0.92753282755E+01  0.20360899650E+02  0.51100000000E-03 0. -1.
        -11    1    4    4    0    0  0.12750126754E+01  0.49264793829E+01  0.48961773802E+01  0.70617568375E+01  0.51100000000E-03 0.  1.
         12    1    4    4    0    0 -0.12143074793E+02 -0.20262172361E+02 -0.12961378915E+02  0.26944521477E+02  0.00000000000E+00 0. -1.
</event>
<event>
 8    1  0.2534787E-006  0.9118800E+02  0.7816164E-02  0.1184000E+00
        -11   -1    0    0    0    0  0.00000000000E+00  0.00000000000E+00  0.45593999997E+02  0.45594000000E+02  0.51100000000E-03 0.  1.
         11   -1    0    0    0    0 -0.00000000000E+00 -0.00000000000E+00 -0.45593999997E+02  0.45594000000E+02  0.51100000000E-03 0. -1.
         23    2    1    2    0    0  0.00000000000E+00  0.00000000000E+00  0.00000000000E+00  0.91188000000E+02  0.91188000000E+02 0.  0.
    9900012    2    3    3    0    0 -0.17882584247E+02 -0.80257655954E+01 -0.31170181801E+02  0.54367082490E+02  0.39999996153E+02 0.  0.
        -12    1    3    3    0    0  0.17882584247E+02  0.80257655954E+01  0.31170181801E+02  0.36820917510E+02  0.00000000000E+00 0.  1.
         11    1    4    4    0    0 -0.36975334014E+01 -0.63550684078E+01  0.20514490133E+01  0.76332883502E+01  0.51100000000E-03 0. -1.
        -11    1    4    4    0    0 -0.95359333388E+01  0.11902475836E+02 -0.68649839848E+01  0.16725159522E+02  0.51100000000E-03 0.  1.
        -12    1    4    4    0    0 -0.46491175073E+01 -0.13573173024E+02 -0.26356646829E+02  0.30008634618E+02  0.00000000000E+00 0.  1.
</event>
<event>
 8    1  0.2534787E-006  0.9118800E+02  0.7816164E-02  0.1184000E+00
        -11   -1    0    0    0    0  0.00000000000E+00  0.00000000000E+00  0.45593999997E+02  0.45594000000E+02  0.51100000000E-03 0. -1.
         11   -1    0    0    0    0 -0.00000000000E+00 -0.00000000000E+00 -0.45593999997E+02  0.45594000000E+02  0.51100000000E-03 0.  1.
         23    2    1    2    0    0  0.44408920985E-15 -0.11102230246E-15  0.00000000000E+00  0.91188000000E+02  0.91188000000E+02 0.  0.
    9900012    2    3    3    0    0  0.29425839998E+01 -0.76742439738E+00  0.36695182432E+02  0.54367025617E+02  0.39999866498E+02 0.  0.
        -12    1    3    3    0    0 -0.29425839998E+01  0.76742439738E+00 -0.36695182432E+02  0.36820974383E+02  0.00000000000E+00 0.  1.
         11    1    4    4    0    0  0.10059972250E+02  0.76836425512E+01  0.61960368388E+01  0.14093696367E+02  0.51100000000E-03 0. -1.
        -11    1    4    4    0    0 -0.24624960840E+00  0.74392635470E+01  0.35598063446E+01  0.82507879904E+01  0.51100000000E-03 0.  1.
         12    1    4    4    0    0 -0.68711386419E+01 -0.15890330496E+02  0.26939339249E+02  0.32022541259E+02  0.00000000000E+00 0. -1.
</event>
<event>
 8    1  0.2534787E-006  0.9118800E+02  0.7816164E-02  0.1184000E+00
        -11   -1    0    0    0    0  0.00000000000E+00  0.00000000000E+00  0.45593999997E+02  0.45594000000E+02  0.51100000000E-03 0.  1.
         11   -1    0    0    0    0 -0.00000000000E+00 -0.00000000000E+00 -0.45593999997E+02  0.45594000000E+02  0.51100000000E-03 0. -1.
         23    2    1    2    0    0  0.17763568394E-14 -0.35527136788E-14  0.35527136788E-14  0.91188000000E+02  0.91188000000E+02 0.  0.
    9900012    2    3    3    0    0  0.95787026569E+01 -0.19870906722E+02  0.29481782773E+02  0.54367082113E+02  0.39999995294E+02 0.  0.
         12    1    3    3    0    0 -0.95787026569E+01  0.19870906722E+02 -0.29481782773E+02  0.36820917887E+02  0.00000000000E+00 0. -1.
         11    1    4    4    0    0 -0.77261535623E+01 -0.22759117452E+01  0.22940708078E+02  0.24313562276E+02  0.51100000000E-03 0. -1.
        -11    1    4    4    0    0  0.16002792332E+01  0.26840136476E+01 -0.10635577856E+01  0.33009056801E+01  0.51100000000E-03 0.  1.
        -12    1    4    4    0    0  0.15704576986E+02 -0.20279008625E+02  0.76046324801E+01  0.26752614158E+02  0.00000000000E+00 0.  1.
</event>
<event>
 8    1  0.2534787E-006  0.9118800E+02  0.7816164E-02  0.1184000E+00
        -11   -1    0    0    0    0  0.00000000000E+00  0.00000000000E+00  0.45593999997E+02  0.45594000000E+02  0.51100000000E-03 0.  1.
         11   -1    0    0    0    0 -0.00000000000E+00 -0.00000000000E+00 -0.45593999997E+02  0.45594000000E+02  0.51100000000E-03 0. -1.
         23    2    1    2    0    0  0.00000000000E+00 -0.49960036108E-15  0.00000000000E+00  0.91188000000E+02  0.91188000000E+02 0.  0.
    9900012    2    3    3    0    0 -0.11767844235E+02  0.39122228172E+00 -0.34887597003E+02  0.54367086956E+02  0.40000006333E+02 0.  0.
        -12    1    3    3    0    0  0.11767844235E+02 -0.39122228172E+00  0.34887597003E+02  0.36820913044E+02  0.00000000000E+00 0.  1.
         11    1    4    4    0    0 -0.35443897364E+01  0.99456407440E+01 -0.13647561721E+02  0.17254982168E+02  0.51100000000E-03 0. -1.
        -11    1    4    4    0    0 -0.28955510539E+01 -0.30405146646E+01  0.67140556031E+01  0.79188059854E+01  0.51100000000E-03 0.  1.
         12    1    4    4    0    0 -0.53279034443E+01 -0.65139037977E+01 -0.27954090885E+02  0.29193298803E+02  0.00000000000E+00 0. -1.
</event>
<event>
 8    1  0.2534787E-006  0.9118800E+02  0.7816164E-02  0.1184000E+00
        -11   -1    0    0    0    0  0.00000000000E+00  0.00000000000E+00  0.45593999997E+02  0.45594000000E+02  0.51100000000E-03 0. -1.
         11   -1    0    0    0    0 -0.00000000000E+00 -0.00000000000E+00 -0.45593999997E+02  0.45594000000E+02  0.51100000000E-03 0.  1.
         23    2    1    2    0    0 -0.55511151231E-15  0.00000000000E+00  0.44408920985E-15  0.91188000000E+02  0.91188000000E+02 0.  0.
    9900012    2    3    3    0    0 -0.94505014196E+00 -0.36746016710E+02  0.21487639548E+01  0.54367081349E+02  0.39999993550E+02 0.  0.
        -12    1    3    3    0    0  0.94505014196E+00  0.36746016710E+02 -0.21487639548E+01  0.36820918651E+02  0.00000000000E+00 0.  1.
         11    1    4    4    0    0 -0.61958144446E+01 -0.18011552939E+02  0.10338837931E+01  0.19075457317E+02  0.51100000000E-03 0. -1.
        -11    1    4    4    0    0 -0.19074068882E+01 -0.26911141466E+01 -0.12587147636E+02  0.13012170543E+02  0.51100000000E-03 0.  1.
        -12    1    4    4    0    0  0.71581711909E+01 -0.16043349624E+02  0.13702027797E+02  0.22279453488E+02  0.00000000000E+00 0.  1.
</event>
<event>
 8    1  0.2534787E-006  0.9118800E+02  0.7816164E-02  0.1184000E+00
        -11   -1    0    0    0    0  0.00000000000E+00  0.00000000000E+00  0.45593999997E+02  0.45594000000E+02  0.51100000000E-03 0.  1.
         11   -1    0    0    0    0 -0.00000000000E+00 -0.00000000000E+00 -0.45593999997E+02  0.45594000000E+02  0.51100000000E-03 0. -1.
         23    2    1    2    0    0  0.35527136788E-14  0.88817841970E-15  0.00000000000E+00  0.91188000000E+02  0.91188000000E+02 0.  0.
    9900012    2    3    3    0    0  0.30437453879E+02 -0.78679794404E+01 -0.19168610773E+02  0.54367091020E+02  0.40000015599E+02 0.  0.
        -12    1    3    3    0    0 -0.30437453879E+02  0.78679794404E+01  0.19168610773E+02  0.36820908980E+02  0.00000000000E+00 0.  1.
         11    1    4    4    0    0  0.12047981930E+02  0.75333244954E+01 -0.10715310324E+02  0.17796705373E+02  0.51100000000E-03 0. -1.
        -11    1    4    4    0    0  0.22431801595E+02 -0.14390723127E+02  0.54236581259E+00  0.26656571345E+02  0.51100000000E-03 0.  1.
         12    1    4    4    0    0 -0.40423296460E+01 -0.10105808088E+01 -0.89956662611E+01  0.99138143022E+01  0.00000000000E+00 0. -1.
</event>
<event>
 8    1  0.2534787E-006  0.9118800E+02  0.7816164E-02  0.1184000E+00
        -11   -1    0    0    0    0  0.00000000000E+00  0.00000000000E+00  0.45593999997E+02  0.45594000000E+02  0.51100000000E-03 0. -1.
         11   -1    0    0    0    0 -0.00000000000E+00 -0.00000000000E+00 -0.45593999997E+02  0.45594000000E+02  0.51100000000E-03 0.  1.
         23    2    1    2    0    0 -0.26645352591E-14  0.00000000000E+00  0.00000000000E+00  0.91188000000E+02  0.91188000000E+02 0.  0.
    9900012    2    3    3    0    0 -0.79678642234E+01 -0.13489831848E+02  0.33321456369E+02  0.54367056529E+02  0.39999936969E+02 0.  0.
        -12    1    3    3    0    0  0.79678642234E+01  0.13489831848E+02 -0.33321456369E+02  0.36820943471E+02  0.00000000000E+00 0.  1.
         11    1    4    4    0    0  0.95440234222E+01 -0.14913844684E+02  0.10790580163E+02  0.20735181862E+02  0.51100000000E-03 0. -1.
        -11    1    4    4    0    0  0.22561162023E+01  0.21248182337E+01 -0.64173731622E+00  0.31649233622E+01  0.51100000000E-03 0.  1.
         12    1    4    4    0    0 -0.19768003848E+02 -0.70080539736E+00  0.23172613522E+02  0.30466951304E+02  0.00000000000E+00 0. -1.
</event>
<event>
 8    1  0.2534787E-006  0.9118800E+02  0.7816164E-02  0.1184000E+00
        -11   -1    0    0    0    0  0.00000000000E+00  0.00000000000E+00  0.45593999997E+02  0.45594000000E+02  0.51100000000E-03 0.  1.
         11   -1    0    0    0    0 -0.00000000000E+00 -0.00000000000E+00 -0.45593999997E+02  0.45594000000E+02  0.51100000000E-03 0. -1.
         23    2    1    2    0    0  0.33306690739E-15  0.35527136788E-14  0.00000000000E+00  0.91188000000E+02  0.91188000000E+02 0.  0.
    9900012    2    3    3    0    0  0.71448394916E+00 -0.18292959107E+02 -0.31947406586E+02  0.54367087087E+02  0.40000006632E+02 0.  0.
        -12    1    3    3    0    0 -0.71448394916E+00  0.18292959107E+02  0.31947406586E+02  0.36820912913E+02  0.00000000000E+00 0.  1.
         11    1    4    4    0    0 -0.65264029496E+01 -0.17856616383E+02 -0.96428108361E+01  0.21317515925E+02  0.51100000000E-03 0.  1.
        -11    1    4    4    0    0  0.67122086150E+01 -0.22010611488E+01  0.30025036957E+01  0.76755093235E+01  0.51100000000E-03 0. -1.
         12    1    4    4    0    0  0.52867828379E+00  0.17647184249E+01 -0.25307099445E+02  0.25374061838E+02  0.00000000000E+00 0. -1.
</event>
<event>
 8    1  0.2534787E-006  0.9118800E+02  0.7816164E-02  0.1184000E+00
        -11   -1    0    0    0    0  0.00000000000E+00  0.00000000000E+00  0.45593999997E+02  0.45594000000E+02  0.51100000000E-03 0. -1.
         11   -1    0    0    0    0 -0.00000000000E+00 -0.00000000000E+00 -0.45593999997E+02  0.45594000000E+02  0.51100000000E-03 0.  1.
         23    2    1    2    0    0  0.00000000000E+00  0.17763568394E-14  0.00000000000E+00  0.91188000000E+02  0.91188000000E+02 0.  0.
    9900012    2    3    3    0    0 -0.32647606607E+02  0.14557868633E+02 -0.88308080501E+01  0.54367069443E+02  0.39999966408E+02 0.  0.
        -12    1    3    3    0    0  0.32647606607E+02 -0.14557868633E+02  0.88308080501E+01  0.36820930557E+02  0.00000000000E+00 0.  1.
         11    1    4    4    0    0 -0.23652553253E+02  0.16207058878E+02  0.39981899661E+01  0.28949914614E+02  0.51100000000E-03 0. -1.
        -11    1    4    4    0    0 -0.96013407906E+01  0.68200164782E+01 -0.24881183666E+01  0.12036988951E+02  0.51100000000E-03 0.  1.
        -12    1    4    4    0    0  0.60628743689E+00 -0.84692067238E+01 -0.10340879650E+02  0.13380165878E+02  0.00000000000E+00 0.  1.
</event>
<event>
 8    1  0.2534787E-006  0.9118800E+02  0.7816164E-02  0.1184000E+00
        -11   -1    0    0    0    0  0.00000000000E+00  0.00000000000E+00  0.45593999997E+02  0.45594000000E+02  0.51100000000E-03 0.  1.
         11   -1    0    0    0    0 -0.00000000000E+00 -0.00000000000E+00 -0.45593999997E+02  0.45594000000E+02  0.51100000000E-03 0. -1.
         23    2    1    2    0    0 -0.35527136788E-14  0.00000000000E+00  0.22204460493E-15  0.91188000000E+02  0.91188000000E+02 0.  0.
    9900012    2    3    3    0    0  0.23404060634E+02  0.28425272025E+02 -0.18125744301E+00  0.54367095637E+02  0.40000026124E+02 0.  0.
        -12    1    3    3    0    0 -0.23404060634E+02 -0.28425272025E+02  0.18125744301E+00  0.36820904363E+02  0.00000000000E+00 0.  1.
         11    1    4    4    0    0  0.14343453908E+02 -0.17015911686E+01 -0.15853339468E+01  0.14530773087E+02  0.51100000000E-03 0. -1.
        -11    1    4    4    0    0  0.98105867888E+01  0.33596090214E+02 -0.18127504598E+01  0.35046126110E+02  0.51100000000E-03 0.  1.
        -12    1    4    4    0    0 -0.74998006293E+00 -0.34692270210E+01  0.32168269636E+01  0.47901964398E+01  0.00000000000E+00 0.  1.
</event>
<event>
 8    1  0.2534787E-006  0.9118800E+02  0.7816164E-02  0.1184000E+00
        -11   -1    0    0    0    0  0.00000000000E+00  0.00000000000E+00  0.45593999997E+02  0.45594000000E+02  0.51100000000E-03 0. -1.
         11   -1    0    0    0    0 -0.00000000000E+00 -0.00000000000E+00 -0.45593999997E+02  0.45594000000E+02  0.51100000000E-03 0.  1.
         23    2    1    2    0    0  0.00000000000E+00  0.00000000000E+00 -0.17763568394E-14  0.91188000000E+02  0.91188000000E+02 0.  0.
    9900012    2    3    3    0    0 -0.95197617130E+01  0.34293885170E+02 -0.94383876910E+01  0.54367087663E+02  0.40000007945E+02 0.  0.
        -12    1    3    3    0    0  0.95197617130E+01 -0.34293885170E+02  0.94383876910E+01  0.36820912337E+02  0.00000000000E+00 0.  1.
         11    1    4    4    0    0  0.50192463481E+00  0.40804161006E+01 -0.16361170542E+01  0.44247715387E+01  0.51100000000E-03 0. -1.
        -11    1    4    4    0    0 -0.92059070025E+01  0.39130885328E+02 -0.47359000463E+01  0.40477199259E+02  0.51100000000E-03 0.  1.
        -12    1    4    4    0    0 -0.81577934533E+00 -0.89174162589E+01 -0.30663705905E+01  0.94651168653E+01  0.00000000000E+00 0.  1.
</event>
<event>
 8    1  0.2534787E-006  0.9118800E+02  0.7816164E-02  0.1184000E+00
        -11   -1    0    0    0    0  0.00000000000E+00  0.00000000000E+00  0.45593999997E+02  0.45594000000E+02  0.51100000000E-03 0. -1.
         11   -1    0    0    0    0 -0.00000000000E+00 -0.00000000000E+00 -0.45593999997E+02  0.45594000000E+02  0.51100000000E-03 0.  1.
         23    2    1    2    0    0  0.97144514655E-15  0.00000000000E+00  0.00000000000E+00  0.91188000000E+02  0.91188000000E+02 0.  0.
    9900012    2    3    3    0    0  0.13267824059E+00  0.20558712708E+02 -0.30547023022E+02  0.54366825559E+02  0.39999410423E+02 0.  0.
         12    1    3    3    0    0 -0.13267824059E+00 -0.20558712708E+02  0.30547023022E+02  0.36821174441E+02  0.00000000000E+00 0. -1.
         11    1    4    4    0    0  0.10113836087E+02  0.49980343366E+01 -0.12375059947E+02  0.16745510938E+02  0.51100000000E-03 0. -1.
        -11    1    4    4    0    0 -0.26970439070E+01 -0.26538073715E+01  0.56261706143E+01  0.67801574792E+01  0.51100000000E-03 0.  1.
        -12    1    4    4    0    0 -0.72841139399E+01  0.18214485743E+02 -0.23798133689E+02  0.30841157142E+02  0.00000000000E+00 0.  1.
</event>
<event>
 8    1  0.2534787E-006  0.9118800E+02  0.7816164E-02  0.1184000E+00
        -11   -1    0    0    0    0  0.00000000000E+00  0.00000000000E+00  0.45593999997E+02  0.45594000000E+02  0.51100000000E-03 0.  1.
         11   -1    0    0    0    0 -0.00000000000E+00 -0.00000000000E+00 -0.45593999997E+02  0.45594000000E+02  0.51100000000E-03 0. -1.
         23    2    1    2    0    0  0.00000000000E+00  0.00000000000E+00  0.00000000000E+00  0.91188000000E+02  0.91188000000E+02 0.  0.
    9900012    2    3    3    0    0  0.14041719170E+02  0.12535198211E+02  0.31646145580E+02  0.54367087443E+02  0.40000007445E+02 0.  0.
         12    1    3    3    0    0 -0.14041719170E+02 -0.12535198211E+02 -0.31646145580E+02  0.36820912557E+02  0.00000000000E+00 0. -1.
         11    1    4    4    0    0  0.16321616465E+02  0.63012267316E+01 -0.24445498254E+01  0.17665685565E+02  0.51100000000E-03 0. -1.
        -11    1    4    4    0    0 -0.49709286436E+01 -0.13057548812E+01  0.89955148741E+01  0.10360232406E+02  0.51100000000E-03 0.  1.
         12    1    4    4    0    0  0.26910313486E+01  0.75397263601E+01  0.25095180531E+02  0.26341169473E+02  0.00000000000E+00 0. -1.
</event>
<event>
 8    1  0.2534787E-006  0.9118800E+02  0.7816164E-02  0.1184000E+00
        -11   -1    0    0    0    0  0.00000000000E+00  0.00000000000E+00  0.45593999997E+02  0.45594000000E+02  0.51100000000E-03 0.  1.
         11   -1    0    0    0    0 -0.00000000000E+00 -0.00000000000E+00 -0.45593999997E+02  0.45594000000E+02  0.51100000000E-03 0. -1.
         23    2    1    2    0    0  0.17763568394E-14 -0.35527136788E-14  0.35527136788E-14  0.91188000000E+02  0.91188000000E+02 0.  0.
    9900012    2    3    3    0    0  0.94774995645E+01 -0.29152460737E+02  0.20398301116E+02  0.54367086739E+02  0.40000005838E+02 0.  0.
         12    1    3    3    0    0 -0.94774995645E+01  0.29152460737E+02 -0.20398301116E+02  0.36820913261E+02  0.00000000000E+00 0. -1.
         11    1    4    4    0    0  0.15571338235E+02 -0.37473976106E+01  0.13594643724E+02  0.21007710526E+02  0.51100000000E-03 0. -1.
        -11    1    4    4    0    0  0.57377838584E+01 -0.67575994465E+01  0.69661409231E+01  0.11274503692E+02  0.51100000000E-03 0.  1.
        -12    1    4    4    0    0 -0.11831622529E+02 -0.18647463680E+02 -0.16248353119E+00  0.22084872521E+02  0.00000000000E+00 0.  1.
</event>
<event>
 8    1  0.2534787E-006  0.9118800E+02  0.7816164E-02  0.1184000E+00
        -11   -1    0    0    0    0  0.00000000000E+00  0.00000000000E+00  0.45593999997E+02  0.45594000000E+02  0.51100000000E-03 0.  1.
         11   -1    0    0    0    0 -0.00000000000E+00 -0.00000000000E+00 -0.45593999997E+02  0.45594000000E+02  0.51100000000E-03 0. -1.
         23    2    1    2    0    0  0.35527136788E-14  0.00000000000E+00  0.00000000000E+00  0.91188000000E+02  0.91188000000E+02 0.  0.
    9900012    2    3    3    0    0  0.30939222877E+02 -0.15885536844E+02 -0.12091118123E+02  0.54367069396E+02  0.39999966301E+02 0.  0.
        -12    1    3    3    0    0 -0.30939222877E+02  0.15885536844E+02  0.12091118123E+02  0.36820930604E+02  0.00000000000E+00 0.  1.
         11    1    4    4    0    0  0.14897026888E+02  0.11828415346E+02 -0.20490618085E+01  0.19131949045E+02  0.51100000000E-03 0. -1.
        -11    1    4    4    0    0  0.91421036411E+00 -0.34454345467E+01 -0.50868248459E+01  0.62114883143E+01  0.51100000000E-03 0.  1.
         12    1    4    4    0    0  0.15127985625E+02 -0.24268517643E+02 -0.49552314691E+01  0.29023632037E+02  0.00000000000E+00 0. -1.
</event>
<event>
 8    1  0.2534787E-006  0.9118800E+02  0.7816164E-02  0.1184000E+00
        -11   -1    0    0    0    0  0.00000000000E+00  0.00000000000E+00  0.45593999997E+02  0.45594000000E+02  0.51100000000E-03 0. -1.
         11   -1    0    0    0    0 -0.00000000000E+00 -0.00000000000E+00 -0.45593999997E+02  0.45594000000E+02  0.51100000000E-03 0.  1.
         23    2    1    2    0    0  0.00000000000E+00 -0.44408920985E-15  0.00000000000E+00  0.91188000000E+02  0.91188000000E+02 0.  0.
    9900012    2    3    3    0    0  0.28123589328E+02 -0.11676964666E+01 -0.23737728513E+02  0.54367088188E+02  0.40000009141E+02 0.  0.
         12    1    3    3    0    0 -0.28123589328E+02  0.11676964666E+01  0.23737728513E+02  0.36820911812E+02  0.00000000000E+00 0. -1.
         11    1    4    4    0    0  0.25274189357E+02  0.18444245641E+01 -0.91788512977E+01  0.26952511219E+02  0.51100000000E-03 0. -1.
        -11    1    4    4    0    0  0.68698274517E+01  0.69519141697E+01 -0.13431380234E+02  0.16611008852E+02  0.51100000000E-03 0.  1.
         12    1    4    4    0    0 -0.40204274805E+01 -0.99640352004E+01 -0.11274969818E+01  0.10803568116E+02  0.00000000000E+00 0. -1.
</event>
<event>
 8    1  0.2534787E-006  0.9118800E+02  0.7816164E-02  0.1184000E+00
        -11   -1    0    0    0    0  0.00000000000E+00  0.00000000000E+00  0.45593999997E+02  0.45594000000E+02  0.51100000000E-03 0. -1.
         11   -1    0    0    0    0 -0.00000000000E+00 -0.00000000000E+00 -0.45593999997E+02  0.45594000000E+02  0.51100000000E-03 0.  1.
         23    2    1    2    0    0 -0.17763568394E-14  0.35527136788E-14  0.71054273576E-14  0.91188000000E+02  0.91188000000E+02 0.  0.
    9900012    2    3    3    0    0 -0.95614583385E+01  0.10397779111E+02  0.34003639426E+02  0.54367044143E+02  0.39999908734E+02 0.  0.
        -12    1    3    3    0    0  0.95614583385E+01 -0.10397779111E+02 -0.34003639426E+02  0.36820955857E+02  0.00000000000E+00 0.  1.
         11    1    4    4    0    0 -0.10147828957E+02  0.52190539346E+01  0.24597608727E+02  0.27115665432E+02  0.51100000000E-03 0. -1.
        -11    1    4    4    0    0 -0.27408505109E+01 -0.40244169154E+01 -0.67738207149E+01  0.83422323374E+01  0.51100000000E-03 0.  1.
        -12    1    4    4    0    0  0.33272211291E+01  0.92031420917E+01  0.16179851414E+02  0.18909146374E+02  0.00000000000E+00 0.  1.
</event>
<event>
 8    1  0.2534787E-006  0.9118800E+02  0.7816164E-02  0.1184000E+00
        -11   -1    0    0    0    0  0.00000000000E+00  0.00000000000E+00  0.45593999997E+02  0.45594000000E+02  0.51100000000E-03 0.  1.
         11   -1    0    0    0    0 -0.00000000000E+00 -0.00000000000E+00 -0.45593999997E+02  0.45594000000E+02  0.51100000000E-03 0. -1.
         23    2    1    2    0    0 -0.53290705182E-14  0.00000000000E+00  0.35527136788E-14  0.91188000000E+02  0.91188000000E+02 0.  0.
    9900012    2    3    3    0    0 -0.14220681393E+02  0.11673568456E+02  0.31894835903E+02  0.54367074739E+02  0.39999978483E+02 0.  0.
         12    1    3    3    0    0  0.14220681393E+02 -0.11673568456E+02 -0.31894835903E+02  0.36820925261E+02  0.00000000000E+00 0. -1.
         11    1    4    4    0    0 -0.43830540216E+00  0.24879710112E+01 -0.64147972282E+01  0.68943262990E+01  0.51100000000E-03 0. -1.
        -11    1    4    4    0    0  0.18226524618E+01 -0.46575320056E+01  0.16718788322E+02  0.17450860999E+02  0.51100000000E-03 0.  1.
        -12    1    4    4    0    0 -0.15605028453E+02  0.13843129450E+02  0.21590844809E+02  0.30021887441E+02  0.00000000000E+00 0.  1.
</event>
<event>
 8    1  0.2534787E-006  0.9118800E+02  0.7816164E-02  0.1184000E+00
        -11   -1    0    0    0    0  0.00000000000E+00  0.00000000000E+00  0.45593999997E+02  0.45594000000E+02  0.51100000000E-03 0.  1.
         11   -1    0    0    0    0 -0.00000000000E+00 -0.00000000000E+00 -0.45593999997E+02  0.45594000000E+02  0.51100000000E-03 0. -1.
         23    2    1    2    0    0 -0.35527136788E-14  0.00000000000E+00  0.00000000000E+00  0.91188000000E+02  0.91188000000E+02 0.  0.
    9900012    2    3    3    0    0 -0.26272965963E+02  0.18526172764E+02  0.17952066911E+02  0.54367292183E+02  0.40000474187E+02 0.  0.
         12    1    3    3    0    0  0.26272965963E+02 -0.18526172764E+02 -0.17952066911E+02  0.36820707817E+02  0.00000000000E+00 0. -1.
         11    1    4    4    0    0  0.42902762383E+01  0.65607853939E+01  0.55892834738E+01  0.96275887530E+01  0.51100000000E-03 0. -1.
        -11    1    4    4    0    0 -0.43189001710E+01  0.12630165512E+02  0.12785433809E+02  0.18483541260E+02  0.51100000000E-03 0.  1.
         12    1    4    4    0    0 -0.26244342030E+02 -0.66477814209E+00 -0.42265037202E+00  0.26256162170E+02  0.00000000000E+00 0. -1.
</event>
<event>
 8    1  0.2534787E-006  0.9118800E+02  0.7816164E-02  0.1184000E+00
        -11   -1    0    0    0    0  0.00000000000E+00  0.00000000000E+00  0.45593999997E+02  0.45594000000E+02  0.51100000000E-03 0.  1.
         11   -1    0    0    0    0 -0.00000000000E+00 -0.00000000000E+00 -0.45593999997E+02  0.45594000000E+02  0.51100000000E-03 0. -1.
         23    2    1    2    0    0 -0.35527136788E-14  0.00000000000E+00 -0.17763568394E-14  0.91188000000E+02  0.91188000000E+02 0.  0.
    9900012    2    3    3    0    0 -0.17284093113E+02 -0.30625395634E+02 -0.10914521704E+02  0.54367061439E+02  0.39999948162E+02 0.  0.
        -12    1    3    3    0    0  0.17284093113E+02  0.30625395634E+02  0.10914521704E+02  0.36820938561E+02  0.00000000000E+00 0.  1.
         11    1    4    4    0    0  0.10449896919E+02 -0.73534024200E+00 -0.49413782472E+01  0.11582671977E+02  0.51100000000E-03 0. -1.
        -11    1    4    4    0    0 -0.15547033584E+02 -0.12724910473E+02  0.21814214004E+01  0.20208715927E+02  0.51100000000E-03 0.  1.
         12    1    4    4    0    0 -0.12186956448E+02 -0.17165144919E+02 -0.81545648577E+01  0.22575673535E+02  0.00000000000E+00 0. -1.
</event>
<event>
 8    1  0.2534787E-006  0.9118800E+02  0.7816164E-02  0.1184000E+00
        -11   -1    0    0    0    0  0.00000000000E+00  0.00000000000E+00  0.45593999997E+02  0.45594000000E+02  0.51100000000E-03 0. -1.
         11   -1    0    0    0    0 -0.00000000000E+00 -0.00000000000E+00 -0.45593999997E+02  0.45594000000E+02  0.51100000000E-03 0.  1.
         23    2    1    2    0    0  0.00000000000E+00  0.88817841970E-15  0.29143354396E-15  0.91188000000E+02  0.91188000000E+02 0.  0.
    9900012    2    3    3    0    0 -0.36693198553E+02  0.30627628817E+01  0.89666567003E-01  0.54367090497E+02  0.40000014407E+02 0.  0.
         12    1    3    3    0    0  0.36693198553E+02 -0.30627628817E+01 -0.89666567003E-01  0.36820909503E+02  0.00000000000E+00 0. -1.
         11    1    4    4    0    0 -0.12481622471E+02 -0.43040461773E+01  0.83804879231E+01  0.15638039874E+02  0.51100000000E-03 0. -1.
        -11    1    4    4    0    0 -0.22426403164E+02  0.13657894401E+02  0.22181739724E+01  0.26351507251E+02  0.51100000000E-03 0.  1.
         12    1    4    4    0    0 -0.17851729170E+01 -0.62910853420E+01 -0.10508995329E+02  0.12377543373E+02  0.00000000000E+00 0. -1.
</event>
<event>
 8    1  0.2534787E-006  0.9118800E+02  0.7816164E-02  0.1184000E+00
        -11   -1    0    0    0    0  0.00000000000E+00  0.00000000000E+00  0.45593999997E+02  0.45594000000E+02  0.51100000000E-03 0.  1.
         11   -1    0    0    0    0 -0.00000000000E+00 -0.00000000000E+00 -0.45593999997E+02  0.45594000000E+02  0.51100000000E-03 0. -1.
         23    2    1    2    0    0  0.53290705182E-14  0.00000000000E+00  0.00000000000E+00  0.91188000000E+02  0.91188000000E+02 0.  0.
    9900012    2    3    3    0    0  0.14788952345E+02 -0.18243584927E+02 -0.28359131290E+02  0.54367057183E+02  0.39999938459E+02 0.  0.
        -12    1    3    3    0    0 -0.14788952345E+02  0.18243584927E+02  0.28359131290E+02  0.36820942817E+02  0.00000000000E+00 0.  1.
         11    1    4    4    0    0 -0.55430477005E+01 -0.13304973983E+02 -0.23170427057E+02  0.27287660229E+02  0.51100000000E-03 0. -1.
        -11    1    4    4    0    0 -0.61119593153E+00  0.26358160185E+01  0.23330162611E+01  0.35726813021E+01  0.51100000000E-03 0.  1.
         12    1    4    4    0    0  0.20943195977E+02 -0.75744269625E+01 -0.75217204939E+01  0.23506715652E+02  0.00000000000E+00 0. -1.
</event>
<event>
 8    1  0.2534787E-006  0.9118800E+02  0.7816164E-02  0.1184000E+00
        -11   -1    0    0    0    0  0.00000000000E+00  0.00000000000E+00  0.45593999997E+02  0.45594000000E+02  0.51100000000E-03 0.  1.
         11   -1    0    0    0    0 -0.00000000000E+00 -0.00000000000E+00 -0.45593999997E+02  0.45594000000E+02  0.51100000000E-03 0. -1.
         23    2    1    2    0    0  0.00000000000E+00  0.00000000000E+00  0.17763568394E-14  0.91188000000E+02  0.91188000000E+02 0.  0.
    9900012    2    3    3    0    0 -0.31861056706E+02 -0.96084394190E+01 -0.15758526254E+02  0.54367079422E+02  0.39999989159E+02 0.  0.
        -12    1    3    3    0    0  0.31861056706E+02  0.96084394190E+01  0.15758526254E+02  0.36820920578E+02  0.00000000000E+00 0.  1.
         11    1    4    4    0    0 -0.16628138504E+02  0.12264119055E+00 -0.48744139916E+01  0.17328298906E+02  0.51100000000E-03 0. -1.
        -11    1    4    4    0    0 -0.35520746594E+01 -0.11456247380E+02  0.82479357835E+01  0.14556485956E+02  0.51100000000E-03 0.  1.
         12    1    4    4    0    0 -0.11680843543E+02  0.17251667707E+01 -0.19132048046E+02  0.22482294560E+02  0.00000000000E+00 0. -1.
</event>
<event>
 8    1  0.2534787E-006  0.9118800E+02  0.7816164E-02  0.1184000E+00
        -11   -1    0    0    0    0  0.00000000000E+00  0.00000000000E+00  0.45593999997E+02  0.45594000000E+02  0.51100000000E-03 0. -1.
         11   -1    0    0    0    0 -0.00000000000E+00 -0.00000000000E+00 -0.45593999997E+02  0.45594000000E+02  0.51100000000E-03 0.  1.
         23    2    1    2    0    0  0.35527136788E-14  0.35527136788E-14 -0.17763568394E-14  0.91188000000E+02  0.91188000000E+02 0.  0.
    9900012    2    3    3    0    0  0.28960372518E+02 -0.18462557974E+02 -0.13274631204E+02  0.54367013363E+02  0.39999838563E+02 0.  0.
         12    1    3    3    0    0 -0.28960372518E+02  0.18462557974E+02  0.13274631204E+02  0.36820986637E+02  0.00000000000E+00 0. -1.
         11    1    4    4    0    0  0.18778004962E+01 -0.13842895819E+02  0.87033963051E+01  0.16459070656E+02  0.51100000000E-03 0. -1.
        -11    1    4    4    0    0 -0.14790804560E+00  0.25785899012E+01 -0.29299226640E+01  0.39058225442E+01  0.51100000000E-03 0.  1.
        -12    1    4    4    0    0  0.27230480067E+02 -0.71982520565E+01 -0.19048104846E+02  0.34002120163E+02  0.00000000000E+00 0.  1.
</event>
<event>
 8    1  0.2534787E-006  0.9118800E+02  0.7816164E-02  0.1184000E+00
        -11   -1    0    0    0    0  0.00000000000E+00  0.00000000000E+00  0.45593999997E+02  0.45594000000E+02  0.51100000000E-03 0.  1.
         11   -1    0    0    0    0 -0.00000000000E+00 -0.00000000000E+00 -0.45593999997E+02  0.45594000000E+02  0.51100000000E-03 0. -1.
         23    2    1    2    0    0 -0.35527136788E-14  0.00000000000E+00  0.71054273576E-14  0.91188000000E+02  0.91188000000E+02 0.  0.
    9900012    2    3    3    0    0  0.16328480390E+02 -0.59390634834E+01 -0.32463614274E+02  0.54367109209E+02  0.40000057064E+02 0.  0.
        -12    1    3    3    0    0 -0.16328480390E+02  0.59390634834E+01  0.32463614274E+02  0.36820890791E+02  0.00000000000E+00 0.  1.
         11    1    4    4    0    0  0.16361501117E+01 -0.12023291377E+02 -0.17984165388E+02  0.21694854867E+02  0.51100000000E-03 0. -1.
        -11    1    4    4    0    0  0.72895296955E+01 -0.27918049784E+01  0.55288904317E+01  0.95655657379E+01  0.51100000000E-03 0.  1.
        -12    1    4    4    0    0  0.74028005830E+01  0.88760328724E+01 -0.20008339317E+02  0.23106688604E+02  0.00000000000E+00 0.  1.
</event>
<event>
 8    1  0.2534787E-006  0.9118800E+02  0.7816164E-02  0.1184000E+00
        -11   -1    0    0    0    0  0.00000000000E+00  0.00000000000E+00  0.45593999997E+02  0.45594000000E+02  0.51100000000E-03 0.  1.
         11   -1    0    0    0    0 -0.00000000000E+00 -0.00000000000E+00 -0.45593999997E+02  0.45594000000E+02  0.51100000000E-03 0. -1.
         23    2    1    2    0    0 -0.35527136788E-14 -0.26645352591E-14 -0.35527136788E-14  0.91188000000E+02  0.91188000000E+02 0.  0.
    9900012    2    3    3    0    0  0.18522780756E+02  0.48842264061E+01  0.31445678864E+02  0.54367084833E+02  0.40000001494E+02 0.  0.
         12    1    3    3    0    0 -0.18522780756E+02 -0.48842264061E+01 -0.31445678864E+02  0.36820915167E+02  0.00000000000E+00 0. -1.
         11    1    4    4    0    0  0.55589225196E+01 -0.10236776259E+02  0.14377887881E+01  0.11737139542E+02  0.51100000000E-03 0.  1.
        -11    1    4    4    0    0  0.67690628891E+01 -0.53145877043E+01  0.11554361895E+02  0.14407232001E+02  0.51100000000E-03 0. -1.
        -12    1    4    4    0    0  0.61947953473E+01  0.20435590370E+02  0.18453528181E+02  0.28222713291E+02  0.00000000000E+00 0.  1.
</event>
<event>
 8    1  0.2534787E-006  0.9118800E+02  0.7816164E-02  0.1184000E+00
        -11   -1    0    0    0    0  0.00000000000E+00  0.00000000000E+00  0.45593999997E+02  0.45594000000E+02  0.51100000000E-03 0.  1.
         11   -1    0    0    0    0 -0.00000000000E+00 -0.00000000000E+00 -0.45593999997E+02  0.45594000000E+02  0.51100000000E-03 0. -1.
         23    2    1    2    0    0 -0.35527136788E-14  0.00000000000E+00  0.00000000000E+00  0.91188000000E+02  0.91188000000E+02 0.  0.
    9900012    2    3    3    0    0  0.16213887991E+02  0.30852585545E+02 -0.11874731786E+02  0.54367062294E+02  0.39999950112E+02 0.  0.
        -12    1    3    3    0    0 -0.16213887991E+02 -0.30852585545E+02  0.11874731786E+02  0.36820937706E+02  0.00000000000E+00 0.  1.
         11    1    4    4    0    0  0.15868100901E+02  0.27333056829E+02 -0.15066821106E+01  0.31641155369E+02  0.51100000000E-03 0. -1.
        -11    1    4    4    0    0  0.84110804308E+01  0.32257538934E+01 -0.11465345199E+02  0.14581011727E+02  0.51100000000E-03 0.  1.
        -12    1    4    4    0    0 -0.80652933409E+01  0.29377482206E+00  0.10972955236E+01  0.81448951981E+01  0.00000000000E+00 0.  1.
</event>
<event>
 8    1  0.2534787E-006  0.9118800E+02  0.7816164E-02  0.1184000E+00
        -11   -1    0    0    0    0  0.00000000000E+00  0.00000000000E+00  0.45593999997E+02  0.45594000000E+02  0.51100000000E-03 0.  1.
         11   -1    0    0    0    0 -0.00000000000E+00 -0.00000000000E+00 -0.45593999997E+02  0.45594000000E+02  0.51100000000E-03 0. -1.
         23    2    1    2    0    0  0.17763568394E-14 -0.35527136788E-14  0.00000000000E+00  0.91188000000E+02  0.91188000000E+02 0.  0.
    9900012    2    3    3    0    0 -0.14167864758E+02  0.24654056735E+02  0.23392864593E+02  0.54367122509E+02  0.40000087385E+02 0.  0.
         12    1    3    3    0    0  0.14167864758E+02 -0.24654056735E+02 -0.23392864593E+02  0.36820877491E+02  0.00000000000E+00 0. -1.
         11    1    4    4    0    0  0.11157169897E+02  0.25689059353E+01  0.24678826981E+01  0.11712052045E+02  0.51100000000E-03 0. -1.
        -11    1    4    4    0    0 -0.37995575721E+01 -0.24425513467E+01  0.30019705860E+01  0.54235156942E+01  0.51100000000E-03 0.  1.
        -12    1    4    4    0    0 -0.21525477083E+02  0.24527702147E+02  0.17923011309E+02  0.37231554771E+02  0.00000000000E+00 0.  1.
</event>
<event>
 8    1  0.2534787E-006  0.9118800E+02  0.7816164E-02  0.1184000E+00
        -11   -1    0    0    0    0  0.00000000000E+00  0.00000000000E+00  0.45593999997E+02  0.45594000000E+02  0.51100000000E-03 0. -1.
         11   -1    0    0    0    0 -0.00000000000E+00 -0.00000000000E+00 -0.45593999997E+02  0.45594000000E+02  0.51100000000E-03 0.  1.
         23    2    1    2    0    0  0.00000000000E+00  0.00000000000E+00 -0.35527136788E-14  0.91188000000E+02  0.91188000000E+02 0.  0.
    9900012    2    3    3    0    0  0.26066108721E+02 -0.11967256884E+02  0.23089461487E+02  0.54367075338E+02  0.39999979849E+02 0.  0.
        -12    1    3    3    0    0 -0.26066108721E+02  0.11967256884E+02 -0.23089461487E+02  0.36820924662E+02  0.00000000000E+00 0.  1.
         11    1    4    4    0    0  0.13724058907E+02 -0.13768577510E+01  0.12181405143E+02  0.18401960810E+02  0.51100000000E-03 0. -1.
        -11    1    4    4    0    0  0.15623466059E+00  0.19184100323E+01  0.17271650345E+02  0.17378567611E+02  0.51100000000E-03 0.  1.
         12    1    4    4    0    0  0.12185815154E+02 -0.12508809165E+02 -0.63635940007E+01  0.18586546917E+02  0.00000000000E+00 0. -1.
</event>
<event>
 8    1  0.2534787E-006  0.9118800E+02  0.7816164E-02  0.1184000E+00
        -11   -1    0    0    0    0  0.00000000000E+00  0.00000000000E+00  0.45593999997E+02  0.45594000000E+02  0.51100000000E-03 0.  1.
         11   -1    0    0    0    0 -0.00000000000E+00 -0.00000000000E+00 -0.45593999997E+02  0.45594000000E+02  0.51100000000E-03 0. -1.
         23    2    1    2    0    0 -0.35527136788E-14 -0.17763568394E-14 -0.35527136788E-14  0.91188000000E+02  0.91188000000E+02 0.  0.
    9900012    2    3    3    0    0  0.25517792857E+02  0.15598965499E+02  0.21477909896E+02  0.54366999328E+02  0.39999806568E+02 0.  0.
         12    1    3    3    0    0 -0.25517792857E+02 -0.15598965499E+02 -0.21477909896E+02  0.36821000672E+02  0.00000000000E+00 0. -1.
         11    1    4    4    0    0  0.19703555292E+01 -0.69787651685E+00 -0.15743173257E+01  0.26168316429E+01  0.51100000000E-03 0. -1.
        -11    1    4    4    0    0  0.19030150108E+02  0.79415256486E+01  0.32411764282E+02  0.38415321252E+02  0.51100000000E-03 0.  1.
        -12    1    4    4    0    0  0.45172872199E+01  0.83553163677E+01 -0.93595370597E+01  0.13334846433E+02  0.00000000000E+00 0.  1.
</event>
<event>
 8    1  0.2534787E-006  0.9118800E+02  0.7816164E-02  0.1184000E+00
        -11   -1    0    0    0    0  0.00000000000E+00  0.00000000000E+00  0.45593999997E+02  0.45594000000E+02  0.51100000000E-03 0. -1.
         11   -1    0    0    0    0 -0.00000000000E+00 -0.00000000000E+00 -0.45593999997E+02  0.45594000000E+02  0.51100000000E-03 0.  1.
         23    2    1    2    0    0 -0.35527136788E-14 -0.71054273576E-14  0.88817841970E-15  0.91188000000E+02  0.91188000000E+02 0.  0.
    9900012    2    3    3    0    0  0.20959785834E+02  0.29269598512E+02 -0.77304645185E+01  0.54367053504E+02  0.39999930072E+02 0.  0.
         12    1    3    3    0    0 -0.20959785834E+02 -0.29269598512E+02  0.77304645185E+01  0.36820946496E+02  0.00000000000E+00 0. -1.
         11    1    4    4    0    0 -0.75259581825E+00  0.19179456992E+01  0.19598279938E+01  0.28435615339E+01  0.51100000000E-03 0. -1.
        -11    1    4    4    0    0 -0.98745705753E+01  0.73031067054E+01 -0.67036065410E+01  0.13992171115E+02  0.51100000000E-03 0.  1.
        -12    1    4    4    0    0  0.31586952227E+02  0.20048546107E+02 -0.29866859712E+01  0.37531320855E+02  0.00000000000E+00 0.  1.
</event>
<event>
 8    1  0.2534787E-006  0.9118800E+02  0.7816164E-02  0.1184000E+00
        -11   -1    0    0    0    0  0.00000000000E+00  0.00000000000E+00  0.45593999997E+02  0.45594000000E+02  0.51100000000E-03 0.  1.
         11   -1    0    0    0    0 -0.00000000000E+00 -0.00000000000E+00 -0.45593999997E+02  0.45594000000E+02  0.51100000000E-03 0. -1.
         23    2    1    2    0    0 -0.88817841970E-15  0.35527136788E-14  0.00000000000E+00  0.91188000000E+02  0.91188000000E+02 0.  0.
    9900012    2    3    3    0    0  0.77595740394E+01 -0.23945713918E+02 -0.26873252129E+02  0.54367083603E+02  0.39999998690E+02 0.  0.
        -12    1    3    3    0    0 -0.77595740394E+01  0.23945713918E+02  0.26873252129E+02  0.36820916397E+02  0.00000000000E+00 0.  1.
         11    1    4    4    0    0  0.13186680996E+02 -0.23664795419E+02 -0.31687976944E+02  0.41689794686E+02  0.51100000000E-03 0. -1.
        -11    1    4    4    0    0 -0.77730275164E+01 -0.27988086689E+01  0.37678589602E+01  0.90802008866E+01  0.51100000000E-03 0.  1.
         12    1    4    4    0    0  0.23459205600E+01  0.25178901692E+01  0.10468658552E+01  0.35970880302E+01  0.00000000000E+00 0. -1.
</event>
<event>
 8    1  0.2534787E-006  0.9118800E+02  0.7816164E-02  0.1184000E+00
        -11   -1    0    0    0    0  0.00000000000E+00  0.00000000000E+00  0.45593999997E+02  0.45594000000E+02  0.51100000000E-03 0.  1.
         11   -1    0    0    0    0 -0.00000000000E+00 -0.00000000000E+00 -0.45593999997E+02  0.45594000000E+02  0.51100000000E-03 0. -1.
         23    2    1    2    0    0 -0.35527136788E-14 -0.17763568394E-14  0.00000000000E+00  0.91188000000E+02  0.91188000000E+02 0.  0.
    9900012    2    3    3    0    0  0.21532622044E+02  0.10355726365E+02  0.28015824364E+02  0.54367064441E+02  0.39999955006E+02 0.  0.
         12    1    3    3    0    0 -0.21532622044E+02 -0.10355726365E+02 -0.28015824364E+02  0.36820935559E+02  0.00000000000E+00 0. -1.
         11    1    4    4    0    0  0.69418529581E+01 -0.57365525628E+01  0.26837693092E+02  0.28308287277E+02  0.51100000000E-03 0. -1.
        -11    1    4    4    0    0 -0.24487128854E+01  0.63406039383E+00  0.16977053503E+01  0.30463799986E+01  0.51100000000E-03 0.  1.
         12    1    4    4    0    0  0.17039481972E+02  0.15458218534E+02 -0.51957407794E+00  0.23012397166E+02  0.00000000000E+00 0. -1.
</event>
<event>
 8    1  0.2534787E-006  0.9118800E+02  0.7816164E-02  0.1184000E+00
        -11   -1    0    0    0    0  0.00000000000E+00  0.00000000000E+00  0.45593999997E+02  0.45594000000E+02  0.51100000000E-03 0.  1.
         11   -1    0    0    0    0 -0.00000000000E+00 -0.00000000000E+00 -0.45593999997E+02  0.45594000000E+02  0.51100000000E-03 0. -1.
         23    2    1    2    0    0  0.00000000000E+00  0.00000000000E+00  0.00000000000E+00  0.91188000000E+02  0.91188000000E+02 0.  0.
    9900012    2    3    3    0    0 -0.28141533631E+02  0.17018649785E+02 -0.16559047825E+02  0.54367049164E+02  0.39999920179E+02 0.  0.
        -12    1    3    3    0    0  0.28141533631E+02 -0.17018649785E+02  0.16559047825E+02  0.36820950836E+02  0.00000000000E+00 0.  1.
         11    1    4    4    0    0 -0.21079483412E+02 -0.22061900288E+01 -0.41354699450E+01  0.21594304974E+02  0.51100000000E-03 0. -1.
        -11    1    4    4    0    0 -0.14840189028E+02  0.15178281680E+02 -0.65338901502E+01  0.22210429215E+02  0.51100000000E-03 0.  1.
        -12    1    4    4    0    0  0.77781388101E+01  0.40465581346E+01 -0.58896877300E+01  0.10562314976E+02  0.00000000000E+00 0.  1.
</event>
<event>
 8    1  0.2534787E-006  0.9118800E+02  0.7816164E-02  0.1184000E+00
        -11   -1    0    0    0    0  0.00000000000E+00  0.00000000000E+00  0.45593999997E+02  0.45594000000E+02  0.51100000000E-03 0. -1.
         11   -1    0    0    0    0 -0.00000000000E+00 -0.00000000000E+00 -0.45593999997E+02  0.45594000000E+02  0.51100000000E-03 0.  1.
         23    2    1    2    0    0  0.00000000000E+00  0.00000000000E+00 -0.17121720708E-14  0.91188000000E+02  0.91188000000E+02 0.  0.
    9900012    2    3    3    0    0  0.33143479259E+02 -0.16040245276E+02 -0.98126225613E-02  0.54367084989E+02  0.40000001850E+02 0.  0.
        -12    1    3    3    0    0 -0.33143479259E+02  0.16040245276E+02  0.98126225613E-02  0.36820915011E+02  0.00000000000E+00 0.  1.
         11    1    4    4    0    0  0.20419046109E+02 -0.61689271482E+01 -0.68553614995E+01  0.22405112982E+02  0.51100000000E-03 0. -1.
        -11    1    4    4    0    0  0.34006393715E+01 -0.55790379849E+01  0.16576768140E+02  0.17817947559E+02  0.51100000000E-03 0.  1.
         12    1    4    4    0    0  0.93237937786E+01 -0.42922801433E+01 -0.97312192634E+01  0.14144024449E+02  0.00000000000E+00 0. -1.
</event>
<event>
 8    1  0.2534787E-006  0.9118800E+02  0.7816164E-02  0.1184000E+00
        -11   -1    0    0    0    0  0.00000000000E+00  0.00000000000E+00  0.45593999997E+02  0.45594000000E+02  0.51100000000E-03 0.  1.
         11   -1    0    0    0    0 -0.00000000000E+00 -0.00000000000E+00 -0.45593999997E+02  0.45594000000E+02  0.51100000000E-03 0. -1.
         23    2    1    2    0    0  0.00000000000E+00  0.00000000000E+00  0.11102230246E-14  0.91188000000E+02  0.91188000000E+02 0.  0.
    9900012    2    3    3    0    0 -0.20091260955E+02 -0.30801105218E+02  0.18468952910E+01  0.54367110934E+02  0.40000060995E+02 0.  0.
         12    1    3    3    0    0  0.20091260955E+02  0.30801105218E+02 -0.18468952910E+01  0.36820889066E+02  0.00000000000E+00 0. -1.
         11    1    4    4    0    0 -0.31278343791E+01 -0.18140516759E+02 -0.11077703770E+02  0.21484348193E+02  0.51100000000E-03 0. -1.
        -11    1    4    4    0    0 -0.50676898882E+01 -0.65532167843E+01  0.16993764841E+02  0.18905400677E+02  0.51100000000E-03 0.  1.
        -12    1    4    4    0    0 -0.11895736688E+02 -0.61073716749E+01 -0.40691657795E+01  0.13977362064E+02  0.00000000000E+00 0.  1.
</event>
<event>
 8    1  0.2534787E-006  0.9118800E+02  0.7816164E-02  0.1184000E+00
        -11   -1    0    0    0    0  0.00000000000E+00  0.00000000000E+00  0.45593999997E+02  0.45594000000E+02  0.51100000000E-03 0. -1.
         11   -1    0    0    0    0 -0.00000000000E+00 -0.00000000000E+00 -0.45593999997E+02  0.45594000000E+02  0.51100000000E-03 0.  1.
         23    2    1    2    0    0  0.00000000000E+00  0.00000000000E+00  0.44408920985E-15  0.91188000000E+02  0.91188000000E+02 0.  0.
    9900012    2    3    3    0    0 -0.36372486031E+02 -0.51975248111E+01  0.24100856011E+01  0.54367075014E+02  0.39999979110E+02 0.  0.
        -12    1    3    3    0    0  0.36372486031E+02  0.51975248111E+01 -0.24100856011E+01  0.36820924986E+02  0.00000000000E+00 0.  1.
         11    1    4    4    0    0 -0.26643110752E+02  0.29297401509E+01  0.91868050998E+01  0.28334362814E+02  0.51100000000E-03 0. -1.
        -11    1    4    4    0    0 -0.84003272954E+01 -0.10278610983E+01 -0.13651046471E+02  0.16061539998E+02  0.51100000000E-03 0.  1.
         12    1    4    4    0    0 -0.13290479834E+01 -0.70994038637E+01  0.68743269720E+01  0.99711722019E+01  0.00000000000E+00 0. -1.
</event>
<event>
 8    1  0.2534787E-006  0.9118800E+02  0.7816164E-02  0.1184000E+00
        -11   -1    0    0    0    0  0.00000000000E+00  0.00000000000E+00  0.45593999997E+02  0.45594000000E+02  0.51100000000E-03 0.  1.
         11   -1    0    0    0    0 -0.00000000000E+00 -0.00000000000E+00 -0.45593999997E+02  0.45594000000E+02  0.51100000000E-03 0. -1.
         23    2    1    2    0    0  0.00000000000E+00  0.00000000000E+00  0.00000000000E+00  0.91188000000E+02  0.91188000000E+02 0.  0.
    9900012    2    3    3    0    0  0.16649311896E+02 -0.10719769008E+02  0.31042986542E+02  0.54367081385E+02  0.39999993633E+02 0.  0.
         12    1    3    3    0    0 -0.16649311896E+02  0.10719769008E+02 -0.31042986542E+02  0.36820918615E+02  0.00000000000E+00 0. -1.
         11    1    4    4    0    0  0.14851217769E+02  0.10716183927E+02  0.61507668342E+01  0.19319089008E+02  0.51100000000E-03 0. -1.
        -11    1    4    4    0    0  0.47264013665E+01 -0.12909657088E+02  0.80138315453E+01  0.15912875677E+02  0.51100000000E-03 0.  1.
        -12    1    4    4    0    0 -0.29283072399E+01 -0.85262958469E+01  0.16878388163E+02  0.19135116700E+02  0.00000000000E+00 0.  1.
</event>
<event>
 8    1  0.2534787E-006  0.9118800E+02  0.7816164E-02  0.1184000E+00
        -11   -1    0    0    0    0  0.00000000000E+00  0.00000000000E+00  0.45593999997E+02  0.45594000000E+02  0.51100000000E-03 0. -1.
         11   -1    0    0    0    0 -0.00000000000E+00 -0.00000000000E+00 -0.45593999997E+02  0.45594000000E+02  0.51100000000E-03 0.  1.
         23    2    1    2    0    0 -0.17763568394E-14  0.00000000000E+00 -0.44408920985E-15  0.91188000000E+02  0.91188000000E+02 0.  0.
    9900012    2    3    3    0    0 -0.94691120728E+01  0.35372375863E+02 -0.38615184310E+01  0.54367076841E+02  0.39999983275E+02 0.  0.
         12    1    3    3    0    0  0.94691120728E+01 -0.35372375863E+02  0.38615184310E+01  0.36820923159E+02  0.00000000000E+00 0. -1.
         11    1    4    4    0    0 -0.85942667152E+01  0.99794100885E+01 -0.11543310319E+02  0.17512797020E+02  0.51100000000E-03 0. -1.
        -11    1    4    4    0    0  0.10616720018E+02  0.17000818966E+02 -0.12013112448E+01  0.20079485512E+02  0.51100000000E-03 0.  1.
         12    1    4    4    0    0 -0.11491565375E+02  0.83921468088E+01  0.88831031331E+01  0.16774794309E+02  0.00000000000E+00 0. -1.
</event>
<event>
 8    1  0.2534787E-006  0.9118800E+02  0.7816164E-02  0.1184000E+00
        -11   -1    0    0    0    0  0.00000000000E+00  0.00000000000E+00  0.45593999997E+02  0.45594000000E+02  0.51100000000E-03 0. -1.
         11   -1    0    0    0    0 -0.00000000000E+00 -0.00000000000E+00 -0.45593999997E+02  0.45594000000E+02  0.51100000000E-03 0.  1.
         23    2    1    2    0    0 -0.35527136788E-14  0.35527136788E-14  0.00000000000E+00  0.91188000000E+02  0.91188000000E+02 0.  0.
    9900012    2    3    3    0    0  0.26269559871E+02  0.25593695912E+02 -0.32640135398E+01  0.54367070752E+02  0.39999969393E+02 0.  0.
         12    1    3    3    0    0 -0.26269559871E+02 -0.25593695912E+02  0.32640135398E+01  0.36820929248E+02  0.00000000000E+00 0. -1.
         11    1    4    4    0    0  0.55452376000E+01 -0.22629872238E+01  0.25274983954E+01  0.65006937796E+01  0.51100000000E-03 0.  1.
        -11    1    4    4    0    0  0.53518372750E+01  0.68130443668E+00  0.11119125247E+02  0.12358854497E+02  0.51100000000E-03 0. -1.
        -12    1    4    4    0    0  0.15372484996E+02  0.27175378700E+02 -0.16910637183E+02  0.35507522475E+02  0.00000000000E+00 0.  1.
</event>
<event>
 8    1  0.2534787E-006  0.9118800E+02  0.7816164E-02  0.1184000E+00
        -11   -1    0    0    0    0  0.00000000000E+00  0.00000000000E+00  0.45593999997E+02  0.45594000000E+02  0.51100000000E-03 0. -1.
         11   -1    0    0    0    0 -0.00000000000E+00 -0.00000000000E+00 -0.45593999997E+02  0.45594000000E+02  0.51100000000E-03 0.  1.
         23    2    1    2    0    0 -0.88817841970E-15 -0.35527136788E-14 -0.35527136788E-14  0.91188000000E+02  0.91188000000E+02 0.  0.
    9900012    2    3    3    0    0 -0.44369355351E+01 -0.28842521415E+02  0.22454423077E+02  0.54367101664E+02  0.40000039865E+02 0.  0.
        -12    1    3    3    0    0  0.44369355351E+01  0.28842521415E+02 -0.22454423077E+02  0.36820898336E+02  0.00000000000E+00 0.  1.
         11    1    4    4    0    0  0.17610323417E+01 -0.32020067910E+02  0.23190386465E+02  0.39574992211E+02  0.51100000000E-03 0. -1.
        -11    1    4    4    0    0  0.13139864837E+00  0.63438913995E+01  0.27349915284E+01  0.69095877312E+01  0.51100000000E-03 0.  1.
         12    1    4    4    0    0 -0.63293665252E+01 -0.31663449048E+01 -0.34709549166E+01  0.78825217221E+01  0.00000000000E+00 0. -1.
</event>
<event>
 8    1  0.2534787E-006  0.9118800E+02  0.7816164E-02  0.1184000E+00
        -11   -1    0    0    0    0  0.00000000000E+00  0.00000000000E+00  0.45593999997E+02  0.45594000000E+02  0.51100000000E-03 0.  1.
         11   -1    0    0    0    0 -0.00000000000E+00 -0.00000000000E+00 -0.45593999997E+02  0.45594000000E+02  0.51100000000E-03 0. -1.
         23    2    1    2    0    0 -0.71054273576E-14 -0.35527136788E-14  0.35527136788E-14  0.91188000000E+02  0.91188000000E+02 0.  0.
    9900012    2    3    3    0    0  0.19024086802E+02  0.18264001707E+02 -0.25696117736E+02  0.54367080624E+02  0.39999991898E+02 0.  0.
        -12    1    3    3    0    0 -0.19024086802E+02 -0.18264001707E+02  0.25696117736E+02  0.36820919376E+02  0.00000000000E+00 0.  1.
         11    1    4    4    0    0  0.15714711805E+01  0.13795605298E+02  0.61359952588E+01  0.15180207024E+02  0.51100000000E-03 0. -1.
        -11    1    4    4    0    0  0.14443155249E+02  0.35224376372E+01 -0.11999626019E+02  0.19105060202E+02  0.51100000000E-03 0.  1.
         12    1    4    4    0    0  0.30094603724E+01  0.94595877232E+00 -0.19832486975E+02  0.20081813398E+02  0.00000000000E+00 0. -1.
</event>
<event>
 8    1  0.2534787E-006  0.9118800E+02  0.7816164E-02  0.1184000E+00
        -11   -1    0    0    0    0  0.00000000000E+00  0.00000000000E+00  0.45593999997E+02  0.45594000000E+02  0.51100000000E-03 0.  1.
         11   -1    0    0    0    0 -0.00000000000E+00 -0.00000000000E+00 -0.45593999997E+02  0.45594000000E+02  0.51100000000E-03 0. -1.
         23    2    1    2    0    0  0.00000000000E+00  0.44408920985E-15  0.00000000000E+00  0.91188000000E+02  0.91188000000E+02 0.  0.
    9900012    2    3    3    0    0 -0.35530048487E+02 -0.37336118511E+01 -0.89137558142E+01  0.54367092275E+02  0.40000018460E+02 0.  0.
        -12    1    3    3    0    0  0.35530048487E+02  0.37336118511E+01  0.89137558142E+01  0.36820907725E+02  0.00000000000E+00 0.  1.
         11    1    4    4    0    0 -0.56481498313E+00  0.17816703029E+01 -0.13563754765E+01  0.23093548293E+01  0.51100000000E-03 0. -1.
        -11    1    4    4    0    0  0.37601272071E+00  0.12030151412E+02 -0.12660894338E+01  0.12102434106E+02  0.51100000000E-03 0.  1.
         12    1    4    4    0    0 -0.35341246225E+02 -0.17545433566E+02 -0.62912909040E+01  0.39955303340E+02  0.00000000000E+00 0. -1.
</event>
<event>
 8    1  0.2534787E-006  0.9118800E+02  0.7816164E-02  0.1184000E+00
        -11   -1    0    0    0    0  0.00000000000E+00  0.00000000000E+00  0.45593999997E+02  0.45594000000E+02  0.51100000000E-03 0.  1.
         11   -1    0    0    0    0 -0.00000000000E+00 -0.00000000000E+00 -0.45593999997E+02  0.45594000000E+02  0.51100000000E-03 0. -1.
         23    2    1    2    0    0  0.00000000000E+00  0.44408920985E-15  0.00000000000E+00  0.91188000000E+02  0.91188000000E+02 0.  0.
    9900012    2    3    3    0    0 -0.89689150163E+01 -0.20620453484E+01  0.35652312917E+02  0.54367070029E+02  0.39999967746E+02 0.  0.
         12    1    3    3    0    0  0.89689150163E+01  0.20620453484E+01 -0.35652312917E+02  0.36820929971E+02  0.00000000000E+00 0. -1.
         11    1    4    4    0    0 -0.73833585218E+01 -0.51022456010E+01  0.91049535406E+01  0.12784642055E+02  0.51100000000E-03 0. -1.
        -11    1    4    4    0    0 -0.15810789500E+02  0.58114394681E+01  0.18441907844E+02  0.24977146724E+02  0.51100000000E-03 0.  1.
         12    1    4    4    0    0  0.14225233006E+02 -0.27712392155E+01  0.81054515324E+01  0.16605281250E+02  0.00000000000E+00 0. -1.
</event>
<event>
 8    1  0.2534787E-006  0.9118800E+02  0.7816164E-02  0.1184000E+00
        -11   -1    0    0    0    0  0.00000000000E+00  0.00000000000E+00  0.45593999997E+02  0.45594000000E+02  0.51100000000E-03 0.  1.
         11   -1    0    0    0    0 -0.00000000000E+00 -0.00000000000E+00 -0.45593999997E+02  0.45594000000E+02  0.51100000000E-03 0. -1.
         23    2    1    2    0    0 -0.35527136788E-14  0.88817841970E-15 -0.35527136788E-14  0.91188000000E+02  0.91188000000E+02 0.  0.
    9900012    2    3    3    0    0  0.28891184810E+02 -0.63331331880E+01  0.21931036511E+02  0.54367088847E+02  0.40000010645E+02 0.  0.
         12    1    3    3    0    0 -0.28891184810E+02  0.63331331880E+01 -0.21931036511E+02  0.36820911153E+02  0.00000000000E+00 0. -1.
         11    1    4    4    0    0  0.22761065363E+00 -0.75455094706E+01  0.18895310994E+02  0.20347464156E+02  0.51100000000E-03 0. -1.
        -11    1    4    4    0    0  0.61236795233E+00  0.24939303454E+01 -0.42894860183E+01  0.49994373323E+01  0.51100000000E-03 0.  1.
        -12    1    4    4    0    0  0.28051206204E+02 -0.12815540628E+01  0.73252115351E+01  0.29020187359E+02  0.00000000000E+00 0.  1.
</event>
<event>
 8    1  0.2534787E-006  0.9118800E+02  0.7816164E-02  0.1184000E+00
        -11   -1    0    0    0    0  0.00000000000E+00  0.00000000000E+00  0.45593999997E+02  0.45594000000E+02  0.51100000000E-03 0.  1.
         11   -1    0    0    0    0 -0.00000000000E+00 -0.00000000000E+00 -0.45593999997E+02  0.45594000000E+02  0.51100000000E-03 0. -1.
         23    2    1    2    0    0  0.00000000000E+00 -0.71054273576E-14  0.11102230246E-15  0.91188000000E+02  0.91188000000E+02 0.  0.
    9900012    2    3    3    0    0 -0.99880672635E+01  0.35432408126E+02  0.75099223860E+00  0.54367068146E+02  0.39999963453E+02 0.  0.
         12    1    3    3    0    0  0.99880672635E+01 -0.35432408126E+02 -0.75099223860E+00  0.36820931854E+02  0.00000000000E+00 0. -1.
         11    1    4    4    0    0  0.29460313787E+00  0.85860848996E+01 -0.53440258118E+01  0.10117621116E+02  0.51100000000E-03 0. -1.
        -11    1    4    4    0    0 -0.44190266782E+01 -0.76500258137E+01  0.13936084768E+01  0.89438714537E+01  0.51100000000E-03 0.  1.
        -12    1    4    4    0    0 -0.58636437232E+01  0.34496349040E+02  0.47014095736E+01  0.35305575576E+02  0.00000000000E+00 0.  1.
</event>
<event>
 8    1  0.2534787E-006  0.9118800E+02  0.7816164E-02  0.1184000E+00
        -11   -1    0    0    0    0  0.00000000000E+00  0.00000000000E+00  0.45593999997E+02  0.45594000000E+02  0.51100000000E-03 0.  1.
         11   -1    0    0    0    0 -0.00000000000E+00 -0.00000000000E+00 -0.45593999997E+02  0.45594000000E+02  0.51100000000E-03 0. -1.
         23    2    1    2    0    0  0.00000000000E+00  0.00000000000E+00  0.00000000000E+00  0.91188000000E+02  0.91188000000E+02 0.  0.
    9900012    2    3    3    0    0  0.11391645053E+02 -0.23339674009E+02  0.26101143985E+02  0.54367086416E+02  0.40000005102E+02 0.  0.
         12    1    3    3    0    0 -0.11391645053E+02  0.23339674009E+02 -0.26101143985E+02  0.36820913584E+02  0.00000000000E+00 0. -1.
         11    1    4    4    0    0  0.45703826882E+01 -0.13812324221E+02  0.87116185596E+01  0.16957623551E+02  0.51100000000E-03 0. -1.
        -11    1    4    4    0    0  0.13667429759E+02 -0.14198048015E+02  0.18449868723E+01  0.19793614639E+02  0.51100000000E-03 0.  1.
         12    1    4    4    0    0 -0.68461673943E+01  0.46706982263E+01  0.15544538553E+02  0.17615848226E+02  0.00000000000E+00 0. -1.
</event>
<event>
 8    1  0.2534787E-006  0.9118800E+02  0.7816164E-02  0.1184000E+00
        -11   -1    0    0    0    0  0.00000000000E+00  0.00000000000E+00  0.45593999997E+02  0.45594000000E+02  0.51100000000E-03 0.  1.
         11   -1    0    0    0    0 -0.00000000000E+00 -0.00000000000E+00 -0.45593999997E+02  0.45594000000E+02  0.51100000000E-03 0. -1.
         23    2    1    2    0    0  0.00000000000E+00  0.00000000000E+00  0.26645352591E-14  0.91188000000E+02  0.91188000000E+02 0.  0.
    9900012    2    3    3    0    0  0.22374895811E+02  0.29167101200E+02  0.21033592700E+01  0.54367083727E+02  0.39999998971E+02 0.  0.
        -12    1    3    3    0    0 -0.22374895811E+02 -0.29167101200E+02 -0.21033592700E+01  0.36820916273E+02  0.00000000000E+00 0.  1.
         11    1    4    4    0    0  0.29644655336E+01  0.22040795971E+01  0.11475147291E+01  0.38681795569E+01  0.51100000000E-03 0. -1.
        -11    1    4    4    0    0 -0.51341882772E+01  0.15135300785E+02 -0.12330596553E+02  0.20186154431E+02  0.51100000000E-03 0.  1.
        -12    1    4    4    0    0  0.24544618555E+02  0.11827720818E+02  0.13286441094E+02  0.30312749738E+02  0.00000000000E+00 0.  1.
</event>
<event>
 8    1  0.2534787E-006  0.9118800E+02  0.7816164E-02  0.1184000E+00
        -11   -1    0    0    0    0  0.00000000000E+00  0.00000000000E+00  0.45593999997E+02  0.45594000000E+02  0.51100000000E-03 0.  1.
         11   -1    0    0    0    0 -0.00000000000E+00 -0.00000000000E+00 -0.45593999997E+02  0.45594000000E+02  0.51100000000E-03 0. -1.
         23    2    1    2    0    0  0.00000000000E+00  0.00000000000E+00  0.00000000000E+00  0.91188000000E+02  0.91188000000E+02 0.  0.
    9900012    2    3    3    0    0  0.17498348300E+02 -0.49658043808E+01  0.32014498136E+02  0.54367088859E+02  0.40000010671E+02 0.  0.
         12    1    3    3    0    0 -0.17498348300E+02  0.49658043808E+01 -0.32014498136E+02  0.36820911141E+02  0.00000000000E+00 0. -1.
         11    1    4    4    0    0 -0.94414454982E+00 -0.73044850405E+01 -0.50817589336E+01  0.89482503741E+01  0.51100000000E-03 0. -1.
        -11    1    4    4    0    0  0.61507472523E+01 -0.23165765900E+01  0.56708713002E+00  0.65969543680E+01  0.51100000000E-03 0.  1.
        -12    1    4    4    0    0  0.12291745598E+02  0.46552572496E+01  0.36529169939E+02  0.38821884117E+02  0.00000000000E+00 0.  1.
</event>
<event>
 8    1  0.2534787E-006  0.9118800E+02  0.7816164E-02  0.1184000E+00
        -11   -1    0    0    0    0  0.00000000000E+00  0.00000000000E+00  0.45593999997E+02  0.45594000000E+02  0.51100000000E-03 0.  1.
         11   -1    0    0    0    0 -0.00000000000E+00 -0.00000000000E+00 -0.45593999997E+02  0.45594000000E+02  0.51100000000E-03 0. -1.
         23    2    1    2    0    0  0.71054273576E-14  0.00000000000E+00  0.17763568394E-14  0.91188000000E+02  0.91188000000E+02 0.  0.
    9900012    2    3    3    0    0 -0.32737647306E+02  0.53787741087E+01 -0.15971711276E+02  0.54367077644E+02  0.39999985106E+02 0.  0.
        -12    1    3    3    0    0  0.32737647306E+02 -0.53787741087E+01  0.15971711276E+02  0.36820922356E+02  0.00000000000E+00 0.  1.
         11    1    4    4    0    0 -0.12326047467E+02  0.46989974381E+01  0.35489406611E+01  0.13660417386E+02  0.51100000000E-03 0. -1.
        -11    1    4    4    0    0 -0.39548155753E+01 -0.32119338641E+01  0.73586700698E+01  0.89502575851E+01  0.51100000000E-03 0.  1.
         12    1    4    4    0    0 -0.16456784263E+02  0.38917105348E+01 -0.26879322007E+02  0.31756402673E+02  0.00000000000E+00 0. -1.
</event>
<event>
 8    1  0.2534787E-006  0.9118800E+02  0.7816164E-02  0.1184000E+00
        -11   -1    0    0    0    0  0.00000000000E+00  0.00000000000E+00  0.45593999997E+02  0.45594000000E+02  0.51100000000E-03 0.  1.
         11   -1    0    0    0    0 -0.00000000000E+00 -0.00000000000E+00 -0.45593999997E+02  0.45594000000E+02  0.51100000000E-03 0. -1.
         23    2    1    2    0    0  0.00000000000E+00  0.00000000000E+00  0.00000000000E+00  0.91188000000E+02  0.91188000000E+02 0.  0.
    9900012    2    3    3    0    0  0.17615903890E+02  0.63743971806E+01 -0.31698986546E+02  0.54367098907E+02  0.40000033578E+02 0.  0.
        -12    1    3    3    0    0 -0.17615903890E+02 -0.63743971806E+01  0.31698986546E+02  0.36820901093E+02  0.00000000000E+00 0.  1.
         11    1    4    4    0    0  0.10537223940E+02 -0.66060944225E+00 -0.59563029027E+01  0.12122171329E+02  0.51100000000E-03 0. -1.
        -11    1    4    4    0    0  0.86972209367E+00  0.91200713431E+01 -0.31940025496E+02  0.33227960316E+02  0.51100000000E-03 0.  1.
        -12    1    4    4    0    0  0.62089578563E+01 -0.20850647203E+01  0.61973418530E+01  0.90169672613E+01  0.00000000000E+00 0.  1.
</event>
<event>
 8    1  0.2534787E-006  0.9118800E+02  0.7816164E-02  0.1184000E+00
        -11   -1    0    0    0    0  0.00000000000E+00  0.00000000000E+00  0.45593999997E+02  0.45594000000E+02  0.51100000000E-03 0.  1.
         11   -1    0    0    0    0 -0.00000000000E+00 -0.00000000000E+00 -0.45593999997E+02  0.45594000000E+02  0.51100000000E-03 0. -1.
         23    2    1    2    0    0 -0.35527136788E-14  0.00000000000E+00  0.35527136788E-14  0.91188000000E+02  0.91188000000E+02 0.  0.
    9900012    2    3    3    0    0 -0.23009620774E+02 -0.19938064819E+02  0.20707762485E+02  0.54367075189E+02  0.39999979508E+02 0.  0.
         12    1    3    3    0    0  0.23009620774E+02  0.19938064819E+02 -0.20707762485E+02  0.36820924811E+02  0.00000000000E+00 0. -1.
         11    1    4    4    0    0 -0.15993223148E+02  0.51233759480E+01  0.67558067133E+00  0.16807396505E+02  0.51100000000E-03 0.  1.
        -11    1    4    4    0    0  0.29136602151E+01 -0.12883500571E+02  0.15481699041E+01  0.13299279421E+02  0.51100000000E-03 0. -1.
        -12    1    4    4    0    0 -0.99300578407E+01 -0.12177940196E+02  0.18484011909E+02  0.24260399263E+02  0.00000000000E+00 0.  1.
</event>
<event>
 8    1  0.2534787E-006  0.9118800E+02  0.7816164E-02  0.1184000E+00
        -11   -1    0    0    0    0  0.00000000000E+00  0.00000000000E+00  0.45593999997E+02  0.45594000000E+02  0.51100000000E-03 0. -1.
         11   -1    0    0    0    0 -0.00000000000E+00 -0.00000000000E+00 -0.45593999997E+02  0.45594000000E+02  0.51100000000E-03 0.  1.
         23    2    1    2    0    0  0.00000000000E+00  0.00000000000E+00 -0.35527136788E-14  0.91188000000E+02  0.91188000000E+02 0.  0.
    9900012    2    3    3    0    0 -0.60216132549E+01  0.27575746215E+02  0.23645244316E+02  0.54367093109E+02  0.40000020362E+02 0.  0.
        -12    1    3    3    0    0  0.60216132549E+01 -0.27575746215E+02 -0.23645244316E+02  0.36820906891E+02  0.00000000000E+00 0.  1.
         11    1    4    4    0    0 -0.16046944584E+02  0.37150886266E+01  0.97471512858E+01  0.19139312225E+02  0.51100000000E-03 0. -1.
        -11    1    4    4    0    0  0.67643291587E+01  0.17547232428E+02 -0.88377993541E+00  0.18826645535E+02  0.51100000000E-03 0.  1.
        -12    1    4    4    0    0  0.32610021704E+01  0.63134251602E+01  0.14781872965E+02  0.16401135350E+02  0.00000000000E+00 0.  1.
</event>
<event>
 8    1  0.2534787E-006  0.9118800E+02  0.7816164E-02  0.1184000E+00
        -11   -1    0    0    0    0  0.00000000000E+00  0.00000000000E+00  0.45593999997E+02  0.45594000000E+02  0.51100000000E-03 0.  1.
         11   -1    0    0    0    0 -0.00000000000E+00 -0.00000000000E+00 -0.45593999997E+02  0.45594000000E+02  0.51100000000E-03 0. -1.
         23    2    1    2    0    0  0.00000000000E+00  0.00000000000E+00  0.26645352591E-14  0.91188000000E+02  0.91188000000E+02 0.  0.
    9900012    2    3    3    0    0  0.32469984751E+02 -0.16256714985E+02  0.60991582311E+01  0.54367076289E+02  0.39999982015E+02 0.  0.
         12    1    3    3    0    0 -0.32469984751E+02  0.16256714985E+02 -0.60991582311E+01  0.36820923711E+02  0.00000000000E+00 0. -1.
         11    1    4    4    0    0  0.76236149545E+01 -0.11801862981E+01 -0.35616267247E+01  0.84969129606E+01  0.51100000000E-03 0. -1.
        -11    1    4    4    0    0  0.10626865368E+02 -0.12502718261E+02  0.21599777462E+02  0.27125608162E+02  0.51100000000E-03 0.  1.
        -12    1    4    4    0    0  0.14219504428E+02 -0.25738104257E+01 -0.11938992507E+02  0.18744555166E+02  0.00000000000E+00 0.  1.
</event>
<event>
 8    1  0.2534787E-006  0.9118800E+02  0.7816164E-02  0.1184000E+00
        -11   -1    0    0    0    0  0.00000000000E+00  0.00000000000E+00  0.45593999997E+02  0.45594000000E+02  0.51100000000E-03 0. -1.
         11   -1    0    0    0    0 -0.00000000000E+00 -0.00000000000E+00 -0.45593999997E+02  0.45594000000E+02  0.51100000000E-03 0.  1.
         23    2    1    2    0    0  0.00000000000E+00  0.00000000000E+00  0.00000000000E+00  0.91188000000E+02  0.91188000000E+02 0.  0.
    9900012    2    3    3    0    0  0.17079224335E+02  0.57188018785E+01  0.32115027928E+02  0.54367087224E+02  0.40000006945E+02 0.  0.
        -12    1    3    3    0    0 -0.17079224335E+02 -0.57188018785E+01 -0.32115027928E+02  0.36820912776E+02  0.00000000000E+00 0.  1.
         11    1    4    4    0    0  0.14099073264E+02  0.15912391110E+02  0.45901980689E+01  0.21749896006E+02  0.51100000000E-03 0. -1.
        -11    1    4    4    0    0 -0.71268386164E+00 -0.12829344403E+02  0.18618717425E+02  0.22622038699E+02  0.51100000000E-03 0.  1.
         12    1    4    4    0    0  0.36928349330E+01  0.26357551720E+01  0.89061124348E+01  0.99951525186E+01  0.00000000000E+00 0. -1.
</event>
<event>
 8    1  0.2534787E-006  0.9118800E+02  0.7816164E-02  0.1184000E+00
        -11   -1    0    0    0    0  0.00000000000E+00  0.00000000000E+00  0.45593999997E+02  0.45594000000E+02  0.51100000000E-03 0. -1.
         11   -1    0    0    0    0 -0.00000000000E+00 -0.00000000000E+00 -0.45593999997E+02  0.45594000000E+02  0.51100000000E-03 0.  1.
         23    2    1    2    0    0  0.17763568394E-14  0.00000000000E+00  0.00000000000E+00  0.91188000000E+02  0.91188000000E+02 0.  0.
    9900012    2    3    3    0    0 -0.10052747992E+02  0.35373249431E+02 -0.18588174163E+01  0.54367085839E+02  0.40000003787E+02 0.  0.
        -12    1    3    3    0    0  0.10052747992E+02 -0.35373249431E+02  0.18588174163E+01  0.36820914161E+02  0.00000000000E+00 0.  1.
         11    1    4    4    0    0  0.26144952693E+01  0.44536218411E+01 -0.26149211652E+01  0.57886221140E+01  0.51100000000E-03 0.  1.
        -11    1    4    4    0    0  0.11618436424E+02  0.15522714496E+02 -0.28518110652E+01  0.19597845721E+02  0.51100000000E-03 0. -1.
         12    1    4    4    0    0 -0.24285679686E+02  0.15396913093E+02  0.36079148141E+01  0.28980618004E+02  0.00000000000E+00 0. -1.
</event>
<event>
 8    1  0.2534787E-006  0.9118800E+02  0.7816164E-02  0.1184000E+00
        -11   -1    0    0    0    0  0.00000000000E+00  0.00000000000E+00  0.45593999997E+02  0.45594000000E+02  0.51100000000E-03 0.  1.
         11   -1    0    0    0    0 -0.00000000000E+00 -0.00000000000E+00 -0.45593999997E+02  0.45594000000E+02  0.51100000000E-03 0. -1.
         23    2    1    2    0    0 -0.35527136788E-14  0.35527136788E-14  0.35527136788E-14  0.91188000000E+02  0.91188000000E+02 0.  0.
    9900012    2    3    3    0    0 -0.18704718269E+02  0.21175505218E+02  0.23611689104E+02  0.54367077020E+02  0.39999983683E+02 0.  0.
         12    1    3    3    0    0  0.18704718269E+02 -0.21175505218E+02 -0.23611689104E+02  0.36820922980E+02  0.00000000000E+00 0. -1.
         11    1    4    4    0    0  0.73396381073E+01  0.18583968120E+02  0.10343300751E+02  0.22499289529E+02  0.51100000000E-03 0. -1.
        -11    1    4    4    0    0 -0.16106482180E+02 -0.22184091728E+01  0.13011664355E+02  0.20824109034E+02  0.51100000000E-03 0.  1.
         12    1    4    4    0    0 -0.99378741957E+01  0.48099462711E+01  0.25672399729E+00  0.11043678457E+02  0.00000000000E+00 0. -1.
</event>
<event>
 8    1  0.2534787E-006  0.9118800E+02  0.7816164E-02  0.1184000E+00
        -11   -1    0    0    0    0  0.00000000000E+00  0.00000000000E+00  0.45593999997E+02  0.45594000000E+02  0.51100000000E-03 0.  1.
         11   -1    0    0    0    0 -0.00000000000E+00 -0.00000000000E+00 -0.45593999997E+02  0.45594000000E+02  0.51100000000E-03 0. -1.
         23    2    1    2    0    0  0.00000000000E+00  0.00000000000E+00 -0.35527136788E-14  0.91188000000E+02  0.91188000000E+02 0.  0.
    9900012    2    3    3    0    0 -0.86258086836E+01 -0.18623946589E+02  0.30569996416E+02  0.54367073303E+02  0.39999975208E+02 0.  0.
         12    1    3    3    0    0  0.86258086836E+01  0.18623946589E+02 -0.30569996416E+02  0.36820926697E+02  0.00000000000E+00 0. -1.
         11    1    4    4    0    0  0.56800286185E+01 -0.94964816456E+01  0.13930412242E+02  0.17790510792E+02  0.51100000000E-03 0. -1.
        -11    1    4    4    0    0  0.47031624426E+01  0.63334315095E+01  0.57563067454E+01  0.97656110539E+01  0.51100000000E-03 0.  1.
         12    1    4    4    0    0 -0.19008999745E+02 -0.15460896452E+02  0.10883277429E+02  0.26810951456E+02  0.00000000000E+00 0. -1.
</event>
<event>
 8    1  0.2534787E-006  0.9118800E+02  0.7816164E-02  0.1184000E+00
        -11   -1    0    0    0    0  0.00000000000E+00  0.00000000000E+00  0.45593999997E+02  0.45594000000E+02  0.51100000000E-03 0.  1.
         11   -1    0    0    0    0 -0.00000000000E+00 -0.00000000000E+00 -0.45593999997E+02  0.45594000000E+02  0.51100000000E-03 0. -1.
         23    2    1    2    0    0  0.00000000000E+00  0.00000000000E+00  0.00000000000E+00  0.91188000000E+02  0.91188000000E+02 0.  0.
    9900012    2    3    3    0    0  0.13771872071E+02  0.32616751710E+02  0.10112481113E+02  0.54367092533E+02  0.40000019048E+02 0.  0.
         12    1    3    3    0    0 -0.13771872071E+02 -0.32616751710E+02 -0.10112481113E+02  0.36820907467E+02  0.00000000000E+00 0. -1.
         11    1    4    4    0    0 -0.89713339892E+01 -0.27659739179E+01  0.53045775586E+01  0.10783041714E+02  0.51100000000E-03 0. -1.
        -11    1    4    4    0    0  0.19465290730E+02  0.21282922859E+02  0.32708500445E+01  0.29026863573E+02  0.51100000000E-03 0.  1.
         12    1    4    4    0    0  0.32779153300E+01  0.14099802769E+02  0.15370535098E+01  0.14557187246E+02  0.00000000000E+00 0. -1.
</event>
<event>
 8    1  0.2534787E-006  0.9118800E+02  0.7816164E-02  0.1184000E+00
        -11   -1    0    0    0    0  0.00000000000E+00  0.00000000000E+00  0.45593999997E+02  0.45594000000E+02  0.51100000000E-03 0.  1.
         11   -1    0    0    0    0 -0.00000000000E+00 -0.00000000000E+00 -0.45593999997E+02  0.45594000000E+02  0.51100000000E-03 0. -1.
         23    2    1    2    0    0  0.00000000000E+00 -0.88817841970E-15  0.35527136788E-14  0.91188000000E+02  0.91188000000E+02 0.  0.
    9900012    2    3    3    0    0 -0.23013753236E+02 -0.59342546823E+01  0.28123466683E+02  0.54367114692E+02  0.40000069562E+02 0.  0.
         12    1    3    3    0    0  0.23013753236E+02  0.59342546823E+01 -0.28123466683E+02  0.36820885308E+02  0.00000000000E+00 0. -1.
         11    1    4    4    0    0 -0.14004399879E+02 -0.67839065512E+01  0.19067895075E+02  0.24611566933E+02  0.51100000000E-03 0. -1.
        -11    1    4    4    0    0 -0.11153289370E+02 -0.98459156963E+01  0.11220690071E+02  0.18634425282E+02  0.51100000000E-03 0.  1.
         12    1    4    4    0    0  0.21439360127E+01  0.10695567565E+02 -0.21651184634E+01  0.11121122476E+02  0.00000000000E+00 0. -1.
</event>
<event>
 8    1  0.2534787E-006  0.9118800E+02  0.7816164E-02  0.1184000E+00
        -11   -1    0    0    0    0  0.00000000000E+00  0.00000000000E+00  0.45593999997E+02  0.45594000000E+02  0.51100000000E-03 0. -1.
         11   -1    0    0    0    0 -0.00000000000E+00 -0.00000000000E+00 -0.45593999997E+02  0.45594000000E+02  0.51100000000E-03 0.  1.
         23    2    1    2    0    0 -0.71054273576E-14  0.33306690739E-15 -0.22204460493E-15  0.91188000000E+02  0.91188000000E+02 0.  0.
    9900012    2    3    3    0    0  0.36766176602E+02 -0.33336663372E+00  0.19789421760E+01  0.54367094424E+02  0.40000023359E+02 0.  0.
         12    1    3    3    0    0 -0.36766176602E+02  0.33336663372E+00 -0.19789421760E+01  0.36820905576E+02  0.00000000000E+00 0. -1.
         11    1    4    4    0    0 -0.12660627642E+01  0.10263440752E+02 -0.26227843305E+01  0.10668651691E+02  0.51100000000E-03 0. -1.
        -11    1    4    4    0    0  0.79702406571E+01  0.47380745944E+01  0.35687865289E+01  0.99353069678E+01  0.51100000000E-03 0.  1.
        -12    1    4    4    0    0  0.30061998710E+02 -0.15334881980E+02  0.10329399776E+01  0.33763135766E+02  0.00000000000E+00 0.  1.
</event>
<event>
 8    1  0.2534787E-006  0.9118800E+02  0.7816164E-02  0.1184000E+00
        -11   -1    0    0    0    0  0.00000000000E+00  0.00000000000E+00  0.45593999997E+02  0.45594000000E+02  0.51100000000E-03 0.  1.
         11   -1    0    0    0    0 -0.00000000000E+00 -0.00000000000E+00 -0.45593999997E+02  0.45594000000E+02  0.51100000000E-03 0. -1.
         23    2    1    2    0    0  0.00000000000E+00  0.00000000000E+00  0.35527136788E-14  0.91188000000E+02  0.91188000000E+02 0.  0.
    9900012    2    3    3    0    0  0.19450110604E+02  0.56608815808E+01 -0.30747787407E+02  0.54367098148E+02  0.40000031848E+02 0.  0.
        -12    1    3    3    0    0 -0.19450110604E+02 -0.56608815808E+01  0.30747787407E+02  0.36820901852E+02  0.00000000000E+00 0.  1.
         11    1    4    4    0    0  0.16092344990E+02 -0.22055675351E+01 -0.34818859186E+01  0.16611791753E+02  0.51100000000E-03 0. -1.
        -11    1    4    4    0    0 -0.32960155859E+01  0.39989322493E+00 -0.27550797378E+02  0.27750136392E+02  0.51100000000E-03 0.  1.
         12    1    4    4    0    0  0.66537812000E+01  0.74665558910E+01  0.28489589013E+00  0.10005170004E+02  0.00000000000E+00 0. -1.
</event>
<event>
 8    1  0.2534787E-006  0.9118800E+02  0.7816164E-02  0.1184000E+00
        -11   -1    0    0    0    0  0.00000000000E+00  0.00000000000E+00  0.45593999997E+02  0.45594000000E+02  0.51100000000E-03 0. -1.
         11   -1    0    0    0    0 -0.00000000000E+00 -0.00000000000E+00 -0.45593999997E+02  0.45594000000E+02  0.51100000000E-03 0.  1.
         23    2    1    2    0    0 -0.35527136788E-14  0.00000000000E+00 -0.71054273576E-14  0.91188000000E+02  0.91188000000E+02 0.  0.
    9900012    2    3    3    0    0 -0.16402359382E+02 -0.11982389200E+02 -0.30710993514E+02  0.54367079766E+02  0.39999989943E+02 0.  0.
         12    1    3    3    0    0  0.16402359382E+02  0.11982389200E+02  0.30710993514E+02  0.36820920234E+02  0.00000000000E+00 0. -1.
         11    1    4    4    0    0 -0.54965375964E+01 -0.45556914052E+01  0.86303072542E+01  0.11200377373E+02  0.51100000000E-03 0. -1.
        -11    1    4    4    0    0  0.22422606948E+01 -0.13830442189E+01 -0.27039664536E+01  0.37751793571E+01  0.51100000000E-03 0.  1.
         12    1    4    4    0    0 -0.13148082480E+02 -0.60436535762E+01 -0.36637334315E+02  0.39391523037E+02  0.00000000000E+00 0. -1.
</event>
<event>
 8    1  0.2534787E-006  0.9118800E+02  0.7816164E-02  0.1184000E+00
        -11   -1    0    0    0    0  0.00000000000E+00  0.00000000000E+00  0.45593999997E+02  0.45594000000E+02  0.51100000000E-03 0.  1.
         11   -1    0    0    0    0 -0.00000000000E+00 -0.00000000000E+00 -0.45593999997E+02  0.45594000000E+02  0.51100000000E-03 0. -1.
         23    2    1    2    0    0 -0.71054273576E-14  0.00000000000E+00 -0.88817841970E-15  0.91188000000E+02  0.91188000000E+02 0.  0.
    9900012    2    3    3    0    0 -0.35465485064E+02  0.62188111699E+01 -0.77009900392E+01  0.54367088947E+02  0.40000010873E+02 0.  0.
        -12    1    3    3    0    0  0.35465485064E+02 -0.62188111699E+01  0.77009900392E+01  0.36820911053E+02  0.00000000000E+00 0.  1.
         11    1    4    4    0    0 -0.47666308625E+01 -0.24567283308E+01  0.14327180851E+00  0.53644021981E+01  0.51100000000E-03 0.  1.
        -11    1    4    4    0    0  0.11936515022E+01  0.13223724060E+02  0.51829184330E+01  0.14253221589E+02  0.51100000000E-03 0. -1.
         12    1    4    4    0    0 -0.31892505704E+02 -0.45481845594E+01 -0.13027180281E+02  0.34749465160E+02  0.00000000000E+00 0. -1.
</event>
<event>
 8    1  0.2534787E-006  0.9118800E+02  0.7816164E-02  0.1184000E+00
        -11   -1    0    0    0    0  0.00000000000E+00  0.00000000000E+00  0.45593999997E+02  0.45594000000E+02  0.51100000000E-03 0.  1.
         11   -1    0    0    0    0 -0.00000000000E+00 -0.00000000000E+00 -0.45593999997E+02  0.45594000000E+02  0.51100000000E-03 0. -1.
         23    2    1    2    0    0  0.00000000000E+00  0.00000000000E+00 -0.35527136788E-14  0.91188000000E+02  0.91188000000E+02 0.  0.
    9900012    2    3    3    0    0 -0.17309387788E+02  0.11289537599E+02  0.30474763559E+02  0.54367085037E+02  0.40000001958E+02 0.  0.
         12    1    3    3    0    0  0.17309387788E+02 -0.11289537599E+02 -0.30474763559E+02  0.36820914963E+02  0.00000000000E+00 0. -1.
         11    1    4    4    0    0 -0.10135375096E+02  0.94309291692E+01  0.22148554918E+01  0.14020479251E+02  0.51100000000E-03 0. -1.
        -11    1    4    4    0    0  0.53716780701E+01 -0.66212694172E+01  0.27874509071E+00  0.85307580595E+01  0.51100000000E-03 0.  1.
        -12    1    4    4    0    0 -0.12545690762E+02  0.84798778470E+01  0.27981162976E+02  0.31815847726E+02  0.00000000000E+00 0.  1.
</event>
<event>
 8    1  0.2534787E-006  0.9118800E+02  0.7816164E-02  0.1184000E+00
        -11   -1    0    0    0    0  0.00000000000E+00  0.00000000000E+00  0.45593999997E+02  0.45594000000E+02  0.51100000000E-03 0.  1.
         11   -1    0    0    0    0 -0.00000000000E+00 -0.00000000000E+00 -0.45593999997E+02  0.45594000000E+02  0.51100000000E-03 0. -1.
         23    2    1    2    0    0 -0.35527136788E-14  0.00000000000E+00 -0.35527136788E-14  0.91188000000E+02  0.91188000000E+02 0.  0.
    9900012    2    3    3    0    0 -0.17543128591E+02 -0.11828510542E+02  0.30134798459E+02  0.54367067087E+02  0.39999961037E+02 0.  0.
         12    1    3    3    0    0  0.17543128591E+02  0.11828510542E+02 -0.30134798459E+02  0.36820932913E+02  0.00000000000E+00 0. -1.
         11    1    4    4    0    0 -0.21683128581E+02 -0.13433669018E+02  0.96214223197E+01  0.27261571783E+02  0.51100000000E-03 0. -1.
        -11    1    4    4    0    0 -0.12459491775E+00  0.49737136134E+01 -0.86261447351E+00  0.50495004697E+01  0.51100000000E-03 0.  1.
        -12    1    4    4    0    0  0.42645949073E+01 -0.33685551375E+01  0.21375990613E+02  0.22055994834E+02  0.00000000000E+00 0.  1.
</event>
<event>
 8    1  0.2534787E-006  0.9118800E+02  0.7816164E-02  0.1184000E+00
        -11   -1    0    0    0    0  0.00000000000E+00  0.00000000000E+00  0.45593999997E+02  0.45594000000E+02  0.51100000000E-03 0.  1.
         11   -1    0    0    0    0 -0.00000000000E+00 -0.00000000000E+00 -0.45593999997E+02  0.45594000000E+02  0.51100000000E-03 0. -1.
         23    2    1    2    0    0  0.88817841970E-15  0.00000000000E+00  0.71054273576E-14  0.91188000000E+02  0.91188000000E+02 0.  0.
    9900012    2    3    3    0    0  0.22058131462E+01  0.18051712027E+02  0.32016410421E+02  0.54367075853E+02  0.39999981023E+02 0.  0.
         12    1    3    3    0    0 -0.22058131462E+01 -0.18051712027E+02 -0.32016410421E+02  0.36820924147E+02  0.00000000000E+00 0. -1.
         11    1    4    4    0    0  0.16073036500E+02  0.39686718007E+01  0.92274696056E+01  0.18953602660E+02  0.51100000000E-03 0. -1.
        -11    1    4    4    0    0  0.39460871818E+01  0.63997895695E+01  0.83089649090E+01  0.11205704293E+02  0.51100000000E-03 0.  1.
        -12    1    4    4    0    0 -0.17813310536E+02  0.76832506569E+01  0.14479975907E+02  0.24207768901E+02  0.00000000000E+00 0.  1.
</event>
<event>
 8    1  0.2534787E-006  0.9118800E+02  0.7816164E-02  0.1184000E+00
        -11   -1    0    0    0    0  0.00000000000E+00  0.00000000000E+00  0.45593999997E+02  0.45594000000E+02  0.51100000000E-03 0. -1.
         11   -1    0    0    0    0 -0.00000000000E+00 -0.00000000000E+00 -0.45593999997E+02  0.45594000000E+02  0.51100000000E-03 0.  1.
         23    2    1    2    0    0  0.00000000000E+00  0.00000000000E+00 -0.22204460493E-15  0.91188000000E+02  0.91188000000E+02 0.  0.
    9900012    2    3    3    0    0  0.36596340262E+02  0.39245696586E+01 -0.10418492301E+01  0.54367084511E+02  0.40000000761E+02 0.  0.
        -12    1    3    3    0    0 -0.36596340262E+02 -0.39245696586E+01  0.10418492301E+01  0.36820915489E+02  0.00000000000E+00 0.  1.
         11    1    4    4    0    0 -0.40683158598E+01  0.34363708102E+01  0.17386480564E+01  0.56020295970E+01  0.51100000000E-03 0.  1.
        -11    1    4    4    0    0  0.69681190060E+01  0.16291923311E+01  0.10349695980E+02  0.12582732505E+02  0.51100000000E-03 0. -1.
         12    1    4    4    0    0  0.33696537116E+02 -0.11409934827E+01 -0.13130193267E+02  0.36182322410E+02  0.00000000000E+00 0. -1.
</event>
<event>
 8    1  0.2534787E-006  0.9118800E+02  0.7816164E-02  0.1184000E+00
        -11   -1    0    0    0    0  0.00000000000E+00  0.00000000000E+00  0.45593999997E+02  0.45594000000E+02  0.51100000000E-03 0.  1.
         11   -1    0    0    0    0 -0.00000000000E+00 -0.00000000000E+00 -0.45593999997E+02  0.45594000000E+02  0.51100000000E-03 0. -1.
         23    2    1    2    0    0  0.00000000000E+00 -0.17763568394E-14  0.00000000000E+00  0.91188000000E+02  0.91188000000E+02 0.  0.
    9900012    2    3    3    0    0  0.34971417579E+02 -0.11067461652E+02  0.32080985483E+01  0.54367073189E+02  0.39999974949E+02 0.  0.
         12    1    3    3    0    0 -0.34971417579E+02  0.11067461652E+02 -0.32080985483E+01  0.36820926811E+02  0.00000000000E+00 0. -1.
         11    1    4    4    0    0  0.25233529895E+02  0.12415491619E+01 -0.27347949099E+01  0.25411642582E+02  0.51100000000E-03 0. -1.
        -11    1    4    4    0    0  0.15200370906E+02 -0.61455283839E+00  0.14213309438E+01  0.15279042273E+02  0.51100000000E-03 0.  1.
        -12    1    4    4    0    0 -0.54624832216E+01 -0.11694457975E+02  0.45215625144E+01  0.13676388334E+02  0.00000000000E+00 0.  1.
</event>
<event>
 8    1  0.2534787E-006  0.9118800E+02  0.7816164E-02  0.1184000E+00
        -11   -1    0    0    0    0  0.00000000000E+00  0.00000000000E+00  0.45593999997E+02  0.45594000000E+02  0.51100000000E-03 0.  1.
         11   -1    0    0    0    0 -0.00000000000E+00 -0.00000000000E+00 -0.45593999997E+02  0.45594000000E+02  0.51100000000E-03 0. -1.
         23    2    1    2    0    0  0.35527136788E-14  0.00000000000E+00  0.35527136788E-14  0.91188000000E+02  0.91188000000E+02 0.  0.
    9900012    2    3    3    0    0 -0.25369808931E+02 -0.18299774061E+02  0.19423459504E+02  0.54367085903E+02  0.40000003933E+02 0.  0.
         12    1    3    3    0    0  0.25369808931E+02  0.18299774061E+02 -0.19423459504E+02  0.36820914097E+02  0.00000000000E+00 0. -1.
         11    1    4    4    0    0  0.50182133592E+01 -0.69455097166E+01 -0.56486797340E+01  0.10263047965E+02  0.51100000000E-03 0. -1.
        -11    1    4    4    0    0 -0.68915034803E+01  0.38776869021E+01  0.30321915329E+01  0.84689705209E+01  0.51100000000E-03 0.  1.
        -12    1    4    4    0    0 -0.23496518810E+02 -0.15231951246E+02  0.22039947705E+02  0.35635067416E+02  0.00000000000E+00 0.  1.
</event>
<event>
 8    1  0.2534787E-006  0.9118800E+02  0.7816164E-02  0.1184000E+00
        -11   -1    0    0    0    0  0.00000000000E+00  0.00000000000E+00  0.45593999997E+02  0.45594000000E+02  0.51100000000E-03 0.  1.
         11   -1    0    0    0    0 -0.00000000000E+00 -0.00000000000E+00 -0.45593999997E+02  0.45594000000E+02  0.51100000000E-03 0. -1.
         23    2    1    2    0    0  0.00000000000E+00  0.00000000000E+00  0.00000000000E+00  0.91188000000E+02  0.91188000000E+02 0.  0.
    9900012    2    3    3    0    0  0.23624588433E+02 -0.78275241915E+01 -0.27136470933E+02  0.54367090610E+02  0.40000014664E+02 0.  0.
        -12    1    3    3    0    0 -0.23624588433E+02  0.78275241915E+01  0.27136470933E+02  0.36820909390E+02  0.00000000000E+00 0.  1.
         11    1    4    4    0    0 -0.43755461937E-01 -0.60016253644E+01 -0.32201216695E+01  0.68110649228E+01  0.51100000000E-03 0. -1.
        -11    1    4    4    0    0 -0.49500652665E+00  0.31234725145E+01 -0.22638068330E+02  0.22857892510E+02  0.51100000000E-03 0.  1.
        -12    1    4    4    0    0  0.24163350422E+02 -0.49493713416E+01 -0.12782809331E+01  0.24698133177E+02  0.00000000000E+00 0.  1.
</event>
<event>
 8    1  0.2534787E-006  0.9118800E+02  0.7816164E-02  0.1184000E+00
        -11   -1    0    0    0    0  0.00000000000E+00  0.00000000000E+00  0.45593999997E+02  0.45594000000E+02  0.51100000000E-03 0.  1.
         11   -1    0    0    0    0 -0.00000000000E+00 -0.00000000000E+00 -0.45593999997E+02  0.45594000000E+02  0.51100000000E-03 0. -1.
         23    2    1    2    0    0 -0.49266146718E-15  0.00000000000E+00  0.00000000000E+00  0.91188000000E+02  0.91188000000E+02 0.  0.
    9900012    2    3    3    0    0 -0.52595072538E-01 -0.19118650550E+02  0.31468304871E+02  0.54367085066E+02  0.40000002026E+02 0.  0.
         12    1    3    3    0    0  0.52595072538E-01  0.19118650550E+02 -0.31468304871E+02  0.36820914934E+02  0.00000000000E+00 0. -1.
         11    1    4    4    0    0 -0.33317614361E+01  0.37432292366E+01  0.77336081966E+01  0.92152642601E+01  0.51100000000E-03 0. -1.
        -11    1    4    4    0    0 -0.59439168044E+01 -0.24194537315E+02  0.25518570511E+02  0.35663752242E+02  0.51100000000E-03 0.  1.
         12    1    4    4    0    0  0.92230831679E+01  0.13326575281E+01 -0.17838738362E+01  0.94880685639E+01  0.00000000000E+00 0. -1.
</event>
<event>
 8    1  0.2534787E-006  0.9118800E+02  0.7816164E-02  0.1184000E+00
        -11   -1    0    0    0    0  0.00000000000E+00  0.00000000000E+00  0.45593999997E+02  0.45594000000E+02  0.51100000000E-03 0.  1.
         11   -1    0    0    0    0 -0.00000000000E+00 -0.00000000000E+00 -0.45593999997E+02  0.45594000000E+02  0.51100000000E-03 0. -1.
         23    2    1    2    0    0 -0.88817841970E-15 -0.71054273576E-14  0.00000000000E+00  0.91188000000E+02  0.91188000000E+02 0.  0.
    9900012    2    3    3    0    0 -0.10445080572E+01  0.36644397148E+02  0.34457504903E+01  0.54367135862E+02  0.40000117825E+02 0.  0.
        -12    1    3    3    0    0  0.10445080572E+01 -0.36644397148E+02 -0.34457504903E+01  0.36820864138E+02  0.00000000000E+00 0.  1.
         11    1    4    4    0    0  0.29590204436E+01  0.11240772086E+01  0.13236057332E+01  0.34309304795E+01  0.51100000000E-03 0. -1.
        -11    1    4    4    0    0  0.14710963584E+02  0.20687808783E+02 -0.52947269239E+01  0.25931294130E+02  0.51100000000E-03 0.  1.
         12    1    4    4    0    0 -0.18714492085E+02  0.14832511156E+02  0.74168716809E+01  0.25004911252E+02  0.00000000000E+00 0. -1.
</event>
<event>
 8    1  0.2534787E-006  0.9118800E+02  0.7816164E-02  0.1184000E+00
        -11   -1    0    0    0    0  0.00000000000E+00  0.00000000000E+00  0.45593999997E+02  0.45594000000E+02  0.51100000000E-03 0.  1.
         11   -1    0    0    0    0 -0.00000000000E+00 -0.00000000000E+00 -0.45593999997E+02  0.45594000000E+02  0.51100000000E-03 0. -1.
         23    2    1    2    0    0  0.00000000000E+00  0.00000000000E+00  0.00000000000E+00  0.91188000000E+02  0.91188000000E+02 0.  0.
    9900012    2    3    3    0    0 -0.89411216647E+01 -0.17368304558E+02 -0.31211845741E+02  0.54367068800E+02  0.39999964943E+02 0.  0.
        -12    1    3    3    0    0  0.89411216647E+01  0.17368304558E+02  0.31211845741E+02  0.36820931200E+02  0.00000000000E+00 0.  1.
         11    1    4    4    0    0  0.12007551451E+01 -0.11023420388E+02 -0.18446814314E+02  0.21523070612E+02  0.51100000000E-03 0. -1.
        -11    1    4    4    0    0 -0.62088306593E+00 -0.98549939425E+01 -0.18657756335E+02  0.21109672501E+02  0.51100000000E-03 0.  1.
        -12    1    4    4    0    0 -0.95209937438E+01  0.35101097717E+01  0.58927249082E+01  0.11734325687E+02  0.00000000000E+00 0.  1.
</event>
<event>
 8    1  0.2534787E-006  0.9118800E+02  0.7816164E-02  0.1184000E+00
        -11   -1    0    0    0    0  0.00000000000E+00  0.00000000000E+00  0.45593999997E+02  0.45594000000E+02  0.51100000000E-03 0. -1.
         11   -1    0    0    0    0 -0.00000000000E+00 -0.00000000000E+00 -0.45593999997E+02  0.45594000000E+02  0.51100000000E-03 0.  1.
         23    2    1    2    0    0 -0.10658141036E-13 -0.17763568394E-14  0.17763568394E-14  0.91188000000E+02  0.91188000000E+02 0.  0.
    9900012    2    3    3    0    0 -0.31811023236E+02 -0.14460382625E+02  0.11607584929E+02  0.54367083487E+02  0.39999998425E+02 0.  0.
        -12    1    3    3    0    0  0.31811023236E+02  0.14460382625E+02 -0.11607584929E+02  0.36820916513E+02  0.00000000000E+00 0.  1.
         11    1    4    4    0    0  0.21209015665E+00 -0.78073048389E+01  0.38854060606E+01  0.87232661085E+01  0.51100000000E-03 0. -1.
        -11    1    4    4    0    0 -0.62702067006E+01 -0.14605957845E+02 -0.37815472850E+01  0.16338592251E+02  0.51100000000E-03 0.  1.
         12    1    4    4    0    0 -0.25752906692E+02  0.79528800589E+01  0.11503726154E+02  0.29305225127E+02  0.00000000000E+00 0. -1.
</event>
<event>
 8    1  0.2534787E-006  0.9118800E+02  0.7816164E-02  0.1184000E+00
        -11   -1    0    0    0    0  0.00000000000E+00  0.00000000000E+00  0.45593999997E+02  0.45594000000E+02  0.51100000000E-03 0.  1.
         11   -1    0    0    0    0 -0.00000000000E+00 -0.00000000000E+00 -0.45593999997E+02  0.45594000000E+02  0.51100000000E-03 0. -1.
         23    2    1    2    0    0  0.00000000000E+00 -0.17763568394E-14 -0.35527136788E-14  0.91188000000E+02  0.91188000000E+02 0.  0.
    9900012    2    3    3    0    0 -0.21283127602E+02 -0.12538135397E+02  0.27305732045E+02  0.54367090692E+02  0.40000014851E+02 0.  0.
         12    1    3    3    0    0  0.21283127602E+02  0.12538135397E+02 -0.27305732045E+02  0.36820909308E+02  0.00000000000E+00 0. -1.
         11    1    4    4    0    0 -0.15320986048E+02  0.39149580719E+01  0.13844001587E+01  0.15873754258E+02  0.51100000000E-03 0. -1.
        -11    1    4    4    0    0 -0.11915172593E+02 -0.76996334885E+01  0.49919727528E+01  0.15039131824E+02  0.51100000000E-03 0.  1.
        -12    1    4    4    0    0  0.59530310391E+01 -0.87534599801E+01  0.20929359133E+02  0.23454204610E+02  0.00000000000E+00 0.  1.
</event>
<event>
 8    1  0.2534787E-006  0.9118800E+02  0.7816164E-02  0.1184000E+00
        -11   -1    0    0    0    0  0.00000000000E+00  0.00000000000E+00  0.45593999997E+02  0.45594000000E+02  0.51100000000E-03 0. -1.
         11   -1    0    0    0    0 -0.00000000000E+00 -0.00000000000E+00 -0.45593999997E+02  0.45594000000E+02  0.51100000000E-03 0.  1.
         23    2    1    2    0    0  0.00000000000E+00 -0.44408920985E-15  0.35527136788E-14  0.91188000000E+02  0.91188000000E+02 0.  0.
    9900012    2    3    3    0    0 -0.19642835362E+02 -0.32999925057E+01 -0.30968523883E+02  0.54367076559E+02  0.39999982631E+02 0.  0.
         12    1    3    3    0    0  0.19642835362E+02  0.32999925057E+01  0.30968523883E+02  0.36820923441E+02  0.00000000000E+00 0. -1.
         11    1    4    4    0    0 -0.31380548037E+01  0.59275511714E+01  0.30151528074E+01  0.73535295983E+01  0.51100000000E-03 0. -1.
        -11    1    4    4    0    0 -0.22885268298E+02 -0.11067211460E+02 -0.29780080267E+02  0.39154461502E+02  0.51100000000E-03 0.  1.
        -12    1    4    4    0    0  0.63804877397E+01  0.18396677828E+01 -0.42035964230E+01  0.78590854580E+01  0.00000000000E+00 0.  1.
</event>
<event>
 8    1  0.2534787E-006  0.9118800E+02  0.7816164E-02  0.1184000E+00
        -11   -1    0    0    0    0  0.00000000000E+00  0.00000000000E+00  0.45593999997E+02  0.45594000000E+02  0.51100000000E-03 0. -1.
         11   -1    0    0    0    0 -0.00000000000E+00 -0.00000000000E+00 -0.45593999997E+02  0.45594000000E+02  0.51100000000E-03 0.  1.
         23    2    1    2    0    0 -0.17763568394E-14  0.35527136788E-14  0.35527136788E-14  0.91188000000E+02  0.91188000000E+02 0.  0.
    9900012    2    3    3    0    0  0.15536333172E+02 -0.27891252949E+02 -0.18343386151E+02  0.54367089433E+02  0.40000011981E+02 0.  0.
        -12    1    3    3    0    0 -0.15536333172E+02  0.27891252949E+02  0.18343386151E+02  0.36820910567E+02  0.00000000000E+00 0.  1.
         11    1    4    4    0    0  0.92108050520E+01 -0.72947228964E+01  0.35457654507E+01  0.12272911828E+02  0.51100000000E-03 0. -1.
        -11    1    4    4    0    0 -0.77126894490E+01 -0.12196042101E+02  0.41183525995E+00  0.14436018496E+02  0.51100000000E-03 0.  1.
         12    1    4    4    0    0  0.14038217569E+02 -0.84004879509E+01 -0.22300986862E+02  0.27658159109E+02  0.00000000000E+00 0. -1.
</event>
<event>
 8    1  0.2534787E-006  0.9118800E+02  0.7816164E-02  0.1184000E+00
        -11   -1    0    0    0    0  0.00000000000E+00  0.00000000000E+00  0.45593999997E+02  0.45594000000E+02  0.51100000000E-03 0.  1.
         11   -1    0    0    0    0 -0.00000000000E+00 -0.00000000000E+00 -0.45593999997E+02  0.45594000000E+02  0.51100000000E-03 0. -1.
         23    2    1    2    0    0  0.00000000000E+00  0.00000000000E+00 -0.17763568394E-14  0.91188000000E+02  0.91188000000E+02 0.  0.
    9900012    2    3    3    0    0  0.97550237456E+01  0.33432825003E+02  0.11952594043E+02  0.54367098595E+02  0.40000032866E+02 0.  0.
        -12    1    3    3    0    0 -0.97550237456E+01 -0.33432825003E+02 -0.11952594043E+02  0.36820901405E+02  0.00000000000E+00 0.  1.
         11    1    4    4    0    0  0.39961088652E+01  0.17434518915E+02 -0.39224210441E+00  0.17890924794E+02  0.51100000000E-03 0. -1.
        -11    1    4    4    0    0  0.93429401126E+01  0.23751566669E+02  0.72595153350E+01  0.26535410536E+02  0.51100000000E-03 0.  1.
        -12    1    4    4    0    0 -0.35840252322E+01 -0.77532605812E+01  0.50853208124E+01  0.99407632640E+01  0.00000000000E+00 0.  1.
</event>
<event>
 8    1  0.2534787E-006  0.9118800E+02  0.7816164E-02  0.1184000E+00
        -11   -1    0    0    0    0  0.00000000000E+00  0.00000000000E+00  0.45593999997E+02  0.45594000000E+02  0.51100000000E-03 0.  1.
         11   -1    0    0    0    0 -0.00000000000E+00 -0.00000000000E+00 -0.45593999997E+02  0.45594000000E+02  0.51100000000E-03 0. -1.
         23    2    1    2    0    0 -0.71054273576E-14  0.00000000000E+00  0.35527136788E-14  0.91188000000E+02  0.91188000000E+02 0.  0.
    9900012    2    3    3    0    0 -0.27973225947E+02  0.30740659922E+01  0.23745057463E+02  0.54367095536E+02  0.40000025894E+02 0.  0.
         12    1    3    3    0    0  0.27973225947E+02 -0.30740659922E+01 -0.23745057463E+02  0.36820904464E+02  0.00000000000E+00 0. -1.
         11    1    4    4    0    0 -0.83009450162E+01  0.56809330440E+01  0.18333554973E+02  0.20911669627E+02  0.51100000000E-03 0. -1.
        -11    1    4    4    0    0 -0.58278562133E+01 -0.69150027063E+01  0.13953005197E+02  0.16627312614E+02  0.51100000000E-03 0.  1.
         12    1    4    4    0    0 -0.13844424717E+02  0.43081356545E+01 -0.85415027066E+01  0.16828113295E+02  0.00000000000E+00 0. -1.
</event>
<event>
 8    1  0.2534787E-006  0.9118800E+02  0.7816164E-02  0.1184000E+00
        -11   -1    0    0    0    0  0.00000000000E+00  0.00000000000E+00  0.45593999997E+02  0.45594000000E+02  0.51100000000E-03 0. -1.
         11   -1    0    0    0    0 -0.00000000000E+00 -0.00000000000E+00 -0.45593999997E+02  0.45594000000E+02  0.51100000000E-03 0.  1.
         23    2    1    2    0    0  0.00000000000E+00  0.55511151231E-15 -0.22204460493E-14  0.91188000000E+02  0.91188000000E+02 0.  0.
    9900012    2    3    3    0    0  0.36661289852E+02 -0.54448027143E+00 -0.33813965277E+01  0.54367075584E+02  0.39999980409E+02 0.  0.
        -12    1    3    3    0    0 -0.36661289852E+02  0.54448027143E+00  0.33813965277E+01  0.36820924416E+02  0.00000000000E+00 0.  1.
         11    1    4    4    0    0  0.17111694044E+01  0.10343330603E+02 -0.93408604770E+00  0.10525450379E+02  0.51100000000E-03 0.  1.
        -11    1    4    4    0    0  0.22774841761E+02 -0.34560425078E+01  0.98071173813E+01  0.25036317593E+02  0.51100000000E-03 0. -1.
        -12    1    4    4    0    0  0.12175278687E+02 -0.74317683662E+01 -0.12254427861E+02  0.18805307611E+02  0.00000000000E+00 0.  1.
</event>
<event>
 8    1  0.2534787E-006  0.9118800E+02  0.7816164E-02  0.1184000E+00
        -11   -1    0    0    0    0  0.00000000000E+00  0.00000000000E+00  0.45593999997E+02  0.45594000000E+02  0.51100000000E-03 0.  1.
         11   -1    0    0    0    0 -0.00000000000E+00 -0.00000000000E+00 -0.45593999997E+02  0.45594000000E+02  0.51100000000E-03 0. -1.
         23    2    1    2    0    0  0.44408920985E-15 -0.35527136788E-14  0.00000000000E+00  0.91188000000E+02  0.91188000000E+02 0.  0.
    9900012    2    3    3    0    0  0.20753171354E+01 -0.28952811244E+02 -0.22654061176E+02  0.54367099577E+02  0.40000035106E+02 0.  0.
        -12    1    3    3    0    0 -0.20753171354E+01  0.28952811244E+02  0.22654061176E+02  0.36820900423E+02  0.00000000000E+00 0.  1.
         11    1    4    4    0    0 -0.55510969538E+01 -0.27766577600E+02 -0.81933552665E+01  0.29477594539E+02  0.51100000000E-03 0. -1.
        -11    1    4    4    0    0  0.17841114928E+01  0.32653584338E+01 -0.16779535173E+02  0.17187158590E+02  0.51100000000E-03 0.  1.
        -12    1    4    4    0    0  0.58423025964E+01 -0.44515920785E+01  0.23188292635E+01  0.77023464486E+01  0.00000000000E+00 0.  1.
</event>
<event>
 8    1  0.2534787E-006  0.9118800E+02  0.7816164E-02  0.1184000E+00
        -11   -1    0    0    0    0  0.00000000000E+00  0.00000000000E+00  0.45593999997E+02  0.45594000000E+02  0.51100000000E-03 0.  1.
         11   -1    0    0    0    0 -0.00000000000E+00 -0.00000000000E+00 -0.45593999997E+02  0.45594000000E+02  0.51100000000E-03 0. -1.
         23    2    1    2    0    0 -0.35527136788E-14  0.00000000000E+00 -0.13322676296E-14  0.91188000000E+02  0.91188000000E+02 0.  0.
    9900012    2    3    3    0    0 -0.23268617161E+02 -0.28433430277E+02 -0.24271458803E+01  0.54367088292E+02  0.40000009380E+02 0.  0.
        -12    1    3    3    0    0  0.23268617161E+02  0.28433430277E+02  0.24271458803E+01  0.36820911708E+02  0.00000000000E+00 0.  1.
         11    1    4    4    0    0  0.11203445598E+01 -0.64631254822E+01  0.26494458650E+01  0.70743711087E+01  0.51100000000E-03 0. -1.
        -11    1    4    4    0    0  0.53651267376E+01 -0.15646481815E+02 -0.64904236436E+00  0.16553496137E+02  0.51100000000E-03 0.  1.
         12    1    4    4    0    0 -0.29754088458E+02 -0.63238229797E+01 -0.44275493810E+01  0.30739221047E+02  0.00000000000E+00 0. -1.
</event>
<event>
 8    1  0.2534787E-006  0.9118800E+02  0.7816164E-02  0.1184000E+00
        -11   -1    0    0    0    0  0.00000000000E+00  0.00000000000E+00  0.45593999997E+02  0.45594000000E+02  0.51100000000E-03 0.  1.
         11   -1    0    0    0    0 -0.00000000000E+00 -0.00000000000E+00 -0.45593999997E+02  0.45594000000E+02  0.51100000000E-03 0. -1.
         23    2    1    2    0    0 -0.88817841970E-15  0.44408920985E-15  0.00000000000E+00  0.91188000000E+02  0.91188000000E+02 0.  0.
    9900012    2    3    3    0    0 -0.47574142264E+01  0.33074430590E+01  0.36362092576E+02  0.54367164238E+02  0.40000182512E+02 0.  0.
         12    1    3    3    0    0  0.47574142264E+01 -0.33074430590E+01 -0.36362092576E+02  0.36820835762E+02  0.00000000000E+00 0. -1.
         11    1    4    4    0    0  0.41501142474E+01  0.10465398519E+00  0.45929210544E+01  0.61910681466E+01  0.51100000000E-03 0. -1.
        -11    1    4    4    0    0  0.13461996968E+02  0.32422622791E+01  0.12241175645E+02  0.18481991464E+02  0.51100000000E-03 0.  1.
        -12    1    4    4    0    0 -0.22369525442E+02 -0.39473205286E-01  0.19527995877E+02  0.29694104627E+02  0.00000000000E+00 0.  1.
</event>
<event>
 8    1  0.2534787E-006  0.9118800E+02  0.7816164E-02  0.1184000E+00
        -11   -1    0    0    0    0  0.00000000000E+00  0.00000000000E+00  0.45593999997E+02  0.45594000000E+02  0.51100000000E-03 0.  1.
         11   -1    0    0    0    0 -0.00000000000E+00 -0.00000000000E+00 -0.45593999997E+02  0.45594000000E+02  0.51100000000E-03 0. -1.
         23    2    1    2    0    0  0.00000000000E+00 -0.17763568394E-14  0.00000000000E+00  0.91188000000E+02  0.91188000000E+02 0.  0.
    9900012    2    3    3    0    0  0.35524137952E+02 -0.96596794972E+01  0.71127788325E+00  0.54367086086E+02  0.40000004350E+02 0.  0.
         12    1    3    3    0    0 -0.35524137952E+02  0.96596794972E+01 -0.71127788325E+00  0.36820913914E+02  0.00000000000E+00 0. -1.
         11    1    4    4    0    0  0.23412314833E+01 -0.14886414607E+02 -0.64907110034E+01  0.16407804067E+02  0.51100000000E-03 0. -1.
        -11    1    4    4    0    0  0.99225893565E-01  0.31927187184E+01  0.32858610851E+01  0.45825955445E+01  0.51100000000E-03 0.  1.
         12    1    4    4    0    0  0.33083680575E+02  0.20340163910E+01  0.39161278016E+01  0.33376686475E+02  0.00000000000E+00 0. -1.
</event>
<event>
 8    1  0.2534787E-006  0.9118800E+02  0.7816164E-02  0.1184000E+00
        -11   -1    0    0    0    0  0.00000000000E+00  0.00000000000E+00  0.45593999997E+02  0.45594000000E+02  0.51100000000E-03 0. -1.
         11   -1    0    0    0    0 -0.00000000000E+00 -0.00000000000E+00 -0.45593999997E+02  0.45594000000E+02  0.51100000000E-03 0.  1.
         23    2    1    2    0    0 -0.88817841970E-15  0.88817841970E-15  0.71054273576E-14  0.91188000000E+02  0.91188000000E+02 0.  0.
    9900012    2    3    3    0    0 -0.78300968065E+01 -0.56828846133E+01  0.35527105044E+02  0.54367071355E+02  0.39999970767E+02 0.  0.
        -12    1    3    3    0    0  0.78300968065E+01  0.56828846133E+01 -0.35527105044E+02  0.36820928645E+02  0.00000000000E+00 0.  1.
         11    1    4    4    0    0  0.13391187303E+02 -0.89029474898E+01  0.11058334232E+02  0.19515971092E+02  0.51100000000E-03 0. -1.
        -11    1    4    4    0    0 -0.11578483990E+02  0.79797676977E+01  0.13679533532E+02  0.19618043275E+02  0.51100000000E-03 0.  1.
         12    1    4    4    0    0 -0.96428001199E+01 -0.47597048212E+01  0.10789237280E+02  0.15233056988E+02  0.00000000000E+00 0. -1.
</event>
<event>
 8    1  0.2534787E-006  0.9118800E+02  0.7816164E-02  0.1184000E+00
        -11   -1    0    0    0    0  0.00000000000E+00  0.00000000000E+00  0.45593999997E+02  0.45594000000E+02  0.51100000000E-03 0.  1.
         11   -1    0    0    0    0 -0.00000000000E+00 -0.00000000000E+00 -0.45593999997E+02  0.45594000000E+02  0.51100000000E-03 0. -1.
         23    2    1    2    0    0  0.00000000000E+00  0.00000000000E+00  0.35527136788E-14  0.91188000000E+02  0.91188000000E+02 0.  0.
    9900012    2    3    3    0    0 -0.14092337680E+02 -0.18532017765E+02 -0.28526317478E+02  0.54367075886E+02  0.39999981098E+02 0.  0.
        -12    1    3    3    0    0  0.14092337680E+02  0.18532017765E+02  0.28526317478E+02  0.36820924114E+02  0.00000000000E+00 0.  1.
         11    1    4    4    0    0 -0.35181441539E+01 -0.27548585919E+02 -0.18796292857E+02  0.33535094302E+02  0.51100000000E-03 0. -1.
        -11    1    4    4    0    0  0.17004714155E+01  0.42278235358E+01 -0.18238850448E+00  0.45606316133E+01  0.51100000000E-03 0.  1.
         12    1    4    4    0    0 -0.12274664942E+02  0.47887446184E+01 -0.95476361173E+01  0.16271349971E+02  0.00000000000E+00 0. -1.
</event>
<event>
 8    1  0.2534787E-006  0.9118800E+02  0.7816164E-02  0.1184000E+00
        -11   -1    0    0    0    0  0.00000000000E+00  0.00000000000E+00  0.45593999997E+02  0.45594000000E+02  0.51100000000E-03 0.  1.
         11   -1    0    0    0    0 -0.00000000000E+00 -0.00000000000E+00 -0.45593999997E+02  0.45594000000E+02  0.51100000000E-03 0. -1.
         23    2    1    2    0    0  0.00000000000E+00 -0.35527136788E-14  0.00000000000E+00  0.91188000000E+02  0.91188000000E+02 0.  0.
    9900012    2    3    3    0    0 -0.18205304955E+02 -0.22214308524E+02  0.23040580104E+02  0.54367123269E+02  0.40000089117E+02 0.  0.
         12    1    3    3    0    0  0.18205304955E+02  0.22214308524E+02 -0.23040580104E+02  0.36820876731E+02  0.00000000000E+00 0. -1.
         11    1    4    4    0    0  0.10048300570E+02 -0.73931043926E+01  0.61145124040E+01  0.13892933424E+02  0.51100000000E-03 0. -1.
        -11    1    4    4    0    0 -0.27225229664E+01 -0.97990770293E+01  0.16561991484E+01  0.10304224270E+02  0.51100000000E-03 0.  1.
        -12    1    4    4    0    0 -0.25531082559E+02 -0.50221271019E+01  0.15269868551E+02  0.30169965576E+02  0.00000000000E+00 0.  1.
</event>
<event>
 8    1  0.2534787E-006  0.9118800E+02  0.7816164E-02  0.1184000E+00
        -11   -1    0    0    0    0  0.00000000000E+00  0.00000000000E+00  0.45593999997E+02  0.45594000000E+02  0.51100000000E-03 0.  1.
         11   -1    0    0    0    0 -0.00000000000E+00 -0.00000000000E+00 -0.45593999997E+02  0.45594000000E+02  0.51100000000E-03 0. -1.
         23    2    1    2    0    0  0.66613381478E-15  0.00000000000E+00 -0.17763568394E-14  0.91188000000E+02  0.91188000000E+02 0.  0.
    9900012    2    3    3    0    0  0.11469170881E+01 -0.33171763512E+02  0.15940459830E+02  0.54367087832E+02  0.40000008331E+02 0.  0.
         12    1    3    3    0    0 -0.11469170881E+01  0.33171763512E+02 -0.15940459830E+02  0.36820912168E+02  0.00000000000E+00 0. -1.
         11    1    4    4    0    0 -0.13373653654E+02 -0.29484241758E+02  0.20810623058E+01  0.32442348015E+02  0.51100000000E-03 0. -1.
        -11    1    4    4    0    0  0.11319020785E+02 -0.44953485971E+01  0.14078742118E+02  0.18615567959E+02  0.51100000000E-03 0.  1.
         12    1    4    4    0    0  0.32015499572E+01  0.80782684373E+00 -0.21934459432E+00  0.33091718585E+01  0.00000000000E+00 0. -1.
</event>
<event>
 8    1  0.2534787E-006  0.9118800E+02  0.7816164E-02  0.1184000E+00
        -11   -1    0    0    0    0  0.00000000000E+00  0.00000000000E+00  0.45593999997E+02  0.45594000000E+02  0.51100000000E-03 0.  1.
         11   -1    0    0    0    0 -0.00000000000E+00 -0.00000000000E+00 -0.45593999997E+02  0.45594000000E+02  0.51100000000E-03 0. -1.
         23    2    1    2    0    0 -0.71054273576E-14  0.00000000000E+00  0.00000000000E+00  0.91188000000E+02  0.91188000000E+02 0.  0.
    9900012    2    3    3    0    0 -0.35648376317E+02 -0.48566960390E+01 -0.78349176492E+01  0.54367079791E+02  0.39999989999E+02 0.  0.
        -12    1    3    3    0    0  0.35648376317E+02  0.48566960390E+01  0.78349176492E+01  0.36820920209E+02  0.00000000000E+00 0.  1.
         11    1    4    4    0    0 -0.22486515075E+02 -0.12443315880E+02 -0.16461859140E+02  0.30520030749E+02  0.51100000000E-03 0. -1.
        -11    1    4    4    0    0 -0.78994757748E+01 -0.44479067182E+01  0.41488229070E+01  0.99698707848E+01  0.51100000000E-03 0.  1.
         12    1    4    4    0    0 -0.52623854679E+01  0.12034526560E+02  0.44781185839E+01  0.13877178257E+02  0.00000000000E+00 0. -1.
</event>
<event>
 8    1  0.2534787E-006  0.9118800E+02  0.7816164E-02  0.1184000E+00
        -11   -1    0    0    0    0  0.00000000000E+00  0.00000000000E+00  0.45593999997E+02  0.45594000000E+02  0.51100000000E-03 0.  1.
         11   -1    0    0    0    0 -0.00000000000E+00 -0.00000000000E+00 -0.45593999997E+02  0.45594000000E+02  0.51100000000E-03 0. -1.
         23    2    1    2    0    0  0.00000000000E+00  0.00000000000E+00  0.00000000000E+00  0.91188000000E+02  0.91188000000E+02 0.  0.
    9900012    2    3    3    0    0 -0.32764856201E+02 -0.72639124346E+01  0.15148565338E+02  0.54367092114E+02  0.40000018092E+02 0.  0.
        -12    1    3    3    0    0  0.32764856201E+02  0.72639124346E+01 -0.15148565338E+02  0.36820907886E+02  0.00000000000E+00 0.  1.
         11    1    4    4    0    0 -0.17764937399E+02 -0.16567013941E+02  0.15272491224E+02  0.28693343133E+02  0.51100000000E-03 0. -1.
        -11    1    4    4    0    0 -0.10945135309E+02 -0.99821502781E+00 -0.66274871870E+01  0.12834173399E+02  0.51100000000E-03 0.  1.
         12    1    4    4    0    0 -0.40547834937E+01  0.10301316534E+02  0.65035613007E+01  0.12839575581E+02  0.00000000000E+00 0. -1.
</event>
<event>
 8    1  0.2534787E-006  0.9118800E+02  0.7816164E-02  0.1184000E+00
        -11   -1    0    0    0    0  0.00000000000E+00  0.00000000000E+00  0.45593999997E+02  0.45594000000E+02  0.51100000000E-03 0.  1.
         11   -1    0    0    0    0 -0.00000000000E+00 -0.00000000000E+00 -0.45593999997E+02  0.45594000000E+02  0.51100000000E-03 0. -1.
         23    2    1    2    0    0  0.00000000000E+00  0.71054273576E-14  0.00000000000E+00  0.91188000000E+02  0.91188000000E+02 0.  0.
    9900012    2    3    3    0    0  0.18867152223E+02 -0.18452884622E+02 -0.25676839575E+02  0.54367102748E+02  0.40000042335E+02 0.  0.
        -12    1    3    3    0    0 -0.18867152223E+02  0.18452884622E+02  0.25676839575E+02  0.36820897252E+02  0.00000000000E+00 0.  1.
         11    1    4    4    0    0 -0.38654716474E+01  0.40441704648E+01 -0.38605158011E+01  0.67971147052E+01  0.51100000000E-03 0. -1.
        -11    1    4    4    0    0  0.14923875200E+02  0.54659437524E+00 -0.65004745244E-01  0.14934022977E+02  0.51100000000E-03 0.  1.
         12    1    4    4    0    0  0.78087486704E+01 -0.23043649462E+02 -0.21751319028E+02  0.32635965066E+02  0.00000000000E+00 0. -1.
</event>
<event>
 8    1  0.2534787E-006  0.9118800E+02  0.7816164E-02  0.1184000E+00
        -11   -1    0    0    0    0  0.00000000000E+00  0.00000000000E+00  0.45593999997E+02  0.45594000000E+02  0.51100000000E-03 0.  1.
         11   -1    0    0    0    0 -0.00000000000E+00 -0.00000000000E+00 -0.45593999997E+02  0.45594000000E+02  0.51100000000E-03 0. -1.
         23    2    1    2    0    0 -0.35527136788E-14  0.17763568394E-14 -0.17763568394E-14  0.91188000000E+02  0.91188000000E+02 0.  0.
    9900012    2    3    3    0    0  0.31138951063E+02 -0.15546489994E+02  0.12018866678E+02  0.54367071431E+02  0.39999970941E+02 0.  0.
         12    1    3    3    0    0 -0.31138951063E+02  0.15546489994E+02 -0.12018866678E+02  0.36820928569E+02  0.00000000000E+00 0. -1.
         11    1    4    4    0    0 -0.26570797243E+01  0.58841974768E+01  0.35726510885E+01  0.73788677091E+01  0.51100000000E-03 0. -1.
        -11    1    4    4    0    0  0.73037110587E+01 -0.83556238244E+01  0.13003727229E+02  0.17095542309E+02  0.51100000000E-03 0.  1.
         12    1    4    4    0    0  0.26492319729E+02 -0.13075063647E+02 -0.45575116402E+01  0.29892661413E+02  0.00000000000E+00 0. -1.
</event>
<event>
 8    1  0.2534787E-006  0.9118800E+02  0.7816164E-02  0.1184000E+00
        -11   -1    0    0    0    0  0.00000000000E+00  0.00000000000E+00  0.45593999997E+02  0.45594000000E+02  0.51100000000E-03 0.  1.
         11   -1    0    0    0    0 -0.00000000000E+00 -0.00000000000E+00 -0.45593999997E+02  0.45594000000E+02  0.51100000000E-03 0. -1.
         23    2    1    2    0    0  0.00000000000E+00  0.00000000000E+00  0.00000000000E+00  0.91188000000E+02  0.91188000000E+02 0.  0.
    9900012    2    3    3    0    0  0.10103874608E+01 -0.24337900427E+02  0.27612024539E+02  0.54367106758E+02  0.40000051475E+02 0.  0.
         12    1    3    3    0    0 -0.10103874608E+01  0.24337900427E+02 -0.27612024539E+02  0.36820893242E+02  0.00000000000E+00 0. -1.
         11    1    4    4    0    0  0.15492938041E+02  0.24532143588E+01  0.65847142420E+01  0.17011991411E+02  0.51100000000E-03 0. -1.
        -11    1    4    4    0    0 -0.72986501697E+01 -0.15564802794E+02  0.90093327674E+01  0.19408798456E+02  0.51100000000E-03 0.  1.
         12    1    4    4    0    0 -0.71839004110E+01 -0.11226311991E+02  0.12017977530E+02  0.17946316891E+02  0.00000000000E+00 0. -1.
</event>
<event>
 8    1  0.2534787E-006  0.9118800E+02  0.7816164E-02  0.1184000E+00
        -11   -1    0    0    0    0  0.00000000000E+00  0.00000000000E+00  0.45593999997E+02  0.45594000000E+02  0.51100000000E-03 0.  1.
         11   -1    0    0    0    0 -0.00000000000E+00 -0.00000000000E+00 -0.45593999997E+02  0.45594000000E+02  0.51100000000E-03 0. -1.
         23    2    1    2    0    0  0.19984014443E-14  0.17763568394E-14  0.00000000000E+00  0.91188000000E+02  0.91188000000E+02 0.  0.
    9900012    2    3    3    0    0 -0.18253012605E+01 -0.52753145713E+01 -0.36395322387E+02  0.54367079857E+02  0.39999990150E+02 0.  0.
        -12    1    3    3    0    0  0.18253012605E+01  0.52753145713E+01  0.36395322387E+02  0.36820920143E+02  0.00000000000E+00 0.  1.
         11    1    4    4    0    0  0.92756196465E-01 -0.63803817318E+01 -0.94942057301E+01  0.11439310183E+02  0.51100000000E-03 0. -1.
        -11    1    4    4    0    0  0.14041219159E+02  0.47440442989E+01 -0.20622904983E+02  0.25396180854E+02  0.51100000000E-03 0.  1.
        -12    1    4    4    0    0 -0.15959276616E+02 -0.36389771384E+01 -0.62782116736E+01  0.17531588820E+02  0.00000000000E+00 0.  1.
</event>
<event>
 8    1  0.2534787E-006  0.9118800E+02  0.7816164E-02  0.1184000E+00
        -11   -1    0    0    0    0  0.00000000000E+00  0.00000000000E+00  0.45593999997E+02  0.45594000000E+02  0.51100000000E-03 0. -1.
         11   -1    0    0    0    0 -0.00000000000E+00 -0.00000000000E+00 -0.45593999997E+02  0.45594000000E+02  0.51100000000E-03 0.  1.
         23    2    1    2    0    0  0.00000000000E+00  0.17763568394E-14  0.35527136788E-14  0.91188000000E+02  0.91188000000E+02 0.  0.
    9900012    2    3    3    0    0  0.28713097748E+02 -0.14272156761E+02  0.18100934931E+02  0.54367078145E+02  0.39999986247E+02 0.  0.
        -12    1    3    3    0    0 -0.28713097748E+02  0.14272156761E+02 -0.18100934931E+02  0.36820921855E+02  0.00000000000E+00 0.  1.
         11    1    4    4    0    0  0.98425104753E+01 -0.18458395906E+02  0.18495943772E+02  0.27922881803E+02  0.51100000000E-03 0. -1.
        -11    1    4    4    0    0  0.48193235728E+00 -0.13570908601E+01  0.60241109133E+01  0.61938571953E+01  0.51100000000E-03 0.  1.
        -12    1    4    4    0    0  0.18388654915E+02  0.55433300055E+01 -0.64191197549E+01  0.20250339147E+02  0.00000000000E+00 0.  1.
</event>
<event>
 8    1  0.2534787E-006  0.9118800E+02  0.7816164E-02  0.1184000E+00
        -11   -1    0    0    0    0  0.00000000000E+00  0.00000000000E+00  0.45593999997E+02  0.45594000000E+02  0.51100000000E-03 0. -1.
         11   -1    0    0    0    0 -0.00000000000E+00 -0.00000000000E+00 -0.45593999997E+02  0.45594000000E+02  0.51100000000E-03 0.  1.
         23    2    1    2    0    0  0.33306690739E-15  0.00000000000E+00  0.00000000000E+00  0.91188000000E+02  0.91188000000E+02 0.  0.
    9900012    2    3    3    0    0  0.39765984771E+00 -0.30067170212E+02  0.21250577174E+02  0.54367083551E+02  0.39999998571E+02 0.  0.
        -12    1    3    3    0    0 -0.39765984771E+00  0.30067170212E+02 -0.21250577174E+02  0.36820916449E+02  0.00000000000E+00 0.  1.
         11    1    4    4    0    0 -0.64621174658E+01 -0.99378515304E+01  0.45145955097E+01  0.12684692667E+02  0.51100000000E-03 0. -1.
        -11    1    4    4    0    0 -0.57018631714E+01 -0.19984062152E+02  0.31878989491E-01  0.20781602446E+02  0.51100000000E-03 0.  1.
         12    1    4    4    0    0  0.12561640485E+02 -0.14525652999E+00  0.16704102675E+02  0.20900788438E+02  0.00000000000E+00 0. -1.
</event>
<event>
 8    1  0.2534787E-006  0.9118800E+02  0.7816164E-02  0.1184000E+00
        -11   -1    0    0    0    0  0.00000000000E+00  0.00000000000E+00  0.45593999997E+02  0.45594000000E+02  0.51100000000E-03 0.  1.
         11   -1    0    0    0    0 -0.00000000000E+00 -0.00000000000E+00 -0.45593999997E+02  0.45594000000E+02  0.51100000000E-03 0. -1.
         23    2    1    2    0    0  0.00000000000E+00  0.17763568394E-14  0.71054273576E-14  0.91188000000E+02  0.91188000000E+02 0.  0.
    9900012    2    3    3    0    0  0.17151285393E+02 -0.42564317834E+01  0.32303305111E+02  0.54366982588E+02  0.39999768404E+02 0.  0.
         12    1    3    3    0    0 -0.17151285393E+02  0.42564317834E+01 -0.32303305111E+02  0.36821017412E+02  0.00000000000E+00 0. -1.
         11    1    4    4    0    0  0.74036837494E+01 -0.33772440456E+01 -0.46470955752E+01  0.93710089079E+01  0.51100000000E-03 0. -1.
        -11    1    4    4    0    0  0.31131554046E+01  0.48313860308E+01 -0.11853346364E+01  0.58684790205E+01  0.51100000000E-03 0.  1.
        -12    1    4    4    0    0  0.66344462390E+01 -0.57105737686E+01  0.38135735323E+02  0.39127494659E+02  0.00000000000E+00 0.  1.
</event>
<event>
 8    1  0.2534787E-006  0.9118800E+02  0.7816164E-02  0.1184000E+00
        -11   -1    0    0    0    0  0.00000000000E+00  0.00000000000E+00  0.45593999997E+02  0.45594000000E+02  0.51100000000E-03 0. -1.
         11   -1    0    0    0    0 -0.00000000000E+00 -0.00000000000E+00 -0.45593999997E+02  0.45594000000E+02  0.51100000000E-03 0.  1.
         23    2    1    2    0    0 -0.17763568394E-14  0.35527136788E-14 -0.35527136788E-14  0.91188000000E+02  0.91188000000E+02 0.  0.
    9900012    2    3    3    0    0  0.87970090119E+01  0.26773496276E+02 -0.23697531112E+02  0.54367075905E+02  0.39999981141E+02 0.  0.
         12    1    3    3    0    0 -0.87970090119E+01 -0.26773496276E+02  0.23697531112E+02  0.36820924095E+02  0.00000000000E+00 0. -1.
         11    1    4    4    0    0  0.41351260485E+00 -0.19263950774E+00 -0.71408765771E+01  0.71554329851E+01  0.51100000000E-03 0. -1.
        -11    1    4    4    0    0  0.16544632830E+02  0.14036551345E+01 -0.10679242992E+02  0.19741868056E+02  0.51100000000E-03 0.  1.
         12    1    4    4    0    0 -0.81611364227E+01  0.25562480649E+02 -0.58774115438E+01  0.27469774864E+02  0.00000000000E+00 0. -1.
</event>
<event>
 8    1  0.2534787E-006  0.9118800E+02  0.7816164E-02  0.1184000E+00
        -11   -1    0    0    0    0  0.00000000000E+00  0.00000000000E+00  0.45593999997E+02  0.45594000000E+02  0.51100000000E-03 0. -1.
         11   -1    0    0    0    0 -0.00000000000E+00 -0.00000000000E+00 -0.45593999997E+02  0.45594000000E+02  0.51100000000E-03 0.  1.
         23    2    1    2    0    0 -0.88817841970E-15  0.17763568394E-14  0.00000000000E+00  0.91188000000E+02  0.91188000000E+02 0.  0.
    9900012    2    3    3    0    0  0.27522296588E+01 -0.14412648253E+02 -0.33771024555E+02  0.54367064416E+02  0.39999954949E+02 0.  0.
         12    1    3    3    0    0 -0.27522296588E+01  0.14412648253E+02  0.33771024555E+02  0.36820935584E+02  0.00000000000E+00 0. -1.
         11    1    4    4    0    0  0.35471919082E+01 -0.11459948864E+02 -0.47925400142E+01  0.12918259884E+02  0.51100000000E-03 0. -1.
        -11    1    4    4    0    0 -0.11371495797E+02 -0.20396661672E+01 -0.28578565605E+02  0.30825404572E+02  0.51100000000E-03 0.  1.
        -12    1    4    4    0    0  0.10576533547E+02 -0.91303322205E+00 -0.39991893559E+00  0.10623399959E+02  0.00000000000E+00 0.  1.
</event>
<event>
 8    1  0.2534787E-006  0.9118800E+02  0.7816164E-02  0.1184000E+00
        -11   -1    0    0    0    0  0.00000000000E+00  0.00000000000E+00  0.45593999997E+02  0.45594000000E+02  0.51100000000E-03 0. -1.
         11   -1    0    0    0    0 -0.00000000000E+00 -0.00000000000E+00 -0.45593999997E+02  0.45594000000E+02  0.51100000000E-03 0.  1.
         23    2    1    2    0    0  0.00000000000E+00  0.00000000000E+00  0.00000000000E+00  0.91188000000E+02  0.91188000000E+02 0.  0.
    9900012    2    3    3    0    0  0.13406021624E+01  0.33054592790E+01 -0.36647716735E+02  0.54367103526E+02  0.40000044109E+02 0.  0.
         12    1    3    3    0    0 -0.13406021624E+01 -0.33054592790E+01  0.36647716735E+02  0.36820896474E+02  0.00000000000E+00 0. -1.
         11    1    4    4    0    0 -0.80009145353E+01 -0.33036727635E-01 -0.17881828717E+00  0.80029807614E+01  0.51100000000E-03 0. -1.
        -11    1    4    4    0    0  0.17537389248E+02  0.52611539333E+01 -0.16319521909E+02  0.24526853813E+02  0.51100000000E-03 0.  1.
        -12    1    4    4    0    0 -0.81958725508E+01 -0.19226579267E+01 -0.20149376539E+02  0.21837268952E+02  0.00000000000E+00 0.  1.
</event>
<event>
 8    1  0.2534787E-006  0.9118800E+02  0.7816164E-02  0.1184000E+00
        -11   -1    0    0    0    0  0.00000000000E+00  0.00000000000E+00  0.45593999997E+02  0.45594000000E+02  0.51100000000E-03 0. -1.
         11   -1    0    0    0    0 -0.00000000000E+00 -0.00000000000E+00 -0.45593999997E+02  0.45594000000E+02  0.51100000000E-03 0.  1.
         23    2    1    2    0    0  0.17763568394E-14 -0.88817841970E-15  0.00000000000E+00  0.91188000000E+02  0.91188000000E+02 0.  0.
    9900012    2    3    3    0    0  0.99017708558E+01  0.61811373886E+01  0.34921810980E+02  0.54367022180E+02  0.39999858663E+02 0.  0.
        -12    1    3    3    0    0 -0.99017708558E+01 -0.61811373886E+01 -0.34921810980E+02  0.36820977820E+02  0.00000000000E+00 0.  1.
         11    1    4    4    0    0  0.15562722520E+02  0.60986266624E+01  0.87156023181E+01  0.18850817049E+02  0.51100000000E-03 0. -1.
        -11    1    4    4    0    0  0.80016457962E+01 -0.48419606177E+01  0.87380389266E+01  0.12799384462E+02  0.51100000000E-03 0.  1.
        -12    1    4    4    0    0 -0.13662597460E+02  0.49244713439E+01  0.17468169736E+02  0.22716820668E+02  0.00000000000E+00 0.  1.
</event>
<event>
 8    1  0.2534787E-006  0.9118800E+02  0.7816164E-02  0.1184000E+00
        -11   -1    0    0    0    0  0.00000000000E+00  0.00000000000E+00  0.45593999997E+02  0.45594000000E+02  0.51100000000E-03 0.  1.
         11   -1    0    0    0    0 -0.00000000000E+00 -0.00000000000E+00 -0.45593999997E+02  0.45594000000E+02  0.51100000000E-03 0. -1.
         23    2    1    2    0    0 -0.35527136788E-14  0.17763568394E-14  0.35527136788E-14  0.91188000000E+02  0.91188000000E+02 0.  0.
    9900012    2    3    3    0    0 -0.25117172453E+02  0.76339705694E+01  0.25819169134E+02  0.54367090811E+02  0.40000015123E+02 0.  0.
        -12    1    3    3    0    0  0.25117172453E+02 -0.76339705694E+01 -0.25819169134E+02  0.36820909189E+02  0.00000000000E+00 0.  1.
         11    1    4    4    0    0 -0.44220962892E+00  0.12739980100E+02  0.37749870574E+00  0.12753240680E+02  0.51100000000E-03 0. -1.
        -11    1    4    4    0    0 -0.22304802129E+02  0.42932973024E+01  0.21063185911E+02  0.30977320748E+02  0.51100000000E-03 0.  1.
        -12    1    4    4    0    0 -0.23701606951E+01 -0.93993068329E+01  0.43784845181E+01  0.10636529384E+02  0.00000000000E+00 0.  1.
</event>
<event>
 8    1  0.2534787E-006  0.9118800E+02  0.7816164E-02  0.1184000E+00
        -11   -1    0    0    0    0  0.00000000000E+00  0.00000000000E+00  0.45593999997E+02  0.45594000000E+02  0.51100000000E-03 0. -1.
         11   -1    0    0    0    0 -0.00000000000E+00 -0.00000000000E+00 -0.45593999997E+02  0.45594000000E+02  0.51100000000E-03 0.  1.
         23    2    1    2    0    0 -0.35527136788E-14 -0.35527136788E-14  0.00000000000E+00  0.91188000000E+02  0.91188000000E+02 0.  0.
    9900012    2    3    3    0    0 -0.21419442674E+02 -0.29623817601E+02  0.44064017285E+01  0.54367089230E+02  0.40000011517E+02 0.  0.
        -12    1    3    3    0    0  0.21419442674E+02  0.29623817601E+02 -0.44064017285E+01  0.36820910770E+02  0.00000000000E+00 0.  1.
         11    1    4    4    0    0 -0.34210002854E+01 -0.14545285602E+02  0.12987815611E+02  0.19797775905E+02  0.51100000000E-03 0. -1.
        -11    1    4    4    0    0  0.32358255189E+01  0.17873318582E+01 -0.63661825719E+01  0.73616168578E+01  0.51100000000E-03 0.  1.
         12    1    4    4    0    0 -0.21234267908E+02 -0.16865863858E+02 -0.22152313105E+01  0.27207696467E+02  0.00000000000E+00 0. -1.
</event>
<event>
 8    1  0.2534787E-006  0.9118800E+02  0.7816164E-02  0.1184000E+00
        -11   -1    0    0    0    0  0.00000000000E+00  0.00000000000E+00  0.45593999997E+02  0.45594000000E+02  0.51100000000E-03 0. -1.
         11   -1    0    0    0    0 -0.00000000000E+00 -0.00000000000E+00 -0.45593999997E+02  0.45594000000E+02  0.51100000000E-03 0.  1.
         23    2    1    2    0    0 -0.17763568394E-14  0.17763568394E-14  0.00000000000E+00  0.91188000000E+02  0.91188000000E+02 0.  0.
    9900012    2    3    3    0    0 -0.12458506211E+02  0.60038765673E+01 -0.34124797337E+02  0.54367316898E+02  0.40000530528E+02 0.  0.
         12    1    3    3    0    0  0.12458506211E+02 -0.60038765673E+01  0.34124797337E+02  0.36820683102E+02  0.00000000000E+00 0. -1.
         11    1    4    4    0    0 -0.18165034451E+02 -0.74438391603E+00 -0.93717193324E+01  0.20453647781E+02  0.51100000000E-03 0. -1.
        -11    1    4    4    0    0  0.95803136813E+01 -0.20659205221E+01 -0.32029887427E+01  0.10310653470E+02  0.51100000000E-03 0.  1.
        -12    1    4    4    0    0 -0.38737854407E+01  0.88141810055E+01 -0.21550089262E+02  0.23603015647E+02  0.00000000000E+00 0.  1.
</event>
<event>
 8    1  0.2534787E-006  0.9118800E+02  0.7816164E-02  0.1184000E+00
        -11   -1    0    0    0    0  0.00000000000E+00  0.00000000000E+00  0.45593999997E+02  0.45594000000E+02  0.51100000000E-03 0.  1.
         11   -1    0    0    0    0 -0.00000000000E+00 -0.00000000000E+00 -0.45593999997E+02  0.45594000000E+02  0.51100000000E-03 0. -1.
         23    2    1    2    0    0  0.00000000000E+00 -0.88817841970E-15  0.00000000000E+00  0.91188000000E+02  0.91188000000E+02 0.  0.
    9900012    2    3    3    0    0  0.12841604852E+02 -0.62163804558E+01 -0.33944505521E+02  0.54367086701E+02  0.40000005751E+02 0.  0.
        -12    1    3    3    0    0 -0.12841604852E+02  0.62163804558E+01  0.33944505521E+02  0.36820913299E+02  0.00000000000E+00 0.  1.
         11    1    4    4    0    0  0.58204564283E+01 -0.13293146702E+02 -0.12027222443E+02  0.18847799400E+02  0.51100000000E-03 0. -1.
        -11    1    4    4    0    0  0.71512642395E+01 -0.78792869196E+00 -0.25773700687E+02  0.26759018278E+02  0.51100000000E-03 0.  1.
        -12    1    4    4    0    0 -0.13011581598E+00  0.78646949377E+01  0.38564176083E+01  0.87602690232E+01  0.00000000000E+00 0.  1.
</event>
<event>
 8    1  0.2534787E-006  0.9118800E+02  0.7816164E-02  0.1184000E+00
        -11   -1    0    0    0    0  0.00000000000E+00  0.00000000000E+00  0.45593999997E+02  0.45594000000E+02  0.51100000000E-03 0.  1.
         11   -1    0    0    0    0 -0.00000000000E+00 -0.00000000000E+00 -0.45593999997E+02  0.45594000000E+02  0.51100000000E-03 0. -1.
         23    2    1    2    0    0  0.17763568394E-14  0.00000000000E+00  0.00000000000E+00  0.91188000000E+02  0.91188000000E+02 0.  0.
    9900012    2    3    3    0    0 -0.72016269516E+01  0.64888460186E+00 -0.36103927635E+02  0.54367108204E+02  0.40000054772E+02 0.  0.
        -12    1    3    3    0    0  0.72016269516E+01 -0.64888460186E+00  0.36103927635E+02  0.36820891796E+02  0.00000000000E+00 0.  1.
         11    1    4    4    0    0  0.11326180458E+02  0.23690115615E+01 -0.11015254048E+02  0.15975931946E+02  0.51100000000E-03 0. -1.
        -11    1    4    4    0    0 -0.75871248609E+00  0.22073107109E+01 -0.19086863384E+02  0.19229046241E+02  0.51100000000E-03 0.  1.
        -12    1    4    4    0    0 -0.17769094924E+02 -0.39274376705E+01 -0.60018102028E+01  0.19162130017E+02  0.00000000000E+00 0.  1.
</event>
<event>
 8    1  0.2534787E-006  0.9118800E+02  0.7816164E-02  0.1184000E+00
        -11   -1    0    0    0    0  0.00000000000E+00  0.00000000000E+00  0.45593999997E+02  0.45594000000E+02  0.51100000000E-03 0.  1.
         11   -1    0    0    0    0 -0.00000000000E+00 -0.00000000000E+00 -0.45593999997E+02  0.45594000000E+02  0.51100000000E-03 0. -1.
         23    2    1    2    0    0  0.88817841970E-15  0.00000000000E+00  0.35527136788E-14  0.91188000000E+02  0.91188000000E+02 0.  0.
    9900012    2    3    3    0    0  0.26578263859E+01 -0.21411947733E+02  0.29836950551E+02  0.54367093371E+02  0.40000020958E+02 0.  0.
         12    1    3    3    0    0 -0.26578263859E+01  0.21411947733E+02 -0.29836950551E+02  0.36820906629E+02  0.00000000000E+00 0. -1.
         11    1    4    4    0    0 -0.27820540433E+01 -0.13742029889E+02  0.67672995950E+01  0.15568543742E+02  0.51100000000E-03 0. -1.
        -11    1    4    4    0    0  0.14494868206E+02 -0.13985279526E+02  0.15441726125E+02  0.25379837543E+02  0.51100000000E-03 0.  1.
         12    1    4    4    0    0 -0.90549877769E+01  0.63153616826E+01  0.76279248305E+01  0.13418712086E+02  0.00000000000E+00 0. -1.
</event>
<event>
 8    1  0.2534787E-006  0.9118800E+02  0.7816164E-02  0.1184000E+00
        -11   -1    0    0    0    0  0.00000000000E+00  0.00000000000E+00  0.45593999997E+02  0.45594000000E+02  0.51100000000E-03 0.  1.
         11   -1    0    0    0    0 -0.00000000000E+00 -0.00000000000E+00 -0.45593999997E+02  0.45594000000E+02  0.51100000000E-03 0. -1.
         23    2    1    2    0    0 -0.88817841970E-15 -0.88817841970E-15  0.00000000000E+00  0.91188000000E+02  0.91188000000E+02 0.  0.
    9900012    2    3    3    0    0 -0.76348954853E+01 -0.71230707740E+01  0.35309352285E+02  0.54367080333E+02  0.39999991235E+02 0.  0.
        -12    1    3    3    0    0  0.76348954853E+01  0.71230707740E+01 -0.35309352285E+02  0.36820919667E+02  0.00000000000E+00 0.  1.
         11    1    4    4    0    0 -0.52898330492E+01 -0.15097556004E+02  0.87576905100E+01  0.18237754092E+02  0.51100000000E-03 0. -1.
        -11    1    4    4    0    0 -0.11545161524E+02  0.38137869522E+01  0.21818897075E+02  0.24977990218E+02  0.51100000000E-03 0.  1.
         12    1    4    4    0    0  0.92000990876E+01  0.41606982780E+01  0.47327647003E+01  0.11151336023E+02  0.00000000000E+00 0. -1.
</event>
<event>
 8    1  0.2534787E-006  0.9118800E+02  0.7816164E-02  0.1184000E+00
        -11   -1    0    0    0    0  0.00000000000E+00  0.00000000000E+00  0.45593999997E+02  0.45594000000E+02  0.51100000000E-03 0.  1.
         11   -1    0    0    0    0 -0.00000000000E+00 -0.00000000000E+00 -0.45593999997E+02  0.45594000000E+02  0.51100000000E-03 0. -1.
         23    2    1    2    0    0  0.00000000000E+00  0.35527136788E-14  0.17763568394E-14  0.91188000000E+02  0.91188000000E+02 0.  0.
    9900012    2    3    3    0    0 -0.20852814777E+02  0.27396527837E+02  0.13052601824E+02  0.54367081543E+02  0.39999993993E+02 0.  0.
         12    1    3    3    0    0  0.20852814777E+02 -0.27396527837E+02 -0.13052601824E+02  0.36820918457E+02  0.00000000000E+00 0. -1.
         11    1    4    4    0    0 -0.22837408431E+02  0.19587800547E+02 -0.75468160619E+01  0.31019084239E+02  0.51100000000E-03 0. -1.
        -11    1    4    4    0    0  0.38010561081E+01  0.49414213684E+01  0.71934226342E+01  0.95189811499E+01  0.51100000000E-03 0.  1.
         12    1    4    4    0    0 -0.18164624547E+01  0.28673059216E+01  0.13405995252E+02  0.13829016154E+02  0.00000000000E+00 0. -1.
</event>
<event>
 8    1  0.2534787E-006  0.9118800E+02  0.7816164E-02  0.1184000E+00
        -11   -1    0    0    0    0  0.00000000000E+00  0.00000000000E+00  0.45593999997E+02  0.45594000000E+02  0.51100000000E-03 0.  1.
         11   -1    0    0    0    0 -0.00000000000E+00 -0.00000000000E+00 -0.45593999997E+02  0.45594000000E+02  0.51100000000E-03 0. -1.
         23    2    1    2    0    0 -0.26645352591E-14  0.35527136788E-14  0.17763568394E-13  0.91188000000E+02  0.91188000000E+02 0.  0.
    9900012    2    3    3    0    0 -0.77897105263E+01  0.18018006471E+02  0.31152073409E+02  0.54367084409E+02  0.40000000527E+02 0.  0.
         12    1    3    3    0    0  0.77897105263E+01 -0.18018006471E+02 -0.31152073409E+02  0.36820915591E+02  0.00000000000E+00 0. -1.
         11    1    4    4    0    0  0.25007814961E+01 -0.84856533561E-01 -0.30988297750E+01  0.39829455128E+01  0.51100000000E-03 0. -1.
        -11    1    4    4    0    0 -0.17792761410E+02  0.10318854976E+02  0.81344700156E+01  0.22118560742E+02  0.51100000000E-03 0.  1.
         12    1    4    4    0    0  0.75022693875E+01  0.77840080286E+01  0.26116433168E+02  0.28265578154E+02  0.00000000000E+00 0. -1.
</event>
<event>
 8    1  0.2534787E-006  0.9118800E+02  0.7816164E-02  0.1184000E+00
        -11   -1    0    0    0    0  0.00000000000E+00  0.00000000000E+00  0.45593999997E+02  0.45594000000E+02  0.51100000000E-03 0.  1.
         11   -1    0    0    0    0 -0.00000000000E+00 -0.00000000000E+00 -0.45593999997E+02  0.45594000000E+02  0.51100000000E-03 0. -1.
         23    2    1    2    0    0  0.17763568394E-14  0.71054273576E-14 -0.17763568394E-14  0.91188000000E+02  0.91188000000E+02 0.  0.
    9900012    2    3    3    0    0 -0.14537638945E+02  0.32713540045E+02 -0.86177315648E+01  0.54367028453E+02  0.39999872963E+02 0.  0.
        -12    1    3    3    0    0  0.14537638945E+02 -0.32713540045E+02  0.86177315648E+01  0.36820971547E+02  0.00000000000E+00 0.  1.
         11    1    4    4    0    0 -0.11403105817E+02  0.14116634343E+02  0.58387675057E+01  0.19063089825E+02  0.51100000000E-03 0. -1.
        -11    1    4    4    0    0 -0.89043269295E+01  0.16880626126E+01  0.37385632785E+01  0.98037466869E+01  0.51100000000E-03 0.  1.
         12    1    4    4    0    0  0.57697938012E+01  0.16908843089E+02 -0.18195062349E+02  0.25500191941E+02  0.00000000000E+00 0. -1.
</event>
<event>
 8    1  0.2534787E-006  0.9118800E+02  0.7816164E-02  0.1184000E+00
        -11   -1    0    0    0    0  0.00000000000E+00  0.00000000000E+00  0.45593999997E+02  0.45594000000E+02  0.51100000000E-03 0. -1.
         11   -1    0    0    0    0 -0.00000000000E+00 -0.00000000000E+00 -0.45593999997E+02  0.45594000000E+02  0.51100000000E-03 0.  1.
         23    2    1    2    0    0  0.00000000000E+00  0.17763568394E-14  0.00000000000E+00  0.91188000000E+02  0.91188000000E+02 0.  0.
    9900012    2    3    3    0    0  0.46632811225E+01 -0.92221836479E+01  0.35340966047E+02  0.54367099098E+02  0.40000034015E+02 0.  0.
        -12    1    3    3    0    0 -0.46632811225E+01  0.92221836479E+01 -0.35340966047E+02  0.36820900902E+02  0.00000000000E+00 0.  1.
         11    1    4    4    0    0  0.30527691141E+01  0.20496509010E+00  0.24202405090E+01  0.39011503861E+01  0.51100000000E-03 0. -1.
        -11    1    4    4    0    0  0.19118327089E+02 -0.42511568656E+01  0.13354666212E+02  0.23705060119E+02  0.51100000000E-03 0.  1.
         12    1    4    4    0    0 -0.17507815080E+02 -0.51759918724E+01  0.19566059327E+02  0.26760888593E+02  0.00000000000E+00 0. -1.
</event>
<event>
 8    1  0.2534787E-006  0.9118800E+02  0.7816164E-02  0.1184000E+00
        -11   -1    0    0    0    0  0.00000000000E+00  0.00000000000E+00  0.45593999997E+02  0.45594000000E+02  0.51100000000E-03 0. -1.
         11   -1    0    0    0    0 -0.00000000000E+00 -0.00000000000E+00 -0.45593999997E+02  0.45594000000E+02  0.51100000000E-03 0.  1.
         23    2    1    2    0    0  0.00000000000E+00  0.88817841970E-15 -0.72164496601E-15  0.91188000000E+02  0.91188000000E+02 0.  0.
    9900012    2    3    3    0    0  0.35955729612E+02  0.79268611830E+01 -0.36026502442E+00  0.54367090030E+02  0.40000013340E+02 0.  0.
        -12    1    3    3    0    0 -0.35955729612E+02 -0.79268611830E+01  0.36026502442E+00  0.36820909970E+02  0.00000000000E+00 0.  1.
         11    1    4    4    0    0  0.22760568097E+02  0.15294410471E+02  0.11080865985E+02  0.29576139758E+02  0.51100000000E-03 0. -1.
        -11    1    4    4    0    0  0.16734023005E+02 -0.66575460888E+01 -0.76823773415E+01  0.19579820422E+02  0.51100000000E-03 0.  1.
         12    1    4    4    0    0 -0.35388614894E+01 -0.71000319952E+00 -0.37587536674E+01  0.52111298503E+01  0.00000000000E+00 0. -1.
</event>
<event>
 8    1  0.2534787E-006  0.9118800E+02  0.7816164E-02  0.1184000E+00
        -11   -1    0    0    0    0  0.00000000000E+00  0.00000000000E+00  0.45593999997E+02  0.45594000000E+02  0.51100000000E-03 0.  1.
         11   -1    0    0    0    0 -0.00000000000E+00 -0.00000000000E+00 -0.45593999997E+02  0.45594000000E+02  0.51100000000E-03 0. -1.
         23    2    1    2    0    0  0.00000000000E+00  0.35527136788E-14 -0.71054273576E-14  0.91188000000E+02  0.91188000000E+02 0.  0.
    9900012    2    3    3    0    0 -0.63983096492E+01 -0.13716412533E+02  0.33566376811E+02  0.54367082150E+02  0.39999995377E+02 0.  0.
         12    1    3    3    0    0  0.63983096492E+01  0.13716412533E+02 -0.33566376811E+02  0.36820917850E+02  0.00000000000E+00 0. -1.
         11    1    4    4    0    0  0.15026435233E+00 -0.18525991177E+01  0.13257309095E+01  0.22830386708E+01  0.51100000000E-03 0. -1.
        -11    1    4    4    0    0  0.15635964743E+01 -0.21024296881E+02  0.33710412638E+02  0.39760002688E+02  0.51100000000E-03 0.  1.
         12    1    4    4    0    0 -0.81121704758E+01  0.91604834653E+01 -0.14697667372E+01  0.12324040791E+02  0.00000000000E+00 0. -1.
</event>
<event>
 8    1  0.2534787E-006  0.9118800E+02  0.7816164E-02  0.1184000E+00
        -11   -1    0    0    0    0  0.00000000000E+00  0.00000000000E+00  0.45593999997E+02  0.45594000000E+02  0.51100000000E-03 0. -1.
         11   -1    0    0    0    0 -0.00000000000E+00 -0.00000000000E+00 -0.45593999997E+02  0.45594000000E+02  0.51100000000E-03 0.  1.
         23    2    1    2    0    0 -0.35527136788E-14  0.00000000000E+00  0.71054273576E-14  0.91188000000E+02  0.91188000000E+02 0.  0.
    9900012    2    3    3    0    0 -0.15751309081E+02  0.18895583534E+02  0.27397687076E+02  0.54367081055E+02  0.39999992880E+02 0.  0.
        -12    1    3    3    0    0  0.15751309081E+02 -0.18895583534E+02 -0.27397687076E+02  0.36820918945E+02  0.00000000000E+00 0.  1.
         11    1    4    4    0    0  0.95826010988E+01  0.42112220673E+01  0.17638886421E+02  0.20510752047E+02  0.51100000000E-03 0. -1.
        -11    1    4    4    0    0 -0.52924183087E+00 -0.10481836564E+01 -0.19166788313E+01  0.22477641995E+01  0.51100000000E-03 0.  1.
        -12    1    4    4    0    0 -0.24804668349E+02  0.15732545123E+02  0.11675479487E+02  0.31608564808E+02  0.00000000000E+00 0.  1.
</event>
<event>
 8    1  0.2534787E-006  0.9118800E+02  0.7816164E-02  0.1184000E+00
        -11   -1    0    0    0    0  0.00000000000E+00  0.00000000000E+00  0.45593999997E+02  0.45594000000E+02  0.51100000000E-03 0. -1.
         11   -1    0    0    0    0 -0.00000000000E+00 -0.00000000000E+00 -0.45593999997E+02  0.45594000000E+02  0.51100000000E-03 0.  1.
         23    2    1    2    0    0 -0.26645352591E-14  0.35527136788E-14  0.71054273576E-14  0.91188000000E+02  0.91188000000E+02 0.  0.
    9900012    2    3    3    0    0  0.63587000217E+01  0.23732822228E+02  0.27424435366E+02  0.54367087844E+02  0.40000008357E+02 0.  0.
        -12    1    3    3    0    0 -0.63587000217E+01 -0.23732822228E+02 -0.27424435366E+02  0.36820912156E+02  0.00000000000E+00 0.  1.
         11    1    4    4    0    0  0.16926105273E+02  0.15483420266E+02  0.19950457150E+01  0.23026279563E+02  0.51100000000E-03 0. -1.
        -11    1    4    4    0    0 -0.66026071902E+00 -0.28457561198E+01  0.74731152930E+01  0.80238223157E+01  0.51100000000E-03 0.  1.
         12    1    4    4    0    0 -0.99071445326E+01  0.11095158082E+02  0.17956274358E+02  0.23316985965E+02  0.00000000000E+00 0. -1.
</event>
<event>
 8    1  0.2534787E-006  0.9118800E+02  0.7816164E-02  0.1184000E+00
        -11   -1    0    0    0    0  0.00000000000E+00  0.00000000000E+00  0.45593999997E+02  0.45594000000E+02  0.51100000000E-03 0. -1.
         11   -1    0    0    0    0 -0.00000000000E+00 -0.00000000000E+00 -0.45593999997E+02  0.45594000000E+02  0.51100000000E-03 0.  1.
         23    2    1    2    0    0  0.17763568394E-14  0.35527136788E-14  0.00000000000E+00  0.91188000000E+02  0.91188000000E+02 0.  0.
    9900012    2    3    3    0    0  0.98795115895E+01  0.26209099538E+02  0.23901006928E+02  0.54367085020E+02  0.40000001920E+02 0.  0.
        -12    1    3    3    0    0 -0.98795115895E+01 -0.26209099538E+02 -0.23901006928E+02  0.36820914980E+02  0.00000000000E+00 0.  1.
         11    1    4    4    0    0  0.28163206542E+01  0.12502036787E+01  0.69007752834E+01  0.75574712066E+01  0.51100000000E-03 0. -1.
        -11    1    4    4    0    0  0.15468644634E+02  0.14637124125E+02 -0.42676459975E+01  0.21719511323E+02  0.51100000000E-03 0.  1.
         12    1    4    4    0    0 -0.84054536988E+01  0.10321771734E+02  0.21267877642E+02  0.25090102491E+02  0.00000000000E+00 0. -1.
</event>
<event>
 8    1  0.2534787E-006  0.9118800E+02  0.7816164E-02  0.1184000E+00
        -11   -1    0    0    0    0  0.00000000000E+00  0.00000000000E+00  0.45593999997E+02  0.45594000000E+02  0.51100000000E-03 0. -1.
         11   -1    0    0    0    0 -0.00000000000E+00 -0.00000000000E+00 -0.45593999997E+02  0.45594000000E+02  0.51100000000E-03 0.  1.
         23    2    1    2    0    0  0.00000000000E+00  0.35527136788E-14  0.00000000000E+00  0.91188000000E+02  0.91188000000E+02 0.  0.
    9900012    2    3    3    0    0  0.28822462057E+02  0.19983664836E+02 -0.11211569240E+02  0.54367075730E+02  0.39999980741E+02 0.  0.
         12    1    3    3    0    0 -0.28822462057E+02 -0.19983664836E+02  0.11211569240E+02  0.36820924270E+02  0.00000000000E+00 0. -1.
         11    1    4    4    0    0  0.17229858531E+02 -0.94827478026E+01 -0.55675758370E+00  0.19674870016E+02  0.51100000000E-03 0. -1.
        -11    1    4    4    0    0  0.50989359113E+01  0.18779370427E+02 -0.21693451380E+01  0.19579835537E+02  0.51100000000E-03 0.  1.
         12    1    4    4    0    0  0.64936676139E+01  0.10687042212E+02 -0.84854665178E+01  0.15112370176E+02  0.00000000000E+00 0. -1.
</event>
<event>
 8    1  0.2534787E-006  0.9118800E+02  0.7816164E-02  0.1184000E+00
        -11   -1    0    0    0    0  0.00000000000E+00  0.00000000000E+00  0.45593999997E+02  0.45594000000E+02  0.51100000000E-03 0.  1.
         11   -1    0    0    0    0 -0.00000000000E+00 -0.00000000000E+00 -0.45593999997E+02  0.45594000000E+02  0.51100000000E-03 0. -1.
         23    2    1    2    0    0  0.00000000000E+00  0.00000000000E+00  0.35527136788E-14  0.91188000000E+02  0.91188000000E+02 0.  0.
    9900012    2    3    3    0    0 -0.25606598870E+02 -0.11108425285E+02  0.24014275011E+02  0.54367076298E+02  0.39999982036E+02 0.  0.
         12    1    3    3    0    0  0.25606598870E+02  0.11108425285E+02 -0.24014275011E+02  0.36820923702E+02  0.00000000000E+00 0. -1.
         11    1    4    4    0    0 -0.89762987792E+01 -0.11944452694E+02  0.20620097964E+02  0.25464334474E+02  0.51100000000E-03 0.  1.
        -11    1    4    4    0    0  0.28213473127E+01  0.74046549538E+01 -0.74489010867E+00  0.79588803973E+01  0.51100000000E-03 0. -1.
        -12    1    4    4    0    0 -0.19451647403E+02 -0.65686275450E+01  0.41390671554E+01  0.20943861426E+02  0.00000000000E+00 0.  1.
</event>
<event>
 8    1  0.2534787E-006  0.9118800E+02  0.7816164E-02  0.1184000E+00
        -11   -1    0    0    0    0  0.00000000000E+00  0.00000000000E+00  0.45593999997E+02  0.45594000000E+02  0.51100000000E-03 0. -1.
         11   -1    0    0    0    0 -0.00000000000E+00 -0.00000000000E+00 -0.45593999997E+02  0.45594000000E+02  0.51100000000E-03 0.  1.
         23    2    1    2    0    0  0.00000000000E+00  0.88817841970E-15  0.00000000000E+00  0.91188000000E+02  0.91188000000E+02 0.  0.
    9900012    2    3    3    0    0  0.17551713899E+02  0.18750988469E+01  0.32314106733E+02  0.54367079989E+02  0.39999990452E+02 0.  0.
        -12    1    3    3    0    0 -0.17551713899E+02 -0.18750988469E+01 -0.32314106733E+02  0.36820920011E+02  0.00000000000E+00 0.  1.
         11    1    4    4    0    0  0.20522818858E+02  0.55039709976E+01  0.29275709037E+02  0.36173843181E+02  0.51100000000E-03 0. -1.
        -11    1    4    4    0    0 -0.41408371674E+01 -0.88180369569E+01  0.66219225890E+01  0.11779395878E+02  0.51100000000E-03 0.  1.
         12    1    4    4    0    0  0.11697322079E+01  0.51891648061E+01 -0.35835248923E+01  0.64138409301E+01  0.00000000000E+00 0. -1.
</event>
<event>
 8    1  0.2534787E-006  0.9118800E+02  0.7816164E-02  0.1184000E+00
        -11   -1    0    0    0    0  0.00000000000E+00  0.00000000000E+00  0.45593999997E+02  0.45594000000E+02  0.51100000000E-03 0.  1.
         11   -1    0    0    0    0 -0.00000000000E+00 -0.00000000000E+00 -0.45593999997E+02  0.45594000000E+02  0.51100000000E-03 0. -1.
         23    2    1    2    0    0 -0.35527136788E-14  0.00000000000E+00  0.35527136788E-14  0.91188000000E+02  0.91188000000E+02 0.  0.
    9900012    2    3    3    0    0 -0.27525837614E+02  0.67293216513E+01 -0.23512193087E+02  0.54367099278E+02  0.40000034423E+02 0.  0.
        -12    1    3    3    0    0  0.27525837614E+02 -0.67293216513E+01  0.23512193087E+02  0.36820900722E+02  0.00000000000E+00 0.  1.
         11    1    4    4    0    0 -0.10441735722E+01 -0.33766987258E+01 -0.20087053339E+02  0.20395639358E+02  0.51100000000E-03 0. -1.
        -11    1    4    4    0    0 -0.82093405899E+01  0.10216923379E+01  0.71981435845E+01  0.10965874314E+02  0.51100000000E-03 0.  1.
         12    1    4    4    0    0 -0.18272323452E+02  0.90843280393E+01 -0.10623283333E+02  0.23005585605E+02  0.00000000000E+00 0. -1.
</event>
<event>
 8    1  0.2534787E-006  0.9118800E+02  0.7816164E-02  0.1184000E+00
        -11   -1    0    0    0    0  0.00000000000E+00  0.00000000000E+00  0.45593999997E+02  0.45594000000E+02  0.51100000000E-03 0. -1.
         11   -1    0    0    0    0 -0.00000000000E+00 -0.00000000000E+00 -0.45593999997E+02  0.45594000000E+02  0.51100000000E-03 0.  1.
         23    2    1    2    0    0 -0.17763568394E-14  0.35527136788E-14  0.00000000000E+00  0.91188000000E+02  0.91188000000E+02 0.  0.
    9900012    2    3    3    0    0  0.12775210740E+02  0.23487501463E+02 -0.25316224215E+02  0.54367082807E+02  0.39999996875E+02 0.  0.
         12    1    3    3    0    0 -0.12775210740E+02 -0.23487501463E+02  0.25316224215E+02  0.36820917193E+02  0.00000000000E+00 0. -1.
         11    1    4    4    0    0  0.51279352958E+01 -0.78012608987E+01 -0.29047461908E+01  0.97771643487E+01  0.51100000000E-03 0. -1.
        -11    1    4    4    0    0  0.10643860412E+02  0.61914133145E+01 -0.12186489286E+02  0.17324430284E+02  0.51100000000E-03 0.  1.
         12    1    4    4    0    0 -0.29965849680E+01  0.25097349047E+02 -0.10224988738E+02  0.27265488174E+02  0.00000000000E+00 0. -1.
</event>
<event>
 8    1  0.2534787E-006  0.9118800E+02  0.7816164E-02  0.1184000E+00
        -11   -1    0    0    0    0  0.00000000000E+00  0.00000000000E+00  0.45593999997E+02  0.45594000000E+02  0.51100000000E-03 0. -1.
         11   -1    0    0    0    0 -0.00000000000E+00 -0.00000000000E+00 -0.45593999997E+02  0.45594000000E+02  0.51100000000E-03 0.  1.
         23    2    1    2    0    0 -0.17763568394E-14 -0.35527136788E-14  0.00000000000E+00  0.91188000000E+02  0.91188000000E+02 0.  0.
    9900012    2    3    3    0    0  0.13469652593E+02  0.22525877547E+02  0.25825050934E+02  0.54367082630E+02  0.39999996471E+02 0.  0.
        -12    1    3    3    0    0 -0.13469652593E+02 -0.22525877547E+02 -0.25825050934E+02  0.36820917370E+02  0.00000000000E+00 0.  1.
         11    1    4    4    0    0 -0.15468096500E+01 -0.79558901966E+01  0.67976739488E+00  0.81333199179E+01  0.51100000000E-03 0. -1.
        -11    1    4    4    0    0  0.10571801455E+02  0.35890466177E+01  0.10329146467E+02  0.15209717572E+02  0.51100000000E-03 0.  1.
         12    1    4    4    0    0  0.44446607878E+01  0.26892721126E+02  0.14816137073E+02  0.31024045140E+02  0.00000000000E+00 0. -1.
</event>
<event>
 8    1  0.2534787E-006  0.9118800E+02  0.7816164E-02  0.1184000E+00
        -11   -1    0    0    0    0  0.00000000000E+00  0.00000000000E+00  0.45593999997E+02  0.45594000000E+02  0.51100000000E-03 0.  1.
         11   -1    0    0    0    0 -0.00000000000E+00 -0.00000000000E+00 -0.45593999997E+02  0.45594000000E+02  0.51100000000E-03 0. -1.
         23    2    1    2    0    0 -0.35527136788E-14  0.88817841970E-15 -0.35527136788E-14  0.91188000000E+02  0.91188000000E+02 0.  0.
    9900012    2    3    3    0    0  0.22941947472E+02 -0.75162728650E+01 -0.27802031585E+02  0.54367078341E+02  0.39999986693E+02 0.  0.
        -12    1    3    3    0    0 -0.22941947472E+02  0.75162728650E+01  0.27802031585E+02  0.36820921659E+02  0.00000000000E+00 0.  1.
         11    1    4    4    0    0  0.94160051824E+01 -0.80409485757E+01 -0.18889067603E+02  0.22585722986E+02  0.51100000000E-03 0. -1.
        -11    1    4    4    0    0  0.14972070151E+02 -0.98526914460E+01  0.15624957794E+00  0.17923806167E+02  0.51100000000E-03 0.  1.
         12    1    4    4    0    0 -0.14461278615E+01  0.10377367157E+02 -0.90692135596E+01  0.13857549188E+02  0.00000000000E+00 0. -1.
</event>
<event>
 8    1  0.2534787E-006  0.9118800E+02  0.7816164E-02  0.1184000E+00
        -11   -1    0    0    0    0  0.00000000000E+00  0.00000000000E+00  0.45593999997E+02  0.45594000000E+02  0.51100000000E-03 0. -1.
         11   -1    0    0    0    0 -0.00000000000E+00 -0.00000000000E+00 -0.45593999997E+02  0.45594000000E+02  0.51100000000E-03 0.  1.
         23    2    1    2    0    0  0.00000000000E+00 -0.88817841970E-15  0.00000000000E+00  0.91188000000E+02  0.91188000000E+02 0.  0.
    9900012    2    3    3    0    0 -0.61095133808E+01 -0.63480894810E+01  0.35751299849E+02  0.54367084277E+02  0.40000000226E+02 0.  0.
        -12    1    3    3    0    0  0.61095133808E+01  0.63480894810E+01 -0.35751299849E+02  0.36820915723E+02  0.00000000000E+00 0.  1.
         11    1    4    4    0    0 -0.95157767928E+01 -0.41088046821E+01  0.36120042619E+01  0.10976286209E+02  0.51100000000E-03 0. -1.
        -11    1    4    4    0    0 -0.97966109330E+00  0.40184851272E+01 -0.44129385392E+01  0.60483043399E+01  0.51100000000E-03 0.  1.
         12    1    4    4    0    0  0.43859245053E+01 -0.62577699261E+01  0.36552234126E+02  0.37342493728E+02  0.00000000000E+00 0. -1.
</event>
<event>
 8    1  0.2534787E-006  0.9118800E+02  0.7816164E-02  0.1184000E+00
        -11   -1    0    0    0    0  0.00000000000E+00  0.00000000000E+00  0.45593999997E+02  0.45594000000E+02  0.51100000000E-03 0. -1.
         11   -1    0    0    0    0 -0.00000000000E+00 -0.00000000000E+00 -0.45593999997E+02  0.45594000000E+02  0.51100000000E-03 0.  1.
         23    2    1    2    0    0 -0.22204460493E-15 -0.66613381478E-15  0.00000000000E+00  0.91188000000E+02  0.91188000000E+02 0.  0.
    9900012    2    3    3    0    0  0.13185871243E+01  0.13300683700E+01  0.36773253741E+02  0.54367082785E+02  0.39999996824E+02 0.  0.
        -12    1    3    3    0    0 -0.13185871243E+01 -0.13300683700E+01 -0.36773253741E+02  0.36820917215E+02  0.00000000000E+00 0.  1.
         11    1    4    4    0    0  0.11431356825E+01 -0.61728792695E+01  0.11638944873E+02  0.13224077877E+02  0.51100000000E-03 0. -1.
        -11    1    4    4    0    0  0.14395178811E+01 -0.11514234053E+02  0.16616306386E+02  0.20267003620E+02  0.51100000000E-03 0.  1.
        -12    1    4    4    0    0 -0.12640664393E+01  0.19017181693E+02  0.85180024818E+01  0.20876001288E+02  0.00000000000E+00 0.  1.
</event>
<event>
 8    1  0.2534787E-006  0.9118800E+02  0.7816164E-02  0.1184000E+00
        -11   -1    0    0    0    0  0.00000000000E+00  0.00000000000E+00  0.45593999997E+02  0.45594000000E+02  0.51100000000E-03 0.  1.
         11   -1    0    0    0    0 -0.00000000000E+00 -0.00000000000E+00 -0.45593999997E+02  0.45594000000E+02  0.51100000000E-03 0. -1.
         23    2    1    2    0    0  0.00000000000E+00 -0.17763568394E-14  0.00000000000E+00  0.91188000000E+02  0.91188000000E+02 0.  0.
    9900012    2    3    3    0    0 -0.19940256519E+02  0.91248460442E+01 -0.29578912333E+02  0.54366963890E+02  0.39999725780E+02 0.  0.
        -12    1    3    3    0    0  0.19940256519E+02 -0.91248460442E+01  0.29578912333E+02  0.36821036110E+02  0.00000000000E+00 0.  1.
         11    1    4    4    0    0 -0.15302950519E+02 -0.37476239220E+01 -0.31713970126E+01  0.16071177272E+02  0.51100000000E-03 0. -1.
        -11    1    4    4    0    0 -0.10986597834E+02  0.14960667077E+02 -0.11186103253E+02  0.21671543498E+02  0.51100000000E-03 0.  1.
        -12    1    4    4    0    0  0.63492918339E+01 -0.20881971109E+01 -0.15221412068E+02  0.16624243120E+02  0.00000000000E+00 0.  1.
</event>
<event>
 8    1  0.2534787E-006  0.9118800E+02  0.7816164E-02  0.1184000E+00
        -11   -1    0    0    0    0  0.00000000000E+00  0.00000000000E+00  0.45593999997E+02  0.45594000000E+02  0.51100000000E-03 0. -1.
         11   -1    0    0    0    0 -0.00000000000E+00 -0.00000000000E+00 -0.45593999997E+02  0.45594000000E+02  0.51100000000E-03 0.  1.
         23    2    1    2    0    0  0.00000000000E+00 -0.35527136788E-14  0.00000000000E+00  0.91188000000E+02  0.91188000000E+02 0.  0.
    9900012    2    3    3    0    0  0.21341595675E+02  0.25240355326E+02 -0.16224713793E+02  0.54367074148E+02  0.39999977136E+02 0.  0.
        -12    1    3    3    0    0 -0.21341595675E+02 -0.25240355326E+02  0.16224713793E+02  0.36820925852E+02  0.00000000000E+00 0.  1.
         11    1    4    4    0    0  0.14246908759E+02  0.28268231998E+02 -0.82515141384E+01  0.32713221109E+02  0.51100000000E-03 0. -1.
        -11    1    4    4    0    0  0.13389213419E+02 -0.74392011064E+00 -0.47902572230E+01  0.14239768875E+02  0.51100000000E-03 0.  1.
        -12    1    4    4    0    0 -0.62945265024E+01 -0.22839565618E+01 -0.31829424315E+01  0.74140841638E+01  0.00000000000E+00 0.  1.
</event>
<event>
 8    1  0.2534787E-006  0.9118800E+02  0.7816164E-02  0.1184000E+00
        -11   -1    0    0    0    0  0.00000000000E+00  0.00000000000E+00  0.45593999997E+02  0.45594000000E+02  0.51100000000E-03 0. -1.
         11   -1    0    0    0    0 -0.00000000000E+00 -0.00000000000E+00 -0.45593999997E+02  0.45594000000E+02  0.51100000000E-03 0.  1.
         23    2    1    2    0    0  0.00000000000E+00  0.17763568394E-14  0.00000000000E+00  0.91188000000E+02  0.91188000000E+02 0.  0.
    9900012    2    3    3    0    0 -0.30240502978E+02 -0.60220140080E+01 -0.20125397984E+02  0.54367023409E+02  0.39999861466E+02 0.  0.
        -12    1    3    3    0    0  0.30240502978E+02  0.60220140080E+01  0.20125397984E+02  0.36820976591E+02  0.00000000000E+00 0.  1.
         11    1    4    4    0    0 -0.86814656680E+01 -0.44029639394E+01 -0.17382189830E-01  0.97341789586E+01  0.51100000000E-03 0. -1.
        -11    1    4    4    0    0 -0.17403261626E+02  0.82021350525E+01 -0.26081338460E+02  0.32409639781E+02  0.51100000000E-03 0.  1.
        -12    1    4    4    0    0 -0.41557756839E+01 -0.98211851211E+01  0.59733226657E+01  0.12223204669E+02  0.00000000000E+00 0.  1.
</event>
<event>
 8    1  0.2534787E-006  0.9118800E+02  0.7816164E-02  0.1184000E+00
        -11   -1    0    0    0    0  0.00000000000E+00  0.00000000000E+00  0.45593999997E+02  0.45594000000E+02  0.51100000000E-03 0. -1.
         11   -1    0    0    0    0 -0.00000000000E+00 -0.00000000000E+00 -0.45593999997E+02  0.45594000000E+02  0.51100000000E-03 0.  1.
         23    2    1    2    0    0  0.00000000000E+00  0.00000000000E+00  0.00000000000E+00  0.91188000000E+02  0.91188000000E+02 0.  0.
    9900012    2    3    3    0    0 -0.30154035856E+02 -0.79580163424E+01  0.19575501693E+02  0.54366862469E+02  0.39999494568E+02 0.  0.
        -12    1    3    3    0    0  0.30154035856E+02  0.79580163424E+01 -0.19575501693E+02  0.36821137531E+02  0.00000000000E+00 0.  1.
         11    1    4    4    0    0 -0.22194403109E+02 -0.39958451981E+01  0.31638806965E+02  0.38853216272E+02  0.51100000000E-03 0. -1.
        -11    1    4    4    0    0 -0.81959674161E+01 -0.43661285504E+01 -0.11470826125E+02  0.14758618250E+02  0.51100000000E-03 0.  1.
         12    1    4    4    0    0  0.23633466921E+00  0.40395740603E+00 -0.59247914719E+00  0.75502794757E+00  0.00000000000E+00 0. -1.
</event>
<event>
 8    1  0.2534787E-006  0.9118800E+02  0.7816164E-02  0.1184000E+00
        -11   -1    0    0    0    0  0.00000000000E+00  0.00000000000E+00  0.45593999997E+02  0.45594000000E+02  0.51100000000E-03 0.  1.
         11   -1    0    0    0    0 -0.00000000000E+00 -0.00000000000E+00 -0.45593999997E+02  0.45594000000E+02  0.51100000000E-03 0. -1.
         23    2    1    2    0    0  0.00000000000E+00  0.00000000000E+00  0.00000000000E+00  0.91188000000E+02  0.91188000000E+02 0.  0.
    9900012    2    3    3    0    0  0.13828723615E+02 -0.18795957800E+02  0.28482596985E+02  0.54367082610E+02  0.39999996425E+02 0.  0.
         12    1    3    3    0    0 -0.13828723615E+02  0.18795957800E+02 -0.28482596985E+02  0.36820917390E+02  0.00000000000E+00 0. -1.
         11    1    4    4    0    0  0.18066313704E+02 -0.10178134165E+02  0.28757888563E+01  0.20934571114E+02  0.51100000000E-03 0. -1.
        -11    1    4    4    0    0 -0.20626489667E+01 -0.12905832381E+02  0.83285085757E+01  0.15497712268E+02  0.51100000000E-03 0.  1.
        -12    1    4    4    0    0 -0.21749411216E+01  0.42880087453E+01  0.17278299553E+02  0.17934799227E+02  0.00000000000E+00 0.  1.
</event>
<event>
 8    1  0.2534787E-006  0.9118800E+02  0.7816164E-02  0.1184000E+00
        -11   -1    0    0    0    0  0.00000000000E+00  0.00000000000E+00  0.45593999997E+02  0.45594000000E+02  0.51100000000E-03 0.  1.
         11   -1    0    0    0    0 -0.00000000000E+00 -0.00000000000E+00 -0.45593999997E+02  0.45594000000E+02  0.51100000000E-03 0. -1.
         23    2    1    2    0    0  0.00000000000E+00 -0.35527136788E-14 -0.17763568394E-14  0.91188000000E+02  0.91188000000E+02 0.  0.
    9900012    2    3    3    0    0 -0.27664401600E+02 -0.23328377296E+02 -0.68005959713E+01  0.54367076482E+02  0.39999982456E+02 0.  0.
        -12    1    3    3    0    0  0.27664401600E+02  0.23328377296E+02  0.68005959713E+01  0.36820923518E+02  0.00000000000E+00 0.  1.
         11    1    4    4    0    0 -0.10815657039E+02 -0.20875599396E+02 -0.65003836825E+01  0.24393115332E+02  0.51100000000E-03 0.  1.
        -11    1    4    4    0    0 -0.16113657409E+02 -0.37885235294E+01 -0.10538338978E+02  0.19622931848E+02  0.51100000000E-03 0. -1.
         12    1    4    4    0    0 -0.73508715169E+00  0.13357456296E+01  0.10238126689E+02  0.10351029302E+02  0.00000000000E+00 0. -1.
</event>
<event>
 8    1  0.2534787E-006  0.9118800E+02  0.7816164E-02  0.1184000E+00
        -11   -1    0    0    0    0  0.00000000000E+00  0.00000000000E+00  0.45593999997E+02  0.45594000000E+02  0.51100000000E-03 0.  1.
         11   -1    0    0    0    0 -0.00000000000E+00 -0.00000000000E+00 -0.45593999997E+02  0.45594000000E+02  0.51100000000E-03 0. -1.
         23    2    1    2    0    0  0.17763568394E-14  0.35527136788E-14  0.35527136788E-14  0.91188000000E+02  0.91188000000E+02 0.  0.
    9900012    2    3    3    0    0  0.93665929340E+01 -0.15938892411E+02  0.31843355488E+02  0.54367073298E+02  0.39999975197E+02 0.  0.
         12    1    3    3    0    0 -0.93665929340E+01  0.15938892411E+02 -0.31843355488E+02  0.36820926702E+02  0.00000000000E+00 0. -1.
         11    1    4    4    0    0 -0.32795382287E+01  0.29644483909E+01  0.53020356871E+01  0.69032534318E+01  0.51100000000E-03 0. -1.
        -11    1    4    4    0    0  0.21922757189E+01 -0.25562581716E+02  0.23287632592E+02  0.34649177318E+02  0.51100000000E-03 0.  1.
        -12    1    4    4    0    0  0.10453855444E+02  0.66592409138E+01  0.32536872092E+01  0.12814642548E+02  0.00000000000E+00 0.  1.
</event>
<event>
 8    1  0.2534787E-006  0.9118800E+02  0.7816164E-02  0.1184000E+00
        -11   -1    0    0    0    0  0.00000000000E+00  0.00000000000E+00  0.45593999997E+02  0.45594000000E+02  0.51100000000E-03 0.  1.
         11   -1    0    0    0    0 -0.00000000000E+00 -0.00000000000E+00 -0.45593999997E+02  0.45594000000E+02  0.51100000000E-03 0. -1.
         23    2    1    2    0    0  0.17763568394E-14  0.00000000000E+00  0.00000000000E+00  0.91188000000E+02  0.91188000000E+02 0.  0.
    9900012    2    3    3    0    0 -0.39458291748E+01 -0.33069634134E+02  0.15703829050E+02  0.54367075018E+02  0.39999979119E+02 0.  0.
        -12    1    3    3    0    0  0.39458291748E+01  0.33069634134E+02 -0.15703829050E+02  0.36820924982E+02  0.00000000000E+00 0.  1.
         11    1    4    4    0    0  0.51994954582E+01  0.66805931324E+00 -0.11708343439E+01  0.53713973589E+01  0.51100000000E-03 0. -1.
        -11    1    4    4    0    0 -0.14328115411E+02 -0.19165251974E+02 -0.26632628522E+01  0.24076850785E+02  0.51100000000E-03 0.  1.
        -12    1    4    4    0    0  0.51827907782E+01 -0.14572441474E+02  0.19537926247E+02  0.24918826874E+02  0.00000000000E+00 0.  1.
</event>
<event>
 8    1  0.2534787E-006  0.9118800E+02  0.7816164E-02  0.1184000E+00
        -11   -1    0    0    0    0  0.00000000000E+00  0.00000000000E+00  0.45593999997E+02  0.45594000000E+02  0.51100000000E-03 0.  1.
         11   -1    0    0    0    0 -0.00000000000E+00 -0.00000000000E+00 -0.45593999997E+02  0.45594000000E+02  0.51100000000E-03 0. -1.
         23    2    1    2    0    0  0.00000000000E+00  0.00000000000E+00  0.13322676296E-14  0.91188000000E+02  0.91188000000E+02 0.  0.
    9900012    2    3    3    0    0 -0.21045261173E+02 -0.30108535053E+02  0.25205733405E+01  0.54367079441E+02  0.39999989202E+02 0.  0.
        -12    1    3    3    0    0  0.21045261173E+02  0.30108535053E+02 -0.25205733405E+01  0.36820920559E+02  0.00000000000E+00 0.  1.
         11    1    4    4    0    0 -0.22719889295E+02 -0.23153424267E+02  0.11285339019E+02  0.34345790163E+02  0.51100000000E-03 0. -1.
        -11    1    4    4    0    0  0.15627459936E+01 -0.67279456381E+00 -0.12563987199E+02  0.12678667207E+02  0.51100000000E-03 0.  1.
        -12    1    4    4    0    0  0.11188212890E+00 -0.62823162213E+01  0.37992215198E+01  0.73426220706E+01  0.00000000000E+00 0.  1.
</event>
<event>
 8    1  0.2534787E-006  0.9118800E+02  0.7816164E-02  0.1184000E+00
        -11   -1    0    0    0    0  0.00000000000E+00  0.00000000000E+00  0.45593999997E+02  0.45594000000E+02  0.51100000000E-03 0.  1.
         11   -1    0    0    0    0 -0.00000000000E+00 -0.00000000000E+00 -0.45593999997E+02  0.45594000000E+02  0.51100000000E-03 0. -1.
         23    2    1    2    0    0 -0.66613381478E-15  0.00000000000E+00  0.00000000000E+00  0.91188000000E+02  0.91188000000E+02 0.  0.
    9900012    2    3    3    0    0  0.18435148793E+01 -0.17172415624E+02  0.32519061323E+02  0.54367085362E+02  0.40000002699E+02 0.  0.
         12    1    3    3    0    0 -0.18435148793E+01  0.17172415624E+02 -0.32519061323E+02  0.36820914638E+02  0.00000000000E+00 0. -1.
         11    1    4    4    0    0  0.96796053170E+01 -0.15150162747E+02  0.21912221890E+02  0.28343741087E+02  0.51100000000E-03 0. -1.
        -11    1    4    4    0    0 -0.15570982550E+01  0.56253707855E+01  0.14312688259E+02  0.15457114767E+02  0.51100000000E-03 0.  1.
         12    1    4    4    0    0 -0.62789921826E+01 -0.76476236618E+01 -0.37058488261E+01  0.10566229508E+02  0.00000000000E+00 0. -1.
</event>
<event>
 8    1  0.2534787E-006  0.9118800E+02  0.7816164E-02  0.1184000E+00
        -11   -1    0    0    0    0  0.00000000000E+00  0.00000000000E+00  0.45593999997E+02  0.45594000000E+02  0.51100000000E-03 0.  1.
         11   -1    0    0    0    0 -0.00000000000E+00 -0.00000000000E+00 -0.45593999997E+02  0.45594000000E+02  0.51100000000E-03 0. -1.
         23    2    1    2    0    0  0.71054273576E-14 -0.17763568394E-14  0.35527136788E-14  0.91188000000E+02  0.91188000000E+02 0.  0.
    9900012    2    3    3    0    0 -0.33121570943E+02 -0.11065417565E+01 -0.16047307767E+02  0.54367095842E+02  0.40000026591E+02 0.  0.
        -12    1    3    3    0    0  0.33121570943E+02  0.11065417565E+01  0.16047307767E+02  0.36820904158E+02  0.00000000000E+00 0.  1.
         11    1    4    4    0    0 -0.86921891043E+01 -0.10209781015E+02 -0.34851203531E+01  0.13854235595E+02  0.51100000000E-03 0. -1.
        -11    1    4    4    0    0 -0.16711940892E+02 -0.88823139635E+01 -0.68097496373E+01  0.20113606343E+02  0.51100000000E-03 0.  1.
         12    1    4    4    0    0 -0.77174409471E+01  0.17985553222E+02 -0.57524377771E+01  0.20399253904E+02  0.00000000000E+00 0. -1.
</event>
<event>
 8    1  0.2534787E-006  0.9118800E+02  0.7816164E-02  0.1184000E+00
        -11   -1    0    0    0    0  0.00000000000E+00  0.00000000000E+00  0.45593999997E+02  0.45594000000E+02  0.51100000000E-03 0.  1.
         11   -1    0    0    0    0 -0.00000000000E+00 -0.00000000000E+00 -0.45593999997E+02  0.45594000000E+02  0.51100000000E-03 0. -1.
         23    2    1    2    0    0  0.00000000000E+00  0.35527136788E-14  0.00000000000E+00  0.91188000000E+02  0.91188000000E+02 0.  0.
    9900012    2    3    3    0    0  0.15960098812E+02  0.31197514183E+02  0.11303563837E+02  0.54367079307E+02  0.39999988896E+02 0.  0.
         12    1    3    3    0    0 -0.15960098812E+02 -0.31197514183E+02 -0.11303563837E+02  0.36820920693E+02  0.00000000000E+00 0. -1.
         11    1    4    4    0    0  0.24304849494E+02  0.15044032517E+02 -0.13486351933E+01  0.28615859946E+02  0.51100000000E-03 0. -1.
        -11    1    4    4    0    0 -0.82809440869E+01  0.44585238330E+01  0.10061335692E+02  0.13772543189E+02  0.51100000000E-03 0.  1.
         12    1    4    4    0    0 -0.63806594830E-01  0.11694957833E+02  0.25908633385E+01  0.11978676172E+02  0.00000000000E+00 0. -1.
</event>
<event>
 8    1  0.2534787E-006  0.9118800E+02  0.7816164E-02  0.1184000E+00
        -11   -1    0    0    0    0  0.00000000000E+00  0.00000000000E+00  0.45593999997E+02  0.45594000000E+02  0.51100000000E-03 0.  1.
         11   -1    0    0    0    0 -0.00000000000E+00 -0.00000000000E+00 -0.45593999997E+02  0.45594000000E+02  0.51100000000E-03 0. -1.
         23    2    1    2    0    0 -0.88817841970E-15  0.00000000000E+00 -0.71054273576E-14  0.91188000000E+02  0.91188000000E+02 0.  0.
    9900012    2    3    3    0    0 -0.29823360011E+01 -0.60364789360E+01 -0.36200106337E+02  0.54367067030E+02  0.39999960908E+02 0.  0.
        -12    1    3    3    0    0  0.29823360011E+01  0.60364789360E+01  0.36200106337E+02  0.36820932970E+02  0.00000000000E+00 0.  1.
         11    1    4    4    0    0  0.94504675327E+00 -0.15987717744E+02 -0.12141502002E+02  0.20097669098E+02  0.51100000000E-03 0. -1.
        -11    1    4    4    0    0  0.40825501311E+01 -0.44401687164E+01 -0.12900707685E+01  0.61681923326E+01  0.51100000000E-03 0.  1.
        -12    1    4    4    0    0 -0.80099328855E+01  0.14391407525E+02 -0.22768533567E+02  0.28101205599E+02  0.00000000000E+00 0.  1.
</event>
<event>
 8    1  0.2534787E-006  0.9118800E+02  0.7816164E-02  0.1184000E+00
        -11   -1    0    0    0    0  0.00000000000E+00  0.00000000000E+00  0.45593999997E+02  0.45594000000E+02  0.51100000000E-03 0. -1.
         11   -1    0    0    0    0 -0.00000000000E+00 -0.00000000000E+00 -0.45593999997E+02  0.45594000000E+02  0.51100000000E-03 0.  1.
         23    2    1    2    0    0  0.00000000000E+00  0.00000000000E+00  0.00000000000E+00  0.91188000000E+02  0.91188000000E+02 0.  0.
    9900012    2    3    3    0    0  0.95820995888E+01  0.13135316916E+02 -0.33036753770E+02  0.54367078193E+02  0.39999986357E+02 0.  0.
         12    1    3    3    0    0 -0.95820995888E+01 -0.13135316916E+02  0.33036753770E+02  0.36820921807E+02  0.00000000000E+00 0. -1.
         11    1    4    4    0    0  0.38135307110E+00 -0.18987562783E+01 -0.31368612957E+01  0.36865437226E+01  0.51100000000E-03 0. -1.
        -11    1    4    4    0    0 -0.16636466924E+01 -0.10925257296E+02 -0.23489065791E+01  0.11298067520E+02  0.51100000000E-03 0.  1.
        -12    1    4    4    0    0  0.10864393210E+02  0.25959330490E+02 -0.27550985896E+02  0.39382466951E+02  0.00000000000E+00 0.  1.
</event>
<event>
 8    1  0.2534787E-006  0.9118800E+02  0.7816164E-02  0.1184000E+00
        -11   -1    0    0    0    0  0.00000000000E+00  0.00000000000E+00  0.45593999997E+02  0.45594000000E+02  0.51100000000E-03 0.  1.
         11   -1    0    0    0    0 -0.00000000000E+00 -0.00000000000E+00 -0.45593999997E+02  0.45594000000E+02  0.51100000000E-03 0. -1.
         23    2    1    2    0    0  0.35527136788E-14  0.00000000000E+00  0.00000000000E+00  0.91188000000E+02  0.91188000000E+02 0.  0.
    9900012    2    3    3    0    0 -0.85878696000E+01  0.32486587823E+02  0.15054878360E+02  0.54367092147E+02  0.40000018168E+02 0.  0.
         12    1    3    3    0    0  0.85878696000E+01 -0.32486587823E+02 -0.15054878360E+02  0.36820907853E+02  0.00000000000E+00 0. -1.
         11    1    4    4    0    0 -0.16996616100E+02  0.54746632767E+01 -0.25527487481E+01  0.18038110302E+02  0.51100000000E-03 0. -1.
        -11    1    4    4    0    0  0.99020056987E+01  0.18388108402E+02  0.17995447441E+02  0.27568249424E+02  0.51100000000E-03 0.  1.
        -12    1    4    4    0    0 -0.14932591988E+01  0.86238161450E+01 -0.38782033348E+00  0.87607324208E+01  0.00000000000E+00 0.  1.
</event>
<event>
 8    1  0.2534787E-006  0.9118800E+02  0.7816164E-02  0.1184000E+00
        -11   -1    0    0    0    0  0.00000000000E+00  0.00000000000E+00  0.45593999997E+02  0.45594000000E+02  0.51100000000E-03 0.  1.
         11   -1    0    0    0    0 -0.00000000000E+00 -0.00000000000E+00 -0.45593999997E+02  0.45594000000E+02  0.51100000000E-03 0. -1.
         23    2    1    2    0    0  0.00000000000E+00  0.00000000000E+00  0.35527136788E-14  0.91188000000E+02  0.91188000000E+02 0.  0.
    9900012    2    3    3    0    0  0.27618218915E+02 -0.50354236162E+01  0.23825546194E+02  0.54367107039E+02  0.40000052116E+02 0.  0.
         12    1    3    3    0    0 -0.27618218915E+02  0.50354236162E+01 -0.23825546194E+02  0.36820892961E+02  0.00000000000E+00 0. -1.
         11    1    4    4    0    0  0.50437288033E+01  0.53596794868E+01  0.97836975239E+01  0.12242797962E+02  0.51100000000E-03 0.  1.
        -11    1    4    4    0    0  0.41793887666E+01  0.10266045208E+02 -0.37324197247E-01  0.11084239624E+02  0.51100000000E-03 0. -1.
        -12    1    4    4    0    0  0.18395101345E+02 -0.20661148311E+02  0.14079172867E+02  0.31040069453E+02  0.00000000000E+00 0.  1.
</event>
<event>
 8    1  0.2534787E-006  0.9118800E+02  0.7816164E-02  0.1184000E+00
        -11   -1    0    0    0    0  0.00000000000E+00  0.00000000000E+00  0.45593999997E+02  0.45594000000E+02  0.51100000000E-03 0. -1.
         11   -1    0    0    0    0 -0.00000000000E+00 -0.00000000000E+00 -0.45593999997E+02  0.45594000000E+02  0.51100000000E-03 0.  1.
         23    2    1    2    0    0  0.35527136788E-14  0.00000000000E+00  0.44408920985E-15  0.91188000000E+02  0.91188000000E+02 0.  0.
    9900012    2    3    3    0    0 -0.29034988075E+02 -0.22391921620E+02 -0.33692194791E+01  0.54367077602E+02  0.39999985009E+02 0.  0.
         12    1    3    3    0    0  0.29034988075E+02  0.22391921620E+02  0.33692194791E+01  0.36820922398E+02  0.00000000000E+00 0. -1.
         11    1    4    4    0    0  0.57451486164E+01  0.33411338008E+00 -0.16893366355E+01  0.59976847954E+01  0.51100000000E-03 0. -1.
        -11    1    4    4    0    0 -0.10865002811E+02 -0.10165020087E+02  0.11024383204E+02  0.18517908757E+02  0.51100000000E-03 0.  1.
         12    1    4    4    0    0 -0.23915133880E+02 -0.12561014913E+02 -0.12704266047E+02  0.29851484049E+02  0.00000000000E+00 0. -1.
</event>
<event>
 8    1  0.2534787E-006  0.9118800E+02  0.7816164E-02  0.1184000E+00
        -11   -1    0    0    0    0  0.00000000000E+00  0.00000000000E+00  0.45593999997E+02  0.45594000000E+02  0.51100000000E-03 0.  1.
         11   -1    0    0    0    0 -0.00000000000E+00 -0.00000000000E+00 -0.45593999997E+02  0.45594000000E+02  0.51100000000E-03 0. -1.
         23    2    1    2    0    0  0.00000000000E+00  0.00000000000E+00  0.00000000000E+00  0.91188000000E+02  0.91188000000E+02 0.  0.
    9900012    2    3    3    0    0 -0.23592716999E+01 -0.12043435767E+02  0.34715553386E+02  0.54367079928E+02  0.39999990312E+02 0.  0.
         12    1    3    3    0    0  0.23592716999E+01  0.12043435767E+02 -0.34715553386E+02  0.36820920072E+02  0.00000000000E+00 0. -1.
         11    1    4    4    0    0 -0.37567030555E+01 -0.62453457824E+01  0.18321112002E+02  0.19717512699E+02  0.51100000000E-03 0. -1.
        -11    1    4    4    0    0 -0.13056205736E+02  0.16260402677E+01  0.12022778646E+02  0.17822898805E+02  0.51100000000E-03 0.  1.
         12    1    4    4    0    0  0.14453637091E+02 -0.74241302521E+01  0.43716627383E+01  0.16826668425E+02  0.00000000000E+00 0. -1.
</event>
<event>
 8    1  0.2534787E-006  0.9118800E+02  0.7816164E-02  0.1184000E+00
        -11   -1    0    0    0    0  0.00000000000E+00  0.00000000000E+00  0.45593999997E+02  0.45594000000E+02  0.51100000000E-03 0. -1.
         11   -1    0    0    0    0 -0.00000000000E+00 -0.00000000000E+00 -0.45593999997E+02  0.45594000000E+02  0.51100000000E-03 0.  1.
         23    2    1    2    0    0  0.71054273576E-14  0.44408920985E-15  0.00000000000E+00  0.91188000000E+02  0.91188000000E+02 0.  0.
    9900012    2    3    3    0    0 -0.35228251577E+02  0.36749266480E+01  0.10062056662E+02  0.54367085029E+02  0.40000001940E+02 0.  0.
        -12    1    3    3    0    0  0.35228251577E+02 -0.36749266480E+01 -0.10062056662E+02  0.36820914971E+02  0.00000000000E+00 0.  1.
         11    1    4    4    0    0 -0.15234392981E+02 -0.66140344570E+01  0.16490235909E+02  0.23404274436E+02  0.51100000000E-03 0. -1.
        -11    1    4    4    0    0 -0.14813648340E+02 -0.34919249328E-01 -0.11091995941E+02  0.18506154941E+02  0.51100000000E-03 0.  1.
        -12    1    4    4    0    0 -0.51802102556E+01  0.10323880354E+02  0.46638166934E+01  0.12456655651E+02  0.00000000000E+00 0.  1.
</event>
<event>
 8    1  0.2534787E-006  0.9118800E+02  0.7816164E-02  0.1184000E+00
        -11   -1    0    0    0    0  0.00000000000E+00  0.00000000000E+00  0.45593999997E+02  0.45594000000E+02  0.51100000000E-03 0. -1.
         11   -1    0    0    0    0 -0.00000000000E+00 -0.00000000000E+00 -0.45593999997E+02  0.45594000000E+02  0.51100000000E-03 0.  1.
         23    2    1    2    0    0  0.00000000000E+00 -0.11102230246E-14  0.35527136788E-14  0.91188000000E+02  0.91188000000E+02 0.  0.
    9900012    2    3    3    0    0  0.25140002597E+02 -0.19509637571E+00 -0.26902065704E+02  0.54367096530E+02  0.40000028160E+02 0.  0.
         12    1    3    3    0    0 -0.25140002597E+02  0.19509637571E+00  0.26902065704E+02  0.36820903470E+02  0.00000000000E+00 0. -1.
         11    1    4    4    0    0  0.92718574095E+01 -0.66631532018E+01  0.30302470513E+01  0.11813016036E+02  0.51100000000E-03 0. -1.
        -11    1    4    4    0    0 -0.83835397260E+00 -0.47026838796E+01  0.17060721992E+01  0.50723520840E+01  0.51100000000E-03 0.  1.
        -12    1    4    4    0    0  0.16706499160E+02  0.11170740706E+02 -0.31638384955E+02  0.37481728410E+02  0.00000000000E+00 0.  1.
</event>
<event>
 8    1  0.2534787E-006  0.9118800E+02  0.7816164E-02  0.1184000E+00
        -11   -1    0    0    0    0  0.00000000000E+00  0.00000000000E+00  0.45593999997E+02  0.45594000000E+02  0.51100000000E-03 0.  1.
         11   -1    0    0    0    0 -0.00000000000E+00 -0.00000000000E+00 -0.45593999997E+02  0.45594000000E+02  0.51100000000E-03 0. -1.
         23    2    1    2    0    0  0.00000000000E+00 -0.35527136788E-14 -0.35527136788E-14  0.91188000000E+02  0.91188000000E+02 0.  0.
    9900012    2    3    3    0    0 -0.21177681627E+02  0.26289015553E+02  0.14702567527E+02  0.54367190262E+02  0.40000241840E+02 0.  0.
        -12    1    3    3    0    0  0.21177681627E+02 -0.26289015553E+02 -0.14702567527E+02  0.36820809738E+02  0.00000000000E+00 0.  1.
         11    1    4    4    0    0 -0.17948750583E+02  0.20705244444E+02 -0.54720319428E+01  0.27942940590E+02  0.51100000000E-03 0. -1.
        -11    1    4    4    0    0  0.40456874902E-01 -0.32284978909E+01 -0.89729150373E+00  0.33511143959E+01  0.51100000000E-03 0.  1.
         12    1    4    4    0    0 -0.32693879190E+01  0.88122690002E+01  0.21071890973E+02  0.23073135276E+02  0.00000000000E+00 0. -1.
</event>
<event>
 8    1  0.2534787E-006  0.9118800E+02  0.7816164E-02  0.1184000E+00
        -11   -1    0    0    0    0  0.00000000000E+00  0.00000000000E+00  0.45593999997E+02  0.45594000000E+02  0.51100000000E-03 0.  1.
         11   -1    0    0    0    0 -0.00000000000E+00 -0.00000000000E+00 -0.45593999997E+02  0.45594000000E+02  0.51100000000E-03 0. -1.
         23    2    1    2    0    0  0.00000000000E+00  0.00000000000E+00  0.00000000000E+00  0.91188000000E+02  0.91188000000E+02 0.  0.
    9900012    2    3    3    0    0 -0.24043615762E+02  0.88046734679E+01  0.26460577453E+02  0.54367083486E+02  0.39999998423E+02 0.  0.
         12    1    3    3    0    0  0.24043615762E+02 -0.88046734679E+01 -0.26460577453E+02  0.36820916514E+02  0.00000000000E+00 0. -1.
         11    1    4    4    0    0  0.78985511446E+00 -0.42610183540E+01 -0.11372996518E+01  0.44803570476E+01  0.51100000000E-03 0. -1.
        -11    1    4    4    0    0  0.27890526130E+01 -0.10079520598E+00  0.17414540590E+02  0.17636757026E+02  0.51100000000E-03 0.  1.
         12    1    4    4    0    0 -0.27622523489E+02  0.13166487028E+02  0.10183336515E+02  0.32249969413E+02  0.00000000000E+00 0. -1.
</event>
<event>
 8    1  0.2534787E-006  0.9118800E+02  0.7816164E-02  0.1184000E+00
        -11   -1    0    0    0    0  0.00000000000E+00  0.00000000000E+00  0.45593999997E+02  0.45594000000E+02  0.51100000000E-03 0.  1.
         11   -1    0    0    0    0 -0.00000000000E+00 -0.00000000000E+00 -0.45593999997E+02  0.45594000000E+02  0.51100000000E-03 0. -1.
         23    2    1    2    0    0  0.35527136788E-14 -0.35527136788E-14 -0.17763568394E-14  0.91188000000E+02  0.91188000000E+02 0.  0.
    9900012    2    3    3    0    0 -0.26666564200E+02  0.23667159076E+02  0.91945533039E+01  0.54367083724E+02  0.39999998965E+02 0.  0.
         12    1    3    3    0    0  0.26666564200E+02 -0.23667159076E+02 -0.91945533039E+01  0.36820916276E+02  0.00000000000E+00 0. -1.
         11    1    4    4    0    0 -0.13072209960E+02  0.36760836856E+01 -0.10575909829E+02  0.17211802156E+02  0.51100000000E-03 0. -1.
        -11    1    4    4    0    0 -0.18224536713E+02  0.15867333353E+02  0.19320890693E+02  0.30938694601E+02  0.51100000000E-03 0.  1.
         12    1    4    4    0    0  0.46301824738E+01  0.41237420374E+01  0.44957243937E+00  0.62165869663E+01  0.00000000000E+00 0. -1.
</event>
<event>
 8    1  0.2534787E-006  0.9118800E+02  0.7816164E-02  0.1184000E+00
        -11   -1    0    0    0    0  0.00000000000E+00  0.00000000000E+00  0.45593999997E+02  0.45594000000E+02  0.51100000000E-03 0.  1.
         11   -1    0    0    0    0 -0.00000000000E+00 -0.00000000000E+00 -0.45593999997E+02  0.45594000000E+02  0.51100000000E-03 0. -1.
         23    2    1    2    0    0  0.35527136788E-14  0.00000000000E+00  0.88817841970E-15  0.91188000000E+02  0.91188000000E+02 0.  0.
    9900012    2    3    3    0    0 -0.29231041202E+02 -0.21827460661E+02  0.49889230900E+01  0.54367066249E+02  0.39999959128E+02 0.  0.
         12    1    3    3    0    0  0.29231041202E+02  0.21827460661E+02 -0.49889230900E+01  0.36820933751E+02  0.00000000000E+00 0. -1.
         11    1    4    4    0    0 -0.30182056833E+02 -0.15355454133E+02 -0.11298247573E+02  0.35698696402E+02  0.51100000000E-03 0. -1.
        -11    1    4    4    0    0  0.27745115696E+01 -0.42778224024E+00  0.48021939282E+01  0.55625514722E+01  0.51100000000E-03 0.  1.
         12    1    4    4    0    0 -0.18234959387E+01 -0.60442242880E+01  0.11484976735E+02  0.13105818375E+02  0.00000000000E+00 0. -1.
</event>
<event>
 8    1  0.2534787E-006  0.9118800E+02  0.7816164E-02  0.1184000E+00
        -11   -1    0    0    0    0  0.00000000000E+00  0.00000000000E+00  0.45593999997E+02  0.45594000000E+02  0.51100000000E-03 0.  1.
         11   -1    0    0    0    0 -0.00000000000E+00 -0.00000000000E+00 -0.45593999997E+02  0.45594000000E+02  0.51100000000E-03 0. -1.
         23    2    1    2    0    0 -0.35527136788E-14 -0.35527136788E-14  0.53290705182E-14  0.91188000000E+02  0.91188000000E+02 0.  0.
    9900012    2    3    3    0    0  0.28709898366E+02  0.17609792015E+02 -0.14880075782E+02  0.54367086183E+02  0.40000004572E+02 0.  0.
        -12    1    3    3    0    0 -0.28709898366E+02 -0.17609792015E+02  0.14880075782E+02  0.36820913817E+02  0.00000000000E+00 0.  1.
         11    1    4    4    0    0  0.19640444929E+02  0.48243004734E+00 -0.17602033440E+02  0.26378237190E+02  0.51100000000E-03 0. -1.
        -11    1    4    4    0    0 -0.29305749965E+01  0.29576685285E+00 -0.50980833408E+01  0.58878011050E+01  0.51100000000E-03 0.  1.
        -12    1    4    4    0    0  0.12000028433E+02  0.16831595115E+02  0.78200409993E+01  0.22101047888E+02  0.00000000000E+00 0.  1.
</event>
<event>
 8    1  0.2534787E-006  0.9118800E+02  0.7816164E-02  0.1184000E+00
        -11   -1    0    0    0    0  0.00000000000E+00  0.00000000000E+00  0.45593999997E+02  0.45594000000E+02  0.51100000000E-03 0.  1.
         11   -1    0    0    0    0 -0.00000000000E+00 -0.00000000000E+00 -0.45593999997E+02  0.45594000000E+02  0.51100000000E-03 0. -1.
         23    2    1    2    0    0 -0.12212453271E-14  0.00000000000E+00  0.35527136788E-14  0.91188000000E+02  0.91188000000E+02 0.  0.
    9900012    2    3    3    0    0 -0.87197846160E+00 -0.27130657540E+02  0.24878625324E+02  0.54367096657E+02  0.40000028449E+02 0.  0.
         12    1    3    3    0    0  0.87197846160E+00  0.27130657540E+02 -0.24878625324E+02  0.36820903343E+02  0.00000000000E+00 0. -1.
         11    1    4    4    0    0 -0.49916339341E+01 -0.63795285491E+01 -0.10870633092E+01  0.81729126228E+01  0.51100000000E-03 0. -1.
        -11    1    4    4    0    0  0.17388980282E+02 -0.74019154182E+01  0.93407725251E+01  0.21081153164E+02  0.51100000000E-03 0.  1.
         12    1    4    4    0    0 -0.13269324809E+02 -0.13349213572E+02  0.16624916108E+02  0.25113030870E+02  0.00000000000E+00 0. -1.
</event>
<event>
 8    1  0.2534787E-006  0.9118800E+02  0.7816164E-02  0.1184000E+00
        -11   -1    0    0    0    0  0.00000000000E+00  0.00000000000E+00  0.45593999997E+02  0.45594000000E+02  0.51100000000E-03 0. -1.
         11   -1    0    0    0    0 -0.00000000000E+00 -0.00000000000E+00 -0.45593999997E+02  0.45594000000E+02  0.51100000000E-03 0.  1.
         23    2    1    2    0    0  0.17763568394E-14  0.17763568394E-14  0.71054273576E-14  0.91188000000E+02  0.91188000000E+02 0.  0.
    9900012    2    3    3    0    0 -0.10777366038E+02 -0.12768461665E+02 -0.32811516089E+02  0.54367070896E+02  0.39999969722E+02 0.  0.
         12    1    3    3    0    0  0.10777366038E+02  0.12768461665E+02  0.32811516089E+02  0.36820929104E+02  0.00000000000E+00 0. -1.
         11    1    4    4    0    0  0.62666270465E+01  0.32811242668E+00 -0.14475284391E+02  0.15776949349E+02  0.51100000000E-03 0. -1.
        -11    1    4    4    0    0  0.51373182554E+01  0.17701932610E+01  0.11239627607E+01  0.55487760441E+01  0.51100000000E-03 0.  1.
        -12    1    4    4    0    0 -0.22181311340E+02 -0.14866767352E+02 -0.19460194459E+02  0.33041345503E+02  0.00000000000E+00 0.  1.
</event>
<event>
 8    1  0.2534787E-006  0.9118800E+02  0.7816164E-02  0.1184000E+00
        -11   -1    0    0    0    0  0.00000000000E+00  0.00000000000E+00  0.45593999997E+02  0.45594000000E+02  0.51100000000E-03 0.  1.
         11   -1    0    0    0    0 -0.00000000000E+00 -0.00000000000E+00 -0.45593999997E+02  0.45594000000E+02  0.51100000000E-03 0. -1.
         23    2    1    2    0    0 -0.88817841970E-15  0.00000000000E+00  0.00000000000E+00  0.91188000000E+02  0.91188000000E+02 0.  0.
    9900012    2    3    3    0    0  0.71408880732E+01  0.33304715719E+02 -0.13985131208E+02  0.54367078413E+02  0.39999986858E+02 0.  0.
        -12    1    3    3    0    0 -0.71408880732E+01 -0.33304715719E+02  0.13985131208E+02  0.36820921587E+02  0.00000000000E+00 0.  1.
         11    1    4    4    0    0 -0.28839247182E+01 -0.32313660819E+01 -0.89546133146E+01  0.99470522473E+01  0.51100000000E-03 0. -1.
        -11    1    4    4    0    0  0.14845060561E+02  0.12541818075E+02  0.45018662310E-02  0.19433811880E+02  0.51100000000E-03 0.  1.
        -12    1    4    4    0    0 -0.48202477693E+01  0.23994263726E+02 -0.50350197595E+01  0.24986214285E+02  0.00000000000E+00 0.  1.
</event>
<event>
 8    1  0.2534787E-006  0.9118800E+02  0.7816164E-02  0.1184000E+00
        -11   -1    0    0    0    0  0.00000000000E+00  0.00000000000E+00  0.45593999997E+02  0.45594000000E+02  0.51100000000E-03 0.  1.
         11   -1    0    0    0    0 -0.00000000000E+00 -0.00000000000E+00 -0.45593999997E+02  0.45594000000E+02  0.51100000000E-03 0. -1.
         23    2    1    2    0    0 -0.35527136788E-14  0.17763568394E-14  0.35527136788E-14  0.91188000000E+02  0.91188000000E+02 0.  0.
    9900012    2    3    3    0    0  0.25359352665E+02 -0.34698461402E+01  0.26469683436E+02  0.54367071969E+02  0.39999972169E+02 0.  0.
         12    1    3    3    0    0 -0.25359352665E+02  0.34698461402E+01 -0.26469683436E+02  0.36820928031E+02  0.00000000000E+00 0. -1.
         11    1    4    4    0    0  0.66896261912E+01 -0.16450614088E+02  0.48127357713E+01  0.18399354019E+02  0.51100000000E-03 0. -1.
        -11    1    4    4    0    0  0.33466987247E+01 -0.35904687170E+01  0.33633067600E+00  0.49198553380E+01  0.51100000000E-03 0.  1.
        -12    1    4    4    0    0  0.15323027749E+02  0.16571236665E+02  0.21320616989E+02  0.31047862612E+02  0.00000000000E+00 0.  1.
</event>
<event>
 8    1  0.2534787E-006  0.9118800E+02  0.7816164E-02  0.1184000E+00
        -11   -1    0    0    0    0  0.00000000000E+00  0.00000000000E+00  0.45593999997E+02  0.45594000000E+02  0.51100000000E-03 0. -1.
         11   -1    0    0    0    0 -0.00000000000E+00 -0.00000000000E+00 -0.45593999997E+02  0.45594000000E+02  0.51100000000E-03 0.  1.
         23    2    1    2    0    0  0.00000000000E+00  0.44408920985E-15  0.00000000000E+00  0.91188000000E+02  0.91188000000E+02 0.  0.
    9900012    2    3    3    0    0 -0.10852565824E+02  0.26581515694E+01 -0.35084683412E+02  0.54367096088E+02  0.40000027153E+02 0.  0.
         12    1    3    3    0    0  0.10852565824E+02 -0.26581515694E+01  0.35084683412E+02  0.36820903912E+02  0.00000000000E+00 0. -1.
         11    1    4    4    0    0  0.27087690104E+01  0.20294810221E+01  0.19846847006E+01  0.39236712902E+01  0.51100000000E-03 0. -1.
        -11    1    4    4    0    0 -0.17920770905E+02  0.52235808107E+01 -0.39476709638E+02  0.43667498559E+02  0.51100000000E-03 0.  1.
        -12    1    4    4    0    0  0.43594360710E+01 -0.45949102634E+01  0.24073415247E+01  0.67759262394E+01  0.00000000000E+00 0.  1.
</event>
<event>
 8    1  0.2534787E-006  0.9118800E+02  0.7816164E-02  0.1184000E+00
        -11   -1    0    0    0    0  0.00000000000E+00  0.00000000000E+00  0.45593999997E+02  0.45594000000E+02  0.51100000000E-03 0.  1.
         11   -1    0    0    0    0 -0.00000000000E+00 -0.00000000000E+00 -0.45593999997E+02  0.45594000000E+02  0.51100000000E-03 0. -1.
         23    2    1    2    0    0  0.17763568394E-14  0.00000000000E+00  0.00000000000E+00  0.91188000000E+02  0.91188000000E+02 0.  0.
    9900012    2    3    3    0    0  0.10112347959E+02 -0.30084714790E+02  0.18666289039E+02  0.54367082145E+02  0.39999995365E+02 0.  0.
         12    1    3    3    0    0 -0.10112347959E+02  0.30084714790E+02 -0.18666289039E+02  0.36820917855E+02  0.00000000000E+00 0. -1.
         11    1    4    4    0    0 -0.65458137295E+01 -0.51941794097E+00 -0.37001932766E+01  0.75371680971E+01  0.51100000000E-03 0. -1.
        -11    1    4    4    0    0  0.54557271221E+01 -0.28726422643E+02  0.19781043828E+02  0.35302436339E+02  0.51100000000E-03 0.  1.
        -12    1    4    4    0    0  0.11202434566E+02 -0.83887420583E+00  0.25854384880E+01  0.11527477708E+02  0.00000000000E+00 0.  1.
</event>
<event>
 8    1  0.2534787E-006  0.9118800E+02  0.7816164E-02  0.1184000E+00
        -11   -1    0    0    0    0  0.00000000000E+00  0.00000000000E+00  0.45593999997E+02  0.45594000000E+02  0.51100000000E-03 0. -1.
         11   -1    0    0    0    0 -0.00000000000E+00 -0.00000000000E+00 -0.45593999997E+02  0.45594000000E+02  0.51100000000E-03 0.  1.
         23    2    1    2    0    0 -0.71054273576E-14 -0.71054273576E-14  0.00000000000E+00  0.91188000000E+02  0.91188000000E+02 0.  0.
    9900012    2    3    3    0    0 -0.22621953418E+02 -0.28515819203E+02  0.55565263553E+01  0.54367086019E+02  0.40000004198E+02 0.  0.
        -12    1    3    3    0    0  0.22621953418E+02  0.28515819203E+02 -0.55565263553E+01  0.36820913981E+02  0.00000000000E+00 0.  1.
         11    1    4    4    0    0  0.44594143566E+01 -0.31574069996E+01  0.90544704116E+01  0.10575397395E+02  0.51100000000E-03 0. -1.
        -11    1    4    4    0    0  0.25689755453E+01 -0.11030107121E+01  0.38778056742E+01  0.47805486182E+01  0.51100000000E-03 0.  1.
        -12    1    4    4    0    0 -0.29650343320E+02 -0.24255401491E+02 -0.73757497304E+01  0.39011140006E+02  0.00000000000E+00 0.  1.
</event>
<event>
 8    1  0.2534787E-006  0.9118800E+02  0.7816164E-02  0.1184000E+00
        -11   -1    0    0    0    0  0.00000000000E+00  0.00000000000E+00  0.45593999997E+02  0.45594000000E+02  0.51100000000E-03 0. -1.
         11   -1    0    0    0    0 -0.00000000000E+00 -0.00000000000E+00 -0.45593999997E+02  0.45594000000E+02  0.51100000000E-03 0.  1.
         23    2    1    2    0    0  0.00000000000E+00  0.00000000000E+00 -0.17763568394E-14  0.91188000000E+02  0.91188000000E+02 0.  0.
    9900012    2    3    3    0    0 -0.33593810010E+02 -0.94663443131E+01 -0.11730908359E+02  0.54367218415E+02  0.40000306019E+02 0.  0.
         12    1    3    3    0    0  0.33593810010E+02  0.94663443131E+01  0.11730908359E+02  0.36820781585E+02  0.00000000000E+00 0. -1.
         11    1    4    4    0    0 -0.46045299938E+01 -0.39762515639E+01  0.81694152032E+01  0.10185853817E+02  0.51100000000E-03 0. -1.
        -11    1    4    4    0    0  0.19996114819E+01  0.35613194283E+01  0.25897942208E+01  0.48361634087E+01  0.51100000000E-03 0.  1.
        -12    1    4    4    0    0 -0.30988891498E+02 -0.90514121775E+01 -0.22490117783E+02  0.39345201189E+02  0.00000000000E+00 0.  1.
</event>
<event>
 8    1  0.2534787E-006  0.9118800E+02  0.7816164E-02  0.1184000E+00
        -11   -1    0    0    0    0  0.00000000000E+00  0.00000000000E+00  0.45593999997E+02  0.45594000000E+02  0.51100000000E-03 0.  1.
         11   -1    0    0    0    0 -0.00000000000E+00 -0.00000000000E+00 -0.45593999997E+02  0.45594000000E+02  0.51100000000E-03 0. -1.
         23    2    1    2    0    0  0.00000000000E+00  0.00000000000E+00  0.00000000000E+00  0.91188000000E+02  0.91188000000E+02 0.  0.
    9900012    2    3    3    0    0  0.19397849740E+02  0.30706629319E+02  0.60502814696E+01  0.54367087945E+02  0.40000008589E+02 0.  0.
        -12    1    3    3    0    0 -0.19397849740E+02 -0.30706629319E+02 -0.60502814696E+01  0.36820912055E+02  0.00000000000E+00 0.  1.
         11    1    4    4    0    0  0.19846616767E+01 -0.35008487012E+01 -0.17516289508E+00  0.40280896093E+01  0.51100000000E-03 0. -1.
        -11    1    4    4    0    0 -0.67304604259E+01  0.31830560688E+00  0.55404578084E+01  0.87233645454E+01  0.51100000000E-03 0.  1.
        -12    1    4    4    0    0  0.24143648489E+02  0.33889172414E+02  0.68498655621E+00  0.41615633791E+02  0.00000000000E+00 0.  1.
</event>
<event>
 8    1  0.2534787E-006  0.9118800E+02  0.7816164E-02  0.1184000E+00
        -11   -1    0    0    0    0  0.00000000000E+00  0.00000000000E+00  0.45593999997E+02  0.45594000000E+02  0.51100000000E-03 0.  1.
         11   -1    0    0    0    0 -0.00000000000E+00 -0.00000000000E+00 -0.45593999997E+02  0.45594000000E+02  0.51100000000E-03 0. -1.
         23    2    1    2    0    0  0.00000000000E+00  0.00000000000E+00  0.00000000000E+00  0.91188000000E+02  0.91188000000E+02 0.  0.
    9900012    2    3    3    0    0  0.25392648372E+02 -0.14660064728E+02  0.22272804152E+02  0.54367056313E+02  0.39999936476E+02 0.  0.
         12    1    3    3    0    0 -0.25392648372E+02  0.14660064728E+02 -0.22272804152E+02  0.36820943687E+02  0.00000000000E+00 0. -1.
         11    1    4    4    0    0  0.85158399910E+01  0.27307313615E+01 -0.97812008989E+01  0.13253237937E+02  0.51100000000E-03 0. -1.
        -11    1    4    4    0    0  0.13063088432E+02 -0.17479995929E+02  0.25832027968E+02  0.33815502455E+02  0.51100000000E-03 0.  1.
        -12    1    4    4    0    0  0.38137199494E+01  0.89199839502E-01  0.62219770835E+01  0.72983159216E+01  0.00000000000E+00 0.  1.
</event>
<event>
 8    1  0.2534787E-006  0.9118800E+02  0.7816164E-02  0.1184000E+00
        -11   -1    0    0    0    0  0.00000000000E+00  0.00000000000E+00  0.45593999997E+02  0.45594000000E+02  0.51100000000E-03 0. -1.
         11   -1    0    0    0    0 -0.00000000000E+00 -0.00000000000E+00 -0.45593999997E+02  0.45594000000E+02  0.51100000000E-03 0.  1.
         23    2    1    2    0    0  0.35527136788E-14 -0.44408920985E-15  0.00000000000E+00  0.91188000000E+02  0.91188000000E+02 0.  0.
    9900012    2    3    3    0    0 -0.26560522127E+02 -0.26021627093E+01  0.25368229174E+02  0.54367086950E+02  0.40000006319E+02 0.  0.
        -12    1    3    3    0    0  0.26560522127E+02  0.26021627093E+01 -0.25368229174E+02  0.36820913050E+02  0.00000000000E+00 0.  1.
         11    1    4    4    0    0 -0.38822989109E+01  0.22857324375E+01 -0.53374569315E-01  0.45055151442E+01  0.51100000000E-03 0. -1.
        -11    1    4    4    0    0 -0.30995085330E+02 -0.10606106074E+02  0.20355136253E+02  0.38568333809E+02  0.51100000000E-03 0.  1.
        -12    1    4    4    0    0  0.83168621134E+01  0.57182109269E+01  0.50664674905E+01  0.11293237997E+02  0.00000000000E+00 0.  1.
</event>
<event>
 8    1  0.2534787E-006  0.9118800E+02  0.7816164E-02  0.1184000E+00
        -11   -1    0    0    0    0  0.00000000000E+00  0.00000000000E+00  0.45593999997E+02  0.45594000000E+02  0.51100000000E-03 0. -1.
         11   -1    0    0    0    0 -0.00000000000E+00 -0.00000000000E+00 -0.45593999997E+02  0.45594000000E+02  0.51100000000E-03 0.  1.
         23    2    1    2    0    0 -0.44408920985E-15  0.35527136788E-14 -0.71054273576E-14  0.91188000000E+02  0.91188000000E+02 0.  0.
    9900012    2    3    3    0    0  0.14991670914E+01  0.86657313778E+01 -0.35755242258E+02  0.54367085411E+02  0.40000002811E+02 0.  0.
         12    1    3    3    0    0 -0.14991670914E+01 -0.86657313778E+01  0.35755242258E+02  0.36820914589E+02  0.00000000000E+00 0. -1.
         11    1    4    4    0    0 -0.12573153885E+02  0.72023362445E+01 -0.22039657716E+02  0.26376208191E+02  0.51100000000E-03 0. -1.
        -11    1    4    4    0    0 -0.17355403405E+01 -0.24389339732E+01 -0.11103949211E+02  0.11500355974E+02  0.51100000000E-03 0.  1.
        -12    1    4    4    0    0  0.15807861317E+02  0.39023291065E+01 -0.26116353305E+01  0.16490521246E+02  0.00000000000E+00 0.  1.
</event>
<event>
 8    1  0.2534787E-006  0.9118800E+02  0.7816164E-02  0.1184000E+00
        -11   -1    0    0    0    0  0.00000000000E+00  0.00000000000E+00  0.45593999997E+02  0.45594000000E+02  0.51100000000E-03 0. -1.
         11   -1    0    0    0    0 -0.00000000000E+00 -0.00000000000E+00 -0.45593999997E+02  0.45594000000E+02  0.51100000000E-03 0.  1.
         23    2    1    2    0    0  0.00000000000E+00  0.00000000000E+00  0.00000000000E+00  0.91188000000E+02  0.91188000000E+02 0.  0.
    9900012    2    3    3    0    0  0.29395503226E+02 -0.14643147485E+02  0.16651214246E+02  0.54367077768E+02  0.39999985387E+02 0.  0.
        -12    1    3    3    0    0 -0.29395503226E+02  0.14643147485E+02 -0.16651214246E+02  0.36820922232E+02  0.00000000000E+00 0.  1.
         11    1    4    4    0    0  0.11277702948E+02  0.16454648652E+00  0.21038007776E+02  0.23870723298E+02  0.51100000000E-03 0. -1.
        -11    1    4    4    0    0 -0.13380323173E+01 -0.20964247034E+01  0.48796641989E+01  0.54769014939E+01  0.51100000000E-03 0.  1.
         12    1    4    4    0    0  0.19455832595E+02 -0.12711269268E+02 -0.92664577286E+01  0.25019452976E+02  0.00000000000E+00 0. -1.
</event>
<event>
 8    1  0.2534787E-006  0.9118800E+02  0.7816164E-02  0.1184000E+00
        -11   -1    0    0    0    0  0.00000000000E+00  0.00000000000E+00  0.45593999997E+02  0.45594000000E+02  0.51100000000E-03 0.  1.
         11   -1    0    0    0    0 -0.00000000000E+00 -0.00000000000E+00 -0.45593999997E+02  0.45594000000E+02  0.51100000000E-03 0. -1.
         23    2    1    2    0    0 -0.44408920985E-15 -0.71054273576E-14  0.35527136788E-14  0.91188000000E+02  0.91188000000E+02 0.  0.
    9900012    2    3    3    0    0  0.23001981666E+01 -0.26299655651E+02 -0.25667510307E+02  0.54367029286E+02  0.39999874863E+02 0.  0.
        -12    1    3    3    0    0 -0.23001981666E+01  0.26299655651E+02  0.25667510307E+02  0.36820970714E+02  0.00000000000E+00 0.  1.
         11    1    4    4    0    0 -0.15344391500E+01 -0.58696987888E+01 -0.29768304599E+01  0.67579129340E+01  0.51100000000E-03 0. -1.
        -11    1    4    4    0    0  0.32113221028E+01  0.70512678141E+01 -0.18168086246E+02  0.19751261365E+02  0.51100000000E-03 0.  1.
        -12    1    4    4    0    0  0.62331521385E+00 -0.27481224676E+02 -0.45225936016E+01  0.27857854986E+02  0.00000000000E+00 0.  1.
</event>
<event>
 8    1  0.2534787E-006  0.9118800E+02  0.7816164E-02  0.1184000E+00
        -11   -1    0    0    0    0  0.00000000000E+00  0.00000000000E+00  0.45593999997E+02  0.45594000000E+02  0.51100000000E-03 0.  1.
         11   -1    0    0    0    0 -0.00000000000E+00 -0.00000000000E+00 -0.45593999997E+02  0.45594000000E+02  0.51100000000E-03 0. -1.
         23    2    1    2    0    0  0.88817841970E-15 -0.35527136788E-14  0.00000000000E+00  0.91188000000E+02  0.91188000000E+02 0.  0.
    9900012    2    3    3    0    0 -0.62778011629E+01  0.28570843501E+02 -0.22362373599E+02  0.54367086937E+02  0.40000006291E+02 0.  0.
         12    1    3    3    0    0  0.62778011629E+01 -0.28570843501E+02  0.22362373599E+02  0.36820913063E+02  0.00000000000E+00 0. -1.
         11    1    4    4    0    0  0.10573146432E+02  0.31449250586E+01  0.13783383257E+01  0.11116734947E+02  0.51100000000E-03 0. -1.
        -11    1    4    4    0    0 -0.15233300718E+01  0.19747379805E+02 -0.13097227333E+02  0.23744829074E+02  0.51100000000E-03 0.  1.
         12    1    4    4    0    0 -0.15327617523E+02  0.56785386376E+01 -0.10643484591E+02  0.19505522916E+02  0.00000000000E+00 0. -1.
</event>
<event>
 8    1  0.2534787E-006  0.9118800E+02  0.7816164E-02  0.1184000E+00
        -11   -1    0    0    0    0  0.00000000000E+00  0.00000000000E+00  0.45593999997E+02  0.45594000000E+02  0.51100000000E-03 0.  1.
         11   -1    0    0    0    0 -0.00000000000E+00 -0.00000000000E+00 -0.45593999997E+02  0.45594000000E+02  0.51100000000E-03 0. -1.
         23    2    1    2    0    0 -0.35527136788E-14  0.17763568394E-14  0.00000000000E+00  0.91188000000E+02  0.91188000000E+02 0.  0.
    9900012    2    3    3    0    0  0.30064505480E+02 -0.14476803294E+02  0.15566889028E+02  0.54367077179E+02  0.39999984045E+02 0.  0.
         12    1    3    3    0    0 -0.30064505480E+02  0.14476803294E+02 -0.15566889028E+02  0.36820922821E+02  0.00000000000E+00 0. -1.
         11    1    4    4    0    0 -0.38602318882E+01 -0.28933275239E+01  0.94676931228E+00  0.49162085780E+01  0.51100000000E-03 0. -1.
        -11    1    4    4    0    0  0.82667161944E+01 -0.13633827621E+02  0.17353703466E+02  0.23566308080E+02  0.51100000000E-03 0.  1.
         12    1    4    4    0    0  0.25658021174E+02  0.20503518515E+01 -0.27335837505E+01  0.25884560521E+02  0.00000000000E+00 0. -1.
</event>
<event>
 8    1  0.2534787E-006  0.9118800E+02  0.7816164E-02  0.1184000E+00
        -11   -1    0    0    0    0  0.00000000000E+00  0.00000000000E+00  0.45593999997E+02  0.45594000000E+02  0.51100000000E-03 0.  1.
         11   -1    0    0    0    0 -0.00000000000E+00 -0.00000000000E+00 -0.45593999997E+02  0.45594000000E+02  0.51100000000E-03 0. -1.
         23    2    1    2    0    0 -0.17763568394E-14  0.00000000000E+00  0.35527136788E-14  0.91188000000E+02  0.91188000000E+02 0.  0.
    9900012    2    3    3    0    0 -0.12323893401E+02  0.26075053633E+02  0.22890880060E+02  0.54367093433E+02  0.40000021098E+02 0.  0.
         12    1    3    3    0    0  0.12323893401E+02 -0.26075053633E+02 -0.22890880060E+02  0.36820906567E+02  0.00000000000E+00 0. -1.
         11    1    4    4    0    0 -0.23495339851E+01 -0.87498055966E+01 -0.50321586523E+00  0.90737332115E+01  0.51100000000E-03 0. -1.
        -11    1    4    4    0    0  0.17281585800E+01  0.15747736227E+02  0.59695930385E+01  0.16929671280E+02  0.51100000000E-03 0.  1.
        -12    1    4    4    0    0 -0.11702517995E+02  0.19077123003E+02  0.17424502887E+02  0.28363688941E+02  0.00000000000E+00 0.  1.
</event>
<event>
 8    1  0.2534787E-006  0.9118800E+02  0.7816164E-02  0.1184000E+00
        -11   -1    0    0    0    0  0.00000000000E+00  0.00000000000E+00  0.45593999997E+02  0.45594000000E+02  0.51100000000E-03 0. -1.
         11   -1    0    0    0    0 -0.00000000000E+00 -0.00000000000E+00 -0.45593999997E+02  0.45594000000E+02  0.51100000000E-03 0.  1.
         23    2    1    2    0    0  0.00000000000E+00  0.00000000000E+00  0.00000000000E+00  0.91188000000E+02  0.91188000000E+02 0.  0.
    9900012    2    3    3    0    0 -0.22884272285E+02  0.23110814971E+02  0.17262136890E+02  0.54367067683E+02  0.39999962398E+02 0.  0.
        -12    1    3    3    0    0  0.22884272285E+02 -0.23110814971E+02 -0.17262136890E+02  0.36820932317E+02  0.00000000000E+00 0.  1.
         11    1    4    4    0    0 -0.96022150660E+00  0.14268980271E+02  0.31934087906E+01  0.14653452947E+02  0.51100000000E-03 0. -1.
        -11    1    4    4    0    0 -0.31545623007E+01  0.85774588144E+01 -0.69879761074E+01  0.11504602269E+02  0.51100000000E-03 0.  1.
         12    1    4    4    0    0 -0.18769488478E+02  0.26437588581E+00  0.21056704207E+02  0.28209012467E+02  0.00000000000E+00 0. -1.
</event>
<event>
 8    1  0.2534787E-006  0.9118800E+02  0.7816164E-02  0.1184000E+00
        -11   -1    0    0    0    0  0.00000000000E+00  0.00000000000E+00  0.45593999997E+02  0.45594000000E+02  0.51100000000E-03 0. -1.
         11   -1    0    0    0    0 -0.00000000000E+00 -0.00000000000E+00 -0.45593999997E+02  0.45594000000E+02  0.51100000000E-03 0.  1.
         23    2    1    2    0    0  0.88817841970E-15  0.00000000000E+00 -0.35527136788E-14  0.91188000000E+02  0.91188000000E+02 0.  0.
    9900012    2    3    3    0    0 -0.75347407320E+01 -0.21807787719E+02  0.28695374100E+02  0.54367130675E+02  0.40000106000E+02 0.  0.
        -12    1    3    3    0    0  0.75347407320E+01  0.21807787719E+02 -0.28695374100E+02  0.36820869325E+02  0.00000000000E+00 0.  1.
         11    1    4    4    0    0 -0.10312716578E+02  0.53879583736E+01  0.17255557745E+02  0.20811931482E+02  0.51100000000E-03 0. -1.
        -11    1    4    4    0    0  0.42297564459E+01 -0.34117999142E+01 -0.24644104375E+01  0.59669537715E+01  0.51100000000E-03 0.  1.
        -12    1    4    4    0    0 -0.14517805997E+01 -0.23783946179E+02  0.13904226792E+02  0.27588245421E+02  0.00000000000E+00 0.  1.
</event>
<event>
 8    1  0.2534787E-006  0.9118800E+02  0.7816164E-02  0.1184000E+00
        -11   -1    0    0    0    0  0.00000000000E+00  0.00000000000E+00  0.45593999997E+02  0.45594000000E+02  0.51100000000E-03 0. -1.
         11   -1    0    0    0    0 -0.00000000000E+00 -0.00000000000E+00 -0.45593999997E+02  0.45594000000E+02  0.51100000000E-03 0.  1.
         23    2    1    2    0    0  0.00000000000E+00  0.00000000000E+00  0.00000000000E+00  0.91188000000E+02  0.91188000000E+02 0.  0.
    9900012    2    3    3    0    0 -0.15593521811E+02  0.21171620682E+02  0.25775802999E+02  0.54366980663E+02  0.39999764016E+02 0.  0.
        -12    1    3    3    0    0  0.15593521811E+02 -0.21171620682E+02 -0.25775802999E+02  0.36821019337E+02  0.00000000000E+00 0.  1.
         11    1    4    4    0    0 -0.16909936704E+02  0.21104701788E+02  0.38453053683E+01  0.27315577434E+02  0.51100000000E-03 0. -1.
        -11    1    4    4    0    0 -0.46932957002E+01 -0.47748433388E+01  0.15916564709E+02  0.17267402406E+02  0.51100000000E-03 0.  1.
        -12    1    4    4    0    0  0.60097105929E+01  0.48417622328E+01  0.60139329213E+01  0.97840008233E+01  0.00000000000E+00 0.  1.
</event>
<event>
 8    1  0.2534787E-006  0.9118800E+02  0.7816164E-02  0.1184000E+00
        -11   -1    0    0    0    0  0.00000000000E+00  0.00000000000E+00  0.45593999997E+02  0.45594000000E+02  0.51100000000E-03 0. -1.
         11   -1    0    0    0    0 -0.00000000000E+00 -0.00000000000E+00 -0.45593999997E+02  0.45594000000E+02  0.51100000000E-03 0.  1.
         23    2    1    2    0    0  0.17763568394E-14  0.00000000000E+00  0.00000000000E+00  0.91188000000E+02  0.91188000000E+02 0.  0.
    9900012    2    3    3    0    0  0.14563862417E+02 -0.17736690007E+02 -0.28793812547E+02  0.54367083365E+02  0.39999998146E+02 0.  0.
         12    1    3    3    0    0 -0.14563862417E+02  0.17736690007E+02  0.28793812547E+02  0.36820916635E+02  0.00000000000E+00 0. -1.
         11    1    4    4    0    0 -0.50747613298E+01 -0.11588954181E+02  0.42767570419E+01  0.13354688788E+02  0.51100000000E-03 0. -1.
        -11    1    4    4    0    0  0.18738797892E+01  0.28525549311E+01 -0.98350966477E+01  0.10410457311E+02  0.51100000000E-03 0.  1.
         12    1    4    4    0    0  0.17764743958E+02 -0.90002907563E+01 -0.23235472941E+02  0.30601937265E+02  0.00000000000E+00 0. -1.
</event>
<event>
 8    1  0.2534787E-006  0.9118800E+02  0.7816164E-02  0.1184000E+00
        -11   -1    0    0    0    0  0.00000000000E+00  0.00000000000E+00  0.45593999997E+02  0.45594000000E+02  0.51100000000E-03 0.  1.
         11   -1    0    0    0    0 -0.00000000000E+00 -0.00000000000E+00 -0.45593999997E+02  0.45594000000E+02  0.51100000000E-03 0. -1.
         23    2    1    2    0    0  0.00000000000E+00  0.26645352591E-14  0.00000000000E+00  0.91188000000E+02  0.91188000000E+02 0.  0.
    9900012    2    3    3    0    0 -0.16075242668E+02 -0.21155025138E+01  0.33058902815E+02  0.54367084299E+02  0.40000000276E+02 0.  0.
         12    1    3    3    0    0  0.16075242668E+02  0.21155025138E+01 -0.33058902815E+02  0.36820915701E+02  0.00000000000E+00 0. -1.
         11    1    4    4    0    0 -0.19321471717E+02  0.10726039381E+02  0.45524474075E+01  0.22563066453E+02  0.51100000000E-03 0. -1.
        -11    1    4    4    0    0  0.35399113228E+01 -0.43615946233E+01  0.11385074983E+02  0.12695448494E+02  0.51100000000E-03 0.  1.
         12    1    4    4    0    0 -0.29368227317E+00 -0.84799472713E+01  0.17121380425E+02  0.19108569351E+02  0.00000000000E+00 0. -1.
</event>
<event>
 8    1  0.2534787E-006  0.9118800E+02  0.7816164E-02  0.1184000E+00
        -11   -1    0    0    0    0  0.00000000000E+00  0.00000000000E+00  0.45593999997E+02  0.45594000000E+02  0.51100000000E-03 0.  1.
         11   -1    0    0    0    0 -0.00000000000E+00 -0.00000000000E+00 -0.45593999997E+02  0.45594000000E+02  0.51100000000E-03 0. -1.
         23    2    1    2    0    0  0.00000000000E+00 -0.17763568394E-14  0.35527136788E-14  0.91188000000E+02  0.91188000000E+02 0.  0.
    9900012    2    3    3    0    0 -0.13037383232E+02  0.12833679753E+02 -0.31954746380E+02  0.54367047897E+02  0.39999917290E+02 0.  0.
        -12    1    3    3    0    0  0.13037383232E+02 -0.12833679753E+02  0.31954746380E+02  0.36820952103E+02  0.00000000000E+00 0.  1.
         11    1    4    4    0    0  0.71053060015E+01 -0.50657424321E+01 -0.76198830557E+01  0.11584892654E+02  0.51100000000E-03 0.  1.
        -11    1    4    4    0    0 -0.13840533403E+02  0.20952399748E+02 -0.25378648359E+02  0.35702089755E+02  0.51100000000E-03 0. -1.
        -12    1    4    4    0    0 -0.63021558310E+01 -0.30529775622E+01  0.10437850345E+01  0.70800654878E+01  0.00000000000E+00 0.  1.
</event>
<event>
 8    1  0.2534787E-006  0.9118800E+02  0.7816164E-02  0.1184000E+00
        -11   -1    0    0    0    0  0.00000000000E+00  0.00000000000E+00  0.45593999997E+02  0.45594000000E+02  0.51100000000E-03 0. -1.
         11   -1    0    0    0    0 -0.00000000000E+00 -0.00000000000E+00 -0.45593999997E+02  0.45594000000E+02  0.51100000000E-03 0.  1.
         23    2    1    2    0    0  0.00000000000E+00  0.00000000000E+00  0.00000000000E+00  0.91188000000E+02  0.91188000000E+02 0.  0.
    9900012    2    3    3    0    0 -0.94471041689E+01  0.13328788621E+02  0.32998124743E+02  0.54367073616E+02  0.39999975922E+02 0.  0.
        -12    1    3    3    0    0  0.94471041689E+01 -0.13328788621E+02 -0.32998124743E+02  0.36820926384E+02  0.00000000000E+00 0.  1.
         11    1    4    4    0    0 -0.21577831338E+01  0.30297105095E+01  0.67884348563E+01  0.77406732190E+01  0.51100000000E-03 0. -1.
        -11    1    4    4    0    0 -0.69692136179E+01 -0.38710443328E+01  0.30731614512E+02  0.31748811843E+02  0.51100000000E-03 0.  1.
        -12    1    4    4    0    0 -0.32010741715E+00  0.14170122444E+02 -0.45219246259E+01  0.14877588553E+02  0.00000000000E+00 0.  1.
</event>
<event>
 8    1  0.2534787E-006  0.9118800E+02  0.7816164E-02  0.1184000E+00
        -11   -1    0    0    0    0  0.00000000000E+00  0.00000000000E+00  0.45593999997E+02  0.45594000000E+02  0.51100000000E-03 0.  1.
         11   -1    0    0    0    0 -0.00000000000E+00 -0.00000000000E+00 -0.45593999997E+02  0.45594000000E+02  0.51100000000E-03 0. -1.
         23    2    1    2    0    0  0.71054273576E-14 -0.17763568394E-14  0.17763568394E-14  0.91188000000E+02  0.91188000000E+02 0.  0.
    9900012    2    3    3    0    0 -0.32641287655E+02 -0.59921533771E+01 -0.15950061332E+02  0.54367299051E+02  0.40000489844E+02 0.  0.
        -12    1    3    3    0    0  0.32641287655E+02  0.59921533771E+01  0.15950061332E+02  0.36820700949E+02  0.00000000000E+00 0.  1.
         11    1    4    4    0    0  0.22792281819E+01 -0.16128961412E+01 -0.27402866730E+01  0.39122226903E+01  0.51100000000E-03 0.  1.
        -11    1    4    4    0    0 -0.24363997151E+01 -0.69659070734E+01  0.85321545825E+01  0.11280849569E+02  0.51100000000E-03 0. -1.
         12    1    4    4    0    0 -0.32484116122E+02  0.25866498375E+01 -0.21741929241E+02  0.39174226792E+02  0.00000000000E+00 0. -1.
</event>
<event>
 8    1  0.2534787E-006  0.9118800E+02  0.7816164E-02  0.1184000E+00
        -11   -1    0    0    0    0  0.00000000000E+00  0.00000000000E+00  0.45593999997E+02  0.45594000000E+02  0.51100000000E-03 0.  1.
         11   -1    0    0    0    0 -0.00000000000E+00 -0.00000000000E+00 -0.45593999997E+02  0.45594000000E+02  0.51100000000E-03 0. -1.
         23    2    1    2    0    0  0.17763568394E-14  0.00000000000E+00  0.00000000000E+00  0.91188000000E+02  0.91188000000E+02 0.  0.
    9900012    2    3    3    0    0 -0.51318970807E+01  0.22754854212E+02 -0.28489649049E+02  0.54367083922E+02  0.39999999418E+02 0.  0.
         12    1    3    3    0    0  0.51318970807E+01 -0.22754854212E+02  0.28489649049E+02  0.36820916078E+02  0.00000000000E+00 0. -1.
         11    1    4    4    0    0 -0.23013791979E+00  0.36062100790E+01  0.19835262560E+01  0.41221464391E+01  0.51100000000E-03 0.  1.
        -11    1    4    4    0    0 -0.11926303512E+02  0.66951096366E+01  0.28615738967E+01  0.13973181955E+02  0.51100000000E-03 0. -1.
         12    1    4    4    0    0  0.70245443514E+01  0.12453534497E+02 -0.33334749201E+02  0.36271755529E+02  0.00000000000E+00 0. -1.
</event>
<event>
 8    1  0.2534787E-006  0.9118800E+02  0.7816164E-02  0.1184000E+00
        -11   -1    0    0    0    0  0.00000000000E+00  0.00000000000E+00  0.45593999997E+02  0.45594000000E+02  0.51100000000E-03 0. -1.
         11   -1    0    0    0    0 -0.00000000000E+00 -0.00000000000E+00 -0.45593999997E+02  0.45594000000E+02  0.51100000000E-03 0.  1.
         23    2    1    2    0    0  0.00000000000E+00 -0.35527136788E-14  0.35527136788E-14  0.91188000000E+02  0.91188000000E+02 0.  0.
    9900012    2    3    3    0    0 -0.21685761827E+02  0.24353291316E+02  0.17100454066E+02  0.54367073977E+02  0.39999976746E+02 0.  0.
        -12    1    3    3    0    0  0.21685761827E+02 -0.24353291316E+02 -0.17100454066E+02  0.36820926023E+02  0.00000000000E+00 0.  1.
         11    1    4    4    0    0 -0.57937453436E+01  0.21665851106E+02  0.32520815761E+01  0.22661699497E+02  0.51100000000E-03 0. -1.
        -11    1    4    4    0    0 -0.15746343673E+02 -0.11916883436E+01  0.19347693701E+02  0.24974000721E+02  0.51100000000E-03 0.  1.
        -12    1    4    4    0    0 -0.14567281006E+00  0.38791285536E+01 -0.54993212114E+01  0.67313737594E+01  0.00000000000E+00 0.  1.
</event>
<event>
 8    1  0.2534787E-006  0.9118800E+02  0.7816164E-02  0.1184000E+00
        -11   -1    0    0    0    0  0.00000000000E+00  0.00000000000E+00  0.45593999997E+02  0.45594000000E+02  0.51100000000E-03 0.  1.
         11   -1    0    0    0    0 -0.00000000000E+00 -0.00000000000E+00 -0.45593999997E+02  0.45594000000E+02  0.51100000000E-03 0. -1.
         23    2    1    2    0    0  0.00000000000E+00  0.00000000000E+00 -0.71054273576E-14  0.91188000000E+02  0.91188000000E+02 0.  0.
    9900012    2    3    3    0    0 -0.56430375587E+01  0.24515740874E+02  0.26887071063E+02  0.54367081844E+02  0.39999994681E+02 0.  0.
         12    1    3    3    0    0  0.56430375587E+01 -0.24515740874E+02 -0.26887071063E+02  0.36820918156E+02  0.00000000000E+00 0. -1.
         11    1    4    4    0    0 -0.38557816484E+00  0.43954032461E+01  0.21631619974E+02  0.22077029311E+02  0.51100000000E-03 0. -1.
        -11    1    4    4    0    0 -0.44008194327E+01  0.19677419439E+02  0.13321394752E+02  0.24166663110E+02  0.51100000000E-03 0.  1.
         12    1    4    4    0    0 -0.85663996115E+00  0.44291818868E+00 -0.80659436636E+01  0.81233894237E+01  0.00000000000E+00 0. -1.
</event>
<event>
 8    1  0.2534787E-006  0.9118800E+02  0.7816164E-02  0.1184000E+00
        -11   -1    0    0    0    0  0.00000000000E+00  0.00000000000E+00  0.45593999997E+02  0.45594000000E+02  0.51100000000E-03 0.  1.
         11   -1    0    0    0    0 -0.00000000000E+00 -0.00000000000E+00 -0.45593999997E+02  0.45594000000E+02  0.51100000000E-03 0. -1.
         23    2    1    2    0    0  0.35527136788E-14  0.88817841970E-15  0.00000000000E+00  0.91188000000E+02  0.91188000000E+02 0.  0.
    9900012    2    3    3    0    0 -0.31215363454E+02 -0.51786951218E+01 -0.18829780711E+02  0.54367103211E+02  0.40000043389E+02 0.  0.
        -12    1    3    3    0    0  0.31215363454E+02  0.51786951218E+01  0.18829780711E+02  0.36820896789E+02  0.00000000000E+00 0.  1.
         11    1    4    4    0    0  0.42465771542E+01  0.26689669717E+01 -0.64333936503E+01  0.81575337170E+01  0.51100000000E-03 0. -1.
        -11    1    4    4    0    0 -0.88247438167E+01  0.74931843072E+01  0.28129475976E+01  0.11913714322E+02  0.51100000000E-03 0.  1.
         12    1    4    4    0    0 -0.26637196792E+02 -0.15340846401E+02 -0.15209334658E+02  0.34295855172E+02  0.00000000000E+00 0. -1.
</event>
<event>
 8    1  0.2534787E-006  0.9118800E+02  0.7816164E-02  0.1184000E+00
        -11   -1    0    0    0    0  0.00000000000E+00  0.00000000000E+00  0.45593999997E+02  0.45594000000E+02  0.51100000000E-03 0. -1.
         11   -1    0    0    0    0 -0.00000000000E+00 -0.00000000000E+00 -0.45593999997E+02  0.45594000000E+02  0.51100000000E-03 0.  1.
         23    2    1    2    0    0 -0.35527136788E-14  0.00000000000E+00  0.17763568394E-14  0.91188000000E+02  0.91188000000E+02 0.  0.
    9900012    2    3    3    0    0 -0.15739210350E+02 -0.30608358160E+02  0.13083793345E+02  0.54367082303E+02  0.39999995727E+02 0.  0.
         12    1    3    3    0    0  0.15739210350E+02  0.30608358160E+02 -0.13083793345E+02  0.36820917697E+02  0.00000000000E+00 0. -1.
         11    1    4    4    0    0  0.46081010309E+01 -0.14616759075E+02  0.42377836853E+01  0.15901039331E+02  0.51100000000E-03 0.  1.
        -11    1    4    4    0    0 -0.18958462752E+02  0.78633414100E+00  0.10260752984E+02  0.21571385754E+02  0.51100000000E-03 0. -1.
         12    1    4    4    0    0 -0.13888486296E+01 -0.16777933226E+02 -0.14147433245E+01  0.16894657218E+02  0.00000000000E+00 0. -1.
</event>
<event>
 8    1  0.2534787E-006  0.9118800E+02  0.7816164E-02  0.1184000E+00
        -11   -1    0    0    0    0  0.00000000000E+00  0.00000000000E+00  0.45593999997E+02  0.45594000000E+02  0.51100000000E-03 0.  1.
         11   -1    0    0    0    0 -0.00000000000E+00 -0.00000000000E+00 -0.45593999997E+02  0.45594000000E+02  0.51100000000E-03 0. -1.
         23    2    1    2    0    0  0.35527136788E-14  0.17763568394E-14  0.00000000000E+00  0.91188000000E+02  0.91188000000E+02 0.  0.
    9900012    2    3    3    0    0  0.31468773663E+02  0.15012824992E+02 -0.11836826544E+02  0.54367094352E+02  0.40000023195E+02 0.  0.
         12    1    3    3    0    0 -0.31468773663E+02 -0.15012824992E+02  0.11836826544E+02  0.36820905648E+02  0.00000000000E+00 0. -1.
         11    1    4    4    0    0  0.19491333327E+00  0.11481288995E+02 -0.87830060480E+01  0.14456804063E+02  0.51100000000E-03 0. -1.
        -11    1    4    4    0    0  0.32132810133E+02  0.96076699606E+01 -0.36903092263E+01  0.33740823812E+02  0.51100000000E-03 0.  1.
         12    1    4    4    0    0 -0.85894980342E+00 -0.60761339639E+01  0.63648873022E+00  0.61694664774E+01  0.00000000000E+00 0. -1.
</event>
<event>
 8    1  0.2534787E-006  0.9118800E+02  0.7816164E-02  0.1184000E+00
        -11   -1    0    0    0    0  0.00000000000E+00  0.00000000000E+00  0.45593999997E+02  0.45594000000E+02  0.51100000000E-03 0.  1.
         11   -1    0    0    0    0 -0.00000000000E+00 -0.00000000000E+00 -0.45593999997E+02  0.45594000000E+02  0.51100000000E-03 0. -1.
         23    2    1    2    0    0  0.00000000000E+00  0.35527136788E-14  0.00000000000E+00  0.91188000000E+02  0.91188000000E+02 0.  0.
    9900012    2    3    3    0    0  0.11503188656E+02  0.27117463105E+02 -0.22092973923E+02  0.54367086767E+02  0.40000005904E+02 0.  0.
        -12    1    3    3    0    0 -0.11503188656E+02 -0.27117463105E+02  0.22092973923E+02  0.36820913233E+02  0.00000000000E+00 0.  1.
         11    1    4    4    0    0 -0.97904607514E+00  0.83300536259E+01  0.91447940914E+00  0.84370965076E+01  0.51100000000E-03 0. -1.
        -11    1    4    4    0    0  0.40709364306E+01  0.23914556502E+01  0.83305767461E+01  0.95754943858E+01  0.51100000000E-03 0.  1.
        -12    1    4    4    0    0  0.84112983006E+01  0.16395953829E+02 -0.31338030078E+02  0.36354495874E+02  0.00000000000E+00 0.  1.
</event>
<event>
 8    1  0.2534787E-006  0.9118800E+02  0.7816164E-02  0.1184000E+00
        -11   -1    0    0    0    0  0.00000000000E+00  0.00000000000E+00  0.45593999997E+02  0.45594000000E+02  0.51100000000E-03 0.  1.
         11   -1    0    0    0    0 -0.00000000000E+00 -0.00000000000E+00 -0.45593999997E+02  0.45594000000E+02  0.51100000000E-03 0. -1.
         23    2    1    2    0    0  0.00000000000E+00  0.00000000000E+00  0.00000000000E+00  0.91188000000E+02  0.91188000000E+02 0.  0.
    9900012    2    3    3    0    0 -0.66757833633E+01  0.24990607725E+02  0.26204626918E+02  0.54367095205E+02  0.40000025140E+02 0.  0.
         12    1    3    3    0    0  0.66757833633E+01 -0.24990607725E+02 -0.26204626918E+02  0.36820904795E+02  0.00000000000E+00 0. -1.
         11    1    4    4    0    0 -0.66185931826E+01  0.19315926357E+02  0.28393079604E+02  0.34972528596E+02  0.51100000000E-03 0. -1.
        -11    1    4    4    0    0 -0.28797285095E+01 -0.35423381285E+01  0.54400094993E+01  0.71017391756E+01  0.51100000000E-03 0.  1.
         12    1    4    4    0    0  0.28225383288E+01  0.92170194960E+01 -0.76284621848E+01  0.12292827434E+02  0.00000000000E+00 0. -1.
</event>
<event>
 8    1  0.2534787E-006  0.9118800E+02  0.7816164E-02  0.1184000E+00
        -11   -1    0    0    0    0  0.00000000000E+00  0.00000000000E+00  0.45593999997E+02  0.45594000000E+02  0.51100000000E-03 0. -1.
         11   -1    0    0    0    0 -0.00000000000E+00 -0.00000000000E+00 -0.45593999997E+02  0.45594000000E+02  0.51100000000E-03 0.  1.
         23    2    1    2    0    0 -0.26645352591E-14  0.35527136788E-14  0.00000000000E+00  0.91188000000E+02  0.91188000000E+02 0.  0.
    9900012    2    3    3    0    0  0.13343819675E+01  0.18010836671E+02 -0.32087532811E+02  0.54367074228E+02  0.39999977317E+02 0.  0.
         12    1    3    3    0    0 -0.13343819675E+01 -0.18010836671E+02  0.32087532811E+02  0.36820925772E+02  0.00000000000E+00 0. -1.
         11    1    4    4    0    0  0.99402213608E+01 -0.27913534582E-01  0.96047060578E+00  0.99865551575E+01  0.51100000000E-03 0. -1.
        -11    1    4    4    0    0 -0.37039958343E+00  0.40705588021E+00 -0.21992141575E+02  0.21999026834E+02  0.51100000000E-03 0.  1.
         12    1    4    4    0    0 -0.82354398099E+01  0.17631694325E+02 -0.11055861842E+02  0.22381492236E+02  0.00000000000E+00 0. -1.
</event>
<event>
 8    1  0.2534787E-006  0.9118800E+02  0.7816164E-02  0.1184000E+00
        -11   -1    0    0    0    0  0.00000000000E+00  0.00000000000E+00  0.45593999997E+02  0.45594000000E+02  0.51100000000E-03 0.  1.
         11   -1    0    0    0    0 -0.00000000000E+00 -0.00000000000E+00 -0.45593999997E+02  0.45594000000E+02  0.51100000000E-03 0. -1.
         23    2    1    2    0    0  0.00000000000E+00  0.00000000000E+00 -0.44408920985E-15  0.91188000000E+02  0.91188000000E+02 0.  0.
    9900012    2    3    3    0    0 -0.34746467544E+02 -0.11942691762E+02  0.24155777733E+01  0.54367083264E+02  0.39999997918E+02 0.  0.
         12    1    3    3    0    0  0.34746467544E+02  0.11942691762E+02 -0.24155777733E+01  0.36820916736E+02  0.00000000000E+00 0. -1.
         11    1    4    4    0    0 -0.95846235395E+01 -0.22466265520E+01 -0.12672838096E+02  0.16047216735E+02  0.51100000000E-03 0. -1.
        -11    1    4    4    0    0 -0.24643802396E+02 -0.14960699273E+02  0.88859593102E+01  0.30167860256E+02  0.51100000000E-03 0.  1.
        -12    1    4    4    0    0 -0.51804160795E+00  0.52646340632E+01  0.62024565591E+01  0.81520062742E+01  0.00000000000E+00 0.  1.
</event>
<event>
 8    1  0.2534787E-006  0.9118800E+02  0.7816164E-02  0.1184000E+00
        -11   -1    0    0    0    0  0.00000000000E+00  0.00000000000E+00  0.45593999997E+02  0.45594000000E+02  0.51100000000E-03 0.  1.
         11   -1    0    0    0    0 -0.00000000000E+00 -0.00000000000E+00 -0.45593999997E+02  0.45594000000E+02  0.51100000000E-03 0. -1.
         23    2    1    2    0    0  0.00000000000E+00  0.88817841970E-15  0.00000000000E+00  0.91188000000E+02  0.91188000000E+02 0.  0.
    9900012    2    3    3    0    0  0.32910704828E+02 -0.38325082368E+01 -0.16061656415E+02  0.54367089929E+02  0.40000013112E+02 0.  0.
         12    1    3    3    0    0 -0.32910704828E+02  0.38325082368E+01  0.16061656415E+02  0.36820910071E+02  0.00000000000E+00 0. -1.
         11    1    4    4    0    0  0.28636907018E+02 -0.16817095384E+02 -0.11986904600E+02  0.35306841021E+02  0.51100000000E-03 0. -1.
        -11    1    4    4    0    0  0.81863538941E+01  0.49366509363E+01 -0.10636896280E+01  0.96186458731E+01  0.51100000000E-03 0.  1.
         12    1    4    4    0    0 -0.39125560846E+01  0.80479362112E+01 -0.30110621870E+01  0.94416030350E+01  0.00000000000E+00 0. -1.
</event>
<event>
 8    1  0.2534787E-006  0.9118800E+02  0.7816164E-02  0.1184000E+00
        -11   -1    0    0    0    0  0.00000000000E+00  0.00000000000E+00  0.45593999997E+02  0.45594000000E+02  0.51100000000E-03 0.  1.
         11   -1    0    0    0    0 -0.00000000000E+00 -0.00000000000E+00 -0.45593999997E+02  0.45594000000E+02  0.51100000000E-03 0. -1.
         23    2    1    2    0    0 -0.35527136788E-14  0.23314683517E-14  0.00000000000E+00  0.91188000000E+02  0.91188000000E+02 0.  0.
    9900012    2    3    3    0    0 -0.28400918730E+02 -0.46094679460E+00 -0.23429780923E+02  0.54367091663E+02  0.40000017064E+02 0.  0.
        -12    1    3    3    0    0  0.28400918730E+02  0.46094679460E+00  0.23429780923E+02  0.36820908337E+02  0.00000000000E+00 0.  1.
         11    1    4    4    0    0 -0.21337881103E+02 -0.14225280576E+02 -0.11172364108E+02  0.27972942238E+02  0.51100000000E-03 0. -1.
        -11    1    4    4    0    0  0.27475996160E+01  0.93803324874E+01  0.40989331664E+00  0.97830442101E+01  0.51100000000E-03 0.  1.
         12    1    4    4    0    0 -0.98106372431E+01  0.43840012943E+01 -0.12667310132E+02  0.16611105215E+02  0.00000000000E+00 0. -1.
</event>
<event>
 8    1  0.2534787E-006  0.9118800E+02  0.7816164E-02  0.1184000E+00
        -11   -1    0    0    0    0  0.00000000000E+00  0.00000000000E+00  0.45593999997E+02  0.45594000000E+02  0.51100000000E-03 0.  1.
         11   -1    0    0    0    0 -0.00000000000E+00 -0.00000000000E+00 -0.45593999997E+02  0.45594000000E+02  0.51100000000E-03 0. -1.
         23    2    1    2    0    0 -0.44408920985E-15  0.71054273576E-14  0.00000000000E+00  0.91188000000E+02  0.91188000000E+02 0.  0.
    9900012    2    3    3    0    0 -0.21044220218E+01  0.32357891797E+02 -0.17444711359E+02  0.54367085998E+02  0.40000004149E+02 0.  0.
        -12    1    3    3    0    0  0.21044220218E+01 -0.32357891797E+02  0.17444711359E+02  0.36820914002E+02  0.00000000000E+00 0.  1.
         11    1    4    4    0    0 -0.50191612597E+01  0.13469384814E+02 -0.26609121711E+02  0.30243373911E+02  0.51100000000E-03 0. -1.
        -11    1    4    4    0    0  0.34555766853E+01  0.62873168686E+01  0.90002978823E+01  0.11509853425E+02  0.51100000000E-03 0.  1.
         12    1    4    4    0    0 -0.54083744738E+00  0.12601190114E+02  0.16411246986E+00  0.12613858661E+02  0.00000000000E+00 0. -1.
</event>
<event>
 8    1  0.2534787E-006  0.9118800E+02  0.7816164E-02  0.1184000E+00
        -11   -1    0    0    0    0  0.00000000000E+00  0.00000000000E+00  0.45593999997E+02  0.45594000000E+02  0.51100000000E-03 0. -1.
         11   -1    0    0    0    0 -0.00000000000E+00 -0.00000000000E+00 -0.45593999997E+02  0.45594000000E+02  0.51100000000E-03 0.  1.
         23    2    1    2    0    0  0.00000000000E+00 -0.35527136788E-14 -0.11102230246E-14  0.91188000000E+02  0.91188000000E+02 0.  0.
    9900012    2    3    3    0    0 -0.21361961503E+02  0.29965012985E+02  0.12428379982E+01  0.54367081371E+02  0.39999993601E+02 0.  0.
         12    1    3    3    0    0  0.21361961503E+02 -0.29965012985E+02 -0.12428379982E+01  0.36820918629E+02  0.00000000000E+00 0. -1.
         11    1    4    4    0    0 -0.71855094395E+01  0.35330229608E+01  0.83177693612E+01  0.11545522273E+02  0.51100000000E-03 0. -1.
        -11    1    4    4    0    0  0.32377627392E+01  0.22639176954E+02  0.17451762529E+01  0.22936021475E+02  0.51100000000E-03 0.  1.
        -12    1    4    4    0    0 -0.17414214803E+02  0.37928130699E+01 -0.88201076159E+01  0.19885537622E+02  0.00000000000E+00 0.  1.
</event>
<event>
 8    1  0.2534787E-006  0.9118800E+02  0.7816164E-02  0.1184000E+00
        -11   -1    0    0    0    0  0.00000000000E+00  0.00000000000E+00  0.45593999997E+02  0.45594000000E+02  0.51100000000E-03 0. -1.
         11   -1    0    0    0    0 -0.00000000000E+00 -0.00000000000E+00 -0.45593999997E+02  0.45594000000E+02  0.51100000000E-03 0.  1.
         23    2    1    2    0    0  0.00000000000E+00  0.00000000000E+00 -0.35527136788E-14  0.91188000000E+02  0.91188000000E+02 0.  0.
    9900012    2    3    3    0    0  0.12015605339E+02  0.23363061490E+02  0.25798696252E+02  0.54367080102E+02  0.39999990708E+02 0.  0.
        -12    1    3    3    0    0 -0.12015605339E+02 -0.23363061490E+02 -0.25798696252E+02  0.36820919898E+02  0.00000000000E+00 0.  1.
         11    1    4    4    0    0 -0.61720200603E+01  0.16105223943E+02  0.11703497060E+02  0.20843318200E+02  0.51100000000E-03 0. -1.
        -11    1    4    4    0    0  0.75203248835E+01  0.84094723488E+01  0.18706838119E+02  0.21845372604E+02  0.51100000000E-03 0.  1.
        -12    1    4    4    0    0  0.10667300516E+02 -0.11516348020E+01 -0.46116389262E+01  0.11678389298E+02  0.00000000000E+00 0.  1.
</event>
<event>
 8    1  0.2534787E-006  0.9118800E+02  0.7816164E-02  0.1184000E+00
        -11   -1    0    0    0    0  0.00000000000E+00  0.00000000000E+00  0.45593999997E+02  0.45594000000E+02  0.51100000000E-03 0.  1.
         11   -1    0    0    0    0 -0.00000000000E+00 -0.00000000000E+00 -0.45593999997E+02  0.45594000000E+02  0.51100000000E-03 0. -1.
         23    2    1    2    0    0  0.00000000000E+00  0.17763568394E-14  0.00000000000E+00  0.91188000000E+02  0.91188000000E+02 0.  0.
    9900012    2    3    3    0    0 -0.18926909835E+02  0.15452943566E+02 -0.27545560608E+02  0.54367091674E+02  0.40000017090E+02 0.  0.
        -12    1    3    3    0    0  0.18926909835E+02 -0.15452943566E+02  0.27545560608E+02  0.36820908326E+02  0.00000000000E+00 0.  1.
         11    1    4    4    0    0  0.59869310216E+01  0.59123207537E+01 -0.49435351328E+01  0.97589661144E+01  0.51100000000E-03 0. -1.
        -11    1    4    4    0    0 -0.18526781910E+02  0.16853055094E+02 -0.24131575748E+02  0.34779305087E+02  0.51100000000E-03 0.  1.
        -12    1    4    4    0    0 -0.63870589459E+01 -0.73124322822E+01  0.15295502731E+01  0.98288204734E+01  0.00000000000E+00 0.  1.
</event>
<event>
 8    1  0.2534787E-006  0.9118800E+02  0.7816164E-02  0.1184000E+00
        -11   -1    0    0    0    0  0.00000000000E+00  0.00000000000E+00  0.45593999997E+02  0.45594000000E+02  0.51100000000E-03 0. -1.
         11   -1    0    0    0    0 -0.00000000000E+00 -0.00000000000E+00 -0.45593999997E+02  0.45594000000E+02  0.51100000000E-03 0.  1.
         23    2    1    2    0    0  0.00000000000E+00  0.88817841970E-15  0.00000000000E+00  0.91188000000E+02  0.91188000000E+02 0.  0.
    9900012    2    3    3    0    0 -0.23354898746E+02 -0.50185376026E+01  0.28020409325E+02  0.54367077227E+02  0.39999984155E+02 0.  0.
        -12    1    3    3    0    0  0.23354898746E+02  0.50185376026E+01 -0.28020409325E+02  0.36820922773E+02  0.00000000000E+00 0.  1.
         11    1    4    4    0    0 -0.22249469979E+02  0.41062687861E+01  0.12636371072E+02  0.25914826486E+02  0.51100000000E-03 0. -1.
        -11    1    4    4    0    0  0.12451615094E+01 -0.55293829538E+01 -0.50380359785E+01  0.75832914896E+01  0.51100000000E-03 0.  1.
         12    1    4    4    0    0 -0.23505902770E+01 -0.35954234349E+01  0.20422074231E+02  0.20868959251E+02  0.00000000000E+00 0. -1.
</event>
<event>
 8    1  0.2534787E-006  0.9118800E+02  0.7816164E-02  0.1184000E+00
        -11   -1    0    0    0    0  0.00000000000E+00  0.00000000000E+00  0.45593999997E+02  0.45594000000E+02  0.51100000000E-03 0. -1.
         11   -1    0    0    0    0 -0.00000000000E+00 -0.00000000000E+00 -0.45593999997E+02  0.45594000000E+02  0.51100000000E-03 0.  1.
         23    2    1    2    0    0 -0.17763568394E-14  0.00000000000E+00  0.35527136788E-14  0.91188000000E+02  0.91188000000E+02 0.  0.
    9900012    2    3    3    0    0  0.32576075804E+01 -0.25019386649E+02  0.26817840272E+02  0.54367105493E+02  0.40000048593E+02 0.  0.
        -12    1    3    3    0    0 -0.32576075804E+01  0.25019386649E+02 -0.26817840272E+02  0.36820894507E+02  0.00000000000E+00 0.  1.
         11    1    4    4    0    0  0.12718448382E+02 -0.95675773881E+01  0.94765905482E+01  0.18523046051E+02  0.51100000000E-03 0. -1.
        -11    1    4    4    0    0  0.77743583043E+01 -0.10621731765E+02  0.98505194807E+01  0.16440637671E+02  0.51100000000E-03 0.  1.
        -12    1    4    4    0    0 -0.17235199106E+02 -0.48300774957E+01  0.74907302434E+01  0.19403421771E+02  0.00000000000E+00 0.  1.
</event>
<event>
 8    1  0.2534787E-006  0.9118800E+02  0.7816164E-02  0.1184000E+00
        -11   -1    0    0    0    0  0.00000000000E+00  0.00000000000E+00  0.45593999997E+02  0.45594000000E+02  0.51100000000E-03 0.  1.
         11   -1    0    0    0    0 -0.00000000000E+00 -0.00000000000E+00 -0.45593999997E+02  0.45594000000E+02  0.51100000000E-03 0. -1.
         23    2    1    2    0    0  0.00000000000E+00  0.35527136788E-14  0.00000000000E+00  0.91188000000E+02  0.91188000000E+02 0.  0.
    9900012    2    3    3    0    0 -0.12431453080E+02 -0.19683325761E+02 -0.28527279718E+02  0.54367081668E+02  0.39999994279E+02 0.  0.
        -12    1    3    3    0    0  0.12431453080E+02  0.19683325761E+02  0.28527279718E+02  0.36820918332E+02  0.00000000000E+00 0.  1.
         11    1    4    4    0    0  0.49470062479E+01 -0.25302460618E+02 -0.18282750632E+02  0.31606112622E+02  0.51100000000E-03 0. -1.
        -11    1    4    4    0    0 -0.10656600113E+02  0.43660737395E+01 -0.14292366829E+01  0.11604673352E+02  0.51100000000E-03 0.  1.
         12    1    4    4    0    0 -0.67218592149E+01  0.12530611170E+01 -0.88152924029E+01  0.11156295694E+02  0.00000000000E+00 0. -1.
</event>
<event>
 8    1  0.2534787E-006  0.9118800E+02  0.7816164E-02  0.1184000E+00
        -11   -1    0    0    0    0  0.00000000000E+00  0.00000000000E+00  0.45593999997E+02  0.45594000000E+02  0.51100000000E-03 0. -1.
         11   -1    0    0    0    0 -0.00000000000E+00 -0.00000000000E+00 -0.45593999997E+02  0.45594000000E+02  0.51100000000E-03 0.  1.
         23    2    1    2    0    0  0.35527136788E-14 -0.17763568394E-14 -0.35527136788E-14  0.91188000000E+02  0.91188000000E+02 0.  0.
    9900012    2    3    3    0    0 -0.29586586087E+02  0.26922221981E+01  0.21752398017E+02  0.54367069049E+02  0.39999965510E+02 0.  0.
        -12    1    3    3    0    0  0.29586586087E+02 -0.26922221981E+01 -0.21752398017E+02  0.36820930951E+02  0.00000000000E+00 0.  1.
         11    1    4    4    0    0  0.24533018050E+00  0.16125922849E+01 -0.28954809820E+01  0.33233192974E+01  0.51100000000E-03 0. -1.
        -11    1    4    4    0    0 -0.16290796704E+02 -0.15465063884E+02  0.17587225751E+02  0.28528385305E+02  0.51100000000E-03 0.  1.
         12    1    4    4    0    0 -0.13541119563E+02  0.16544693798E+02  0.70606532477E+01  0.22515364447E+02  0.00000000000E+00 0. -1.
</event>
<event>
 8    1  0.2534787E-006  0.9118800E+02  0.7816164E-02  0.1184000E+00
        -11   -1    0    0    0    0  0.00000000000E+00  0.00000000000E+00  0.45593999997E+02  0.45594000000E+02  0.51100000000E-03 0.  1.
         11   -1    0    0    0    0 -0.00000000000E+00 -0.00000000000E+00 -0.45593999997E+02  0.45594000000E+02  0.51100000000E-03 0. -1.
         23    2    1    2    0    0  0.00000000000E+00  0.00000000000E+00 -0.17763568394E-14  0.91188000000E+02  0.91188000000E+02 0.  0.
    9900012    2    3    3    0    0 -0.10620006333E+02 -0.34435250785E+02 -0.75636493113E+01  0.54367084449E+02  0.40000000618E+02 0.  0.
         12    1    3    3    0    0  0.10620006333E+02  0.34435250785E+02  0.75636493113E+01  0.36820915551E+02  0.00000000000E+00 0. -1.
         11    1    4    4    0    0  0.26768752012E+01  0.50482695613E+01 -0.10326419142E+02  0.11801932848E+02  0.51100000000E-03 0. -1.
        -11    1    4    4    0    0 -0.78128228163E+01 -0.23764351095E+02  0.57071458457E+01  0.25658450797E+02  0.51100000000E-03 0.  1.
        -12    1    4    4    0    0 -0.54840587176E+01 -0.15719169251E+02 -0.29443760154E+01  0.16906700804E+02  0.00000000000E+00 0.  1.
</event>
<event>
 8    1  0.2534787E-006  0.9118800E+02  0.7816164E-02  0.1184000E+00
        -11   -1    0    0    0    0  0.00000000000E+00  0.00000000000E+00  0.45593999997E+02  0.45594000000E+02  0.51100000000E-03 0.  1.
         11   -1    0    0    0    0 -0.00000000000E+00 -0.00000000000E+00 -0.45593999997E+02  0.45594000000E+02  0.51100000000E-03 0. -1.
         23    2    1    2    0    0  0.00000000000E+00  0.00000000000E+00  0.35527136788E-14  0.91188000000E+02  0.91188000000E+02 0.  0.
    9900012    2    3    3    0    0  0.22086769872E+02  0.19631929681E+02  0.21966835176E+02  0.54367083200E+02  0.39999997770E+02 0.  0.
         12    1    3    3    0    0 -0.22086769872E+02 -0.19631929681E+02 -0.21966835176E+02  0.36820916800E+02  0.00000000000E+00 0. -1.
         11    1    4    4    0    0  0.28549623681E+02  0.94471928938E+01  0.15680004457E+01  0.30112938939E+02  0.51100000000E-03 0.  1.
        -11    1    4    4    0    0 -0.59362249932E+01  0.47122966912E+01  0.10835693281E+02  0.13223341348E+02  0.51100000000E-03 0. -1.
        -12    1    4    4    0    0 -0.52662881527E+00  0.54724400960E+01  0.95631414491E+01  0.11030802912E+02  0.00000000000E+00 0.  1.
</event>
<event>
 8    1  0.2534787E-006  0.9118800E+02  0.7816164E-02  0.1184000E+00
        -11   -1    0    0    0    0  0.00000000000E+00  0.00000000000E+00  0.45593999997E+02  0.45594000000E+02  0.51100000000E-03 0.  1.
         11   -1    0    0    0    0 -0.00000000000E+00 -0.00000000000E+00 -0.45593999997E+02  0.45594000000E+02  0.51100000000E-03 0. -1.
         23    2    1    2    0    0 -0.35527136788E-14  0.00000000000E+00  0.44408920985E-15  0.91188000000E+02  0.91188000000E+02 0.  0.
    9900012    2    3    3    0    0  0.26927196753E+02 -0.25012645023E+02 -0.22522766006E+01  0.54367094445E+02  0.40000023406E+02 0.  0.
        -12    1    3    3    0    0 -0.26927196753E+02  0.25012645023E+02  0.22522766006E+01  0.36820905555E+02  0.00000000000E+00 0.  1.
         11    1    4    4    0    0  0.58123250753E+01 -0.12468463665E+02  0.13915682784E+02  0.19567624704E+02  0.51100000000E-03 0. -1.
        -11    1    4    4    0    0  0.67870980209E+01  0.16766667139E+01  0.23800181174E+01  0.73851470747E+01  0.51100000000E-03 0.  1.
         12    1    4    4    0    0  0.14327773657E+02 -0.14220848071E+02 -0.18547977502E+02  0.27414322666E+02  0.00000000000E+00 0. -1.
</event>
<event>
 8    1  0.2534787E-006  0.9118800E+02  0.7816164E-02  0.1184000E+00
        -11   -1    0    0    0    0  0.00000000000E+00  0.00000000000E+00  0.45593999997E+02  0.45594000000E+02  0.51100000000E-03 0.  1.
         11   -1    0    0    0    0 -0.00000000000E+00 -0.00000000000E+00 -0.45593999997E+02  0.45594000000E+02  0.51100000000E-03 0. -1.
         23    2    1    2    0    0  0.71054273576E-14  0.35527136788E-14 -0.88817841970E-15  0.91188000000E+02  0.91188000000E+02 0.  0.
    9900012    2    3    3    0    0 -0.24736202078E+02 -0.26221032532E+02  0.75070425317E+01  0.54367110170E+02  0.40000059256E+02 0.  0.
         12    1    3    3    0    0  0.24736202078E+02  0.26221032532E+02 -0.75070425317E+01  0.36820889830E+02  0.00000000000E+00 0. -1.
         11    1    4    4    0    0 -0.39260331258E+01  0.39836320753E+01  0.44343594614E+01  0.71376890315E+01  0.51100000000E-03 0. -1.
        -11    1    4    4    0    0 -0.28132948536E+02 -0.22254274196E+02 -0.41052251666E+00  0.35873166049E+02  0.51100000000E-03 0.  1.
         12    1    4    4    0    0  0.73227795841E+01 -0.79503904105E+01  0.34832055869E+01  0.11356255090E+02  0.00000000000E+00 0. -1.
</event>
<event>
 8    1  0.2534787E-006  0.9118800E+02  0.7816164E-02  0.1184000E+00
        -11   -1    0    0    0    0  0.00000000000E+00  0.00000000000E+00  0.45593999997E+02  0.45594000000E+02  0.51100000000E-03 0.  1.
         11   -1    0    0    0    0 -0.00000000000E+00 -0.00000000000E+00 -0.45593999997E+02  0.45594000000E+02  0.51100000000E-03 0. -1.
         23    2    1    2    0    0  0.35527136788E-14  0.88817841970E-15 -0.35527136788E-14  0.91188000000E+02  0.91188000000E+02 0.  0.
    9900012    2    3    3    0    0  0.25892134953E+02 -0.40876070938E+01  0.25858647513E+02  0.54367070688E+02  0.39999969249E+02 0.  0.
         12    1    3    3    0    0 -0.25892134953E+02  0.40876070938E+01 -0.25858647513E+02  0.36820929312E+02  0.00000000000E+00 0. -1.
         11    1    4    4    0    0  0.17908843677E+01  0.48238531867E+01 -0.27623062363E+01  0.58401337646E+01  0.51100000000E-03 0. -1.
        -11    1    4    4    0    0  0.16093112227E+02  0.88995476686E+01  0.20031652798E+02  0.27192964604E+02  0.51100000000E-03 0.  1.
         12    1    4    4    0    0  0.80081383580E+01 -0.17811007949E+02  0.85893009512E+01  0.21333972320E+02  0.00000000000E+00 0. -1.
</event>
<event>
 8    1  0.2534787E-006  0.9118800E+02  0.7816164E-02  0.1184000E+00
        -11   -1    0    0    0    0  0.00000000000E+00  0.00000000000E+00  0.45593999997E+02  0.45594000000E+02  0.51100000000E-03 0.  1.
         11   -1    0    0    0    0 -0.00000000000E+00 -0.00000000000E+00 -0.45593999997E+02  0.45594000000E+02  0.51100000000E-03 0. -1.
         23    2    1    2    0    0  0.00000000000E+00  0.44408920985E-15  0.00000000000E+00  0.91188000000E+02  0.91188000000E+02 0.  0.
    9900012    2    3    3    0    0  0.35433878633E+02  0.11902347663E+01 -0.99400539494E+01  0.54367067281E+02  0.39999961481E+02 0.  0.
        -12    1    3    3    0    0 -0.35433878633E+02 -0.11902347663E+01  0.99400539494E+01  0.36820932719E+02  0.00000000000E+00 0.  1.
         11    1    4    4    0    0  0.15582364417E+02 -0.48878654983E+01 -0.11302395923E+02  0.19860651143E+02  0.51100000000E-03 0. -1.
        -11    1    4    4    0    0  0.17651315490E+02  0.10147604141E+02  0.11485357482E+02  0.23376403596E+02  0.51100000000E-03 0.  1.
        -12    1    4    4    0    0  0.22001987257E+01 -0.40695038762E+01 -0.10123015508E+02  0.11130012543E+02  0.00000000000E+00 0.  1.
</event>
<event>
 8    1  0.2534787E-006  0.9118800E+02  0.7816164E-02  0.1184000E+00
        -11   -1    0    0    0    0  0.00000000000E+00  0.00000000000E+00  0.45593999997E+02  0.45594000000E+02  0.51100000000E-03 0.  1.
         11   -1    0    0    0    0 -0.00000000000E+00 -0.00000000000E+00 -0.45593999997E+02  0.45594000000E+02  0.51100000000E-03 0. -1.
         23    2    1    2    0    0  0.00000000000E+00  0.35527136788E-14  0.00000000000E+00  0.91188000000E+02  0.91188000000E+02 0.  0.
    9900012    2    3    3    0    0 -0.24174972854E+02  0.26257732163E+02  0.90488698051E+01  0.54367083993E+02  0.39999999580E+02 0.  0.
         12    1    3    3    0    0  0.24174972854E+02 -0.26257732163E+02 -0.90488698051E+01  0.36820916007E+02  0.00000000000E+00 0. -1.
         11    1    4    4    0    0  0.44835646193E+01  0.74661395120E+01  0.71957985349E+01  0.11297128295E+02  0.51100000000E-03 0. -1.
        -11    1    4    4    0    0 -0.10729496717E+02  0.21647770336E+02 -0.28149936870E+01  0.24324313969E+02  0.51100000000E-03 0.  1.
         12    1    4    4    0    0 -0.17929040756E+02 -0.28561776856E+01  0.46680649572E+01  0.18745641729E+02  0.00000000000E+00 0. -1.
</event>
<event>
 8    1  0.2534787E-006  0.9118800E+02  0.7816164E-02  0.1184000E+00
        -11   -1    0    0    0    0  0.00000000000E+00  0.00000000000E+00  0.45593999997E+02  0.45594000000E+02  0.51100000000E-03 0.  1.
         11   -1    0    0    0    0 -0.00000000000E+00 -0.00000000000E+00 -0.45593999997E+02  0.45594000000E+02  0.51100000000E-03 0. -1.
         23    2    1    2    0    0  0.00000000000E+00  0.35527136788E-14  0.00000000000E+00  0.91188000000E+02  0.91188000000E+02 0.  0.
    9900012    2    3    3    0    0 -0.20531023359E+02 -0.24770839287E+02 -0.17907124256E+02  0.54367048107E+02  0.39999917770E+02 0.  0.
        -12    1    3    3    0    0  0.20531023359E+02  0.24770839287E+02  0.17907124256E+02  0.36820951893E+02  0.00000000000E+00 0.  1.
         11    1    4    4    0    0  0.55268137908E+01  0.41308118851E+01 -0.71973073680E+00  0.69373835199E+01  0.51100000000E-03 0. -1.
        -11    1    4    4    0    0 -0.22680765905E+02 -0.29011795236E+02 -0.80601137599E+01  0.37697040188E+02  0.51100000000E-03 0.  1.
         12    1    4    4    0    0 -0.33770712452E+01  0.11014406335E+00 -0.91272797590E+01  0.97326243998E+01  0.00000000000E+00 0. -1.
</event>
<event>
 8    1  0.2534787E-006  0.9118800E+02  0.7816164E-02  0.1184000E+00
        -11   -1    0    0    0    0  0.00000000000E+00  0.00000000000E+00  0.45593999997E+02  0.45594000000E+02  0.51100000000E-03 0.  1.
         11   -1    0    0    0    0 -0.00000000000E+00 -0.00000000000E+00 -0.45593999997E+02  0.45594000000E+02  0.51100000000E-03 0. -1.
         23    2    1    2    0    0  0.00000000000E+00  0.00000000000E+00 -0.35527136788E-14  0.91188000000E+02  0.91188000000E+02 0.  0.
    9900012    2    3    3    0    0 -0.19947388711E+02 -0.20932245219E+02 -0.22797427151E+02  0.54367083512E+02  0.39999998483E+02 0.  0.
        -12    1    3    3    0    0  0.19947388711E+02  0.20932245219E+02  0.22797427151E+02  0.36820916488E+02  0.00000000000E+00 0.  1.
         11    1    4    4    0    0 -0.13983489591E+02  0.15200064671E+01  0.24406701089E+01  0.14276038374E+02  0.51100000000E-03 0. -1.
        -11    1    4    4    0    0  0.62406531672E+01 -0.82688395175E+01 -0.25244552732E+01  0.10662660719E+02  0.51100000000E-03 0.  1.
        -12    1    4    4    0    0 -0.12204552287E+02 -0.14183412169E+02 -0.22713641986E+02  0.29428384420E+02  0.00000000000E+00 0.  1.
</event>
<event>
 8    1  0.2534787E-006  0.9118800E+02  0.7816164E-02  0.1184000E+00
        -11   -1    0    0    0    0  0.00000000000E+00  0.00000000000E+00  0.45593999997E+02  0.45594000000E+02  0.51100000000E-03 0. -1.
         11   -1    0    0    0    0 -0.00000000000E+00 -0.00000000000E+00 -0.45593999997E+02  0.45594000000E+02  0.51100000000E-03 0.  1.
         23    2    1    2    0    0  0.00000000000E+00  0.00000000000E+00  0.00000000000E+00  0.91188000000E+02  0.91188000000E+02 0.  0.
    9900012    2    3    3    0    0  0.81553198250E+01  0.30991629809E+02  0.18132476720E+02  0.54367121796E+02  0.40000085758E+02 0.  0.
         12    1    3    3    0    0 -0.81553198250E+01 -0.30991629809E+02 -0.18132476720E+02  0.36820878204E+02  0.00000000000E+00 0. -1.
         11    1    4    4    0    0  0.18078248506E+02  0.70778445118E+01  0.13181885414E+02  0.23466594455E+02  0.51100000000E-03 0. -1.
        -11    1    4    4    0    0 -0.62254472890E+01  0.24837301029E+02  0.13242144677E+01  0.25639837374E+02  0.51100000000E-03 0.  1.
         12    1    4    4    0    0 -0.36974813921E+01 -0.92351573158E+00  0.36263768389E+01  0.52606899670E+01  0.00000000000E+00 0. -1.
</event>
<event>
 8    1  0.2534787E-006  0.9118800E+02  0.7816164E-02  0.1184000E+00
        -11   -1    0    0    0    0  0.00000000000E+00  0.00000000000E+00  0.45593999997E+02  0.45594000000E+02  0.51100000000E-03 0.  1.
         11   -1    0    0    0    0 -0.00000000000E+00 -0.00000000000E+00 -0.45593999997E+02  0.45594000000E+02  0.51100000000E-03 0. -1.
         23    2    1    2    0    0  0.00000000000E+00  0.00000000000E+00  0.00000000000E+00  0.91188000000E+02  0.91188000000E+02 0.  0.
    9900012    2    3    3    0    0  0.31687091513E+02  0.16359261938E+02 -0.91696599381E+01  0.54367083620E+02  0.39999998728E+02 0.  0.
        -12    1    3    3    0    0 -0.31687091513E+02 -0.16359261938E+02  0.91696599381E+01  0.36820916380E+02  0.00000000000E+00 0.  1.
         11    1    4    4    0    0  0.12431992944E+02 -0.63832067667E+01 -0.95442206628E+01  0.16923118078E+02  0.51100000000E-03 0. -1.
        -11    1    4    4    0    0  0.23376917074E+02  0.17347767513E+02  0.45641450916E+01  0.29466196059E+02  0.51100000000E-03 0.  1.
        -12    1    4    4    0    0 -0.41218185045E+01  0.53947011923E+01 -0.41895843669E+01  0.79777694819E+01  0.00000000000E+00 0.  1.
</event>
<event>
 8    1  0.2534787E-006  0.9118800E+02  0.7816164E-02  0.1184000E+00
        -11   -1    0    0    0    0  0.00000000000E+00  0.00000000000E+00  0.45593999997E+02  0.45594000000E+02  0.51100000000E-03 0.  1.
         11   -1    0    0    0    0 -0.00000000000E+00 -0.00000000000E+00 -0.45593999997E+02  0.45594000000E+02  0.51100000000E-03 0. -1.
         23    2    1    2    0    0  0.71054273576E-14 -0.35527136788E-14  0.00000000000E+00  0.91188000000E+02  0.91188000000E+02 0.  0.
    9900012    2    3    3    0    0 -0.32672026985E+02  0.16428231697E+02  0.42932624708E+01  0.54367078683E+02  0.39999987473E+02 0.  0.
         12    1    3    3    0    0  0.32672026985E+02 -0.16428231697E+02 -0.42932624708E+01  0.36820921317E+02  0.00000000000E+00 0. -1.
         11    1    4    4    0    0  0.25803787668E+01  0.43564217356E-01  0.34947630505E+00  0.26043015129E+01  0.51100000000E-03 0. -1.
        -11    1    4    4    0    0 -0.21710513164E+02 -0.24003444050E+01 -0.10742109960E+02  0.24341342645E+02  0.51100000000E-03 0.  1.
         12    1    4    4    0    0 -0.13541892588E+02  0.18785011884E+02  0.14685896126E+02  0.27421434525E+02  0.00000000000E+00 0. -1.
</event>
<event>
 8    1  0.2534787E-006  0.9118800E+02  0.7816164E-02  0.1184000E+00
        -11   -1    0    0    0    0  0.00000000000E+00  0.00000000000E+00  0.45593999997E+02  0.45594000000E+02  0.51100000000E-03 0.  1.
         11   -1    0    0    0    0 -0.00000000000E+00 -0.00000000000E+00 -0.45593999997E+02  0.45594000000E+02  0.51100000000E-03 0. -1.
         23    2    1    2    0    0  0.00000000000E+00 -0.83266726847E-15  0.35527136788E-14  0.91188000000E+02  0.91188000000E+02 0.  0.
    9900012    2    3    3    0    0  0.31409778250E+02  0.42098258293E+00  0.19210108260E+02  0.54367086711E+02  0.40000005776E+02 0.  0.
         12    1    3    3    0    0 -0.31409778250E+02 -0.42098258293E+00 -0.19210108260E+02  0.36820913289E+02  0.00000000000E+00 0. -1.
         11    1    4    4    0    0 -0.93670165653E+00 -0.10723235929E+02 -0.47812739514E+01  0.11778190848E+02  0.51100000000E-03 0. -1.
        -11    1    4    4    0    0  0.13883905068E+02  0.56879438305E+01  0.15420468629E+02  0.21515259189E+02  0.51100000000E-03 0.  1.
         12    1    4    4    0    0  0.18462574838E+02  0.54562746818E+01  0.85709135827E+01  0.21073636675E+02  0.00000000000E+00 0. -1.
</event>
<event>
 8    1  0.2534787E-006  0.9118800E+02  0.7816164E-02  0.1184000E+00
        -11   -1    0    0    0    0  0.00000000000E+00  0.00000000000E+00  0.45593999997E+02  0.45594000000E+02  0.51100000000E-03 0.  1.
         11   -1    0    0    0    0 -0.00000000000E+00 -0.00000000000E+00 -0.45593999997E+02  0.45594000000E+02  0.51100000000E-03 0. -1.
         23    2    1    2    0    0  0.00000000000E+00  0.00000000000E+00  0.00000000000E+00  0.91188000000E+02  0.91188000000E+02 0.  0.
    9900012    2    3    3    0    0 -0.16253462237E+02  0.18640829242E+02  0.27278643524E+02  0.54367082819E+02  0.39999996903E+02 0.  0.
         12    1    3    3    0    0  0.16253462237E+02 -0.18640829242E+02 -0.27278643524E+02  0.36820917181E+02  0.00000000000E+00 0. -1.
         11    1    4    4    0    0 -0.15675544681E+01 -0.44673307494E+00  0.15116857041E+02  0.15204478436E+02  0.51100000000E-03 0. -1.
        -11    1    4    4    0    0 -0.12221792942E+01  0.17105875867E+02  0.17538981747E+02  0.24529993730E+02  0.51100000000E-03 0.  1.
         12    1    4    4    0    0 -0.13463728475E+02  0.19816864507E+01 -0.53771952644E+01  0.14632610654E+02  0.00000000000E+00 0. -1.
</event>
<event>
 8    1  0.2534787E-006  0.9118800E+02  0.7816164E-02  0.1184000E+00
        -11   -1    0    0    0    0  0.00000000000E+00  0.00000000000E+00  0.45593999997E+02  0.45594000000E+02  0.51100000000E-03 0. -1.
         11   -1    0    0    0    0 -0.00000000000E+00 -0.00000000000E+00 -0.45593999997E+02  0.45594000000E+02  0.51100000000E-03 0.  1.
         23    2    1    2    0    0  0.00000000000E+00  0.00000000000E+00  0.00000000000E+00  0.91188000000E+02  0.91188000000E+02 0.  0.
    9900012    2    3    3    0    0  0.92885246247E+01 -0.56199354503E+01 -0.35184076233E+02  0.54367087674E+02  0.40000007970E+02 0.  0.
         12    1    3    3    0    0 -0.92885246247E+01  0.56199354503E+01  0.35184076233E+02  0.36820912326E+02  0.00000000000E+00 0. -1.
         11    1    4    4    0    0  0.52455985728E+01 -0.11833722862E+02 -0.12837796515E+02  0.18230806916E+02  0.51100000000E-03 0. -1.
        -11    1    4    4    0    0  0.95128425273E+01 -0.19706377435E+00 -0.25438406562E+02  0.27159630626E+02  0.51100000000E-03 0.  1.
         12    1    4    4    0    0 -0.54699164754E+01  0.64108511860E+01  0.30921268438E+01  0.89766501322E+01  0.00000000000E+00 0. -1.
</event>
<event>
 8    1  0.2534787E-006  0.9118800E+02  0.7816164E-02  0.1184000E+00
        -11   -1    0    0    0    0  0.00000000000E+00  0.00000000000E+00  0.45593999997E+02  0.45594000000E+02  0.51100000000E-03 0.  1.
         11   -1    0    0    0    0 -0.00000000000E+00 -0.00000000000E+00 -0.45593999997E+02  0.45594000000E+02  0.51100000000E-03 0. -1.
         23    2    1    2    0    0  0.00000000000E+00  0.17763568394E-14  0.00000000000E+00  0.91188000000E+02  0.91188000000E+02 0.  0.
    9900012    2    3    3    0    0  0.23234916054E+02 -0.10187319734E+02  0.26685627797E+02  0.54367278411E+02  0.40000442792E+02 0.  0.
        -12    1    3    3    0    0 -0.23234916054E+02  0.10187319734E+02 -0.26685627797E+02  0.36820721589E+02  0.00000000000E+00 0.  1.
         11    1    4    4    0    0  0.63090559869E+01  0.45637696488E+01  0.52346519252E+01  0.93826308620E+01  0.51100000000E-03 0. -1.
        -11    1    4    4    0    0  0.16053937214E+02 -0.75690991987E+01  0.29333586037E+02  0.34285265535E+02  0.51100000000E-03 0.  1.
        -12    1    4    4    0    0  0.87192285306E+00 -0.71819901840E+01 -0.78826101655E+01  0.10699382014E+02  0.00000000000E+00 0.  1.
</event>
<event>
 8    1  0.2534787E-006  0.9118800E+02  0.7816164E-02  0.1184000E+00
        -11   -1    0    0    0    0  0.00000000000E+00  0.00000000000E+00  0.45593999997E+02  0.45594000000E+02  0.51100000000E-03 0. -1.
         11   -1    0    0    0    0 -0.00000000000E+00 -0.00000000000E+00 -0.45593999997E+02  0.45594000000E+02  0.51100000000E-03 0.  1.
         23    2    1    2    0    0  0.00000000000E+00  0.00000000000E+00 -0.88817841970E-15  0.91188000000E+02  0.91188000000E+02 0.  0.
    9900012    2    3    3    0    0  0.23147984480E+02 -0.28064429309E+02 -0.56866947131E+01  0.54367083733E+02  0.39999998987E+02 0.  0.
         12    1    3    3    0    0 -0.23147984480E+02  0.28064429309E+02  0.56866947131E+01  0.36820916267E+02  0.00000000000E+00 0. -1.
         11    1    4    4    0    0  0.13650288392E+02 -0.35198642953E+02  0.13979988735E+01  0.37778687643E+02  0.51100000000E-03 0. -1.
        -11    1    4    4    0    0  0.18363677114E+01  0.22229036753E+00 -0.59225502548E+01  0.62046967017E+01  0.51100000000E-03 0.  1.
         12    1    4    4    0    0  0.76613283766E+01  0.69119232762E+01 -0.11621433318E+01  0.10383699389E+02  0.00000000000E+00 0. -1.
</event>
<event>
 8    1  0.2534787E-006  0.9118800E+02  0.7816164E-02  0.1184000E+00
        -11   -1    0    0    0    0  0.00000000000E+00  0.00000000000E+00  0.45593999997E+02  0.45594000000E+02  0.51100000000E-03 0.  1.
         11   -1    0    0    0    0 -0.00000000000E+00 -0.00000000000E+00 -0.45593999997E+02  0.45594000000E+02  0.51100000000E-03 0. -1.
         23    2    1    2    0    0  0.00000000000E+00  0.00000000000E+00 -0.35527136788E-14  0.91188000000E+02  0.91188000000E+02 0.  0.
    9900012    2    3    3    0    0 -0.33269170664E+02 -0.18475317660E+01  0.15669340077E+02  0.54367091419E+02  0.40000016508E+02 0.  0.
         12    1    3    3    0    0  0.33269170664E+02  0.18475317660E+01 -0.15669340077E+02  0.36820908581E+02  0.00000000000E+00 0. -1.
         11    1    4    4    0    0 -0.26761137599E+02 -0.14670170959E+01  0.26674164411E+02  0.37812982850E+02  0.51100000000E-03 0.  1.
        -11    1    4    4    0    0 -0.28592829356E+01 -0.84237967246E+00 -0.12299098809E+02  0.12655154452E+02  0.51100000000E-03 0. -1.
         12    1    4    4    0    0 -0.36487501296E+01  0.46186500234E+00  0.12942744754E+01  0.38989541170E+01  0.00000000000E+00 0. -1.
</event>
<event>
 8    1  0.2534787E-006  0.9118800E+02  0.7816164E-02  0.1184000E+00
        -11   -1    0    0    0    0  0.00000000000E+00  0.00000000000E+00  0.45593999997E+02  0.45594000000E+02  0.51100000000E-03 0.  1.
         11   -1    0    0    0    0 -0.00000000000E+00 -0.00000000000E+00 -0.45593999997E+02  0.45594000000E+02  0.51100000000E-03 0. -1.
         23    2    1    2    0    0  0.00000000000E+00 -0.88817841970E-15  0.00000000000E+00  0.91188000000E+02  0.91188000000E+02 0.  0.
    9900012    2    3    3    0    0 -0.30500918883E+02 -0.55954609874E+01 -0.19853880171E+02  0.54366921876E+02  0.39999629999E+02 0.  0.
        -12    1    3    3    0    0  0.30500918883E+02  0.55954609874E+01  0.19853880171E+02  0.36821078124E+02  0.00000000000E+00 0.  1.
         11    1    4    4    0    0 -0.83177019685E+01 -0.10301279327E+00 -0.22767259627E+01  0.86242831031E+01  0.51100000000E-03 0. -1.
        -11    1    4    4    0    0 -0.11818458937E+02 -0.11077781595E+02 -0.26438816580E+02  0.31006519300E+02  0.51100000000E-03 0.  1.
        -12    1    4    4    0    0 -0.10364757978E+02  0.55853334008E+01  0.88616623712E+01  0.14736119473E+02  0.00000000000E+00 0.  1.
</event>
<event>
 8    1  0.2534787E-006  0.9118800E+02  0.7816164E-02  0.1184000E+00
        -11   -1    0    0    0    0  0.00000000000E+00  0.00000000000E+00  0.45593999997E+02  0.45594000000E+02  0.51100000000E-03 0. -1.
         11   -1    0    0    0    0 -0.00000000000E+00 -0.00000000000E+00 -0.45593999997E+02  0.45594000000E+02  0.51100000000E-03 0.  1.
         23    2    1    2    0    0  0.71054273576E-14  0.00000000000E+00 -0.17763568394E-14  0.91188000000E+02  0.91188000000E+02 0.  0.
    9900012    2    3    3    0    0 -0.34645588892E+02 -0.93412401995E+01  0.82582531332E+01  0.54367158850E+02  0.40000170231E+02 0.  0.
        -12    1    3    3    0    0  0.34645588892E+02  0.93412401995E+01 -0.82582531332E+01  0.36820841150E+02  0.00000000000E+00 0.  1.
         11    1    4    4    0    0 -0.35125512339E+02  0.72623975915E+01  0.62326119406E+01  0.36405899078E+02  0.51100000000E-03 0. -1.
        -11    1    4    4    0    0 -0.11451133466E+01 -0.15269988834E+02  0.30642721202E+01  0.15616453101E+02  0.51100000000E-03 0.  1.
        -12    1    4    4    0    0  0.16250367933E+01 -0.13336489566E+01 -0.10386309276E+01  0.23448066706E+01  0.00000000000E+00 0.  1.
</event>
<event>
 8    1  0.2534787E-006  0.9118800E+02  0.7816164E-02  0.1184000E+00
        -11   -1    0    0    0    0  0.00000000000E+00  0.00000000000E+00  0.45593999997E+02  0.45594000000E+02  0.51100000000E-03 0.  1.
         11   -1    0    0    0    0 -0.00000000000E+00 -0.00000000000E+00 -0.45593999997E+02  0.45594000000E+02  0.51100000000E-03 0. -1.
         23    2    1    2    0    0 -0.49266146718E-15  0.35527136788E-14  0.00000000000E+00  0.91188000000E+02  0.91188000000E+02 0.  0.
    9900012    2    3    3    0    0  0.37515590253E-01 -0.17866378273E+02  0.32195838222E+02  0.54367070098E+02  0.39999967903E+02 0.  0.
         12    1    3    3    0    0 -0.37515590253E-01  0.17866378273E+02 -0.32195838222E+02  0.36820929902E+02  0.00000000000E+00 0. -1.
         11    1    4    4    0    0 -0.12540658426E+02 -0.63316010339E+01  0.54471473406E+01  0.15067471580E+02  0.51100000000E-03 0.  1.
        -11    1    4    4    0    0  0.11509639227E+02 -0.16567192982E+02  0.27494524055E+02  0.34101210121E+02  0.51100000000E-03 0. -1.
         12    1    4    4    0    0  0.10685347896E+01  0.50324157429E+01 -0.74583317372E+00  0.51983883973E+01  0.00000000000E+00 0. -1.
</event>
<event>
 8    1  0.2534787E-006  0.9118800E+02  0.7816164E-02  0.1184000E+00
        -11   -1    0    0    0    0  0.00000000000E+00  0.00000000000E+00  0.45593999997E+02  0.45594000000E+02  0.51100000000E-03 0. -1.
         11   -1    0    0    0    0 -0.00000000000E+00 -0.00000000000E+00 -0.45593999997E+02  0.45594000000E+02  0.51100000000E-03 0.  1.
         23    2    1    2    0    0  0.00000000000E+00  0.00000000000E+00  0.00000000000E+00  0.91188000000E+02  0.91188000000E+02 0.  0.
    9900012    2    3    3    0    0  0.23704068543E+02 -0.20778867466E+02 -0.19029953489E+02  0.54367036834E+02  0.39999892071E+02 0.  0.
         12    1    3    3    0    0 -0.23704068543E+02  0.20778867466E+02  0.19029953489E+02  0.36820963166E+02  0.00000000000E+00 0. -1.
         11    1    4    4    0    0  0.22022119933E+02  0.33514346348E+01 -0.11098963290E+02  0.24887604682E+02  0.51100000000E-03 0. -1.
        -11    1    4    4    0    0  0.66412031490E+00 -0.13209970737E+02 -0.11923480892E+02  0.17807688775E+02  0.51100000000E-03 0.  1.
         12    1    4    4    0    0  0.10178282958E+01 -0.10920331363E+02  0.39924906928E+01  0.11671743377E+02  0.00000000000E+00 0. -1.
</event>
<event>
 8    1  0.2534787E-006  0.9118800E+02  0.7816164E-02  0.1184000E+00
        -11   -1    0    0    0    0  0.00000000000E+00  0.00000000000E+00  0.45593999997E+02  0.45594000000E+02  0.51100000000E-03 0.  1.
         11   -1    0    0    0    0 -0.00000000000E+00 -0.00000000000E+00 -0.45593999997E+02  0.45594000000E+02  0.51100000000E-03 0. -1.
         23    2    1    2    0    0  0.00000000000E+00  0.53290705182E-14  0.17763568394E-14  0.91188000000E+02  0.91188000000E+02 0.  0.
    9900012    2    3    3    0    0  0.33586769961E+02 -0.10108058829E+02 -0.11204234564E+02  0.54367097758E+02  0.40000030960E+02 0.  0.
        -12    1    3    3    0    0 -0.33586769961E+02  0.10108058829E+02  0.11204234564E+02  0.36820902242E+02  0.00000000000E+00 0.  1.
         11    1    4    4    0    0  0.24951171287E+02  0.75991373992E+01 -0.18241870334E+02  0.31828818253E+02  0.51100000000E-03 0. -1.
        -11    1    4    4    0    0  0.43896698076E+01 -0.14083322113E+02  0.17599442580E+01  0.14856196243E+02  0.51100000000E-03 0.  1.
         12    1    4    4    0    0  0.42459288670E+01 -0.36238741155E+01  0.52776915128E+01  0.76820832626E+01  0.00000000000E+00 0. -1.
</event>
<event>
 8    1  0.2534787E-006  0.9118800E+02  0.7816164E-02  0.1184000E+00
        -11   -1    0    0    0    0  0.00000000000E+00  0.00000000000E+00  0.45593999997E+02  0.45594000000E+02  0.51100000000E-03 0. -1.
         11   -1    0    0    0    0 -0.00000000000E+00 -0.00000000000E+00 -0.45593999997E+02  0.45594000000E+02  0.51100000000E-03 0.  1.
         23    2    1    2    0    0  0.00000000000E+00 -0.35527136788E-14  0.00000000000E+00  0.91188000000E+02  0.91188000000E+02 0.  0.
    9900012    2    3    3    0    0 -0.12942870252E+02  0.16887338104E+02 -0.30051308296E+02  0.54367065617E+02  0.39999957686E+02 0.  0.
         12    1    3    3    0    0  0.12942870252E+02 -0.16887338104E+02  0.30051308296E+02  0.36820934383E+02  0.00000000000E+00 0. -1.
         11    1    4    4    0    0 -0.23032733167E+02  0.10834571706E+02 -0.20172073948E+02  0.32477797167E+02  0.51100000000E-03 0. -1.
        -11    1    4    4    0    0  0.67487523978E+01  0.11331964696E+02 -0.56730129471E+01  0.14357651582E+02  0.51100000000E-03 0.  1.
         12    1    4    4    0    0  0.33411105180E+01 -0.52791982982E+01 -0.42062214004E+01  0.75316168672E+01  0.00000000000E+00 0. -1.
</event>
<event>
 8    1  0.2534787E-006  0.9118800E+02  0.7816164E-02  0.1184000E+00
        -11   -1    0    0    0    0  0.00000000000E+00  0.00000000000E+00  0.45593999997E+02  0.45594000000E+02  0.51100000000E-03 0. -1.
         11   -1    0    0    0    0 -0.00000000000E+00 -0.00000000000E+00 -0.45593999997E+02  0.45594000000E+02  0.51100000000E-03 0.  1.
         23    2    1    2    0    0  0.00000000000E+00  0.35527136788E-14  0.00000000000E+00  0.91188000000E+02  0.91188000000E+02 0.  0.
    9900012    2    3    3    0    0  0.19081446756E+02 -0.24764529184E+02  0.19452379602E+02  0.54367101203E+02  0.40000038813E+02 0.  0.
        -12    1    3    3    0    0 -0.19081446756E+02  0.24764529184E+02 -0.19452379602E+02  0.36820898797E+02  0.00000000000E+00 0.  1.
         11    1    4    4    0    0  0.12567990427E+02 -0.27375996029E+02  0.13461871392E+02  0.32994265011E+02  0.51100000000E-03 0. -1.
        -11    1    4    4    0    0  0.85079062066E+01 -0.54403956570E+01 -0.14837448481E+01  0.10207050111E+02  0.51100000000E-03 0.  1.
        -12    1    4    4    0    0 -0.19944498777E+01  0.80518625014E+01  0.74742530577E+01  0.11165786082E+02  0.00000000000E+00 0.  1.
</event>
<event>
 8    1  0.2534787E-006  0.9118800E+02  0.7816164E-02  0.1184000E+00
        -11   -1    0    0    0    0  0.00000000000E+00  0.00000000000E+00  0.45593999997E+02  0.45594000000E+02  0.51100000000E-03 0. -1.
         11   -1    0    0    0    0 -0.00000000000E+00 -0.00000000000E+00 -0.45593999997E+02  0.45594000000E+02  0.51100000000E-03 0.  1.
         23    2    1    2    0    0  0.35527136788E-14  0.00000000000E+00  0.17763568394E-14  0.91188000000E+02  0.91188000000E+02 0.  0.
    9900012    2    3    3    0    0  0.30274621627E+02 -0.20182929115E+02 -0.56458695677E+01  0.54367093093E+02  0.40000020323E+02 0.  0.
         12    1    3    3    0    0 -0.30274621627E+02  0.20182929115E+02  0.56458695677E+01  0.36820906907E+02  0.00000000000E+00 0. -1.
         11    1    4    4    0    0 -0.38067356153E+01 -0.20970850396E+00  0.33818202561E+01  0.50962655158E+01  0.51100000000E-03 0. -1.
        -11    1    4    4    0    0  0.96740647759E+01 -0.81103314896E+01  0.10018762624E+02  0.16116470176E+02  0.51100000000E-03 0.  1.
         12    1    4    4    0    0  0.24407292466E+02 -0.11862889121E+02 -0.19046452448E+02  0.33154357401E+02  0.00000000000E+00 0. -1.
</event>
<event>
 8    1  0.2534787E-006  0.9118800E+02  0.7816164E-02  0.1184000E+00
        -11   -1    0    0    0    0  0.00000000000E+00  0.00000000000E+00  0.45593999997E+02  0.45594000000E+02  0.51100000000E-03 0. -1.
         11   -1    0    0    0    0 -0.00000000000E+00 -0.00000000000E+00 -0.45593999997E+02  0.45594000000E+02  0.51100000000E-03 0.  1.
         23    2    1    2    0    0  0.38857805862E-15  0.00000000000E+00  0.10658141036E-13  0.91188000000E+02  0.91188000000E+02 0.  0.
    9900012    2    3    3    0    0 -0.88501884842E-01 -0.24773026580E+02 -0.27240958222E+02  0.54367075469E+02  0.39999980146E+02 0.  0.
         12    1    3    3    0    0  0.88501884842E-01  0.24773026580E+02  0.27240958222E+02  0.36820924531E+02  0.00000000000E+00 0. -1.
         11    1    4    4    0    0  0.74003761618E+01 -0.50878826171E+01 -0.63356071574E+01  0.10990542988E+02  0.51100000000E-03 0.  1.
        -11    1    4    4    0    0  0.39256510673E+01 -0.24702426924E+02 -0.10462154289E+02  0.27112309102E+02  0.51100000000E-03 0. -1.
         12    1    4    4    0    0 -0.11414529114E+02  0.50172829612E+01 -0.10443196776E+02  0.16264223378E+02  0.00000000000E+00 0. -1.
</event>
<event>
 8    1  0.2534787E-006  0.9118800E+02  0.7816164E-02  0.1184000E+00
        -11   -1    0    0    0    0  0.00000000000E+00  0.00000000000E+00  0.45593999997E+02  0.45594000000E+02  0.51100000000E-03 0. -1.
         11   -1    0    0    0    0 -0.00000000000E+00 -0.00000000000E+00 -0.45593999997E+02  0.45594000000E+02  0.51100000000E-03 0.  1.
         23    2    1    2    0    0  0.00000000000E+00  0.35527136788E-14 -0.44408920985E-15  0.91188000000E+02  0.91188000000E+02 0.  0.
    9900012    2    3    3    0    0  0.29750686848E+02  0.21555261251E+02 -0.24586078087E+01  0.54367117231E+02  0.40000075352E+02 0.  0.
        -12    1    3    3    0    0 -0.29750686848E+02 -0.21555261251E+02  0.24586078087E+01  0.36820882769E+02  0.00000000000E+00 0.  1.
         11    1    4    4    0    0  0.24725523293E+02  0.11561997365E+02 -0.59720960220E+01  0.27940959474E+02  0.51100000000E-03 0. -1.
        -11    1    4    4    0    0  0.98158452749E+01  0.16475554553E+01 -0.70041202073E+01  0.12170577537E+02  0.51100000000E-03 0.  1.
        -12    1    4    4    0    0 -0.47906817195E+01  0.83457084305E+01  0.10517608421E+02  0.14255580221E+02  0.00000000000E+00 0.  1.
</event>
<event>
 8    1  0.2534787E-006  0.9118800E+02  0.7816164E-02  0.1184000E+00
        -11   -1    0    0    0    0  0.00000000000E+00  0.00000000000E+00  0.45593999997E+02  0.45594000000E+02  0.51100000000E-03 0. -1.
         11   -1    0    0    0    0 -0.00000000000E+00 -0.00000000000E+00 -0.45593999997E+02  0.45594000000E+02  0.51100000000E-03 0.  1.
         23    2    1    2    0    0  0.00000000000E+00  0.00000000000E+00  0.00000000000E+00  0.91188000000E+02  0.91188000000E+02 0.  0.
    9900012    2    3    3    0    0 -0.18889081512E+02  0.15429863294E+02  0.27584426664E+02  0.54367100011E+02  0.40000036094E+02 0.  0.
        -12    1    3    3    0    0  0.18889081512E+02 -0.15429863294E+02 -0.27584426664E+02  0.36820899989E+02  0.00000000000E+00 0.  1.
         11    1    4    4    0    0 -0.19768993026E+02 -0.23542686028E+01  0.14586658711E+02  0.24680483758E+02  0.51100000000E-03 0. -1.
        -11    1    4    4    0    0  0.73162846414E+01  0.51586510613E+01 -0.18717115888E+01  0.91456550481E+01  0.51100000000E-03 0.  1.
         12    1    4    4    0    0 -0.64363731275E+01  0.12625480836E+02  0.14869479541E+02  0.20540961204E+02  0.00000000000E+00 0. -1.
</event>
<event>
 8    1  0.2534787E-006  0.9118800E+02  0.7816164E-02  0.1184000E+00
        -11   -1    0    0    0    0  0.00000000000E+00  0.00000000000E+00  0.45593999997E+02  0.45594000000E+02  0.51100000000E-03 0. -1.
         11   -1    0    0    0    0 -0.00000000000E+00 -0.00000000000E+00 -0.45593999997E+02  0.45594000000E+02  0.51100000000E-03 0.  1.
         23    2    1    2    0    0 -0.35527136788E-14  0.88817841970E-15  0.00000000000E+00  0.91188000000E+02  0.91188000000E+02 0.  0.
    9900012    2    3    3    0    0 -0.20647387105E+02  0.51032104787E+01  0.30056941351E+02  0.54367121753E+02  0.40000085661E+02 0.  0.
        -12    1    3    3    0    0  0.20647387105E+02 -0.51032104787E+01 -0.30056941351E+02  0.36820878247E+02  0.00000000000E+00 0.  1.
         11    1    4    4    0    0 -0.13666640851E+02 -0.13177435428E+00  0.90621744429E+01  0.16398702465E+02  0.51100000000E-03 0. -1.
        -11    1    4    4    0    0 -0.13734730536E+02 -0.40180790041E+01  0.29891446487E+00  0.14313529680E+02  0.51100000000E-03 0.  1.
         12    1    4    4    0    0  0.67539842817E+01  0.92530638371E+01  0.20695852443E+02  0.23654889609E+02  0.00000000000E+00 0. -1.
</event>
<event>
 8    1  0.2534787E-006  0.9118800E+02  0.7816164E-02  0.1184000E+00
        -11   -1    0    0    0    0  0.00000000000E+00  0.00000000000E+00  0.45593999997E+02  0.45594000000E+02  0.51100000000E-03 0. -1.
         11   -1    0    0    0    0 -0.00000000000E+00 -0.00000000000E+00 -0.45593999997E+02  0.45594000000E+02  0.51100000000E-03 0.  1.
         23    2    1    2    0    0  0.00000000000E+00  0.00000000000E+00  0.00000000000E+00  0.91188000000E+02  0.91188000000E+02 0.  0.
    9900012    2    3    3    0    0  0.19472236436E+02  0.27256235693E+02 -0.15287574258E+02  0.54367077922E+02  0.39999985739E+02 0.  0.
         12    1    3    3    0    0 -0.19472236436E+02 -0.27256235693E+02  0.15287574258E+02  0.36820922078E+02  0.00000000000E+00 0. -1.
         11    1    4    4    0    0 -0.37139031936E+01 -0.76607734102E+00  0.22736520322E+01  0.44214754606E+01  0.51100000000E-03 0. -1.
        -11    1    4    4    0    0  0.72235260628E+01  0.29359677963E+02 -0.79426045269E+01  0.31261077809E+02  0.51100000000E-03 0.  1.
        -12    1    4    4    0    0  0.15962613567E+02 -0.13373649288E+01 -0.96186217632E+01  0.18684524652E+02  0.00000000000E+00 0.  1.
</event>
<event>
 8    1  0.2534787E-006  0.9118800E+02  0.7816164E-02  0.1184000E+00
        -11   -1    0    0    0    0  0.00000000000E+00  0.00000000000E+00  0.45593999997E+02  0.45594000000E+02  0.51100000000E-03 0.  1.
         11   -1    0    0    0    0 -0.00000000000E+00 -0.00000000000E+00 -0.45593999997E+02  0.45594000000E+02  0.51100000000E-03 0. -1.
         23    2    1    2    0    0 -0.17763568394E-14 -0.71054273576E-14  0.26645352591E-14  0.91188000000E+02  0.91188000000E+02 0.  0.
    9900012    2    3    3    0    0  0.15325919879E+02  0.32628366828E+02 -0.75024027953E+01  0.54367079456E+02  0.39999989235E+02 0.  0.
        -12    1    3    3    0    0 -0.15325919879E+02 -0.32628366828E+02  0.75024027953E+01  0.36820920544E+02  0.00000000000E+00 0.  1.
         11    1    4    4    0    0  0.11395271254E+02 -0.81108378608E+00 -0.61598734453E+01  0.12978987056E+02  0.51100000000E-03 0. -1.
        -11    1    4    4    0    0 -0.17019732184E+00  0.75501869825E+01  0.10246102458E+02  0.12728586192E+02  0.51100000000E-03 0.  1.
         12    1    4    4    0    0  0.41008459462E+01  0.25889263632E+02 -0.11588631809E+02  0.28659506208E+02  0.00000000000E+00 0. -1.
</event>
<event>
 8    1  0.2534787E-006  0.9118800E+02  0.7816164E-02  0.1184000E+00
        -11   -1    0    0    0    0  0.00000000000E+00  0.00000000000E+00  0.45593999997E+02  0.45594000000E+02  0.51100000000E-03 0.  1.
         11   -1    0    0    0    0 -0.00000000000E+00 -0.00000000000E+00 -0.45593999997E+02  0.45594000000E+02  0.51100000000E-03 0. -1.
         23    2    1    2    0    0 -0.88817841970E-15  0.00000000000E+00  0.00000000000E+00  0.91188000000E+02  0.91188000000E+02 0.  0.
    9900012    2    3    3    0    0 -0.65007790941E+01 -0.26495478397E+02  0.24728734114E+02  0.54367071234E+02  0.39999970493E+02 0.  0.
         12    1    3    3    0    0  0.65007790941E+01  0.26495478397E+02 -0.24728734114E+02  0.36820928766E+02  0.00000000000E+00 0. -1.
         11    1    4    4    0    0  0.62023447629E+01  0.65311918524E+01  0.10991824516E+02  0.14210761909E+02  0.51100000000E-03 0. -1.
        -11    1    4    4    0    0 -0.79564107911E+01 -0.12274861877E+02  0.11774920985E+02  0.18778324505E+02  0.51100000000E-03 0.  1.
         12    1    4    4    0    0 -0.47467130659E+01 -0.20751808372E+02  0.19619886123E+01  0.21377984820E+02  0.00000000000E+00 0. -1.
</event>
<event>
 8    1  0.2534787E-006  0.9118800E+02  0.7816164E-02  0.1184000E+00
        -11   -1    0    0    0    0  0.00000000000E+00  0.00000000000E+00  0.45593999997E+02  0.45594000000E+02  0.51100000000E-03 0. -1.
         11   -1    0    0    0    0 -0.00000000000E+00 -0.00000000000E+00 -0.45593999997E+02  0.45594000000E+02  0.51100000000E-03 0.  1.
         23    2    1    2    0    0  0.35527136788E-14  0.35527136788E-14  0.00000000000E+00  0.91188000000E+02  0.91188000000E+02 0.  0.
    9900012    2    3    3    0    0 -0.31278469756E+02 -0.18969510543E+02  0.41947413035E+01  0.54367070420E+02  0.39999968636E+02 0.  0.
        -12    1    3    3    0    0  0.31278469756E+02  0.18969510543E+02 -0.41947413035E+01  0.36820929580E+02  0.00000000000E+00 0.  1.
         11    1    4    4    0    0 -0.18407441022E+02  0.67986492247E+01  0.16934296359E+01  0.19695766562E+02  0.51100000000E-03 0. -1.
        -11    1    4    4    0    0 -0.14912914090E+02 -0.24729011622E+02 -0.26842697503E+01  0.29002143487E+02  0.51100000000E-03 0.  1.
         12    1    4    4    0    0  0.20418853559E+01 -0.10391481455E+01  0.51855814180E+01  0.56691603715E+01  0.00000000000E+00 0. -1.
</event>
<event>
 8    1  0.2534787E-006  0.9118800E+02  0.7816164E-02  0.1184000E+00
        -11   -1    0    0    0    0  0.00000000000E+00  0.00000000000E+00  0.45593999997E+02  0.45594000000E+02  0.51100000000E-03 0.  1.
         11   -1    0    0    0    0 -0.00000000000E+00 -0.00000000000E+00 -0.45593999997E+02  0.45594000000E+02  0.51100000000E-03 0. -1.
         23    2    1    2    0    0  0.00000000000E+00  0.00000000000E+00  0.00000000000E+00  0.91188000000E+02  0.91188000000E+02 0.  0.
    9900012    2    3    3    0    0 -0.13420415889E+02  0.27691154008E+02  0.20220584150E+02  0.54367087514E+02  0.40000007606E+02 0.  0.
         12    1    3    3    0    0  0.13420415889E+02 -0.27691154008E+02 -0.20220584150E+02  0.36820912486E+02  0.00000000000E+00 0. -1.
         11    1    4    4    0    0 -0.95135244670E+00  0.15435674435E+01 -0.22239138599E+01  0.28694015139E+01  0.51100000000E-03 0. -1.
        -11    1    4    4    0    0  0.72487265268E+00 -0.72298860660E+01  0.12155018437E+02  0.14161255818E+02  0.51100000000E-03 0.  1.
        -12    1    4    4    0    0 -0.13193936095E+02  0.33377472630E+02  0.10289479573E+02  0.37336430182E+02  0.00000000000E+00 0.  1.
</event>
<event>
 8    1  0.2534787E-006  0.9118800E+02  0.7816164E-02  0.1184000E+00
        -11   -1    0    0    0    0  0.00000000000E+00  0.00000000000E+00  0.45593999997E+02  0.45594000000E+02  0.51100000000E-03 0.  1.
         11   -1    0    0    0    0 -0.00000000000E+00 -0.00000000000E+00 -0.45593999997E+02  0.45594000000E+02  0.51100000000E-03 0. -1.
         23    2    1    2    0    0 -0.15543122345E-14  0.00000000000E+00  0.00000000000E+00  0.91188000000E+02  0.91188000000E+02 0.  0.
    9900012    2    3    3    0    0 -0.17604031213E+01 -0.29587474299E+01 -0.36659602225E+02  0.54367086910E+02  0.40000006228E+02 0.  0.
        -12    1    3    3    0    0  0.17604031213E+01  0.29587474299E+01  0.36659602225E+02  0.36820913090E+02  0.00000000000E+00 0.  1.
         11    1    4    4    0    0  0.98275978717E+01 -0.39661617228E-01 -0.43158322888E+01  0.10733576365E+02  0.51100000000E-03 0. -1.
        -11    1    4    4    0    0 -0.37327447794E+01 -0.19324551092E+01  0.43773252602E+01  0.60686689671E+01  0.51100000000E-03 0.  1.
         12    1    4    4    0    0 -0.78552562135E+01 -0.98663070346E+00 -0.36721095197E+02  0.37564841578E+02  0.00000000000E+00 0. -1.
</event>
<event>
 8    1  0.2534787E-006  0.9118800E+02  0.7816164E-02  0.1184000E+00
        -11   -1    0    0    0    0  0.00000000000E+00  0.00000000000E+00  0.45593999997E+02  0.45594000000E+02  0.51100000000E-03 0.  1.
         11   -1    0    0    0    0 -0.00000000000E+00 -0.00000000000E+00 -0.45593999997E+02  0.45594000000E+02  0.51100000000E-03 0. -1.
         23    2    1    2    0    0  0.00000000000E+00  0.00000000000E+00 -0.22204460493E-15  0.91188000000E+02  0.91188000000E+02 0.  0.
    9900012    2    3    3    0    0 -0.35017962532E+02 -0.11260204513E+02  0.16521355917E+01  0.54367089398E+02  0.40000011900E+02 0.  0.
        -12    1    3    3    0    0  0.35017962532E+02  0.11260204513E+02 -0.16521355917E+01  0.36820910602E+02  0.00000000000E+00 0.  1.
         11    1    4    4    0    0 -0.20221057480E+02 -0.18431304070E+02  0.53406828841E+01  0.27876998211E+02  0.51100000000E-03 0. -1.
        -11    1    4    4    0    0  0.24571608450E+01 -0.36331584966E+01  0.27037122080E+01  0.51524304988E+01  0.51100000000E-03 0.  1.
         12    1    4    4    0    0 -0.17254065897E+02  0.10804258054E+02 -0.63922595004E+01  0.21337660687E+02  0.00000000000E+00 0. -1.
</event>
<event>
 8    1  0.2534787E-006  0.9118800E+02  0.7816164E-02  0.1184000E+00
        -11   -1    0    0    0    0  0.00000000000E+00  0.00000000000E+00  0.45593999997E+02  0.45594000000E+02  0.51100000000E-03 0. -1.
         11   -1    0    0    0    0 -0.00000000000E+00 -0.00000000000E+00 -0.45593999997E+02  0.45594000000E+02  0.51100000000E-03 0.  1.
         23    2    1    2    0    0  0.00000000000E+00  0.35527136788E-14  0.35527136788E-14  0.91188000000E+02  0.91188000000E+02 0.  0.
    9900012    2    3    3    0    0  0.13190335240E+02  0.20967952689E+02 -0.27242240064E+02  0.54367087091E+02  0.40000006642E+02 0.  0.
         12    1    3    3    0    0 -0.13190335240E+02 -0.20967952689E+02  0.27242240064E+02  0.36820912909E+02  0.00000000000E+00 0. -1.
         11    1    4    4    0    0  0.15786730882E+01 -0.16034576799E+01  0.62702029238E+00  0.23359023864E+01  0.51100000000E-03 0. -1.
        -11    1    4    4    0    0  0.60585965846E+01  0.75616490166E+01  0.81212523699E+01  0.12642779312E+02  0.51100000000E-03 0.  1.
        -12    1    4    4    0    0  0.55530655669E+01  0.15009761352E+02 -0.35990512727E+02  0.39388405393E+02  0.00000000000E+00 0.  1.
</event>
<event>
 8    1  0.2534787E-006  0.9118800E+02  0.7816164E-02  0.1184000E+00
        -11   -1    0    0    0    0  0.00000000000E+00  0.00000000000E+00  0.45593999997E+02  0.45594000000E+02  0.51100000000E-03 0.  1.
         11   -1    0    0    0    0 -0.00000000000E+00 -0.00000000000E+00 -0.45593999997E+02  0.45594000000E+02  0.51100000000E-03 0. -1.
         23    2    1    2    0    0  0.00000000000E+00 -0.88817841970E-15  0.00000000000E+00  0.91188000000E+02  0.91188000000E+02 0.  0.
    9900012    2    3    3    0    0  0.27043388347E+02 -0.40185093162E+01  0.24663488319E+02  0.54367069451E+02  0.39999966428E+02 0.  0.
         12    1    3    3    0    0 -0.27043388347E+02  0.40185093162E+01 -0.24663488319E+02  0.36820930549E+02  0.00000000000E+00 0. -1.
         11    1    4    4    0    0  0.12673381871E+02  0.11007922657E+02  0.12607135326E+01  0.16833845910E+02  0.51100000000E-03 0. -1.
        -11    1    4    4    0    0  0.10854450279E+02 -0.15920193649E+02  0.66368539495E+01  0.20379388786E+02  0.51100000000E-03 0.  1.
        -12    1    4    4    0    0  0.35155561976E+01  0.89376167586E+00  0.16765920837E+02  0.17153834756E+02  0.00000000000E+00 0.  1.
</event>
<event>
 8    1  0.2534787E-006  0.9118800E+02  0.7816164E-02  0.1184000E+00
        -11   -1    0    0    0    0  0.00000000000E+00  0.00000000000E+00  0.45593999997E+02  0.45594000000E+02  0.51100000000E-03 0. -1.
         11   -1    0    0    0    0 -0.00000000000E+00 -0.00000000000E+00 -0.45593999997E+02  0.45594000000E+02  0.51100000000E-03 0.  1.
         23    2    1    2    0    0  0.35527136788E-14  0.88817841970E-15  0.35527136788E-14  0.91188000000E+02  0.91188000000E+02 0.  0.
    9900012    2    3    3    0    0  0.27087586414E+02  0.79270949102E+01 -0.23647478968E+02  0.54367089731E+02  0.40000012661E+02 0.  0.
         12    1    3    3    0    0 -0.27087586414E+02 -0.79270949102E+01  0.23647478968E+02  0.36820910269E+02  0.00000000000E+00 0. -1.
         11    1    4    4    0    0  0.11027606064E+02  0.57417557623E+01  0.53579907117E+00  0.12444393744E+02  0.51100000000E-03 0. -1.
        -11    1    4    4    0    0  0.13526076315E+02 -0.71829564302E+01  0.57959523176E+00  0.15325975808E+02  0.51100000000E-03 0.  1.
        -12    1    4    4    0    0  0.25339040347E+01  0.93682955781E+01 -0.24762873271E+02  0.26596720180E+02  0.00000000000E+00 0.  1.
</event>
<event>
 8    1  0.2534787E-006  0.9118800E+02  0.7816164E-02  0.1184000E+00
        -11   -1    0    0    0    0  0.00000000000E+00  0.00000000000E+00  0.45593999997E+02  0.45594000000E+02  0.51100000000E-03 0.  1.
         11   -1    0    0    0    0 -0.00000000000E+00 -0.00000000000E+00 -0.45593999997E+02  0.45594000000E+02  0.51100000000E-03 0. -1.
         23    2    1    2    0    0  0.00000000000E+00  0.00000000000E+00 -0.35527136788E-14  0.91188000000E+02  0.91188000000E+02 0.  0.
    9900012    2    3    3    0    0 -0.79366956261E+01  0.16580005287E+02 -0.31904414306E+02  0.54367090655E+02  0.40000014766E+02 0.  0.
        -12    1    3    3    0    0  0.79366956261E+01 -0.16580005287E+02  0.31904414306E+02  0.36820909345E+02  0.00000000000E+00 0.  1.
         11    1    4    4    0    0  0.14737460240E+01  0.29994858830E+01 -0.82837094454E+01  0.89324512505E+01  0.51100000000E-03 0. -1.
        -11    1    4    4    0    0 -0.40942816882E+01  0.11446155780E+02 -0.32594837471E+02  0.34787944099E+02  0.51100000000E-03 0.  1.
        -12    1    4    4    0    0 -0.53161599619E+01  0.21343636243E+01  0.89741326099E+01  0.10646695305E+02  0.00000000000E+00 0.  1.
</event>
<event>
 8    1  0.2534787E-006  0.9118800E+02  0.7816164E-02  0.1184000E+00
        -11   -1    0    0    0    0  0.00000000000E+00  0.00000000000E+00  0.45593999997E+02  0.45594000000E+02  0.51100000000E-03 0.  1.
         11   -1    0    0    0    0 -0.00000000000E+00 -0.00000000000E+00 -0.45593999997E+02  0.45594000000E+02  0.51100000000E-03 0. -1.
         23    2    1    2    0    0 -0.35527136788E-14  0.00000000000E+00 -0.71054273576E-14  0.91188000000E+02  0.91188000000E+02 0.  0.
    9900012    2    3    3    0    0 -0.11127217962E+02 -0.89407472349E+01 -0.33941538308E+02  0.54367082529E+02  0.39999996240E+02 0.  0.
        -12    1    3    3    0    0  0.11127217962E+02  0.89407472349E+01  0.33941538308E+02  0.36820917471E+02  0.00000000000E+00 0.  1.
         11    1    4    4    0    0  0.16397246471E+00 -0.91995291703E+01 -0.30498506786E+02  0.31856194694E+02  0.51100000000E-03 0. -1.
        -11    1    4    4    0    0 -0.26300411256E+01 -0.81014972567E+01 -0.57193024357E+01  0.10259717088E+02  0.51100000000E-03 0.  1.
        -12    1    4    4    0    0 -0.86611493014E+01  0.83602791922E+01  0.22762709132E+01  0.12251170747E+02  0.00000000000E+00 0.  1.
</event>
<event>
 8    1  0.2534787E-006  0.9118800E+02  0.7816164E-02  0.1184000E+00
        -11   -1    0    0    0    0  0.00000000000E+00  0.00000000000E+00  0.45593999997E+02  0.45594000000E+02  0.51100000000E-03 0.  1.
         11   -1    0    0    0    0 -0.00000000000E+00 -0.00000000000E+00 -0.45593999997E+02  0.45594000000E+02  0.51100000000E-03 0. -1.
         23    2    1    2    0    0  0.35527136788E-14  0.00000000000E+00  0.00000000000E+00  0.91188000000E+02  0.91188000000E+02 0.  0.
    9900012    2    3    3    0    0 -0.28247818964E+02  0.16749839516E+02  0.16651753812E+02  0.54367118627E+02  0.40000078535E+02 0.  0.
         12    1    3    3    0    0  0.28247818964E+02 -0.16749839516E+02 -0.16651753812E+02  0.36820881373E+02  0.00000000000E+00 0. -1.
         11    1    4    4    0    0 -0.27099541525E+02  0.50251695219E+01  0.49922331495E+00  0.27566042585E+02  0.51100000000E-03 0. -1.
        -11    1    4    4    0    0 -0.36663008392E+01  0.78920151233E+01 -0.12618063744E+01  0.87930552220E+01  0.51100000000E-03 0.  1.
        -12    1    4    4    0    0  0.25180234002E+01  0.38326548704E+01  0.17414336872E+02  0.18008020821E+02  0.00000000000E+00 0.  1.
</event>
<event>
 8    1  0.2534787E-006  0.9118800E+02  0.7816164E-02  0.1184000E+00
        -11   -1    0    0    0    0  0.00000000000E+00  0.00000000000E+00  0.45593999997E+02  0.45594000000E+02  0.51100000000E-03 0.  1.
         11   -1    0    0    0    0 -0.00000000000E+00 -0.00000000000E+00 -0.45593999997E+02  0.45594000000E+02  0.51100000000E-03 0. -1.
         23    2    1    2    0    0  0.88817841970E-15 -0.35527136788E-14  0.00000000000E+00  0.91188000000E+02  0.91188000000E+02 0.  0.
    9900012    2    3    3    0    0 -0.57028402301E+01 -0.17813636563E+02 -0.31716432457E+02  0.54367080374E+02  0.39999991328E+02 0.  0.
        -12    1    3    3    0    0  0.57028402301E+01  0.17813636563E+02  0.31716432457E+02  0.36820919626E+02  0.00000000000E+00 0.  1.
         11    1    4    4    0    0 -0.42827098171E+01 -0.23189350866E+02 -0.28603642673E+02  0.37070958599E+02  0.51100000000E-03 0. -1.
        -11    1    4    4    0    0 -0.41101103623E+01  0.55636179906E+01 -0.86866428292E+01  0.11104261175E+02  0.51100000000E-03 0.  1.
         12    1    4    4    0    0  0.26899799493E+01 -0.18790368797E+00  0.55738530452E+01  0.61918606002E+01  0.00000000000E+00 0. -1.
</event>
<event>
 8    1  0.2534787E-006  0.9118800E+02  0.7816164E-02  0.1184000E+00
        -11   -1    0    0    0    0  0.00000000000E+00  0.00000000000E+00  0.45593999997E+02  0.45594000000E+02  0.51100000000E-03 0. -1.
         11   -1    0    0    0    0 -0.00000000000E+00 -0.00000000000E+00 -0.45593999997E+02  0.45594000000E+02  0.51100000000E-03 0.  1.
         23    2    1    2    0    0  0.44408920985E-15  0.17763568394E-14  0.00000000000E+00  0.91188000000E+02  0.91188000000E+02 0.  0.
    9900012    2    3    3    0    0  0.33312159280E+01  0.75177340656E+01 -0.35891086326E+02  0.54367035826E+02  0.39999889773E+02 0.  0.
         12    1    3    3    0    0 -0.33312159280E+01 -0.75177340656E+01  0.35891086326E+02  0.36820964174E+02  0.00000000000E+00 0. -1.
         11    1    4    4    0    0 -0.45411839918E+00 -0.11157278065E+02 -0.40239396255E+01  0.11869421541E+02  0.51100000000E-03 0. -1.
        -11    1    4    4    0    0 -0.29863942493E+01  0.19361003231E+02 -0.29252734000E+02  0.35206383561E+02  0.51100000000E-03 0.  1.
         12    1    4    4    0    0  0.67717285765E+01 -0.68599110086E+00 -0.26144127003E+01  0.72912307241E+01  0.00000000000E+00 0. -1.
</event>
<event>
 8    1  0.2534787E-006  0.9118800E+02  0.7816164E-02  0.1184000E+00
        -11   -1    0    0    0    0  0.00000000000E+00  0.00000000000E+00  0.45593999997E+02  0.45594000000E+02  0.51100000000E-03 0.  1.
         11   -1    0    0    0    0 -0.00000000000E+00 -0.00000000000E+00 -0.45593999997E+02  0.45594000000E+02  0.51100000000E-03 0. -1.
         23    2    1    2    0    0  0.35527136788E-14  0.22204460493E-15 -0.35527136788E-14  0.91188000000E+02  0.91188000000E+02 0.  0.
    9900012    2    3    3    0    0  0.20435400202E+02  0.22053089747E+00 -0.30628796571E+02  0.54367117410E+02  0.40000075761E+02 0.  0.
        -12    1    3    3    0    0 -0.20435400202E+02 -0.22053089747E+00  0.30628796571E+02  0.36820882590E+02  0.00000000000E+00 0.  1.
         11    1    4    4    0    0  0.24259596182E+02 -0.99023704556E+01 -0.15452326362E+02  0.30419719555E+02  0.51100000000E-03 0. -1.
        -11    1    4    4    0    0 -0.36695475895E+01  0.13406109669E+02 -0.15283863078E+02  0.20658795387E+02  0.51100000000E-03 0.  1.
         12    1    4    4    0    0 -0.15464839053E+00 -0.32832083160E+01  0.10739286891E+00  0.32886024690E+01  0.00000000000E+00 0. -1.
</event>
<event>
 8    1  0.2534787E-006  0.9118800E+02  0.7816164E-02  0.1184000E+00
        -11   -1    0    0    0    0  0.00000000000E+00  0.00000000000E+00  0.45593999997E+02  0.45594000000E+02  0.51100000000E-03 0.  1.
         11   -1    0    0    0    0 -0.00000000000E+00 -0.00000000000E+00 -0.45593999997E+02  0.45594000000E+02  0.51100000000E-03 0. -1.
         23    2    1    2    0    0  0.00000000000E+00 -0.88817841970E-15  0.00000000000E+00  0.91188000000E+02  0.91188000000E+02 0.  0.
    9900012    2    3    3    0    0  0.20457576159E+02  0.65162823913E+01 -0.29913300605E+02  0.54367083233E+02  0.39999997846E+02 0.  0.
        -12    1    3    3    0    0 -0.20457576159E+02 -0.65162823913E+01  0.29913300605E+02  0.36820916767E+02  0.00000000000E+00 0.  1.
         11    1    4    4    0    0  0.80241479111E+01  0.73474578375E+01 -0.17634282385E+02  0.20720521274E+02  0.51100000000E-03 0. -1.
        -11    1    4    4    0    0 -0.29646607747E+01 -0.11166466835E+02 -0.93686843814E+01  0.14874523266E+02  0.51100000000E-03 0.  1.
        -12    1    4    4    0    0  0.15398089023E+02  0.10335291389E+02 -0.29103338391E+01  0.18772038693E+02  0.00000000000E+00 0.  1.
</event>
<event>
 8    1  0.2534787E-006  0.9118800E+02  0.7816164E-02  0.1184000E+00
        -11   -1    0    0    0    0  0.00000000000E+00  0.00000000000E+00  0.45593999997E+02  0.45594000000E+02  0.51100000000E-03 0. -1.
         11   -1    0    0    0    0 -0.00000000000E+00 -0.00000000000E+00 -0.45593999997E+02  0.45594000000E+02  0.51100000000E-03 0.  1.
         23    2    1    2    0    0  0.00000000000E+00  0.35527136788E-14  0.17763568394E-14  0.91188000000E+02  0.91188000000E+02 0.  0.
    9900012    2    3    3    0    0 -0.12896447199E+02  0.30804977994E+02 -0.15508575386E+02  0.54367069403E+02  0.39999966317E+02 0.  0.
         12    1    3    3    0    0  0.12896447199E+02 -0.30804977994E+02  0.15508575386E+02  0.36820930597E+02  0.00000000000E+00 0. -1.
         11    1    4    4    0    0 -0.14599713553E+01 -0.31489438476E+01  0.78562473573E+01  0.85888291702E+01  0.51100000000E-03 0. -1.
        -11    1    4    4    0    0 -0.69376324194E+00  0.18479569459E+00  0.20486759956E+01  0.21708363551E+01  0.51100000000E-03 0.  1.
        -12    1    4    4    0    0 -0.10742712602E+02  0.33769126147E+02 -0.25413498738E+02  0.43607403877E+02  0.00000000000E+00 0.  1.
</event>
<event>
 8    1  0.2534787E-006  0.9118800E+02  0.7816164E-02  0.1184000E+00
        -11   -1    0    0    0    0  0.00000000000E+00  0.00000000000E+00  0.45593999997E+02  0.45594000000E+02  0.51100000000E-03 0.  1.
         11   -1    0    0    0    0 -0.00000000000E+00 -0.00000000000E+00 -0.45593999997E+02  0.45594000000E+02  0.51100000000E-03 0. -1.
         23    2    1    2    0    0  0.00000000000E+00  0.00000000000E+00 -0.88817841970E-15  0.91188000000E+02  0.91188000000E+02 0.  0.
    9900012    2    3    3    0    0 -0.31971126035E+02 -0.16529321907E+02  0.77723382231E+01  0.54367073558E+02  0.39999975790E+02 0.  0.
         12    1    3    3    0    0  0.31971126035E+02  0.16529321907E+02 -0.77723382231E+01  0.36820926442E+02  0.00000000000E+00 0. -1.
         11    1    4    4    0    0 -0.18820480349E+02  0.88511037380E+01 -0.26127127979E+01  0.20961364134E+02  0.51100000000E-03 0. -1.
        -11    1    4    4    0    0 -0.81277338588E+01 -0.20704380106E+02  0.16589154493E+01  0.22304336215E+02  0.51100000000E-03 0.  1.
        -12    1    4    4    0    0 -0.50229118269E+01 -0.46760455382E+01  0.87261355717E+01  0.11101373208E+02  0.00000000000E+00 0.  1.
</event>
<event>
 8    1  0.2534787E-006  0.9118800E+02  0.7816164E-02  0.1184000E+00
        -11   -1    0    0    0    0  0.00000000000E+00  0.00000000000E+00  0.45593999997E+02  0.45594000000E+02  0.51100000000E-03 0.  1.
         11   -1    0    0    0    0 -0.00000000000E+00 -0.00000000000E+00 -0.45593999997E+02  0.45594000000E+02  0.51100000000E-03 0. -1.
         23    2    1    2    0    0 -0.35527136788E-14  0.00000000000E+00  0.00000000000E+00  0.91188000000E+02  0.91188000000E+02 0.  0.
    9900012    2    3    3    0    0  0.28702227717E+02  0.21376573812E+02 -0.86603459830E+01  0.54367117658E+02  0.40000076325E+02 0.  0.
         12    1    3    3    0    0 -0.28702227717E+02 -0.21376573812E+02  0.86603459830E+01  0.36820882342E+02  0.00000000000E+00 0. -1.
         11    1    4    4    0    0 -0.43384836423E+01  0.65863703274E+01 -0.93910896698E+01  0.12263575329E+02  0.51100000000E-03 0. -1.
        -11    1    4    4    0    0  0.17921720561E+02  0.16468199773E+02 -0.65991805600E+01  0.25217828137E+02  0.51100000000E-03 0.  1.
         12    1    4    4    0    0  0.15118990798E+02 -0.16779962875E+01  0.73299242468E+01  0.16885714192E+02  0.00000000000E+00 0. -1.
</event>
<event>
 8    1  0.2534787E-006  0.9118800E+02  0.7816164E-02  0.1184000E+00
        -11   -1    0    0    0    0  0.00000000000E+00  0.00000000000E+00  0.45593999997E+02  0.45594000000E+02  0.51100000000E-03 0.  1.
         11   -1    0    0    0    0 -0.00000000000E+00 -0.00000000000E+00 -0.45593999997E+02  0.45594000000E+02  0.51100000000E-03 0. -1.
         23    2    1    2    0    0 -0.88817841970E-15  0.00000000000E+00  0.00000000000E+00  0.91188000000E+02  0.91188000000E+02 0.  0.
    9900012    2    3    3    0    0 -0.21114916937E+01  0.24195795675E+02 -0.27674680749E+02  0.54367042923E+02  0.39999905952E+02 0.  0.
        -12    1    3    3    0    0  0.21114916937E+01 -0.24195795675E+02  0.27674680749E+02  0.36820957077E+02  0.00000000000E+00 0.  1.
         11    1    4    4    0    0 -0.67430859250E+01  0.16238564426E+02 -0.27383054875E+02  0.32542155383E+02  0.51100000000E-03 0. -1.
        -11    1    4    4    0    0 -0.27186410175E+01  0.35320650409E+00  0.79548590617E+01  0.84140089594E+01  0.51100000000E-03 0.  1.
         12    1    4    4    0    0  0.73502352488E+01  0.76040247447E+01 -0.82464849349E+01  0.13410878581E+02  0.00000000000E+00 0. -1.
</event>
<event>
 8    1  0.2534787E-006  0.9118800E+02  0.7816164E-02  0.1184000E+00
        -11   -1    0    0    0    0  0.00000000000E+00  0.00000000000E+00  0.45593999997E+02  0.45594000000E+02  0.51100000000E-03 0.  1.
         11   -1    0    0    0    0 -0.00000000000E+00 -0.00000000000E+00 -0.45593999997E+02  0.45594000000E+02  0.51100000000E-03 0. -1.
         23    2    1    2    0    0  0.00000000000E+00  0.00000000000E+00 -0.35527136788E-14  0.91188000000E+02  0.91188000000E+02 0.  0.
    9900012    2    3    3    0    0  0.32258850200E+02  0.51086840985E+00 -0.17745021866E+02  0.54367079265E+02  0.39999988800E+02 0.  0.
        -12    1    3    3    0    0 -0.32258850200E+02 -0.51086840985E+00  0.17745021866E+02  0.36820920735E+02  0.00000000000E+00 0.  1.
         11    1    4    4    0    0  0.37978228440E+01  0.49832201751E+01 -0.83972824192E+01  0.10477131953E+02  0.51100000000E-03 0. -1.
        -11    1    4    4    0    0  0.25273167900E+02 -0.45282058566E+00 -0.19890830746E+02  0.32164937591E+02  0.51100000000E-03 0.  1.
        -12    1    4    4    0    0  0.31878594555E+01 -0.40195311796E+01  0.10543091299E+02  0.11725009721E+02  0.00000000000E+00 0.  1.
</event>
<event>
 8    1  0.2534787E-006  0.9118800E+02  0.7816164E-02  0.1184000E+00
        -11   -1    0    0    0    0  0.00000000000E+00  0.00000000000E+00  0.45593999997E+02  0.45594000000E+02  0.51100000000E-03 0.  1.
         11   -1    0    0    0    0 -0.00000000000E+00 -0.00000000000E+00 -0.45593999997E+02  0.45594000000E+02  0.51100000000E-03 0. -1.
         23    2    1    2    0    0  0.00000000000E+00 -0.35527136788E-14 -0.35527136788E-14  0.91188000000E+02  0.91188000000E+02 0.  0.
    9900012    2    3    3    0    0 -0.80709255701E+01  0.31547213684E+02  0.17187504121E+02  0.54367125097E+02  0.40000093282E+02 0.  0.
         12    1    3    3    0    0  0.80709255701E+01 -0.31547213684E+02 -0.17187504121E+02  0.36820874903E+02  0.00000000000E+00 0. -1.
         11    1    4    4    0    0 -0.11815936052E+02  0.13098583454E+02 -0.17509650698E+01  0.17727242093E+02  0.51100000000E-03 0. -1.
        -11    1    4    4    0    0 -0.10768476808E+02  0.89870692631E+01  0.79164129544E+01  0.16105809543E+02  0.51100000000E-03 0.  1.
        -12    1    4    4    0    0  0.14513487289E+02  0.94615609664E+01  0.11022056236E+02  0.20534073461E+02  0.00000000000E+00 0.  1.
</event>
<event>
 8    1  0.2534787E-006  0.9118800E+02  0.7816164E-02  0.1184000E+00
        -11   -1    0    0    0    0  0.00000000000E+00  0.00000000000E+00  0.45593999997E+02  0.45594000000E+02  0.51100000000E-03 0.  1.
         11   -1    0    0    0    0 -0.00000000000E+00 -0.00000000000E+00 -0.45593999997E+02  0.45594000000E+02  0.51100000000E-03 0. -1.
         23    2    1    2    0    0  0.71054273576E-14  0.00000000000E+00  0.00000000000E+00  0.91188000000E+02  0.91188000000E+02 0.  0.
    9900012    2    3    3    0    0 -0.35856680584E+02 -0.59727040444E+01  0.58656554500E+01  0.54367073206E+02  0.39999974989E+02 0.  0.
         12    1    3    3    0    0  0.35856680584E+02  0.59727040444E+01 -0.58656554500E+01  0.36820926794E+02  0.00000000000E+00 0. -1.
         11    1    4    4    0    0 -0.20613836998E+01 -0.13024282213E+02 -0.59765291611E+01  0.14477573380E+02  0.51100000000E-03 0. -1.
        -11    1    4    4    0    0 -0.37699601876E+01 -0.13601800055E+00 -0.37350873339E+01  0.53086701127E+01  0.51100000000E-03 0.  1.
        -12    1    4    4    0    0 -0.30025336696E+02  0.71875961688E+01  0.15577271945E+02  0.34580829713E+02  0.00000000000E+00 0.  1.
</event>
<event>
 8    1  0.2534787E-006  0.9118800E+02  0.7816164E-02  0.1184000E+00
        -11   -1    0    0    0    0  0.00000000000E+00  0.00000000000E+00  0.45593999997E+02  0.45594000000E+02  0.51100000000E-03 0.  1.
         11   -1    0    0    0    0 -0.00000000000E+00 -0.00000000000E+00 -0.45593999997E+02  0.45594000000E+02  0.51100000000E-03 0. -1.
         23    2    1    2    0    0  0.00000000000E+00  0.00000000000E+00  0.22204460493E-15  0.91188000000E+02  0.91188000000E+02 0.  0.
    9900012    2    3    3    0    0 -0.26504706581E+02  0.25558296188E+02 -0.22758113210E+00  0.54367112339E+02  0.40000064200E+02 0.  0.
        -12    1    3    3    0    0  0.26504706581E+02 -0.25558296188E+02  0.22758113210E+00  0.36820887661E+02  0.00000000000E+00 0.  1.
         11    1    4    4    0    0  0.28574635060E+01  0.24405049861E+02  0.78315134739E-01  0.24571888205E+02  0.51100000000E-03 0. -1.
        -11    1    4    4    0    0 -0.79101219931E+01 -0.38982954046E+00  0.19889828456E+01  0.81656628658E+01  0.51100000000E-03 0.  1.
         12    1    4    4    0    0 -0.21452048094E+02  0.15430758669E+01 -0.22948791124E+01  0.21629561269E+02  0.00000000000E+00 0. -1.
</event>
<event>
 8    1  0.2534787E-006  0.9118800E+02  0.7816164E-02  0.1184000E+00
        -11   -1    0    0    0    0  0.00000000000E+00  0.00000000000E+00  0.45593999997E+02  0.45594000000E+02  0.51100000000E-03 0. -1.
         11   -1    0    0    0    0 -0.00000000000E+00 -0.00000000000E+00 -0.45593999997E+02  0.45594000000E+02  0.51100000000E-03 0.  1.
         23    2    1    2    0    0 -0.35527136788E-14  0.00000000000E+00 -0.88817841970E-15  0.91188000000E+02  0.91188000000E+02 0.  0.
    9900012    2    3    3    0    0 -0.31849028245E+02 -0.17051276918E+02 -0.71185145058E+01  0.54367083479E+02  0.39999998407E+02 0.  0.
         12    1    3    3    0    0  0.31849028245E+02  0.17051276918E+02  0.71185145058E+01  0.36820916521E+02  0.00000000000E+00 0. -1.
         11    1    4    4    0    0 -0.22512273870E+02  0.15524536402E+00 -0.46483532935E+01  0.22987687237E+02  0.51100000000E-03 0. -1.
        -11    1    4    4    0    0 -0.13224304979E+02 -0.19457187336E+02 -0.74458125318E+01  0.24675990471E+02  0.51100000000E-03 0.  1.
         12    1    4    4    0    0  0.38875506040E+01  0.22506650534E+01  0.49756513196E+01  0.67034057713E+01  0.00000000000E+00 0. -1.
</event>
<event>
 8    1  0.2534787E-006  0.9118800E+02  0.7816164E-02  0.1184000E+00
        -11   -1    0    0    0    0  0.00000000000E+00  0.00000000000E+00  0.45593999997E+02  0.45594000000E+02  0.51100000000E-03 0. -1.
         11   -1    0    0    0    0 -0.00000000000E+00 -0.00000000000E+00 -0.45593999997E+02  0.45594000000E+02  0.51100000000E-03 0.  1.
         23    2    1    2    0    0 -0.71054273576E-14  0.00000000000E+00  0.35527136788E-14  0.91188000000E+02  0.91188000000E+02 0.  0.
    9900012    2    3    3    0    0  0.31206716474E+02  0.57081109438E+01 -0.18690612274E+02  0.54367072923E+02  0.39999974343E+02 0.  0.
         12    1    3    3    0    0 -0.31206716474E+02 -0.57081109438E+01  0.18690612274E+02  0.36820927077E+02  0.00000000000E+00 0. -1.
         11    1    4    4    0    0  0.12021476205E+01  0.52084705387E-01  0.37426328841E+00  0.12601368927E+01  0.51100000000E-03 0. -1.
        -11    1    4    4    0    0  0.31371253245E+02 -0.10195392557E+02 -0.16857685671E+02  0.37044339999E+02  0.51100000000E-03 0.  1.
         12    1    4    4    0    0 -0.13666843915E+01  0.15851418795E+02 -0.22071898909E+01  0.16062596031E+02  0.00000000000E+00 0. -1.
</event>
<event>
 8    1  0.2534787E-006  0.9118800E+02  0.7816164E-02  0.1184000E+00
        -11   -1    0    0    0    0  0.00000000000E+00  0.00000000000E+00  0.45593999997E+02  0.45594000000E+02  0.51100000000E-03 0. -1.
         11   -1    0    0    0    0 -0.00000000000E+00 -0.00000000000E+00 -0.45593999997E+02  0.45594000000E+02  0.51100000000E-03 0.  1.
         23    2    1    2    0    0 -0.17763568394E-14  0.00000000000E+00 -0.35527136788E-14  0.91188000000E+02  0.91188000000E+02 0.  0.
    9900012    2    3    3    0    0 -0.91991182442E+01 -0.17507497131E+02 -0.31058726444E+02  0.54367072247E+02  0.39999972801E+02 0.  0.
         12    1    3    3    0    0  0.91991182442E+01  0.17507497131E+02  0.31058726444E+02  0.36820927753E+02  0.00000000000E+00 0. -1.
         11    1    4    4    0    0  0.67202880609E+01 -0.97539154859E+01 -0.44360393977E+01  0.12648303630E+02  0.51100000000E-03 0. -1.
        -11    1    4    4    0    0 -0.76517802641E+01 -0.16663549159E+02 -0.22178520603E+02  0.28776907203E+02  0.51100000000E-03 0.  1.
        -12    1    4    4    0    0 -0.82676260410E+01  0.89099675141E+01 -0.44441664440E+01  0.12941861413E+02  0.00000000000E+00 0.  1.
</event>
<event>
 8    1  0.2534787E-006  0.9118800E+02  0.7816164E-02  0.1184000E+00
        -11   -1    0    0    0    0  0.00000000000E+00  0.00000000000E+00  0.45593999997E+02  0.45594000000E+02  0.51100000000E-03 0. -1.
         11   -1    0    0    0    0 -0.00000000000E+00 -0.00000000000E+00 -0.45593999997E+02  0.45594000000E+02  0.51100000000E-03 0.  1.
         23    2    1    2    0    0 -0.71054273576E-14 -0.35527136788E-14  0.17763568394E-14  0.91188000000E+02  0.91188000000E+02 0.  0.
    9900012    2    3    3    0    0 -0.26663783331E+02 -0.21199120934E+02 -0.13979246126E+02  0.54367090286E+02  0.40000013925E+02 0.  0.
         12    1    3    3    0    0  0.26663783331E+02  0.21199120934E+02  0.13979246126E+02  0.36820909714E+02  0.00000000000E+00 0. -1.
         11    1    4    4    0    0 -0.24507875009E+01  0.12805090070E+01  0.62844978397E+01  0.68659286371E+01  0.51100000000E-03 0. -1.
        -11    1    4    4    0    0  0.55383502973E+01 -0.74098295301E+01 -0.70394402074E+01  0.11624655538E+02  0.51100000000E-03 0.  1.
        -12    1    4    4    0    0 -0.29751346128E+02 -0.15069800411E+02 -0.13224303758E+02  0.35876506111E+02  0.00000000000E+00 0.  1.
</event>
<event>
 8    1  0.2534787E-006  0.9118800E+02  0.7816164E-02  0.1184000E+00
        -11   -1    0    0    0    0  0.00000000000E+00  0.00000000000E+00  0.45593999997E+02  0.45594000000E+02  0.51100000000E-03 0. -1.
         11   -1    0    0    0    0 -0.00000000000E+00 -0.00000000000E+00 -0.45593999997E+02  0.45594000000E+02  0.51100000000E-03 0.  1.
         23    2    1    2    0    0  0.00000000000E+00  0.00000000000E+00  0.00000000000E+00  0.91188000000E+02  0.91188000000E+02 0.  0.
    9900012    2    3    3    0    0  0.20017971119E+02  0.15230097548E+02  0.26890610923E+02  0.54367082102E+02  0.39999995268E+02 0.  0.
        -12    1    3    3    0    0 -0.20017971119E+02 -0.15230097548E+02 -0.26890610923E+02  0.36820917898E+02  0.00000000000E+00 0.  1.
         11    1    4    4    0    0  0.78133029075E+01  0.21718391537E+02  0.36341317012E+01  0.23365426312E+02  0.51100000000E-03 0. -1.
        -11    1    4    4    0    0  0.49590026614E+01 -0.92960210946E+01  0.61171828874E+01  0.12183088374E+02  0.51100000000E-03 0.  1.
         12    1    4    4    0    0  0.72456655497E+01  0.28077271062E+01  0.17139296334E+02  0.18818567416E+02  0.00000000000E+00 0. -1.
</event>
<event>
 8    1  0.2534787E-006  0.9118800E+02  0.7816164E-02  0.1184000E+00
        -11   -1    0    0    0    0  0.00000000000E+00  0.00000000000E+00  0.45593999997E+02  0.45594000000E+02  0.51100000000E-03 0. -1.
         11   -1    0    0    0    0 -0.00000000000E+00 -0.00000000000E+00 -0.45593999997E+02  0.45594000000E+02  0.51100000000E-03 0.  1.
         23    2    1    2    0    0 -0.88817841970E-15  0.00000000000E+00  0.00000000000E+00  0.91188000000E+02  0.91188000000E+02 0.  0.
    9900012    2    3    3    0    0  0.56686613633E+01 -0.19946706262E+02 -0.30426541976E+02  0.54367091959E+02  0.40000017739E+02 0.  0.
         12    1    3    3    0    0 -0.56686613633E+01  0.19946706262E+02  0.30426541976E+02  0.36820908041E+02  0.00000000000E+00 0. -1.
         11    1    4    4    0    0  0.87259574106E+01 -0.92970981128E+01 -0.16905480681E+02  0.21174835144E+02  0.51100000000E-03 0. -1.
        -11    1    4    4    0    0 -0.31003051838E+01 -0.24625584653E+01 -0.21439659567E+02  0.21802180832E+02  0.51100000000E-03 0.  1.
         12    1    4    4    0    0  0.43009136539E-01 -0.81870496842E+01  0.79185982718E+01  0.11390075983E+02  0.00000000000E+00 0. -1.
</event>
<event>
 8    1  0.2534787E-006  0.9118800E+02  0.7816164E-02  0.1184000E+00
        -11   -1    0    0    0    0  0.00000000000E+00  0.00000000000E+00  0.45593999997E+02  0.45594000000E+02  0.51100000000E-03 0.  1.
         11   -1    0    0    0    0 -0.00000000000E+00 -0.00000000000E+00 -0.45593999997E+02  0.45594000000E+02  0.51100000000E-03 0. -1.
         23    2    1    2    0    0 -0.88817841970E-15  0.00000000000E+00  0.71054273576E-14  0.91188000000E+02  0.91188000000E+02 0.  0.
    9900012    2    3    3    0    0  0.31400486296E+01  0.12322985418E+02  0.34555153779E+02  0.54367156342E+02  0.40000164511E+02 0.  0.
         12    1    3    3    0    0 -0.31400486296E+01 -0.12322985418E+02 -0.34555153779E+02  0.36820843658E+02  0.00000000000E+00 0. -1.
         11    1    4    4    0    0  0.13434379664E+02  0.11211994108E+01  0.84694069859E+01  0.15920756892E+02  0.51100000000E-03 0. -1.
        -11    1    4    4    0    0  0.82887445373E+00 -0.58359630298E+01  0.12947304333E+02  0.14225968758E+02  0.51100000000E-03 0.  1.
         12    1    4    4    0    0 -0.11123205488E+02  0.17037749037E+02  0.13138442460E+02  0.24220430691E+02  0.00000000000E+00 0. -1.
</event>
<event>
 8    1  0.2534787E-006  0.9118800E+02  0.7816164E-02  0.1184000E+00
        -11   -1    0    0    0    0  0.00000000000E+00  0.00000000000E+00  0.45593999997E+02  0.45594000000E+02  0.51100000000E-03 0.  1.
         11   -1    0    0    0    0 -0.00000000000E+00 -0.00000000000E+00 -0.45593999997E+02  0.45594000000E+02  0.51100000000E-03 0. -1.
         23    2    1    2    0    0  0.00000000000E+00  0.88817841970E-15  0.00000000000E+00  0.91188000000E+02  0.91188000000E+02 0.  0.
    9900012    2    3    3    0    0 -0.92712005140E+01  0.22169408212E+01  0.35565570330E+02  0.54367085040E+02  0.40000001965E+02 0.  0.
         12    1    3    3    0    0  0.92712005140E+01 -0.22169408212E+01 -0.35565570330E+02  0.36820914960E+02  0.00000000000E+00 0. -1.
         11    1    4    4    0    0  0.58884867488E+01 -0.27572749840E+01  0.23430223697E+02  0.24315678569E+02  0.51100000000E-03 0. -1.
        -11    1    4    4    0    0 -0.42268274463E+01 -0.68834829993E+01  0.11314348446E+02  0.13901902369E+02  0.51100000000E-03 0.  1.
        -12    1    4    4    0    0 -0.10932859816E+02  0.11857698805E+02  0.82099818742E+00  0.16149504102E+02  0.00000000000E+00 0.  1.
</event>
<event>
 8    1  0.2534787E-006  0.9118800E+02  0.7816164E-02  0.1184000E+00
        -11   -1    0    0    0    0  0.00000000000E+00  0.00000000000E+00  0.45593999997E+02  0.45594000000E+02  0.51100000000E-03 0. -1.
         11   -1    0    0    0    0 -0.00000000000E+00 -0.00000000000E+00 -0.45593999997E+02  0.45594000000E+02  0.51100000000E-03 0.  1.
         23    2    1    2    0    0 -0.35527136788E-14  0.00000000000E+00 -0.17763568394E-14  0.91188000000E+02  0.91188000000E+02 0.  0.
    9900012    2    3    3    0    0  0.20581327314E+02 -0.28243822617E+02  0.11596331318E+02  0.54367089499E+02  0.40000012131E+02 0.  0.
        -12    1    3    3    0    0 -0.20581327314E+02  0.28243822617E+02 -0.11596331318E+02  0.36820910501E+02  0.00000000000E+00 0.  1.
         11    1    4    4    0    0  0.46873080389E+01 -0.65979389358E+01  0.10696336028E+01  0.81638086184E+01  0.51100000000E-03 0. -1.
        -11    1    4    4    0    0  0.18345293185E+02 -0.22278704027E+01 -0.71648049846E+01  0.19820383935E+02  0.51100000000E-03 0.  1.
         12    1    4    4    0    0 -0.24512739100E+01 -0.19418013279E+02  0.17691502700E+02  0.26382896946E+02  0.00000000000E+00 0. -1.
</event>
<event>
 8    1  0.2534787E-006  0.9118800E+02  0.7816164E-02  0.1184000E+00
        -11   -1    0    0    0    0  0.00000000000E+00  0.00000000000E+00  0.45593999997E+02  0.45594000000E+02  0.51100000000E-03 0. -1.
         11   -1    0    0    0    0 -0.00000000000E+00 -0.00000000000E+00 -0.45593999997E+02  0.45594000000E+02  0.51100000000E-03 0.  1.
         23    2    1    2    0    0  0.00000000000E+00 -0.88817841970E-15 -0.35527136788E-14  0.91188000000E+02  0.91188000000E+02 0.  0.
    9900012    2    3    3    0    0 -0.27344661466E+02 -0.22479877531E+01 -0.24555982396E+02  0.54367078894E+02  0.39999987956E+02 0.  0.
         12    1    3    3    0    0  0.27344661466E+02  0.22479877531E+01  0.24555982396E+02  0.36820921106E+02  0.00000000000E+00 0. -1.
         11    1    4    4    0    0  0.20748722973E+01  0.96191211726E+00  0.33279239932E+01  0.40380005371E+01  0.51100000000E-03 0. -1.
        -11    1    4    4    0    0 -0.47760811596E+01 -0.13425007686E+02 -0.47543441445E+01  0.15021503624E+02  0.51100000000E-03 0.  1.
        -12    1    4    4    0    0 -0.24643452603E+02  0.10215107816E+02 -0.23129562245E+02  0.35307574733E+02  0.00000000000E+00 0.  1.
</event>
<event>
 8    1  0.2534787E-006  0.9118800E+02  0.7816164E-02  0.1184000E+00
        -11   -1    0    0    0    0  0.00000000000E+00  0.00000000000E+00  0.45593999997E+02  0.45594000000E+02  0.51100000000E-03 0.  1.
         11   -1    0    0    0    0 -0.00000000000E+00 -0.00000000000E+00 -0.45593999997E+02  0.45594000000E+02  0.51100000000E-03 0. -1.
         23    2    1    2    0    0 -0.35527136788E-14  0.00000000000E+00  0.00000000000E+00  0.91188000000E+02  0.91188000000E+02 0.  0.
    9900012    2    3    3    0    0 -0.26826721129E+02 -0.23907112817E+02  0.80347645108E+01  0.54367075915E+02  0.39999981163E+02 0.  0.
         12    1    3    3    0    0  0.26826721129E+02  0.23907112817E+02 -0.80347645108E+01  0.36820924085E+02  0.00000000000E+00 0. -1.
         11    1    4    4    0    0  0.68727976347E+00  0.65307916073E+01  0.46436136412E+01  0.80428067490E+01  0.51100000000E-03 0. -1.
        -11    1    4    4    0    0 -0.15380934400E+02 -0.94618965737E+01  0.10729362273E+02  0.21005233749E+02  0.51100000000E-03 0.  1.
         12    1    4    4    0    0 -0.12133066492E+02 -0.20976007851E+02 -0.73382114037E+01  0.25319035417E+02  0.00000000000E+00 0. -1.
</event>
<event>
 8    1  0.2534787E-006  0.9118800E+02  0.7816164E-02  0.1184000E+00
        -11   -1    0    0    0    0  0.00000000000E+00  0.00000000000E+00  0.45593999997E+02  0.45594000000E+02  0.51100000000E-03 0. -1.
         11   -1    0    0    0    0 -0.00000000000E+00 -0.00000000000E+00 -0.45593999997E+02  0.45594000000E+02  0.51100000000E-03 0.  1.
         23    2    1    2    0    0  0.00000000000E+00  0.00000000000E+00 -0.35527136788E-14  0.91188000000E+02  0.91188000000E+02 0.  0.
    9900012    2    3    3    0    0  0.88871985281E+01 -0.24385981549E+02 -0.26117454208E+02  0.54367084638E+02  0.40000001049E+02 0.  0.
        -12    1    3    3    0    0 -0.88871985281E+01  0.24385981549E+02  0.26117454208E+02  0.36820915362E+02  0.00000000000E+00 0.  1.
         11    1    4    4    0    0 -0.66864652221E+01 -0.61558590053E+01 -0.10425464244E+02  0.13830897376E+02  0.51100000000E-03 0. -1.
        -11    1    4    4    0    0 -0.54414414816E+01  0.25889522366E+01  0.16477900604E+01  0.62471730747E+01  0.51100000000E-03 0.  1.
         12    1    4    4    0    0  0.21015105232E+02 -0.20819074781E+02 -0.17339780025E+02  0.34289014187E+02  0.00000000000E+00 0. -1.
</event>
<event>
 8    1  0.2534787E-006  0.9118800E+02  0.7816164E-02  0.1184000E+00
        -11   -1    0    0    0    0  0.00000000000E+00  0.00000000000E+00  0.45593999997E+02  0.45594000000E+02  0.51100000000E-03 0.  1.
         11   -1    0    0    0    0 -0.00000000000E+00 -0.00000000000E+00 -0.45593999997E+02  0.45594000000E+02  0.51100000000E-03 0. -1.
         23    2    1    2    0    0  0.88817841970E-15  0.71054273576E-14  0.00000000000E+00  0.91188000000E+02  0.91188000000E+02 0.  0.
    9900012    2    3    3    0    0 -0.33453361324E+01 -0.34698475627E+02 -0.11857650392E+02  0.54367090757E+02  0.40000014998E+02 0.  0.
         12    1    3    3    0    0  0.33453361324E+01  0.34698475627E+02  0.11857650392E+02  0.36820909243E+02  0.00000000000E+00 0. -1.
         11    1    4    4    0    0 -0.49294470655E+01  0.65029480208E+01 -0.31946536162E+01  0.87631953831E+01  0.51100000000E-03 0. -1.
        -11    1    4    4    0    0  0.95989423946E+00 -0.34522371908E+02 -0.13763103629E+02  0.37177124430E+02  0.51100000000E-03 0.  1.
        -12    1    4    4    0    0  0.62421669364E+00 -0.66790517398E+01  0.51001068535E+01  0.84267709439E+01  0.00000000000E+00 0.  1.
</event>
<event>
 8    1  0.2534787E-006  0.9118800E+02  0.7816164E-02  0.1184000E+00
        -11   -1    0    0    0    0  0.00000000000E+00  0.00000000000E+00  0.45593999997E+02  0.45594000000E+02  0.51100000000E-03 0.  1.
         11   -1    0    0    0    0 -0.00000000000E+00 -0.00000000000E+00 -0.45593999997E+02  0.45594000000E+02  0.51100000000E-03 0. -1.
         23    2    1    2    0    0 -0.71054273576E-14  0.00000000000E+00 -0.17763568394E-14  0.91188000000E+02  0.91188000000E+02 0.  0.
    9900012    2    3    3    0    0 -0.35467157587E+02  0.20752591298E+01 -0.96723610396E+01  0.54367074755E+02  0.39999978520E+02 0.  0.
        -12    1    3    3    0    0  0.35467157587E+02 -0.20752591298E+01  0.96723610396E+01  0.36820925245E+02  0.00000000000E+00 0.  1.
         11    1    4    4    0    0 -0.10813722155E+02  0.44854523711E+01  0.21923952641E+01  0.11910603137E+02  0.51100000000E-03 0. -1.
        -11    1    4    4    0    0 -0.19868600127E+02 -0.43015051503E+01  0.80672717696E+01  0.21871101747E+02  0.51100000000E-03 0.  1.
         12    1    4    4    0    0 -0.47848353048E+01  0.18913119089E+01 -0.19932028073E+02  0.20585369872E+02  0.00000000000E+00 0. -1.
</event>
<event>
 8    1  0.2534787E-006  0.9118800E+02  0.7816164E-02  0.1184000E+00
        -11   -1    0    0    0    0  0.00000000000E+00  0.00000000000E+00  0.45593999997E+02  0.45594000000E+02  0.51100000000E-03 0. -1.
         11   -1    0    0    0    0 -0.00000000000E+00 -0.00000000000E+00 -0.45593999997E+02  0.45594000000E+02  0.51100000000E-03 0.  1.
         23    2    1    2    0    0  0.00000000000E+00  0.00000000000E+00  0.00000000000E+00  0.91188000000E+02  0.91188000000E+02 0.  0.
    9900012    2    3    3    0    0  0.15250500407E+02  0.82844455360E+01 -0.32474140095E+02  0.54367087798E+02  0.40000008252E+02 0.  0.
         12    1    3    3    0    0 -0.15250500407E+02 -0.82844455360E+01  0.32474140095E+02  0.36820912202E+02  0.00000000000E+00 0. -1.
         11    1    4    4    0    0  0.13737736222E+02 -0.95413520818E+01 -0.10688229051E+02  0.19849459352E+02  0.51100000000E-03 0. -1.
        -11    1    4    4    0    0 -0.36777976058E+01 -0.66127484562E+00 -0.12767966993E+02  0.13303550694E+02  0.51100000000E-03 0.  1.
         12    1    4    4    0    0  0.51905617910E+01  0.18487072463E+02 -0.90179440503E+01  0.21214077752E+02  0.00000000000E+00 0. -1.
</event>
<event>
 8    1  0.2534787E-006  0.9118800E+02  0.7816164E-02  0.1184000E+00
        -11   -1    0    0    0    0  0.00000000000E+00  0.00000000000E+00  0.45593999997E+02  0.45594000000E+02  0.51100000000E-03 0. -1.
         11   -1    0    0    0    0 -0.00000000000E+00 -0.00000000000E+00 -0.45593999997E+02  0.45594000000E+02  0.51100000000E-03 0.  1.
         23    2    1    2    0    0  0.00000000000E+00  0.35527136788E-14  0.35527136788E-14  0.91188000000E+02  0.91188000000E+02 0.  0.
    9900012    2    3    3    0    0  0.33622939410E+01  0.19278059225E+02  0.31190252770E+02  0.54367075841E+02  0.39999980996E+02 0.  0.
        -12    1    3    3    0    0 -0.33622939410E+01 -0.19278059225E+02 -0.31190252770E+02  0.36820924159E+02  0.00000000000E+00 0.  1.
         11    1    4    4    0    0  0.12819516162E+01  0.12058859596E+02  0.72970097175E+01  0.14152944774E+02  0.51100000000E-03 0. -1.
        -11    1    4    4    0    0  0.31003641881E+01  0.17909998934E+02  0.56317250574E+01  0.19028837255E+02  0.51100000000E-03 0.  1.
         12    1    4    4    0    0 -0.10200218633E+01 -0.10690799305E+02  0.18261517995E+02  0.21185293812E+02  0.00000000000E+00 0. -1.
</event>
<event>
 8    1  0.2534787E-006  0.9118800E+02  0.7816164E-02  0.1184000E+00
        -11   -1    0    0    0    0  0.00000000000E+00  0.00000000000E+00  0.45593999997E+02  0.45594000000E+02  0.51100000000E-03 0. -1.
         11   -1    0    0    0    0 -0.00000000000E+00 -0.00000000000E+00 -0.45593999997E+02  0.45594000000E+02  0.51100000000E-03 0.  1.
         23    2    1    2    0    0 -0.35527136788E-14  0.00000000000E+00 -0.88817841970E-15  0.91188000000E+02  0.91188000000E+02 0.  0.
    9900012    2    3    3    0    0 -0.29722814815E+02 -0.21091191021E+02 -0.52438515668E+01  0.54367054351E+02  0.39999932005E+02 0.  0.
        -12    1    3    3    0    0  0.29722814815E+02  0.21091191021E+02  0.52438515668E+01  0.36820945649E+02  0.00000000000E+00 0.  1.
         11    1    4    4    0    0 -0.96768966277E+01 -0.20909010284E+02  0.64413109089E+01  0.23923200578E+02  0.51100000000E-03 0. -1.
        -11    1    4    4    0    0 -0.81111446682E+01 -0.81263449571E+01 -0.11288351678E+02  0.16101398512E+02  0.51100000000E-03 0.  1.
        -12    1    4    4    0    0 -0.11934773519E+02  0.79441642202E+01 -0.39681079786E+00  0.14342455261E+02  0.00000000000E+00 0.  1.
</event>
<event>
 8    1  0.2534787E-006  0.9118800E+02  0.7816164E-02  0.1184000E+00
        -11   -1    0    0    0    0  0.00000000000E+00  0.00000000000E+00  0.45593999997E+02  0.45594000000E+02  0.51100000000E-03 0.  1.
         11   -1    0    0    0    0 -0.00000000000E+00 -0.00000000000E+00 -0.45593999997E+02  0.45594000000E+02  0.51100000000E-03 0. -1.
         23    2    1    2    0    0  0.88817841970E-15  0.00000000000E+00 -0.88817841970E-15  0.91188000000E+02  0.91188000000E+02 0.  0.
    9900012    2    3    3    0    0 -0.53317037381E+01 -0.36249753900E+02 -0.36479660702E+01  0.54367090465E+02  0.40000014332E+02 0.  0.
        -12    1    3    3    0    0  0.53317037381E+01  0.36249753900E+02  0.36479660702E+01  0.36820909535E+02  0.00000000000E+00 0.  1.
         11    1    4    4    0    0 -0.13331091409E+02 -0.11691496377E+02 -0.38043895199E+01  0.18135116916E+02  0.51100000000E-03 0. -1.
        -11    1    4    4    0    0  0.41396308317E+01 -0.26691709224E+02 -0.69297045578E+01  0.27885564191E+02  0.51100000000E-03 0.  1.
        -12    1    4    4    0    0  0.38597568391E+01  0.21334517012E+01  0.70861280075E+01  0.83464093572E+01  0.00000000000E+00 0.  1.
</event>
<event>
 8    1  0.2534787E-006  0.9118800E+02  0.7816164E-02  0.1184000E+00
        -11   -1    0    0    0    0  0.00000000000E+00  0.00000000000E+00  0.45593999997E+02  0.45594000000E+02  0.51100000000E-03 0. -1.
         11   -1    0    0    0    0 -0.00000000000E+00 -0.00000000000E+00 -0.45593999997E+02  0.45594000000E+02  0.51100000000E-03 0.  1.
         23    2    1    2    0    0  0.00000000000E+00  0.00000000000E+00  0.00000000000E+00  0.91188000000E+02  0.91188000000E+02 0.  0.
    9900012    2    3    3    0    0 -0.29537209077E+02  0.21075905739E+02  0.62561043859E+01  0.54367090657E+02  0.40000014770E+02 0.  0.
        -12    1    3    3    0    0  0.29537209077E+02 -0.21075905739E+02 -0.62561043859E+01  0.36820909343E+02  0.00000000000E+00 0.  1.
         11    1    4    4    0    0 -0.35359253397E+02  0.96052538174E+01  0.40653046667E+01  0.36865490692E+02  0.51100000000E-03 0. -1.
        -11    1    4    4    0    0  0.44377459777E+01  0.16676921881E+01  0.53131379756E+01  0.71206897142E+01  0.51100000000E-03 0.  1.
         12    1    4    4    0    0  0.13842983421E+01  0.98029597337E+01 -0.31223382565E+01  0.10380910250E+02  0.00000000000E+00 0. -1.
</event>
<event>
 8    1  0.2534787E-006  0.9118800E+02  0.7816164E-02  0.1184000E+00
        -11   -1    0    0    0    0  0.00000000000E+00  0.00000000000E+00  0.45593999997E+02  0.45594000000E+02  0.51100000000E-03 0.  1.
         11   -1    0    0    0    0 -0.00000000000E+00 -0.00000000000E+00 -0.45593999997E+02  0.45594000000E+02  0.51100000000E-03 0. -1.
         23    2    1    2    0    0  0.00000000000E+00  0.55511151231E-15  0.00000000000E+00  0.91188000000E+02  0.91188000000E+02 0.  0.
    9900012    2    3    3    0    0  0.12293720107E+02 -0.88454513358E+00  0.34696716986E+02  0.54367080079E+02  0.39999990657E+02 0.  0.
         12    1    3    3    0    0 -0.12293720107E+02  0.88454513358E+00 -0.34696716986E+02  0.36820919921E+02  0.00000000000E+00 0. -1.
         11    1    4    4    0    0  0.97550015075E+01  0.30240237500E+01 -0.21934586798E+01  0.10445862113E+02  0.51100000000E-03 0. -1.
        -11    1    4    4    0    0  0.26777141142E+01  0.95497926318E+01  0.20001527280E+02  0.22325541113E+02  0.51100000000E-03 0.  1.
         12    1    4    4    0    0 -0.13899551430E+00 -0.13458361515E+02  0.16888648386E+02  0.21595676853E+02  0.00000000000E+00 0. -1.
</event>
<event>
 8    1  0.2534787E-006  0.9118800E+02  0.7816164E-02  0.1184000E+00
        -11   -1    0    0    0    0  0.00000000000E+00  0.00000000000E+00  0.45593999997E+02  0.45594000000E+02  0.51100000000E-03 0.  1.
         11   -1    0    0    0    0 -0.00000000000E+00 -0.00000000000E+00 -0.45593999997E+02  0.45594000000E+02  0.51100000000E-03 0. -1.
         23    2    1    2    0    0 -0.35527136788E-14  0.00000000000E+00  0.35527136788E-14  0.91188000000E+02  0.91188000000E+02 0.  0.
    9900012    2    3    3    0    0 -0.20381593918E+02  0.16602677702E+01  0.30620251490E+02  0.54367276745E+02  0.40000438993E+02 0.  0.
         12    1    3    3    0    0  0.20381593918E+02 -0.16602677702E+01 -0.30620251490E+02  0.36820723255E+02  0.00000000000E+00 0. -1.
         11    1    4    4    0    0 -0.16082238933E+02  0.50961101853E+01 -0.25296340386E+01  0.17058950634E+02  0.51100000000E-03 0. -1.
        -11    1    4    4    0    0 -0.42719861192E+01  0.37899988292E+01  0.27633508063E+02  0.28217454255E+02  0.51100000000E-03 0.  1.
         12    1    4    4    0    0 -0.27368865891E-01 -0.72258412442E+01  0.55163774659E+01  0.90908718552E+01  0.00000000000E+00 0. -1.
</event>
<event>
 8    1  0.2534787E-006  0.9118800E+02  0.7816164E-02  0.1184000E+00
        -11   -1    0    0    0    0  0.00000000000E+00  0.00000000000E+00  0.45593999997E+02  0.45594000000E+02  0.51100000000E-03 0.  1.
         11   -1    0    0    0    0 -0.00000000000E+00 -0.00000000000E+00 -0.45593999997E+02  0.45594000000E+02  0.51100000000E-03 0. -1.
         23    2    1    2    0    0 -0.17763568394E-14  0.00000000000E+00  0.00000000000E+00  0.91188000000E+02  0.91188000000E+02 0.  0.
    9900012    2    3    3    0    0  0.11090957420E+02  0.60060591638E+01 -0.34593328065E+02  0.54367076196E+02  0.39999981804E+02 0.  0.
        -12    1    3    3    0    0 -0.11090957420E+02 -0.60060591638E+01  0.34593328065E+02  0.36820923804E+02  0.00000000000E+00 0.  1.
         11    1    4    4    0    0 -0.40774823840E+01  0.40537336176E+01 -0.74904255802E+00  0.57982483432E+01  0.51100000000E-03 0. -1.
        -11    1    4    4    0    0  0.91918497854E+01  0.64550729957E+01  0.24626276812E+01  0.11498808861E+02  0.51100000000E-03 0.  1.
         12    1    4    4    0    0  0.59765900185E+01 -0.45027474496E+01 -0.36306913188E+02  0.37070018992E+02  0.00000000000E+00 0. -1.
</event>
<event>
 8    1  0.2534787E-006  0.9118800E+02  0.7816164E-02  0.1184000E+00
        -11   -1    0    0    0    0  0.00000000000E+00  0.00000000000E+00  0.45593999997E+02  0.45594000000E+02  0.51100000000E-03 0.  1.
         11   -1    0    0    0    0 -0.00000000000E+00 -0.00000000000E+00 -0.45593999997E+02  0.45594000000E+02  0.51100000000E-03 0. -1.
         23    2    1    2    0    0 -0.44408920985E-15  0.00000000000E+00  0.00000000000E+00  0.91188000000E+02  0.91188000000E+02 0.  0.
    9900012    2    3    3    0    0  0.32940744897E+01  0.36406574440E+02  0.44147165273E+01  0.54367091385E+02  0.40000016431E+02 0.  0.
        -12    1    3    3    0    0 -0.32940744897E+01 -0.36406574440E+02 -0.44147165273E+01  0.36820908615E+02  0.00000000000E+00 0.  1.
         11    1    4    4    0    0  0.46684034708E+00  0.82213222438E+01 -0.13965907991E+01  0.83521581323E+01  0.51100000000E-03 0. -1.
        -11    1    4    4    0    0  0.18811110229E+02  0.20782086180E+02  0.36219794471E+01  0.28264318662E+02  0.51100000000E-03 0.  1.
        -12    1    4    4    0    0 -0.15983876086E+02  0.74031660160E+01  0.21893278792E+01  0.17750614591E+02  0.00000000000E+00 0.  1.
</event>
<event>
 8    1  0.2534787E-006  0.9118800E+02  0.7816164E-02  0.1184000E+00
        -11   -1    0    0    0    0  0.00000000000E+00  0.00000000000E+00  0.45593999997E+02  0.45594000000E+02  0.51100000000E-03 0. -1.
         11   -1    0    0    0    0 -0.00000000000E+00 -0.00000000000E+00 -0.45593999997E+02  0.45594000000E+02  0.51100000000E-03 0.  1.
         23    2    1    2    0    0 -0.60715321659E-15 -0.88817841970E-15  0.00000000000E+00  0.91188000000E+02  0.91188000000E+02 0.  0.
    9900012    2    3    3    0    0 -0.88212641248E-02 -0.64992024529E+01 -0.36242734615E+02  0.54367142830E+02  0.40000133710E+02 0.  0.
         12    1    3    3    0    0  0.88212641248E-02  0.64992024529E+01  0.36242734615E+02  0.36820857170E+02  0.00000000000E+00 0. -1.
         11    1    4    4    0    0 -0.13005895037E+02  0.47914589130E+01 -0.13167362876E+02  0.19117814457E+02  0.51100000000E-03 0. -1.
        -11    1    4    4    0    0  0.94248681417E+01  0.34542465080E+01 -0.15037942680E+02  0.18080367218E+02  0.51100000000E-03 0.  1.
        -12    1    4    4    0    0  0.35722056312E+01 -0.14744907874E+02 -0.80374290593E+01  0.17168961156E+02  0.00000000000E+00 0.  1.
</event>
<event>
 8    1  0.2534787E-006  0.9118800E+02  0.7816164E-02  0.1184000E+00
        -11   -1    0    0    0    0  0.00000000000E+00  0.00000000000E+00  0.45593999997E+02  0.45594000000E+02  0.51100000000E-03 0. -1.
         11   -1    0    0    0    0 -0.00000000000E+00 -0.00000000000E+00 -0.45593999997E+02  0.45594000000E+02  0.51100000000E-03 0.  1.
         23    2    1    2    0    0 -0.17763568394E-14  0.00000000000E+00  0.00000000000E+00  0.91188000000E+02  0.91188000000E+02 0.  0.
    9900012    2    3    3    0    0 -0.13545911307E+02 -0.65658495463E+01 -0.33603244720E+02  0.54367080007E+02  0.39999990491E+02 0.  0.
         12    1    3    3    0    0  0.13545911307E+02  0.65658495463E+01  0.33603244720E+02  0.36820919993E+02  0.00000000000E+00 0. -1.
         11    1    4    4    0    0 -0.22449237042E+02 -0.73623210234E+01 -0.20124630044E+02  0.31035024557E+02  0.51100000000E-03 0. -1.
        -11    1    4    4    0    0 -0.35485019329E+01 -0.12300758189E+01 -0.93206414885E+01  0.10048846228E+02  0.51100000000E-03 0.  1.
         12    1    4    4    0    0  0.12451827667E+02  0.20265472959E+01 -0.41579731880E+01  0.13283209222E+02  0.00000000000E+00 0. -1.
</event>
<event>
 8    1  0.2534787E-006  0.9118800E+02  0.7816164E-02  0.1184000E+00
        -11   -1    0    0    0    0  0.00000000000E+00  0.00000000000E+00  0.45593999997E+02  0.45594000000E+02  0.51100000000E-03 0.  1.
         11   -1    0    0    0    0 -0.00000000000E+00 -0.00000000000E+00 -0.45593999997E+02  0.45594000000E+02  0.51100000000E-03 0. -1.
         23    2    1    2    0    0  0.00000000000E+00 -0.35527136788E-14  0.00000000000E+00  0.91188000000E+02  0.91188000000E+02 0.  0.
    9900012    2    3    3    0    0  0.32315590183E+02 -0.17288343478E+02 -0.35490475993E+01  0.54367083010E+02  0.39999997338E+02 0.  0.
         12    1    3    3    0    0 -0.32315590183E+02  0.17288343478E+02  0.35490475993E+01  0.36820916990E+02  0.00000000000E+00 0. -1.
         11    1    4    4    0    0  0.17856229008E+02  0.90958521145E+01 -0.33817669274E+01  0.20322789865E+02  0.51100000000E-03 0. -1.
        -11    1    4    4    0    0  0.74789412107E+01 -0.62269670800E+01 -0.66058750163E+01  0.11762111445E+02  0.51100000000E-03 0.  1.
        -12    1    4    4    0    0  0.69804199642E+01 -0.20157228513E+02  0.64385943444E+01  0.22282181700E+02  0.00000000000E+00 0.  1.
</event>
<event>
 8    1  0.2534787E-006  0.9118800E+02  0.7816164E-02  0.1184000E+00
        -11   -1    0    0    0    0  0.00000000000E+00  0.00000000000E+00  0.45593999997E+02  0.45594000000E+02  0.51100000000E-03 0.  1.
         11   -1    0    0    0    0 -0.00000000000E+00 -0.00000000000E+00 -0.45593999997E+02  0.45594000000E+02  0.51100000000E-03 0. -1.
         23    2    1    2    0    0  0.00000000000E+00  0.00000000000E+00  0.35527136788E-14  0.91188000000E+02  0.91188000000E+02 0.  0.
    9900012    2    3    3    0    0 -0.14000312559E+02 -0.13292626015E+02  0.31354078751E+02  0.54367069641E+02  0.39999966862E+02 0.  0.
         12    1    3    3    0    0  0.14000312559E+02  0.13292626015E+02 -0.31354078751E+02  0.36820930359E+02  0.00000000000E+00 0. -1.
         11    1    4    4    0    0  0.41295847484E+01  0.15605726413E+01  0.49327904891E+00  0.44420920347E+01  0.51100000000E-03 0. -1.
        -11    1    4    4    0    0 -0.94790953417E+01 -0.24235918366E+02  0.17003094711E+02  0.31085981046E+02  0.51100000000E-03 0.  1.
        -12    1    4    4    0    0 -0.86508019654E+01  0.93827197100E+01  0.13857704991E+02  0.18838996561E+02  0.00000000000E+00 0.  1.
</event>
<event>
 8    1  0.2534787E-006  0.9118800E+02  0.7816164E-02  0.1184000E+00
        -11   -1    0    0    0    0  0.00000000000E+00  0.00000000000E+00  0.45593999997E+02  0.45594000000E+02  0.51100000000E-03 0. -1.
         11   -1    0    0    0    0 -0.00000000000E+00 -0.00000000000E+00 -0.45593999997E+02  0.45594000000E+02  0.51100000000E-03 0.  1.
         23    2    1    2    0    0  0.00000000000E+00  0.00000000000E+00  0.35527136788E-14  0.91188000000E+02  0.91188000000E+02 0.  0.
    9900012    2    3    3    0    0  0.97052547565E+01 -0.30107110373E+02  0.18845429770E+02  0.54367078119E+02  0.39999986189E+02 0.  0.
        -12    1    3    3    0    0 -0.97052547565E+01  0.30107110373E+02 -0.18845429770E+02  0.36820921881E+02  0.00000000000E+00 0.  1.
         11    1    4    4    0    0 -0.19149025617E+01 -0.21476525267E+02  0.11495445359E+02  0.24434673184E+02  0.51100000000E-03 0. -1.
        -11    1    4    4    0    0  0.34833400937E+01 -0.37382533282E+01  0.16179372686E+02  0.16967035596E+02  0.51100000000E-03 0.  1.
        -12    1    4    4    0    0  0.81368172245E+01 -0.48923317780E+01 -0.88293882751E+01  0.12965369339E+02  0.00000000000E+00 0.  1.
</event>
<event>
 8    1  0.2534787E-006  0.9118800E+02  0.7816164E-02  0.1184000E+00
        -11   -1    0    0    0    0  0.00000000000E+00  0.00000000000E+00  0.45593999997E+02  0.45594000000E+02  0.51100000000E-03 0. -1.
         11   -1    0    0    0    0 -0.00000000000E+00 -0.00000000000E+00 -0.45593999997E+02  0.45594000000E+02  0.51100000000E-03 0.  1.
         23    2    1    2    0    0 -0.35527136788E-14  0.44408920985E-15 -0.35527136788E-14  0.91188000000E+02  0.91188000000E+02 0.  0.
    9900012    2    3    3    0    0  0.25203592390E+02 -0.37951139030E+01  0.26573569325E+02  0.54367101782E+02  0.40000040133E+02 0.  0.
        -12    1    3    3    0    0 -0.25203592390E+02  0.37951139030E+01 -0.26573569325E+02  0.36820898218E+02  0.00000000000E+00 0.  1.
         11    1    4    4    0    0  0.91524031226E+01  0.28747528611E+01  0.11400482442E+02  0.14899721041E+02  0.51100000000E-03 0. -1.
        -11    1    4    4    0    0  0.28032307392E+01 -0.67331215734E+01  0.22966649903E+02  0.24096888528E+02  0.51100000000E-03 0.  1.
        -12    1    4    4    0    0  0.13247958528E+02  0.63254809209E-01 -0.77935630201E+01  0.15370492213E+02  0.00000000000E+00 0.  1.
</event>
<event>
 8    1  0.2534787E-006  0.9118800E+02  0.7816164E-02  0.1184000E+00
        -11   -1    0    0    0    0  0.00000000000E+00  0.00000000000E+00  0.45593999997E+02  0.45594000000E+02  0.51100000000E-03 0.  1.
         11   -1    0    0    0    0 -0.00000000000E+00 -0.00000000000E+00 -0.45593999997E+02  0.45594000000E+02  0.51100000000E-03 0. -1.
         23    2    1    2    0    0  0.00000000000E+00  0.00000000000E+00  0.88817841970E-15  0.91188000000E+02  0.91188000000E+02 0.  0.
    9900012    2    3    3    0    0 -0.32545100610E+02 -0.16996782189E+02 -0.27759664079E+01  0.54367079750E+02  0.39999989907E+02 0.  0.
        -12    1    3    3    0    0  0.32545100610E+02  0.16996782189E+02  0.27759664079E+01  0.36820920250E+02  0.00000000000E+00 0.  1.
         11    1    4    4    0    0 -0.14226370616E+02  0.89593881292E+01 -0.10400206563E+01  0.16844640091E+02  0.51100000000E-03 0. -1.
        -11    1    4    4    0    0 -0.17928399355E+02 -0.26581407211E+02  0.34835970062E+01  0.32251111005E+02  0.51100000000E-03 0.  1.
        -12    1    4    4    0    0 -0.39033063886E+00  0.62523689205E+00 -0.52195427578E+01  0.52713286541E+01  0.00000000000E+00 0.  1.
</event>
<event>
 8    1  0.2534787E-006  0.9118800E+02  0.7816164E-02  0.1184000E+00
        -11   -1    0    0    0    0  0.00000000000E+00  0.00000000000E+00  0.45593999997E+02  0.45594000000E+02  0.51100000000E-03 0. -1.
         11   -1    0    0    0    0 -0.00000000000E+00 -0.00000000000E+00 -0.45593999997E+02  0.45594000000E+02  0.51100000000E-03 0.  1.
         23    2    1    2    0    0  0.00000000000E+00 -0.88817841970E-15  0.00000000000E+00  0.91188000000E+02  0.91188000000E+02 0.  0.
    9900012    2    3    3    0    0 -0.20914340331E+02 -0.26596577952E+01  0.30187737772E+02  0.54367042342E+02  0.39999904626E+02 0.  0.
        -12    1    3    3    0    0  0.20914340331E+02  0.26596577952E+01 -0.30187737772E+02  0.36820957658E+02  0.00000000000E+00 0.  1.
         11    1    4    4    0    0 -0.14671466723E+02 -0.12627182435E+01  0.14212039961E+02  0.20465299248E+02  0.51100000000E-03 0.  1.
        -11    1    4    4    0    0  0.43854041000E+01 -0.10926034339E+02  0.15700673178E+02  0.19624503408E+02  0.51100000000E-03 0. -1.
        -12    1    4    4    0    0 -0.10628277708E+02  0.95290947870E+01  0.27502463253E+00  0.14277239686E+02  0.00000000000E+00 0.  1.
</event>
<event>
 8    1  0.2534787E-006  0.9118800E+02  0.7816164E-02  0.1184000E+00
        -11   -1    0    0    0    0  0.00000000000E+00  0.00000000000E+00  0.45593999997E+02  0.45594000000E+02  0.51100000000E-03 0.  1.
         11   -1    0    0    0    0 -0.00000000000E+00 -0.00000000000E+00 -0.45593999997E+02  0.45594000000E+02  0.51100000000E-03 0. -1.
         23    2    1    2    0    0 -0.88817841970E-15  0.17763568394E-14  0.00000000000E+00  0.91188000000E+02  0.91188000000E+02 0.  0.
    9900012    2    3    3    0    0  0.71996676254E+01  0.14562615872E+02  0.33043515767E+02  0.54367096573E+02  0.40000028256E+02 0.  0.
         12    1    3    3    0    0 -0.71996676254E+01 -0.14562615872E+02 -0.33043515767E+02  0.36820903427E+02  0.00000000000E+00 0. -1.
         11    1    4    4    0    0  0.14369178951E+02  0.37535109046E+01  0.60624692368E+00  0.14863703557E+02  0.51100000000E-03 0. -1.
        -11    1    4    4    0    0 -0.67623051346E+01  0.29728213488E+01  0.30553234956E+02  0.31433526752E+02  0.51100000000E-03 0.  1.
         12    1    4    4    0    0 -0.40720619103E+00  0.78362836183E+01  0.18840338878E+01  0.80698662640E+01  0.00000000000E+00 0. -1.
</event>
<event>
 8    1  0.2534787E-006  0.9118800E+02  0.7816164E-02  0.1184000E+00
        -11   -1    0    0    0    0  0.00000000000E+00  0.00000000000E+00  0.45593999997E+02  0.45594000000E+02  0.51100000000E-03 0. -1.
         11   -1    0    0    0    0 -0.00000000000E+00 -0.00000000000E+00 -0.45593999997E+02  0.45594000000E+02  0.51100000000E-03 0.  1.
         23    2    1    2    0    0  0.00000000000E+00  0.00000000000E+00  0.00000000000E+00  0.91188000000E+02  0.91188000000E+02 0.  0.
    9900012    2    3    3    0    0 -0.27182777310E+02 -0.85664277107E+01 -0.23312958992E+02  0.54367066783E+02  0.39999960344E+02 0.  0.
         12    1    3    3    0    0  0.27182777310E+02  0.85664277107E+01  0.23312958992E+02  0.36820933217E+02  0.00000000000E+00 0. -1.
         11    1    4    4    0    0 -0.79638146205E+01 -0.72489128851E+01 -0.66723825131E+01  0.12668455707E+02  0.51100000000E-03 0.  1.
        -11    1    4    4    0    0  0.75122907625E+01  0.56384685554E+01  0.11259698157E+00  0.93935892231E+01  0.51100000000E-03 0. -1.
        -12    1    4    4    0    0 -0.26731253452E+02 -0.69559833810E+01 -0.16753173461E+02  0.32305021853E+02  0.00000000000E+00 0.  1.
</event>
<event>
 8    1  0.2534787E-006  0.9118800E+02  0.7816164E-02  0.1184000E+00
        -11   -1    0    0    0    0  0.00000000000E+00  0.00000000000E+00  0.45593999997E+02  0.45594000000E+02  0.51100000000E-03 0.  1.
         11   -1    0    0    0    0 -0.00000000000E+00 -0.00000000000E+00 -0.45593999997E+02  0.45594000000E+02  0.51100000000E-03 0. -1.
         23    2    1    2    0    0  0.00000000000E+00  0.44408920985E-15 -0.33306690739E-15  0.91188000000E+02  0.91188000000E+02 0.  0.
    9900012    2    3    3    0    0 -0.36748560495E+02 -0.21447895377E+01  0.85132094921E+00  0.54367060740E+02  0.39999946569E+02 0.  0.
         12    1    3    3    0    0  0.36748560495E+02  0.21447895377E+01 -0.85132094921E+00  0.36820939260E+02  0.00000000000E+00 0. -1.
         11    1    4    4    0    0 -0.78328386621E+01 -0.10748718830E+02 -0.12154060981E+02  0.18016923061E+02  0.51100000000E-03 0.  1.
        -11    1    4    4    0    0  0.10008208394E+00 -0.38503125496E+00 -0.23011702687E+01  0.23353051958E+01  0.51100000000E-03 0. -1.
        -12    1    4    4    0    0 -0.29015803917E+02  0.89889605468E+01  0.15306552199E+02  0.34014832484E+02  0.00000000000E+00 0.  1.
</event>
<event>
 8    1  0.2534787E-006  0.9118800E+02  0.7816164E-02  0.1184000E+00
        -11   -1    0    0    0    0  0.00000000000E+00  0.00000000000E+00  0.45593999997E+02  0.45594000000E+02  0.51100000000E-03 0. -1.
         11   -1    0    0    0    0 -0.00000000000E+00 -0.00000000000E+00 -0.45593999997E+02  0.45594000000E+02  0.51100000000E-03 0.  1.
         23    2    1    2    0    0  0.00000000000E+00  0.00000000000E+00  0.00000000000E+00  0.91188000000E+02  0.91188000000E+02 0.  0.
    9900012    2    3    3    0    0  0.28057145850E+02 -0.81849261482E+01  0.22396053297E+02  0.54367086750E+02  0.40000005863E+02 0.  0.
        -12    1    3    3    0    0 -0.28057145850E+02  0.81849261482E+01 -0.22396053297E+02  0.36820913250E+02  0.00000000000E+00 0.  1.
         11    1    4    4    0    0  0.17219160291E+02  0.34840298622E+01  0.12295910487E+02  0.21443585525E+02  0.51100000000E-03 0. -1.
        -11    1    4    4    0    0  0.11481634408E+02  0.32312302176E+01  0.13093684919E+02  0.17711955353E+02  0.51100000000E-03 0.  1.
        -12    1    4    4    0    0 -0.64364884911E+00 -0.14900186228E+02 -0.29935421080E+01  0.15211545872E+02  0.00000000000E+00 0.  1.
</event>
<event>
 8    1  0.2534787E-006  0.9118800E+02  0.7816164E-02  0.1184000E+00
        -11   -1    0    0    0    0  0.00000000000E+00  0.00000000000E+00  0.45593999997E+02  0.45594000000E+02  0.51100000000E-03 0.  1.
         11   -1    0    0    0    0 -0.00000000000E+00 -0.00000000000E+00 -0.45593999997E+02  0.45594000000E+02  0.51100000000E-03 0. -1.
         23    2    1    2    0    0  0.35527136788E-14  0.00000000000E+00 -0.88817841970E-15  0.91188000000E+02  0.91188000000E+02 0.  0.
    9900012    2    3    3    0    0 -0.29981394657E+02 -0.20779788912E+02  0.50095682682E+01  0.54367089812E+02  0.40000012845E+02 0.  0.
         12    1    3    3    0    0  0.29981394657E+02  0.20779788912E+02 -0.50095682682E+01  0.36820910188E+02  0.00000000000E+00 0. -1.
         11    1    4    4    0    0  0.13977547426E+01 -0.18299144621E+01  0.27495828662E+01  0.35864343655E+01  0.51100000000E-03 0. -1.
        -11    1    4    4    0    0 -0.17090231637E+02 -0.34754688802E-01 -0.13951606904E+02  0.22061834936E+02  0.51100000000E-03 0.  1.
        -12    1    4    4    0    0 -0.14288917763E+02 -0.18915119761E+02  0.16211592306E+02  0.28718820511E+02  0.00000000000E+00 0.  1.
</event>
<event>
 8    1  0.2534787E-006  0.9118800E+02  0.7816164E-02  0.1184000E+00
        -11   -1    0    0    0    0  0.00000000000E+00  0.00000000000E+00  0.45593999997E+02  0.45594000000E+02  0.51100000000E-03 0. -1.
         11   -1    0    0    0    0 -0.00000000000E+00 -0.00000000000E+00 -0.45593999997E+02  0.45594000000E+02  0.51100000000E-03 0.  1.
         23    2    1    2    0    0  0.00000000000E+00  0.00000000000E+00  0.00000000000E+00  0.91188000000E+02  0.91188000000E+02 0.  0.
    9900012    2    3    3    0    0 -0.20430038133E+02 -0.19552015623E+02 -0.23581991728E+02  0.54367107739E+02  0.40000053712E+02 0.  0.
         12    1    3    3    0    0  0.20430038133E+02  0.19552015623E+02  0.23581991728E+02  0.36820892261E+02  0.00000000000E+00 0. -1.
         11    1    4    4    0    0 -0.42646773087E+01 -0.20724206048E+02 -0.13980821315E+02  0.25360275112E+02  0.51100000000E-03 0. -1.
        -11    1    4    4    0    0 -0.47352972490E+01 -0.73749940220E+01 -0.11660122924E+02  0.14586707775E+02  0.51100000000E-03 0.  1.
         12    1    4    4    0    0 -0.11430063575E+02  0.85471844461E+01  0.20589525108E+01  0.14420124851E+02  0.00000000000E+00 0. -1.
</event>
<event>
 8    1  0.2534787E-006  0.9118800E+02  0.7816164E-02  0.1184000E+00
        -11   -1    0    0    0    0  0.00000000000E+00  0.00000000000E+00  0.45593999997E+02  0.45594000000E+02  0.51100000000E-03 0.  1.
         11   -1    0    0    0    0 -0.00000000000E+00 -0.00000000000E+00 -0.45593999997E+02  0.45594000000E+02  0.51100000000E-03 0. -1.
         23    2    1    2    0    0  0.00000000000E+00  0.35527136788E-14 -0.35527136788E-14  0.91188000000E+02  0.91188000000E+02 0.  0.
    9900012    2    3    3    0    0  0.21745216149E+02  0.16465323608E+02 -0.24734957768E+02  0.54367089600E+02  0.40000012361E+02 0.  0.
        -12    1    3    3    0    0 -0.21745216149E+02 -0.16465323608E+02  0.24734957768E+02  0.36820910400E+02  0.00000000000E+00 0.  1.
         11    1    4    4    0    0  0.10989010457E+02  0.12514840975E+02 -0.57460208372E+01  0.17618068884E+02  0.51100000000E-03 0. -1.
        -11    1    4    4    0    0  0.19371897321E+01  0.52878565037E+01 -0.25237566143E+02  0.25858245794E+02  0.51100000000E-03 0.  1.
        -12    1    4    4    0    0  0.88190159599E+01 -0.13373738710E+01  0.62486292124E+01  0.10890774922E+02  0.00000000000E+00 0.  1.
</event>
<event>
 8    1  0.2534787E-006  0.9118800E+02  0.7816164E-02  0.1184000E+00
        -11   -1    0    0    0    0  0.00000000000E+00  0.00000000000E+00  0.45593999997E+02  0.45594000000E+02  0.51100000000E-03 0. -1.
         11   -1    0    0    0    0 -0.00000000000E+00 -0.00000000000E+00 -0.45593999997E+02  0.45594000000E+02  0.51100000000E-03 0.  1.
         23    2    1    2    0    0  0.71054273576E-14  0.00000000000E+00 -0.17763568394E-14  0.91188000000E+02  0.91188000000E+02 0.  0.
    9900012    2    3    3    0    0 -0.30945326168E+02  0.13649190460E+02  0.14555649220E+02  0.54367074752E+02  0.39999978513E+02 0.  0.
         12    1    3    3    0    0  0.30945326168E+02 -0.13649190460E+02 -0.14555649220E+02  0.36820925248E+02  0.00000000000E+00 0. -1.
         11    1    4    4    0    0  0.40945261708E+01 -0.28373784042E+01  0.25190770368E+01  0.55822585170E+01  0.51100000000E-03 0. -1.
        -11    1    4    4    0    0 -0.88123581720E+00 -0.59248688331E+01 -0.60180912568E+00  0.60202011378E+01  0.51100000000E-03 0.  1.
        -12    1    4    4    0    0 -0.34158616522E+02  0.22411437697E+02  0.12638381309E+02  0.42764615098E+02  0.00000000000E+00 0.  1.
</event>
<event>
 8    1  0.2534787E-006  0.9118800E+02  0.7816164E-02  0.1184000E+00
        -11   -1    0    0    0    0  0.00000000000E+00  0.00000000000E+00  0.45593999997E+02  0.45594000000E+02  0.51100000000E-03 0.  1.
         11   -1    0    0    0    0 -0.00000000000E+00 -0.00000000000E+00 -0.45593999997E+02  0.45594000000E+02  0.51100000000E-03 0. -1.
         23    2    1    2    0    0  0.17763568394E-14  0.00000000000E+00  0.71054273576E-14  0.91188000000E+02  0.91188000000E+02 0.  0.
    9900012    2    3    3    0    0  0.60103677752E+01 -0.57912852585E+01  0.35862468502E+02  0.54367079957E+02  0.39999990378E+02 0.  0.
         12    1    3    3    0    0 -0.60103677752E+01  0.57912852585E+01 -0.35862468502E+02  0.36820920043E+02  0.00000000000E+00 0. -1.
         11    1    4    4    0    0  0.12638765296E+02 -0.21963664306E+01  0.59637389442E+01  0.14146681454E+02  0.51100000000E-03 0. -1.
        -11    1    4    4    0    0 -0.18425114226E+01  0.11109122154E+02  0.14913098053E+02  0.18687106174E+02  0.51100000000E-03 0.  1.
         12    1    4    4    0    0 -0.47858860977E+01 -0.14704040981E+02  0.14985631506E+02  0.21533292330E+02  0.00000000000E+00 0. -1.
</event>
<event>
 8    1  0.2534787E-006  0.9118800E+02  0.7816164E-02  0.1184000E+00
        -11   -1    0    0    0    0  0.00000000000E+00  0.00000000000E+00  0.45593999997E+02  0.45594000000E+02  0.51100000000E-03 0. -1.
         11   -1    0    0    0    0 -0.00000000000E+00 -0.00000000000E+00 -0.45593999997E+02  0.45594000000E+02  0.51100000000E-03 0.  1.
         23    2    1    2    0    0  0.00000000000E+00  0.00000000000E+00  0.35527136788E-14  0.91188000000E+02  0.91188000000E+02 0.  0.
    9900012    2    3    3    0    0 -0.31889821806E+02 -0.10095900706E+02 -0.15391324255E+02  0.54367071057E+02  0.39999970089E+02 0.  0.
         12    1    3    3    0    0  0.31889821806E+02  0.10095900706E+02  0.15391324255E+02  0.36820928943E+02  0.00000000000E+00 0. -1.
         11    1    4    4    0    0 -0.35668413066E+02 -0.10190700224E+02 -0.84226094717E+00  0.37105194589E+02  0.51100000000E-03 0. -1.
        -11    1    4    4    0    0  0.24070340232E+01 -0.33736930556E+01 -0.29747811448E+01  0.51014645685E+01  0.51100000000E-03 0.  1.
         12    1    4    4    0    0  0.13715572363E+01  0.34684925741E+01 -0.11574282163E+02  0.12160411900E+02  0.00000000000E+00 0. -1.
</event>
<event>
 8    1  0.2534787E-006  0.9118800E+02  0.7816164E-02  0.1184000E+00
        -11   -1    0    0    0    0  0.00000000000E+00  0.00000000000E+00  0.45593999997E+02  0.45594000000E+02  0.51100000000E-03 0. -1.
         11   -1    0    0    0    0 -0.00000000000E+00 -0.00000000000E+00 -0.45593999997E+02  0.45594000000E+02  0.51100000000E-03 0.  1.
         23    2    1    2    0    0  0.35527136788E-14  0.00000000000E+00  0.00000000000E+00  0.91188000000E+02  0.91188000000E+02 0.  0.
    9900012    2    3    3    0    0 -0.25457544789E+02 -0.21169525541E+02 -0.16110389859E+02  0.54367081221E+02  0.39999993259E+02 0.  0.
         12    1    3    3    0    0  0.25457544789E+02  0.21169525541E+02  0.16110389859E+02  0.36820918779E+02  0.00000000000E+00 0. -1.
         11    1    4    4    0    0  0.25892063830E+01 -0.37300896897E+01 -0.13226730021E+01  0.47293787032E+01  0.51100000000E-03 0. -1.
        -11    1    4    4    0    0 -0.14833047459E+01 -0.19878797634E+02 -0.19355291881E+01  0.20027807215E+02  0.51100000000E-03 0.  1.
        -12    1    4    4    0    0 -0.26563446426E+02  0.24393617829E+01 -0.12852187669E+02  0.29609895302E+02  0.00000000000E+00 0.  1.
</event>
<event>
 8    1  0.2534787E-006  0.9118800E+02  0.7816164E-02  0.1184000E+00
        -11   -1    0    0    0    0  0.00000000000E+00  0.00000000000E+00  0.45593999997E+02  0.45594000000E+02  0.51100000000E-03 0.  1.
         11   -1    0    0    0    0 -0.00000000000E+00 -0.00000000000E+00 -0.45593999997E+02  0.45594000000E+02  0.51100000000E-03 0. -1.
         23    2    1    2    0    0  0.71054273576E-14 -0.35527136788E-14 -0.17763568394E-14  0.91188000000E+02  0.91188000000E+02 0.  0.
    9900012    2    3    3    0    0  0.27344213132E+02 -0.21442792589E+02 -0.12176690113E+02  0.54367202508E+02  0.40000269757E+02 0.  0.
        -12    1    3    3    0    0 -0.27344213132E+02  0.21442792589E+02  0.12176690113E+02  0.36820797492E+02  0.00000000000E+00 0.  1.
         11    1    4    4    0    0  0.17835389283E+02 -0.73726031217E+01 -0.13265751522E+02  0.23418722240E+02  0.51100000000E-03 0. -1.
        -11    1    4    4    0    0  0.23767761032E+01  0.72360762947E+01  0.34406070934E+01  0.83574901866E+01  0.51100000000E-03 0.  1.
        -12    1    4    4    0    0  0.71320477463E+01 -0.21306265761E+02 -0.23515456848E+01  0.22590990082E+02  0.00000000000E+00 0.  1.
</event>
<event>
 8    1  0.2534787E-006  0.9118800E+02  0.7816164E-02  0.1184000E+00
        -11   -1    0    0    0    0  0.00000000000E+00  0.00000000000E+00  0.45593999997E+02  0.45594000000E+02  0.51100000000E-03 0. -1.
         11   -1    0    0    0    0 -0.00000000000E+00 -0.00000000000E+00 -0.45593999997E+02  0.45594000000E+02  0.51100000000E-03 0.  1.
         23    2    1    2    0    0  0.00000000000E+00  0.27755575616E-15  0.00000000000E+00  0.91188000000E+02  0.91188000000E+02 0.  0.
    9900012    2    3    3    0    0 -0.35604838420E+02 -0.42507417270E+00  0.93749457435E+01  0.54367152445E+02  0.40000155629E+02 0.  0.
        -12    1    3    3    0    0  0.35604838420E+02  0.42507417270E+00 -0.93749457435E+01  0.36820847555E+02  0.00000000000E+00 0.  1.
         11    1    4    4    0    0  0.35504979994E+00  0.13233845331E+01  0.13385176272E+02  0.13455123599E+02  0.51100000000E-03 0.  1.
        -11    1    4    4    0    0 -0.12910243311E+02  0.64629544748E+01  0.43105071531E+01  0.15067336694E+02  0.51100000000E-03 0. -1.
         12    1    4    4    0    0 -0.23049644909E+02 -0.82114131806E+01 -0.83207376812E+01  0.25844692152E+02  0.00000000000E+00 0. -1.
</event>
<event>
 8    1  0.2534787E-006  0.9118800E+02  0.7816164E-02  0.1184000E+00
        -11   -1    0    0    0    0  0.00000000000E+00  0.00000000000E+00  0.45593999997E+02  0.45594000000E+02  0.51100000000E-03 0. -1.
         11   -1    0    0    0    0 -0.00000000000E+00 -0.00000000000E+00 -0.45593999997E+02  0.45594000000E+02  0.51100000000E-03 0.  1.
         23    2    1    2    0    0  0.00000000000E+00  0.00000000000E+00  0.00000000000E+00  0.91188000000E+02  0.91188000000E+02 0.  0.
    9900012    2    3    3    0    0  0.28902376706E+02  0.84735896218E+01  0.21180811310E+02  0.54367138141E+02  0.40000123019E+02 0.  0.
        -12    1    3    3    0    0 -0.28902376706E+02 -0.84735896218E+01 -0.21180811310E+02  0.36820861859E+02  0.00000000000E+00 0.  1.
         11    1    4    4    0    0  0.84457551719E+01  0.50975598824E+01 -0.72950541010E+00  0.98918186186E+01  0.51100000000E-03 0. -1.
        -11    1    4    4    0    0  0.38901371515E+01  0.42107858242E+01  0.26621505987E+02  0.27231754728E+02  0.51100000000E-03 0.  1.
        -12    1    4    4    0    0  0.16566484382E+02 -0.83475608480E+00 -0.47111892665E+01  0.17243564794E+02  0.00000000000E+00 0.  1.
</event>
<event>
 8    1  0.2534787E-006  0.9118800E+02  0.7816164E-02  0.1184000E+00
        -11   -1    0    0    0    0  0.00000000000E+00  0.00000000000E+00  0.45593999997E+02  0.45594000000E+02  0.51100000000E-03 0.  1.
         11   -1    0    0    0    0 -0.00000000000E+00 -0.00000000000E+00 -0.45593999997E+02  0.45594000000E+02  0.51100000000E-03 0. -1.
         23    2    1    2    0    0  0.00000000000E+00 -0.17763568394E-14  0.00000000000E+00  0.91188000000E+02  0.91188000000E+02 0.  0.
    9900012    2    3    3    0    0  0.97652205647E+01 -0.11383136996E+02  0.33628036539E+02  0.54367079560E+02  0.39999989473E+02 0.  0.
         12    1    3    3    0    0 -0.97652205647E+01  0.11383136996E+02 -0.33628036539E+02  0.36820920440E+02  0.00000000000E+00 0. -1.
         11    1    4    4    0    0 -0.14114851466E+01  0.13271109529E+01 -0.74609021851E+01  0.77083445354E+01  0.51100000000E-03 0. -1.
        -11    1    4    4    0    0  0.72360099065E+01  0.12419325661E+01  0.10550890054E+02  0.12853930024E+02  0.51100000000E-03 0.  1.
        -12    1    4    4    0    0  0.39406958048E+01 -0.13952180515E+02  0.30538048671E+02  0.33804805001E+02  0.00000000000E+00 0.  1.
</event>
<event>
 8    1  0.2534787E-006  0.9118800E+02  0.7816164E-02  0.1184000E+00
        -11   -1    0    0    0    0  0.00000000000E+00  0.00000000000E+00  0.45593999997E+02  0.45594000000E+02  0.51100000000E-03 0. -1.
         11   -1    0    0    0    0 -0.00000000000E+00 -0.00000000000E+00 -0.45593999997E+02  0.45594000000E+02  0.51100000000E-03 0.  1.
         23    2    1    2    0    0 -0.71054273576E-14 -0.17763568394E-14  0.00000000000E+00  0.91188000000E+02  0.91188000000E+02 0.  0.
    9900012    2    3    3    0    0  0.33411467433E+02 -0.14354998715E+02 -0.57787737327E+01  0.54366995533E+02  0.39999797916E+02 0.  0.
         12    1    3    3    0    0 -0.33411467433E+02  0.14354998715E+02  0.57787737327E+01  0.36821004467E+02  0.00000000000E+00 0. -1.
         11    1    4    4    0    0  0.52457711670E+01 -0.10916298476E+02 -0.49036103989E+01  0.13066333945E+02  0.51100000000E-03 0. -1.
        -11    1    4    4    0    0  0.36708551387E+01  0.87499066335E+01 -0.86688656550E+01  0.12852442396E+02  0.51100000000E-03 0.  1.
         12    1    4    4    0    0  0.24494841127E+02 -0.12188606873E+02  0.77937023212E+01  0.28448219192E+02  0.00000000000E+00 0. -1.
</event>
<event>
 8    1  0.2534787E-006  0.9118800E+02  0.7816164E-02  0.1184000E+00
        -11   -1    0    0    0    0  0.00000000000E+00  0.00000000000E+00  0.45593999997E+02  0.45594000000E+02  0.51100000000E-03 0. -1.
         11   -1    0    0    0    0 -0.00000000000E+00 -0.00000000000E+00 -0.45593999997E+02  0.45594000000E+02  0.51100000000E-03 0.  1.
         23    2    1    2    0    0  0.35527136788E-14 -0.35527136788E-14  0.17763568394E-14  0.91188000000E+02  0.91188000000E+02 0.  0.
    9900012    2    3    3    0    0 -0.23564285405E+02 -0.23569583531E+02 -0.15651846279E+02  0.54367067008E+02  0.39999960858E+02 0.  0.
        -12    1    3    3    0    0  0.23564285405E+02  0.23569583531E+02  0.15651846279E+02  0.36820932992E+02  0.00000000000E+00 0.  1.
         11    1    4    4    0    0 -0.12918878296E+02 -0.81394490300E+01 -0.18941151131E+02  0.24329308527E+02  0.51100000000E-03 0. -1.
        -11    1    4    4    0    0  0.17825205134E+01 -0.10076624219E+02 -0.75360254243E+01  0.12708556743E+02  0.51100000000E-03 0.  1.
         12    1    4    4    0    0 -0.12427927622E+02 -0.53535102819E+01  0.10825330276E+02  0.17329201739E+02  0.00000000000E+00 0. -1.
</event>
<event>
 8    1  0.2534787E-006  0.9118800E+02  0.7816164E-02  0.1184000E+00
        -11   -1    0    0    0    0  0.00000000000E+00  0.00000000000E+00  0.45593999997E+02  0.45594000000E+02  0.51100000000E-03 0. -1.
         11   -1    0    0    0    0 -0.00000000000E+00 -0.00000000000E+00 -0.45593999997E+02  0.45594000000E+02  0.51100000000E-03 0.  1.
         23    2    1    2    0    0  0.00000000000E+00  0.00000000000E+00 -0.11102230246E-14  0.91188000000E+02  0.91188000000E+02 0.  0.
    9900012    2    3    3    0    0 -0.35577352721E+02  0.93719370104E+01 -0.14828913733E+01  0.54367079360E+02  0.39999989017E+02 0.  0.
         12    1    3    3    0    0  0.35577352721E+02 -0.93719370104E+01  0.14828913733E+01  0.36820920640E+02  0.00000000000E+00 0. -1.
         11    1    4    4    0    0 -0.51995487317E+01  0.56896267043E+01  0.38335960324E+01  0.86083458253E+01  0.51100000000E-03 0. -1.
        -11    1    4    4    0    0 -0.12443205315E+02 -0.22432345851E+01  0.13916094211E+02  0.18802210994E+02  0.51100000000E-03 0.  1.
         12    1    4    4    0    0 -0.17934598674E+02  0.59255448913E+01 -0.19232581616E+02  0.26956522541E+02  0.00000000000E+00 0. -1.
</event>
<event>
 8    1  0.2534787E-006  0.9118800E+02  0.7816164E-02  0.1184000E+00
        -11   -1    0    0    0    0  0.00000000000E+00  0.00000000000E+00  0.45593999997E+02  0.45594000000E+02  0.51100000000E-03 0.  1.
         11   -1    0    0    0    0 -0.00000000000E+00 -0.00000000000E+00 -0.45593999997E+02  0.45594000000E+02  0.51100000000E-03 0. -1.
         23    2    1    2    0    0  0.00000000000E+00  0.00000000000E+00  0.00000000000E+00  0.91188000000E+02  0.91188000000E+02 0.  0.
    9900012    2    3    3    0    0  0.22441188059E+02 -0.19095290239E+02  0.22080368206E+02  0.54367086229E+02  0.40000004677E+02 0.  0.
         12    1    3    3    0    0 -0.22441188059E+02  0.19095290239E+02 -0.22080368206E+02  0.36820913771E+02  0.00000000000E+00 0. -1.
         11    1    4    4    0    0 -0.18406507167E+01  0.47717389331E+01 -0.13287139683E+01  0.52842188238E+01  0.51100000000E-03 0. -1.
        -11    1    4    4    0    0  0.28552429304E+02 -0.14776231737E+02  0.13177018847E+02  0.34744957468E+02  0.51100000000E-03 0.  1.
        -12    1    4    4    0    0 -0.42705905276E+01 -0.90907974351E+01  0.10232063326E+02  0.14337909938E+02  0.00000000000E+00 0.  1.
</event>
<event>
 8    1  0.2534787E-006  0.9118800E+02  0.7816164E-02  0.1184000E+00
        -11   -1    0    0    0    0  0.00000000000E+00  0.00000000000E+00  0.45593999997E+02  0.45594000000E+02  0.51100000000E-03 0. -1.
         11   -1    0    0    0    0 -0.00000000000E+00 -0.00000000000E+00 -0.45593999997E+02  0.45594000000E+02  0.51100000000E-03 0.  1.
         23    2    1    2    0    0  0.17763568394E-14  0.00000000000E+00  0.35527136788E-14  0.91188000000E+02  0.91188000000E+02 0.  0.
    9900012    2    3    3    0    0  0.80354222889E+01  0.27683107607E+02 -0.22909764910E+02  0.54367084933E+02  0.40000001721E+02 0.  0.
         12    1    3    3    0    0 -0.80354222889E+01 -0.27683107607E+02  0.22909764910E+02  0.36820915067E+02  0.00000000000E+00 0. -1.
         11    1    4    4    0    0 -0.60869262227E+01 -0.55470863736E+01  0.23768354866E+00  0.82387700421E+01  0.51100000000E-03 0. -1.
        -11    1    4    4    0    0  0.11449766859E+02  0.98823298358E+01 -0.35667502153E+01  0.15539604611E+02  0.51100000000E-03 0.  1.
         12    1    4    4    0    0  0.26725816522E+01  0.23347864145E+02 -0.19580698244E+02  0.30588710279E+02  0.00000000000E+00 0. -1.
</event>
<event>
 8    1  0.2534787E-006  0.9118800E+02  0.7816164E-02  0.1184000E+00
        -11   -1    0    0    0    0  0.00000000000E+00  0.00000000000E+00  0.45593999997E+02  0.45594000000E+02  0.51100000000E-03 0.  1.
         11   -1    0    0    0    0 -0.00000000000E+00 -0.00000000000E+00 -0.45593999997E+02  0.45594000000E+02  0.51100000000E-03 0. -1.
         23    2    1    2    0    0  0.00000000000E+00 -0.35527136788E-14  0.00000000000E+00  0.91188000000E+02  0.91188000000E+02 0.  0.
    9900012    2    3    3    0    0 -0.17573756894E+02 -0.19643533347E+02 -0.25711367027E+02  0.54367085724E+02  0.40000003524E+02 0.  0.
        -12    1    3    3    0    0  0.17573756894E+02  0.19643533347E+02  0.25711367027E+02  0.36820914276E+02  0.00000000000E+00 0.  1.
         11    1    4    4    0    0  0.15013752448E+01 -0.36685513710E+01  0.30301352751E+00  0.39754514519E+01  0.51100000000E-03 0. -1.
        -11    1    4    4    0    0 -0.22675903510E+01  0.11078061386E+02 -0.66900739338E+01  0.13138588188E+02  0.51100000000E-03 0.  1.
        -12    1    4    4    0    0 -0.16807541788E+02 -0.27053043363E+02 -0.19324306621E+02  0.37253046084E+02  0.00000000000E+00 0.  1.
</event>
<event>
 8    1  0.2534787E-006  0.9118800E+02  0.7816164E-02  0.1184000E+00
        -11   -1    0    0    0    0  0.00000000000E+00  0.00000000000E+00  0.45593999997E+02  0.45594000000E+02  0.51100000000E-03 0. -1.
         11   -1    0    0    0    0 -0.00000000000E+00 -0.00000000000E+00 -0.45593999997E+02  0.45594000000E+02  0.51100000000E-03 0.  1.
         23    2    1    2    0    0  0.00000000000E+00 -0.71054273576E-14  0.35527136788E-14  0.91188000000E+02  0.91188000000E+02 0.  0.
    9900012    2    3    3    0    0 -0.26418140968E+01  0.25949941204E+02 -0.25988501720E+02  0.54367070465E+02  0.39999968738E+02 0.  0.
         12    1    3    3    0    0  0.26418140968E+01 -0.25949941204E+02  0.25988501720E+02  0.36820929535E+02  0.00000000000E+00 0. -1.
         11    1    4    4    0    0 -0.14065038594E+02  0.67885504984E+01  0.29740767611E+01  0.15898265986E+02  0.51100000000E-03 0. -1.
        -11    1    4    4    0    0  0.75796399541E+01  0.17140011949E+02 -0.15491264036E+02  0.24314814685E+02  0.51100000000E-03 0.  1.
         12    1    4    4    0    0  0.38435845434E+01  0.20213787567E+01 -0.13471314444E+02  0.14153989794E+02  0.00000000000E+00 0. -1.
</event>
<event>
 8    1  0.2534787E-006  0.9118800E+02  0.7816164E-02  0.1184000E+00
        -11   -1    0    0    0    0  0.00000000000E+00  0.00000000000E+00  0.45593999997E+02  0.45594000000E+02  0.51100000000E-03 0. -1.
         11   -1    0    0    0    0 -0.00000000000E+00 -0.00000000000E+00 -0.45593999997E+02  0.45594000000E+02  0.51100000000E-03 0.  1.
         23    2    1    2    0    0  0.00000000000E+00 -0.44408920985E-15  0.00000000000E+00  0.91188000000E+02  0.91188000000E+02 0.  0.
    9900012    2    3    3    0    0 -0.32591200634E+02 -0.35776348685E+01  0.16756925884E+02  0.54367076667E+02  0.39999982877E+02 0.  0.
        -12    1    3    3    0    0  0.32591200634E+02  0.35776348685E+01 -0.16756925884E+02  0.36820923333E+02  0.00000000000E+00 0.  1.
         11    1    4    4    0    0 -0.15801905643E+02 -0.68873290197E+01  0.78410827754E+01  0.18937214746E+02  0.51100000000E-03 0. -1.
        -11    1    4    4    0    0 -0.22239064844E+02  0.66864450860E+01 -0.14213755171E+01  0.23265959289E+02  0.51100000000E-03 0.  1.
        -12    1    4    4    0    0  0.54497698525E+01 -0.33767509348E+01  0.10337218626E+02  0.12163902632E+02  0.00000000000E+00 0.  1.
</event>
<event>
 8    1  0.2534787E-006  0.9118800E+02  0.7816164E-02  0.1184000E+00
        -11   -1    0    0    0    0  0.00000000000E+00  0.00000000000E+00  0.45593999997E+02  0.45594000000E+02  0.51100000000E-03 0.  1.
         11   -1    0    0    0    0 -0.00000000000E+00 -0.00000000000E+00 -0.45593999997E+02  0.45594000000E+02  0.51100000000E-03 0. -1.
         23    2    1    2    0    0  0.00000000000E+00 -0.88817841970E-15  0.71054273576E-14  0.91188000000E+02  0.91188000000E+02 0.  0.
    9900012    2    3    3    0    0  0.13082591512E+02  0.42280829020E+01 -0.34157617711E+02  0.54367167128E+02  0.40000189102E+02 0.  0.
        -12    1    3    3    0    0 -0.13082591512E+02 -0.42280829020E+01  0.34157617711E+02  0.36820832872E+02  0.00000000000E+00 0.  1.
         11    1    4    4    0    0  0.89313028370E+01 -0.75931759229E+01 -0.54671883315E+01  0.12935016021E+02  0.51100000000E-03 0. -1.
        -11    1    4    4    0    0  0.76765598645E+00  0.90221143649E+01  0.29232778751E+01  0.95149039471E+01  0.51100000000E-03 0.  1.
         12    1    4    4    0    0  0.33836326887E+01  0.27991444600E+01 -0.31613707254E+02  0.31917247160E+02  0.00000000000E+00 0. -1.
</event>
<event>
 8    1  0.2534787E-006  0.9118800E+02  0.7816164E-02  0.1184000E+00
        -11   -1    0    0    0    0  0.00000000000E+00  0.00000000000E+00  0.45593999997E+02  0.45594000000E+02  0.51100000000E-03 0. -1.
         11   -1    0    0    0    0 -0.00000000000E+00 -0.00000000000E+00 -0.45593999997E+02  0.45594000000E+02  0.51100000000E-03 0.  1.
         23    2    1    2    0    0  0.00000000000E+00  0.35527136788E-14  0.00000000000E+00  0.91188000000E+02  0.91188000000E+02 0.  0.
    9900012    2    3    3    0    0 -0.27061589286E+02  0.14432415845E+02  0.20375394426E+02  0.54367069270E+02  0.39999966015E+02 0.  0.
        -12    1    3    3    0    0  0.27061589286E+02 -0.14432415845E+02 -0.20375394426E+02  0.36820930730E+02  0.00000000000E+00 0.  1.
         11    1    4    4    0    0 -0.56202413379E+01  0.10766995370E+02  0.15987345697E+02  0.20077612524E+02  0.51100000000E-03 0. -1.
        -11    1    4    4    0    0 -0.18958728869E+02  0.43952706534E+00  0.14183961234E+02  0.23681455633E+02  0.51100000000E-03 0.  1.
        -12    1    4    4    0    0 -0.24826190794E+01  0.32258934101E+01 -0.97959125053E+01  0.10608001112E+02  0.00000000000E+00 0.  1.
</event>
<event>
 8    1  0.2534787E-006  0.9118800E+02  0.7816164E-02  0.1184000E+00
        -11   -1    0    0    0    0  0.00000000000E+00  0.00000000000E+00  0.45593999997E+02  0.45594000000E+02  0.51100000000E-03 0. -1.
         11   -1    0    0    0    0 -0.00000000000E+00 -0.00000000000E+00 -0.45593999997E+02  0.45594000000E+02  0.51100000000E-03 0.  1.
         23    2    1    2    0    0  0.88817841970E-15 -0.35527136788E-14  0.00000000000E+00  0.91188000000E+02  0.91188000000E+02 0.  0.
    9900012    2    3    3    0    0  0.67082791086E+01 -0.26781939788E+02  0.24362017439E+02  0.54367065722E+02  0.39999957927E+02 0.  0.
        -12    1    3    3    0    0 -0.67082791086E+01  0.26781939788E+02 -0.24362017439E+02  0.36820934278E+02  0.00000000000E+00 0.  1.
         11    1    4    4    0    0  0.96993759525E+01  0.27828398946E+01  0.91291571857E+01  0.13607483343E+02  0.51100000000E-03 0. -1.
        -11    1    4    4    0    0  0.88390436586E+01 -0.57045682308E+01  0.10119252697E+01  0.10568575330E+02  0.51100000000E-03 0.  1.
         12    1    4    4    0    0 -0.11830140502E+02 -0.23860211452E+02  0.14220934983E+02  0.30191007049E+02  0.00000000000E+00 0. -1.
</event>
<event>
 8    1  0.2534787E-006  0.9118800E+02  0.7816164E-02  0.1184000E+00
        -11   -1    0    0    0    0  0.00000000000E+00  0.00000000000E+00  0.45593999997E+02  0.45594000000E+02  0.51100000000E-03 0.  1.
         11   -1    0    0    0    0 -0.00000000000E+00 -0.00000000000E+00 -0.45593999997E+02  0.45594000000E+02  0.51100000000E-03 0. -1.
         23    2    1    2    0    0  0.00000000000E+00 -0.88817841970E-15  0.66613381478E-15  0.91188000000E+02  0.91188000000E+02 0.  0.
    9900012    2    3    3    0    0 -0.36507642378E+02 -0.47268182383E+01  0.79361288073E+00  0.54367074101E+02  0.39999977029E+02 0.  0.
        -12    1    3    3    0    0  0.36507642378E+02  0.47268182383E+01 -0.79361288073E+00  0.36820925899E+02  0.00000000000E+00 0.  1.
         11    1    4    4    0    0 -0.81912303879E+01  0.90167308446E+01  0.48402321307E+01  0.13108224049E+02  0.51100000000E-03 0. -1.
        -11    1    4    4    0    0 -0.11557623371E+02  0.10169416860E+01  0.96242681265E+01  0.15074460707E+02  0.51100000000E-03 0.  1.
         12    1    4    4    0    0 -0.16758788619E+02 -0.14760490769E+02 -0.13670887377E+02  0.26184389345E+02  0.00000000000E+00 0. -1.
</event>
<event>
 8    1  0.2534787E-006  0.9118800E+02  0.7816164E-02  0.1184000E+00
        -11   -1    0    0    0    0  0.00000000000E+00  0.00000000000E+00  0.45593999997E+02  0.45594000000E+02  0.51100000000E-03 0. -1.
         11   -1    0    0    0    0 -0.00000000000E+00 -0.00000000000E+00 -0.45593999997E+02  0.45594000000E+02  0.51100000000E-03 0.  1.
         23    2    1    2    0    0 -0.35527136788E-14  0.44408920985E-15 -0.35527136788E-14  0.91188000000E+02  0.91188000000E+02 0.  0.
    9900012    2    3    3    0    0  0.31109926448E+02 -0.32078548598E+01  0.19433517035E+02  0.54367089626E+02  0.40000012420E+02 0.  0.
        -12    1    3    3    0    0 -0.31109926448E+02  0.32078548598E+01 -0.19433517035E+02  0.36820910374E+02  0.00000000000E+00 0.  1.
         11    1    4    4    0    0  0.89787484892E+01 -0.11930475059E+02  0.69088368639E+01  0.16452543470E+02  0.51100000000E-03 0. -1.
        -11    1    4    4    0    0 -0.38486353850E+01 -0.21615156352E+01 -0.33866327263E+01  0.55635802908E+01  0.51100000000E-03 0.  1.
         12    1    4    4    0    0  0.25979813344E+02  0.10884135834E+02  0.15911312898E+02  0.32350965865E+02  0.00000000000E+00 0. -1.
</event>
<event>
 8    1  0.2534787E-006  0.9118800E+02  0.7816164E-02  0.1184000E+00
        -11   -1    0    0    0    0  0.00000000000E+00  0.00000000000E+00  0.45593999997E+02  0.45594000000E+02  0.51100000000E-03 0.  1.
         11   -1    0    0    0    0 -0.00000000000E+00 -0.00000000000E+00 -0.45593999997E+02  0.45594000000E+02  0.51100000000E-03 0. -1.
         23    2    1    2    0    0 -0.44408920985E-15  0.22204460493E-15 -0.71054273576E-14  0.91188000000E+02  0.91188000000E+02 0.  0.
    9900012    2    3    3    0    0  0.29537650995E+01 -0.76463698331E+00 -0.36694275491E+02  0.54367092192E+02  0.40000018270E+02 0.  0.
        -12    1    3    3    0    0 -0.29537650995E+01  0.76463698331E+00  0.36694275491E+02  0.36820907808E+02  0.00000000000E+00 0.  1.
         11    1    4    4    0    0  0.77743461579E+01 -0.63554849395E+01 -0.11083141243E+02  0.14955556395E+02  0.51100000000E-03 0.  1.
        -11    1    4    4    0    0 -0.34228900496E+01  0.14748555079E+02 -0.36467743727E+01  0.15573535784E+02  0.51100000000E-03 0. -1.
         12    1    4    4    0    0 -0.13976910088E+01 -0.91577071230E+01 -0.21964359875E+02  0.23838000013E+02  0.00000000000E+00 0. -1.
</event>
<event>
 8    1  0.2534787E-006  0.9118800E+02  0.7816164E-02  0.1184000E+00
        -11   -1    0    0    0    0  0.00000000000E+00  0.00000000000E+00  0.45593999997E+02  0.45594000000E+02  0.51100000000E-03 0.  1.
         11   -1    0    0    0    0 -0.00000000000E+00 -0.00000000000E+00 -0.45593999997E+02  0.45594000000E+02  0.51100000000E-03 0. -1.
         23    2    1    2    0    0 -0.17763568394E-14 -0.44408920985E-15  0.71054273576E-14  0.91188000000E+02  0.91188000000E+02 0.  0.
    9900012    2    3    3    0    0  0.11729960039E+02  0.32570335341E+01 -0.34750262416E+02  0.54367068888E+02  0.39999965144E+02 0.  0.
        -12    1    3    3    0    0 -0.11729960039E+02 -0.32570335341E+01  0.34750262416E+02  0.36820931112E+02  0.00000000000E+00 0.  1.
         11    1    4    4    0    0  0.67463977397E+00 -0.12370325284E+01 -0.37310521376E+02  0.37337118179E+02  0.51100000000E-03 0. -1.
        -11    1    4    4    0    0  0.14411814688E+01  0.40130329227E+01 -0.36176663444E+01  0.55918643855E+01  0.51100000000E-03 0.  1.
        -12    1    4    4    0    0  0.96141387963E+01  0.48103313982E+00  0.61779253045E+01  0.11438086323E+02  0.00000000000E+00 0.  1.
</event>
<event>
 8    1  0.2534787E-006  0.9118800E+02  0.7816164E-02  0.1184000E+00
        -11   -1    0    0    0    0  0.00000000000E+00  0.00000000000E+00  0.45593999997E+02  0.45594000000E+02  0.51100000000E-03 0. -1.
         11   -1    0    0    0    0 -0.00000000000E+00 -0.00000000000E+00 -0.45593999997E+02  0.45594000000E+02  0.51100000000E-03 0.  1.
         23    2    1    2    0    0  0.00000000000E+00  0.00000000000E+00  0.35527136788E-14  0.91188000000E+02  0.91188000000E+02 0.  0.
    9900012    2    3    3    0    0  0.21784723409E+02 -0.13912135700E+02  0.26223172954E+02  0.54367129648E+02  0.40000103658E+02 0.  0.
        -12    1    3    3    0    0 -0.21784723409E+02  0.13912135700E+02 -0.26223172954E+02  0.36820870352E+02  0.00000000000E+00 0.  1.
         11    1    4    4    0    0  0.30862440093E+02 -0.80327320782E+01  0.24713300265E+02  0.40345535111E+02  0.51100000000E-03 0. -1.
        -11    1    4    4    0    0 -0.57537525978E+01  0.16969560222E+00 -0.22278413834E+01  0.61723369192E+01  0.51100000000E-03 0.  1.
         12    1    4    4    0    0 -0.33239640861E+01 -0.60490992242E+01  0.37377140720E+01  0.78492576180E+01  0.00000000000E+00 0. -1.
</event>
<event>
 8    1  0.2534787E-006  0.9118800E+02  0.7816164E-02  0.1184000E+00
        -11   -1    0    0    0    0  0.00000000000E+00  0.00000000000E+00  0.45593999997E+02  0.45594000000E+02  0.51100000000E-03 0. -1.
         11   -1    0    0    0    0 -0.00000000000E+00 -0.00000000000E+00 -0.45593999997E+02  0.45594000000E+02  0.51100000000E-03 0.  1.
         23    2    1    2    0    0 -0.71054273576E-14  0.00000000000E+00 -0.66613381478E-15  0.91188000000E+02  0.91188000000E+02 0.  0.
    9900012    2    3    3    0    0  0.31024197363E+02  0.19765464344E+02 -0.16144514947E+01  0.54367070403E+02  0.39999968598E+02 0.  0.
        -12    1    3    3    0    0 -0.31024197363E+02 -0.19765464344E+02  0.16144514947E+01  0.36820929597E+02  0.00000000000E+00 0.  1.
         11    1    4    4    0    0  0.12784119119E+02  0.94741272545E+01  0.81503664879E+01  0.17877954666E+02  0.51100000000E-03 0. -1.
        -11    1    4    4    0    0  0.51862198347E+00  0.12637805968E+02  0.47003092055E+01  0.13493554585E+02  0.51100000000E-03 0.  1.
        -12    1    4    4    0    0  0.17721456260E+02 -0.23464688780E+01 -0.14465127188E+02  0.22995561153E+02  0.00000000000E+00 0.  1.
</event>
<event>
 8    1  0.2534787E-006  0.9118800E+02  0.7816164E-02  0.1184000E+00
        -11   -1    0    0    0    0  0.00000000000E+00  0.00000000000E+00  0.45593999997E+02  0.45594000000E+02  0.51100000000E-03 0.  1.
         11   -1    0    0    0    0 -0.00000000000E+00 -0.00000000000E+00 -0.45593999997E+02  0.45594000000E+02  0.51100000000E-03 0. -1.
         23    2    1    2    0    0  0.00000000000E+00  0.00000000000E+00 -0.35527136788E-14  0.91188000000E+02  0.91188000000E+02 0.  0.
    9900012    2    3    3    0    0 -0.30929887267E+02  0.82030004267E+01 -0.18216257296E+02  0.54367093273E+02  0.40000020734E+02 0.  0.
        -12    1    3    3    0    0  0.30929887267E+02 -0.82030004267E+01  0.18216257296E+02  0.36820906727E+02  0.00000000000E+00 0.  1.
         11    1    4    4    0    0 -0.80024997537E+01  0.15447960946E+01 -0.98930456059E+01  0.12817907353E+02  0.51100000000E-03 0. -1.
        -11    1    4    4    0    0  0.24499595276E+01 -0.80285394143E+01  0.45260179661E+01  0.95364870736E+01  0.51100000000E-03 0.  1.
         12    1    4    4    0    0 -0.25377347040E+02  0.14686743746E+02 -0.12849229656E+02  0.32012698847E+02  0.00000000000E+00 0. -1.
</event>
<event>
 8    1  0.2534787E-006  0.9118800E+02  0.7816164E-02  0.1184000E+00
        -11   -1    0    0    0    0  0.00000000000E+00  0.00000000000E+00  0.45593999997E+02  0.45594000000E+02  0.51100000000E-03 0. -1.
         11   -1    0    0    0    0 -0.00000000000E+00 -0.00000000000E+00 -0.45593999997E+02  0.45594000000E+02  0.51100000000E-03 0.  1.
         23    2    1    2    0    0  0.00000000000E+00  0.00000000000E+00  0.71054273576E-14  0.91188000000E+02  0.91188000000E+02 0.  0.
    9900012    2    3    3    0    0 -0.14277827283E+02  0.17214393705E+02 -0.29250451051E+02  0.54367074030E+02  0.39999976867E+02 0.  0.
         12    1    3    3    0    0  0.14277827283E+02 -0.17214393705E+02  0.29250451051E+02  0.36820925970E+02  0.00000000000E+00 0. -1.
         11    1    4    4    0    0  0.14863184783E+01  0.38464967891E+01  0.42640640952E+01  0.59318566264E+01  0.51100000000E-03 0. -1.
        -11    1    4    4    0    0 -0.82203272970E+01  0.17205077365E+02 -0.34985818524E+02  0.39844647897E+02  0.51100000000E-03 0.  1.
        -12    1    4    4    0    0 -0.75438184643E+01 -0.38371804483E+01  0.14713033780E+01  0.85905695065E+01  0.00000000000E+00 0.  1.
</event>
<event>
 8    1  0.2534787E-006  0.9118800E+02  0.7816164E-02  0.1184000E+00
        -11   -1    0    0    0    0  0.00000000000E+00  0.00000000000E+00  0.45593999997E+02  0.45594000000E+02  0.51100000000E-03 0.  1.
         11   -1    0    0    0    0 -0.00000000000E+00 -0.00000000000E+00 -0.45593999997E+02  0.45594000000E+02  0.51100000000E-03 0. -1.
         23    2    1    2    0    0  0.00000000000E+00  0.13322676296E-14  0.00000000000E+00  0.91188000000E+02  0.91188000000E+02 0.  0.
    9900012    2    3    3    0    0 -0.70918535394E+01  0.22600192677E+01  0.36060745230E+02  0.54367089905E+02  0.40000013056E+02 0.  0.
         12    1    3    3    0    0  0.70918535394E+01 -0.22600192677E+01 -0.36060745230E+02  0.36820910095E+02  0.00000000000E+00 0. -1.
         11    1    4    4    0    0 -0.90523805015E+01  0.97006064511E+01  0.12114867062E+02  0.17967118925E+02  0.51100000000E-03 0. -1.
        -11    1    4    4    0    0 -0.58136494524E+01  0.21269850575E+01 -0.29170406695E+01  0.68433699241E+01  0.51100000000E-03 0.  1.
         12    1    4    4    0    0  0.77741764145E+01 -0.95675722409E+01  0.26862918837E+02  0.29556601056E+02  0.00000000000E+00 0. -1.
</event>
<event>
 8    1  0.2534787E-006  0.9118800E+02  0.7816164E-02  0.1184000E+00
        -11   -1    0    0    0    0  0.00000000000E+00  0.00000000000E+00  0.45593999997E+02  0.45594000000E+02  0.51100000000E-03 0.  1.
         11   -1    0    0    0    0 -0.00000000000E+00 -0.00000000000E+00 -0.45593999997E+02  0.45594000000E+02  0.51100000000E-03 0. -1.
         23    2    1    2    0    0  0.00000000000E+00  0.17763568394E-14  0.00000000000E+00  0.91188000000E+02  0.91188000000E+02 0.  0.
    9900012    2    3    3    0    0  0.15434208251E+02 -0.11728680553E+02  0.31305054142E+02  0.54367039303E+02  0.39999897699E+02 0.  0.
         12    1    3    3    0    0 -0.15434208251E+02  0.11728680553E+02 -0.31305054142E+02  0.36820960697E+02  0.00000000000E+00 0. -1.
         11    1    4    4    0    0  0.15069814440E+02 -0.16362499519E+00  0.93683868445E+01  0.17745217743E+02  0.51100000000E-03 0. -1.
        -11    1    4    4    0    0  0.77064834537E+01  0.26865201057E+01  0.18508131599E+02  0.20227659604E+02  0.51100000000E-03 0.  1.
        -12    1    4    4    0    0 -0.73420896427E+01 -0.14251575663E+02  0.34285356976E+01  0.16394161956E+02  0.00000000000E+00 0.  1.
</event>
<event>
 8    1  0.2534787E-006  0.9118800E+02  0.7816164E-02  0.1184000E+00
        -11   -1    0    0    0    0  0.00000000000E+00  0.00000000000E+00  0.45593999997E+02  0.45594000000E+02  0.51100000000E-03 0. -1.
         11   -1    0    0    0    0 -0.00000000000E+00 -0.00000000000E+00 -0.45593999997E+02  0.45594000000E+02  0.51100000000E-03 0.  1.
         23    2    1    2    0    0  0.00000000000E+00 -0.71054273576E-14  0.88817841970E-15  0.91188000000E+02  0.91188000000E+02 0.  0.
    9900012    2    3    3    0    0 -0.16061523295E+02  0.32562058286E+02  0.61253256853E+01  0.54367084950E+02  0.40000001760E+02 0.  0.
         12    1    3    3    0    0  0.16061523295E+02 -0.32562058286E+02 -0.61253256853E+01  0.36820915050E+02  0.00000000000E+00 0. -1.
         11    1    4    4    0    0 -0.10958269165E+02 -0.23943455656E+01  0.11916445040E+02  0.16365152502E+02  0.51100000000E-03 0. -1.
        -11    1    4    4    0    0 -0.38255463384E+01  0.33955977433E+01 -0.37630534870E+01  0.63502331161E+01  0.51100000000E-03 0.  1.
         12    1    4    4    0    0 -0.12777077920E+01  0.31560806108E+02 -0.20280658675E+01  0.31651699331E+02  0.00000000000E+00 0. -1.
</event>
<event>
 8    1  0.2534787E-006  0.9118800E+02  0.7816164E-02  0.1184000E+00
        -11   -1    0    0    0    0  0.00000000000E+00  0.00000000000E+00  0.45593999997E+02  0.45594000000E+02  0.51100000000E-03 0. -1.
         11   -1    0    0    0    0 -0.00000000000E+00 -0.00000000000E+00 -0.45593999997E+02  0.45594000000E+02  0.51100000000E-03 0.  1.
         23    2    1    2    0    0  0.00000000000E+00  0.00000000000E+00 -0.17763568394E-14  0.91188000000E+02  0.91188000000E+02 0.  0.
    9900012    2    3    3    0    0  0.30474438359E+02 -0.17003446044E+02  0.11746126278E+02  0.54367081309E+02  0.39999993461E+02 0.  0.
        -12    1    3    3    0    0 -0.30474438359E+02  0.17003446044E+02 -0.11746126278E+02  0.36820918691E+02  0.00000000000E+00 0.  1.
         11    1    4    4    0    0  0.18969811368E+02  0.15187814903E+01 -0.74747249031E+01  0.20445829726E+02  0.51100000000E-03 0. -1.
        -11    1    4    4    0    0  0.28283584295E+01  0.29080954374E+01  0.33937339057E+00  0.40708481964E+01  0.51100000000E-03 0.  1.
         12    1    4    4    0    0  0.86762685620E+01 -0.21430322971E+02  0.18881477790E+02  0.29850403387E+02  0.00000000000E+00 0. -1.
</event>
<event>
 8    1  0.2534787E-006  0.9118800E+02  0.7816164E-02  0.1184000E+00
        -11   -1    0    0    0    0  0.00000000000E+00  0.00000000000E+00  0.45593999997E+02  0.45594000000E+02  0.51100000000E-03 0. -1.
         11   -1    0    0    0    0 -0.00000000000E+00 -0.00000000000E+00 -0.45593999997E+02  0.45594000000E+02  0.51100000000E-03 0.  1.
         23    2    1    2    0    0 -0.88817841970E-15 -0.35527136788E-14  0.00000000000E+00  0.91188000000E+02  0.91188000000E+02 0.  0.
    9900012    2    3    3    0    0  0.22810119071E+01 -0.24609032907E+02 -0.27294165706E+02  0.54367095645E+02  0.40000026141E+02 0.  0.
         12    1    3    3    0    0 -0.22810119071E+01  0.24609032907E+02  0.27294165706E+02  0.36820904355E+02  0.00000000000E+00 0. -1.
         11    1    4    4    0    0 -0.29012446114E+01  0.25247952436E+01 -0.16179590860E+02  0.16630423084E+02  0.51100000000E-03 0. -1.
        -11    1    4    4    0    0  0.76640709853E+01 -0.30115186625E+02 -0.12668017593E+02  0.33558026157E+02  0.51100000000E-03 0.  1.
        -12    1    4    4    0    0 -0.24818144668E+01  0.29813584747E+01  0.15534427462E+01  0.41786464038E+01  0.00000000000E+00 0.  1.
</event>
<event>
 8    1  0.2534787E-006  0.9118800E+02  0.7816164E-02  0.1184000E+00
        -11   -1    0    0    0    0  0.00000000000E+00  0.00000000000E+00  0.45593999997E+02  0.45594000000E+02  0.51100000000E-03 0.  1.
         11   -1    0    0    0    0 -0.00000000000E+00 -0.00000000000E+00 -0.45593999997E+02  0.45594000000E+02  0.51100000000E-03 0. -1.
         23    2    1    2    0    0 -0.17763568394E-14  0.44408920985E-15  0.00000000000E+00  0.91188000000E+02  0.91188000000E+02 0.  0.
    9900012    2    3    3    0    0  0.67184678429E+01  0.16807576186E+01 -0.36163752998E+02  0.54367084922E+02  0.40000001696E+02 0.  0.
        -12    1    3    3    0    0 -0.67184678429E+01 -0.16807576186E+01  0.36163752998E+02  0.36820915078E+02  0.00000000000E+00 0.  1.
         11    1    4    4    0    0 -0.43248828597E+01 -0.11542478232E+02 -0.77143711814E+01  0.14541146395E+02  0.51100000000E-03 0. -1.
        -11    1    4    4    0    0  0.11903035761E+02 -0.38406035170E+00 -0.54683367722E+01  0.13104673594E+02  0.51100000000E-03 0.  1.
         12    1    4    4    0    0 -0.85968505814E+00  0.13607296202E+02 -0.22981045044E+02  0.26721264934E+02  0.00000000000E+00 0. -1.
</event>
<event>
 8    1  0.2534787E-006  0.9118800E+02  0.7816164E-02  0.1184000E+00
        -11   -1    0    0    0    0  0.00000000000E+00  0.00000000000E+00  0.45593999997E+02  0.45594000000E+02  0.51100000000E-03 0. -1.
         11   -1    0    0    0    0 -0.00000000000E+00 -0.00000000000E+00 -0.45593999997E+02  0.45594000000E+02  0.51100000000E-03 0.  1.
         23    2    1    2    0    0  0.17763568394E-14 -0.71054273576E-14  0.00000000000E+00  0.91188000000E+02  0.91188000000E+02 0.  0.
    9900012    2    3    3    0    0  0.94354879890E+01  0.35384207741E+02  0.38349897576E+01  0.54367112755E+02  0.40000065147E+02 0.  0.
        -12    1    3    3    0    0 -0.94354879890E+01 -0.35384207741E+02 -0.38349897576E+01  0.36820887245E+02  0.00000000000E+00 0.  1.
         11    1    4    4    0    0 -0.27973652852E+01  0.24589233770E+01  0.37216771371E+00  0.37430022417E+01  0.51100000000E-03 0. -1.
        -11    1    4    4    0    0 -0.12133273647E+02  0.18669820658E+02  0.10377410876E+01  0.22290254364E+02  0.51100000000E-03 0.  1.
         12    1    4    4    0    0  0.24366126921E+02  0.14255463707E+02  0.24250809563E+01  0.28333856149E+02  0.00000000000E+00 0. -1.
</event>
<event>
 8    1  0.2534787E-006  0.9118800E+02  0.7816164E-02  0.1184000E+00
        -11   -1    0    0    0    0  0.00000000000E+00  0.00000000000E+00  0.45593999997E+02  0.45594000000E+02  0.51100000000E-03 0. -1.
         11   -1    0    0    0    0 -0.00000000000E+00 -0.00000000000E+00 -0.45593999997E+02  0.45594000000E+02  0.51100000000E-03 0.  1.
         23    2    1    2    0    0  0.35527136788E-14 -0.35527136788E-14  0.00000000000E+00  0.91188000000E+02  0.91188000000E+02 0.  0.
    9900012    2    3    3    0    0 -0.23988708821E+02 -0.22475359904E+02  0.16588551144E+02  0.54367082266E+02  0.39999995642E+02 0.  0.
        -12    1    3    3    0    0  0.23988708821E+02  0.22475359904E+02 -0.16588551144E+02  0.36820917734E+02  0.00000000000E+00 0.  1.
         11    1    4    4    0    0 -0.26247645053E+02 -0.13660428170E+02  0.22661137450E+02  0.37270273938E+02  0.51100000000E-03 0. -1.
        -11    1    4    4    0    0 -0.43256554077E+00 -0.11804734970E+02 -0.34942264916E+01  0.12318624099E+02  0.51100000000E-03 0.  1.
         12    1    4    4    0    0  0.26915017734E+01  0.29898032366E+01 -0.25783598144E+01  0.47781842286E+01  0.00000000000E+00 0. -1.
</event>
<event>
 8    1  0.2534787E-006  0.9118800E+02  0.7816164E-02  0.1184000E+00
        -11   -1    0    0    0    0  0.00000000000E+00  0.00000000000E+00  0.45593999997E+02  0.45594000000E+02  0.51100000000E-03 0.  1.
         11   -1    0    0    0    0 -0.00000000000E+00 -0.00000000000E+00 -0.45593999997E+02  0.45594000000E+02  0.51100000000E-03 0. -1.
         23    2    1    2    0    0  0.00000000000E+00 -0.35527136788E-14  0.11102230246E-15  0.91188000000E+02  0.91188000000E+02 0.  0.
    9900012    2    3    3    0    0 -0.29659610595E+02  0.21805055856E+02 -0.79227017671E+00  0.54367073158E+02  0.39999974877E+02 0.  0.
         12    1    3    3    0    0  0.29659610595E+02 -0.21805055856E+02  0.79227017671E+00  0.36820926842E+02  0.00000000000E+00 0. -1.
         11    1    4    4    0    0 -0.12882646886E+02  0.28201123430E+02 -0.65441606518E+00  0.31011194981E+02  0.51100000000E-03 0.  1.
        -11    1    4    4    0    0 -0.76206508164E+00 -0.59375356813E+01 -0.35713666945E+01  0.69706336500E+01  0.51100000000E-03 0. -1.
         12    1    4    4    0    0 -0.16014898627E+02 -0.45853189322E+00  0.34335125830E+01  0.16385244527E+02  0.00000000000E+00 0. -1.
</event>
<event>
 8    1  0.2534787E-006  0.9118800E+02  0.7816164E-02  0.1184000E+00
        -11   -1    0    0    0    0  0.00000000000E+00  0.00000000000E+00  0.45593999997E+02  0.45594000000E+02  0.51100000000E-03 0.  1.
         11   -1    0    0    0    0 -0.00000000000E+00 -0.00000000000E+00 -0.45593999997E+02  0.45594000000E+02  0.51100000000E-03 0. -1.
         23    2    1    2    0    0 -0.22204460493E-15 -0.35527136788E-14  0.35527136788E-14  0.91188000000E+02  0.91188000000E+02 0.  0.
    9900012    2    3    3    0    0 -0.19561192692E+01  0.25506214735E+02 -0.26483671480E+02  0.54367105826E+02  0.40000049351E+02 0.  0.
        -12    1    3    3    0    0  0.19561192692E+01 -0.25506214735E+02  0.26483671480E+02  0.36820894174E+02  0.00000000000E+00 0.  1.
         11    1    4    4    0    0  0.31305627290E+01  0.15373159880E+02 -0.35537018080E+02  0.38846030968E+02  0.51100000000E-03 0. -1.
        -11    1    4    4    0    0 -0.49977980590E+01  0.50146958826E+01  0.32731223521E+01  0.77999032318E+01  0.51100000000E-03 0.  1.
         12    1    4    4    0    0 -0.88883939180E-01  0.51183589730E+01  0.57802242472E+01  0.77211716261E+01  0.00000000000E+00 0. -1.
</event>
<event>
 8    1  0.2534787E-006  0.9118800E+02  0.7816164E-02  0.1184000E+00
        -11   -1    0    0    0    0  0.00000000000E+00  0.00000000000E+00  0.45593999997E+02  0.45594000000E+02  0.51100000000E-03 0.  1.
         11   -1    0    0    0    0 -0.00000000000E+00 -0.00000000000E+00 -0.45593999997E+02  0.45594000000E+02  0.51100000000E-03 0. -1.
         23    2    1    2    0    0  0.35527136788E-14 -0.17763568394E-14  0.35527136788E-14  0.91188000000E+02  0.91188000000E+02 0.  0.
    9900012    2    3    3    0    0 -0.24733446620E+02  0.12840180042E+02 -0.24065855188E+02  0.54367095731E+02  0.40000026339E+02 0.  0.
        -12    1    3    3    0    0  0.24733446620E+02 -0.12840180042E+02  0.24065855188E+02  0.36820904269E+02  0.00000000000E+00 0.  1.
         11    1    4    4    0    0  0.92140502199E+01  0.48281168646E+01 -0.12114003965E+02  0.15967420776E+02  0.51100000000E-03 0. -1.
        -11    1    4    4    0    0 -0.12366717798E+02 -0.66546943539E+00 -0.30911300807E+00  0.12388466805E+02  0.51100000000E-03 0.  1.
         12    1    4    4    0    0 -0.21580779042E+02  0.86775326126E+01 -0.11642738216E+02  0.26011208151E+02  0.00000000000E+00 0. -1.
</event>
<event>
 8    1  0.2534787E-006  0.9118800E+02  0.7816164E-02  0.1184000E+00
        -11   -1    0    0    0    0  0.00000000000E+00  0.00000000000E+00  0.45593999997E+02  0.45594000000E+02  0.51100000000E-03 0.  1.
         11   -1    0    0    0    0 -0.00000000000E+00 -0.00000000000E+00 -0.45593999997E+02  0.45594000000E+02  0.51100000000E-03 0. -1.
         23    2    1    2    0    0  0.00000000000E+00 -0.88817841970E-15  0.88817841970E-15  0.91188000000E+02  0.91188000000E+02 0.  0.
    9900012    2    3    3    0    0 -0.36557703245E+02 -0.42733710725E+01 -0.10258639724E+01  0.54367085240E+02  0.40000002421E+02 0.  0.
         12    1    3    3    0    0  0.36557703245E+02  0.42733710725E+01  0.10258639724E+01  0.36820914760E+02  0.00000000000E+00 0. -1.
         11    1    4    4    0    0 -0.15991911212E+02 -0.86939937480E+01 -0.91551603330E+01  0.20375075767E+02  0.51100000000E-03 0. -1.
        -11    1    4    4    0    0  0.52611272962E+01 -0.12479726800E+01  0.50021831605E+01  0.73660527333E+01  0.51100000000E-03 0.  1.
        -12    1    4    4    0    0 -0.25826919329E+02  0.56685953556E+01  0.31271132001E+01  0.26625956740E+02  0.00000000000E+00 0.  1.
</event>
<event>
 8    1  0.2534787E-006  0.9118800E+02  0.7816164E-02  0.1184000E+00
        -11   -1    0    0    0    0  0.00000000000E+00  0.00000000000E+00  0.45593999997E+02  0.45594000000E+02  0.51100000000E-03 0. -1.
         11   -1    0    0    0    0 -0.00000000000E+00 -0.00000000000E+00 -0.45593999997E+02  0.45594000000E+02  0.51100000000E-03 0.  1.
         23    2    1    2    0    0 -0.35527136788E-14 -0.88817841970E-15  0.00000000000E+00  0.91188000000E+02  0.91188000000E+02 0.  0.
    9900012    2    3    3    0    0 -0.27076192826E+02  0.58768144111E+01  0.24251270237E+02  0.54367064736E+02  0.39999955679E+02 0.  0.
        -12    1    3    3    0    0  0.27076192826E+02 -0.58768144111E+01 -0.24251270237E+02  0.36820935264E+02  0.00000000000E+00 0.  1.
         11    1    4    4    0    0 -0.64005601787E+01 -0.66353147100E+01  0.46605819195E+01  0.10330324099E+02  0.51100000000E-03 0. -1.
        -11    1    4    4    0    0  0.71867897001E+01  0.22996530385E+01 -0.14179304948E+01  0.76778172315E+01  0.51100000000E-03 0.  1.
         12    1    4    4    0    0 -0.27862422347E+02  0.10212476083E+02  0.21008618813E+02  0.36358923406E+02  0.00000000000E+00 0. -1.
</event>
<event>
 8    1  0.2534787E-006  0.9118800E+02  0.7816164E-02  0.1184000E+00
        -11   -1    0    0    0    0  0.00000000000E+00  0.00000000000E+00  0.45593999997E+02  0.45594000000E+02  0.51100000000E-03 0.  1.
         11   -1    0    0    0    0 -0.00000000000E+00 -0.00000000000E+00 -0.45593999997E+02  0.45594000000E+02  0.51100000000E-03 0. -1.
         23    2    1    2    0    0  0.35527136788E-14  0.00000000000E+00  0.35527136788E-14  0.91188000000E+02  0.91188000000E+02 0.  0.
    9900012    2    3    3    0    0 -0.20539399117E+02 -0.32193297724E+01 -0.30389946993E+02  0.54367083682E+02  0.39999998869E+02 0.  0.
        -12    1    3    3    0    0  0.20539399117E+02  0.32193297724E+01  0.30389946993E+02  0.36820916318E+02  0.00000000000E+00 0.  1.
         11    1    4    4    0    0 -0.53223812606E+01  0.18643366838E+01 -0.88094429133E+00  0.57078504412E+01  0.51100000000E-03 0. -1.
        -11    1    4    4    0    0 -0.12143701430E+02 -0.12037122544E+02 -0.35219751137E+02  0.39150896209E+02  0.51100000000E-03 0.  1.
        -12    1    4    4    0    0 -0.30733164264E+01  0.69534560877E+01  0.57107484350E+01  0.95083370316E+01  0.00000000000E+00 0.  1.
</event>
<event>
 8    1  0.2534787E-006  0.9118800E+02  0.7816164E-02  0.1184000E+00
        -11   -1    0    0    0    0  0.00000000000E+00  0.00000000000E+00  0.45593999997E+02  0.45594000000E+02  0.51100000000E-03 0.  1.
         11   -1    0    0    0    0 -0.00000000000E+00 -0.00000000000E+00 -0.45593999997E+02  0.45594000000E+02  0.51100000000E-03 0. -1.
         23    2    1    2    0    0  0.00000000000E+00 -0.88817841970E-15  0.00000000000E+00  0.91188000000E+02  0.91188000000E+02 0.  0.
    9900012    2    3    3    0    0 -0.32576048232E+02 -0.36783705918E+01  0.16764537913E+02  0.54367094795E+02  0.40000024205E+02 0.  0.
         12    1    3    3    0    0  0.32576048232E+02  0.36783705918E+01 -0.16764537913E+02  0.36820905205E+02  0.00000000000E+00 0. -1.
         11    1    4    4    0    0  0.55765649963E+01 -0.59972265401E+01 -0.39710187574E+01  0.91013072447E+01  0.51100000000E-03 0. -1.
        -11    1    4    4    0    0 -0.29350200500E+02 -0.36008645202E+01  0.14165256415E+02  0.32788031112E+02  0.51100000000E-03 0.  1.
        -12    1    4    4    0    0 -0.88024127289E+01  0.59197204685E+01  0.65703002562E+01  0.12477756438E+02  0.00000000000E+00 0.  1.
</event>
<event>
 8    1  0.2534787E-006  0.9118800E+02  0.7816164E-02  0.1184000E+00
        -11   -1    0    0    0    0  0.00000000000E+00  0.00000000000E+00  0.45593999997E+02  0.45594000000E+02  0.51100000000E-03 0.  1.
         11   -1    0    0    0    0 -0.00000000000E+00 -0.00000000000E+00 -0.45593999997E+02  0.45594000000E+02  0.51100000000E-03 0. -1.
         23    2    1    2    0    0 -0.35527136788E-14  0.71054273576E-14  0.00000000000E+00  0.91188000000E+02  0.91188000000E+02 0.  0.
    9900012    2    3    3    0    0  0.18930790521E+02  0.28085545393E+02  0.14443223890E+02  0.54367090097E+02  0.40000013493E+02 0.  0.
         12    1    3    3    0    0 -0.18930790521E+02 -0.28085545393E+02 -0.14443223890E+02  0.36820909903E+02  0.00000000000E+00 0. -1.
         11    1    4    4    0    0  0.29019019399E+01 -0.99603078844E+01  0.30558463320E+01  0.10815126679E+02  0.51100000000E-03 0. -1.
        -11    1    4    4    0    0  0.23894220319E+01  0.14158867803E+01  0.17890986552E+01  0.33037777286E+01  0.51100000000E-03 0.  1.
         12    1    4    4    0    0  0.13639466549E+02  0.36629966497E+02  0.95982789030E+01  0.40248185689E+02  0.00000000000E+00 0. -1.
</event>
<event>
 8    1  0.2534787E-006  0.9118800E+02  0.7816164E-02  0.1184000E+00
        -11   -1    0    0    0    0  0.00000000000E+00  0.00000000000E+00  0.45593999997E+02  0.45594000000E+02  0.51100000000E-03 0. -1.
         11   -1    0    0    0    0 -0.00000000000E+00 -0.00000000000E+00 -0.45593999997E+02  0.45594000000E+02  0.51100000000E-03 0.  1.
         23    2    1    2    0    0 -0.35527136788E-14  0.17763568394E-14  0.00000000000E+00  0.91188000000E+02  0.91188000000E+02 0.  0.
    9900012    2    3    3    0    0 -0.26389460167E+02  0.11063177327E+02  0.23172920069E+02  0.54367058608E+02  0.39999941709E+02 0.  0.
        -12    1    3    3    0    0  0.26389460167E+02 -0.11063177327E+02 -0.23172920069E+02  0.36820941392E+02  0.00000000000E+00 0.  1.
         11    1    4    4    0    0 -0.14814530620E+02  0.11983172705E+02  0.13694438401E+02  0.23464960876E+02  0.51100000000E-03 0. -1.
        -11    1    4    4    0    0 -0.72151759056E+01  0.84677548344E+01  0.15384175976E+02  0.18985112747E+02  0.51100000000E-03 0.  1.
        -12    1    4    4    0    0 -0.43597536416E+01 -0.93877502121E+01 -0.59056943083E+01  0.11916984985E+02  0.00000000000E+00 0.  1.
</event>
<event>
 8    1  0.2534787E-006  0.9118800E+02  0.7816164E-02  0.1184000E+00
        -11   -1    0    0    0    0  0.00000000000E+00  0.00000000000E+00  0.45593999997E+02  0.45594000000E+02  0.51100000000E-03 0.  1.
         11   -1    0    0    0    0 -0.00000000000E+00 -0.00000000000E+00 -0.45593999997E+02  0.45594000000E+02  0.51100000000E-03 0. -1.
         23    2    1    2    0    0  0.00000000000E+00  0.00000000000E+00  0.00000000000E+00  0.91188000000E+02  0.91188000000E+02 0.  0.
    9900012    2    3    3    0    0  0.30342811312E+02  0.18167048649E+02  0.10249500613E+02  0.54367080433E+02  0.39999991464E+02 0.  0.
        -12    1    3    3    0    0 -0.30342811312E+02 -0.18167048649E+02 -0.10249500613E+02  0.36820919567E+02  0.00000000000E+00 0.  1.
         11    1    4    4    0    0  0.31945532872E+02  0.41775612080E+01  0.82698278694E+01  0.33261977412E+02  0.51100000000E-03 0. -1.
        -11    1    4    4    0    0 -0.17882575754E+00  0.16353092334E+02  0.49147530903E+01  0.17076604046E+02  0.51100000000E-03 0.  1.
         12    1    4    4    0    0 -0.14238958026E+01 -0.23636048929E+01 -0.29350803472E+01  0.40284989749E+01  0.00000000000E+00 0. -1.
</event>
<event>
 8    1  0.2534787E-006  0.9118800E+02  0.7816164E-02  0.1184000E+00
        -11   -1    0    0    0    0  0.00000000000E+00  0.00000000000E+00  0.45593999997E+02  0.45594000000E+02  0.51100000000E-03 0.  1.
         11   -1    0    0    0    0 -0.00000000000E+00 -0.00000000000E+00 -0.45593999997E+02  0.45594000000E+02  0.51100000000E-03 0. -1.
         23    2    1    2    0    0  0.17763568394E-14 -0.35527136788E-14 -0.35527136788E-14  0.91188000000E+02  0.91188000000E+02 0.  0.
    9900012    2    3    3    0    0  0.78081830271E+01 -0.18711278721E+02 -0.30736119501E+02  0.54366963682E+02  0.39999725305E+02 0.  0.
        -12    1    3    3    0    0 -0.78081830271E+01  0.18711278721E+02  0.30736119501E+02  0.36821036318E+02  0.00000000000E+00 0.  1.
         11    1    4    4    0    0 -0.11153619702E+02 -0.73213287635E+01 -0.22120631208E+02  0.25832681096E+02  0.51100000000E-03 0. -1.
        -11    1    4    4    0    0  0.21044724160E+02 -0.12848333257E+02 -0.76863704980E+01  0.25827124775E+02  0.51100000000E-03 0.  1.
        -12    1    4    4    0    0 -0.20829214312E+01  0.14583832992E+01 -0.92911779500E+00  0.27071578109E+01  0.00000000000E+00 0.  1.
</event>
<event>
 8    1  0.2534787E-006  0.9118800E+02  0.7816164E-02  0.1184000E+00
        -11   -1    0    0    0    0  0.00000000000E+00  0.00000000000E+00  0.45593999997E+02  0.45594000000E+02  0.51100000000E-03 0. -1.
         11   -1    0    0    0    0 -0.00000000000E+00 -0.00000000000E+00 -0.45593999997E+02  0.45594000000E+02  0.51100000000E-03 0.  1.
         23    2    1    2    0    0  0.00000000000E+00  0.00000000000E+00  0.14210854715E-13  0.91188000000E+02  0.91188000000E+02 0.  0.
    9900012    2    3    3    0    0  0.15406384453E+02 -0.62509037045E+01  0.32853417391E+02  0.54367115800E+02  0.40000072089E+02 0.  0.
        -12    1    3    3    0    0 -0.15406384453E+02  0.62509037045E+01 -0.32853417391E+02  0.36820884200E+02  0.00000000000E+00 0.  1.
         11    1    4    4    0    0 -0.34192394434E+01  0.80208304131E+00 -0.11422386431E+01  0.36931348412E+01  0.51100000000E-03 0. -1.
        -11    1    4    4    0    0  0.56140544817E+01 -0.21161273134E+01 -0.58659816388E+01  0.83907891987E+01  0.51100000000E-03 0.  1.
         12    1    4    4    0    0  0.13211569415E+02 -0.49368594324E+01  0.39861637672E+02  0.42283191760E+02  0.00000000000E+00 0. -1.
</event>
<event>
 8    1  0.2534787E-006  0.9118800E+02  0.7816164E-02  0.1184000E+00
        -11   -1    0    0    0    0  0.00000000000E+00  0.00000000000E+00  0.45593999997E+02  0.45594000000E+02  0.51100000000E-03 0. -1.
         11   -1    0    0    0    0 -0.00000000000E+00 -0.00000000000E+00 -0.45593999997E+02  0.45594000000E+02  0.51100000000E-03 0.  1.
         23    2    1    2    0    0  0.35527136788E-14  0.88817841970E-15  0.35527136788E-14  0.91188000000E+02  0.91188000000E+02 0.  0.
    9900012    2    3    3    0    0  0.27109625571E+02 -0.15338895795E+01  0.24869582730E+02  0.54367071698E+02  0.39999971551E+02 0.  0.
        -12    1    3    3    0    0 -0.27109625571E+02  0.15338895795E+01 -0.24869582730E+02  0.36820928302E+02  0.00000000000E+00 0.  1.
         11    1    4    4    0    0 -0.63510229098E+00 -0.96554709880E+01  0.21978787396E+02  0.24014549144E+02  0.51100000000E-03 0. -1.
        -11    1    4    4    0    0  0.17873607053E+02  0.51850902378E+01 -0.24165742088E+01  0.18766747748E+02  0.51100000000E-03 0.  1.
         12    1    4    4    0    0  0.98711208088E+01  0.29364911707E+01  0.53073695429E+01  0.11585774807E+02  0.00000000000E+00 0. -1.
</event>
<event>
 8    1  0.2534787E-006  0.9118800E+02  0.7816164E-02  0.1184000E+00
        -11   -1    0    0    0    0  0.00000000000E+00  0.00000000000E+00  0.45593999997E+02  0.45594000000E+02  0.51100000000E-03 0.  1.
         11   -1    0    0    0    0 -0.00000000000E+00 -0.00000000000E+00 -0.45593999997E+02  0.45594000000E+02  0.51100000000E-03 0. -1.
         23    2    1    2    0    0  0.00000000000E+00  0.00000000000E+00  0.00000000000E+00  0.91188000000E+02  0.91188000000E+02 0.  0.
    9900012    2    3    3    0    0 -0.21151950184E+02  0.61055599213E+01 -0.29514333361E+02  0.54367099247E+02  0.40000034353E+02 0.  0.
        -12    1    3    3    0    0  0.21151950184E+02 -0.61055599213E+01  0.29514333361E+02  0.36820900753E+02  0.00000000000E+00 0.  1.
         11    1    4    4    0    0 -0.21218920527E+01 -0.12811407719E+02  0.66060875609E+00  0.13002730398E+02  0.51100000000E-03 0. -1.
        -11    1    4    4    0    0 -0.50328394086E-01  0.19947329934E+00 -0.39999406000E+01  0.40052275353E+01  0.51100000000E-03 0.  1.
        -12    1    4    4    0    0 -0.18979729737E+02  0.18717494340E+02 -0.26175001517E+02  0.37359141314E+02  0.00000000000E+00 0.  1.
</event>
<event>
 8    1  0.2534787E-006  0.9118800E+02  0.7816164E-02  0.1184000E+00
        -11   -1    0    0    0    0  0.00000000000E+00  0.00000000000E+00  0.45593999997E+02  0.45594000000E+02  0.51100000000E-03 0. -1.
         11   -1    0    0    0    0 -0.00000000000E+00 -0.00000000000E+00 -0.45593999997E+02  0.45594000000E+02  0.51100000000E-03 0.  1.
         23    2    1    2    0    0  0.00000000000E+00 -0.17763568394E-14  0.71054273576E-14  0.91188000000E+02  0.91188000000E+02 0.  0.
    9900012    2    3    3    0    0 -0.72508772248E+01 -0.15977824792E+02  0.32371513179E+02  0.54367068846E+02  0.39999965048E+02 0.  0.
        -12    1    3    3    0    0  0.72508772248E+01  0.15977824792E+02 -0.32371513179E+02  0.36820931154E+02  0.00000000000E+00 0.  1.
         11    1    4    4    0    0 -0.89241860692E+01 -0.85190084203E+01 -0.14239876568E+01  0.12419434068E+02  0.51100000000E-03 0. -1.
        -11    1    4    4    0    0 -0.47561106955E+01  0.70144321221E+01  0.78573750707E+01  0.11556867664E+02  0.51100000000E-03 0.  1.
         12    1    4    4    0    0  0.64294195398E+01 -0.14473248493E+02  0.25938125765E+02  0.30390767114E+02  0.00000000000E+00 0. -1.
</event>
<event>
 8    1  0.2534787E-006  0.9118800E+02  0.7816164E-02  0.1184000E+00
        -11   -1    0    0    0    0  0.00000000000E+00  0.00000000000E+00  0.45593999997E+02  0.45594000000E+02  0.51100000000E-03 0.  1.
         11   -1    0    0    0    0 -0.00000000000E+00 -0.00000000000E+00 -0.45593999997E+02  0.45594000000E+02  0.51100000000E-03 0. -1.
         23    2    1    2    0    0 -0.44408920985E-15  0.71054273576E-14  0.00000000000E+00  0.91188000000E+02  0.91188000000E+02 0.  0.
    9900012    2    3    3    0    0  0.11716298697E+01  0.31593369763E+02  0.18874994470E+02  0.54367093632E+02  0.40000021553E+02 0.  0.
         12    1    3    3    0    0 -0.11716298697E+01 -0.31593369763E+02 -0.18874994470E+02  0.36820906368E+02  0.00000000000E+00 0. -1.
         11    1    4    4    0    0 -0.31365800312E+00  0.53848081499E+01  0.17154683656E+02  0.17982705907E+02  0.51100000000E-03 0. -1.
        -11    1    4    4    0    0  0.93285917925E+01  0.62034807223E+00  0.22488926957E+01  0.96158710047E+01  0.51100000000E-03 0.  1.
         12    1    4    4    0    0 -0.78433039196E+01  0.25588213541E+02 -0.52858188194E+00  0.26768516720E+02  0.00000000000E+00 0. -1.
</event>
<event>
 8    1  0.2534787E-006  0.9118800E+02  0.7816164E-02  0.1184000E+00
        -11   -1    0    0    0    0  0.00000000000E+00  0.00000000000E+00  0.45593999997E+02  0.45594000000E+02  0.51100000000E-03 0.  1.
         11   -1    0    0    0    0 -0.00000000000E+00 -0.00000000000E+00 -0.45593999997E+02  0.45594000000E+02  0.51100000000E-03 0. -1.
         23    2    1    2    0    0  0.35527136788E-14  0.00000000000E+00  0.00000000000E+00  0.91188000000E+02  0.91188000000E+02 0.  0.
    9900012    2    3    3    0    0  0.27733760768E+02  0.15266081407E+02 -0.18803292634E+02  0.54367101834E+02  0.40000040251E+02 0.  0.
        -12    1    3    3    0    0 -0.27733760768E+02 -0.15266081407E+02  0.18803292634E+02  0.36820898166E+02  0.00000000000E+00 0.  1.
         11    1    4    4    0    0  0.21224240719E+02  0.37807233025E+01 -0.69536801170E+01  0.22652062384E+02  0.51100000000E-03 0. -1.
        -11    1    4    4    0    0 -0.73592425168E+01  0.26820458871E+01 -0.13075995928E+02  0.15242489637E+02  0.51100000000E-03 0.  1.
        -12    1    4    4    0    0  0.13868762565E+02  0.88033122176E+01  0.12263834104E+01  0.16472549814E+02  0.00000000000E+00 0.  1.
</event>
<event>
 8    1  0.2534787E-006  0.9118800E+02  0.7816164E-02  0.1184000E+00
        -11   -1    0    0    0    0  0.00000000000E+00  0.00000000000E+00  0.45593999997E+02  0.45594000000E+02  0.51100000000E-03 0.  1.
         11   -1    0    0    0    0 -0.00000000000E+00 -0.00000000000E+00 -0.45593999997E+02  0.45594000000E+02  0.51100000000E-03 0. -1.
         23    2    1    2    0    0  0.35527136788E-14 -0.35527136788E-14 -0.35527136788E-14  0.91188000000E+02  0.91188000000E+02 0.  0.
    9900012    2    3    3    0    0  0.26729550865E+02 -0.11080585027E+02 -0.22771291331E+02  0.54367082536E+02  0.39999996258E+02 0.  0.
        -12    1    3    3    0    0 -0.26729550865E+02  0.11080585027E+02  0.22771291331E+02  0.36820917464E+02  0.00000000000E+00 0.  1.
         11    1    4    4    0    0  0.15922002346E+01  0.93486329702E+01 -0.86227754589E+01  0.12817343597E+02  0.51100000000E-03 0. -1.
        -11    1    4    4    0    0 -0.20388646257E+00 -0.99353262377E+00 -0.91722020187E+01  0.92281074386E+01  0.51100000000E-03 0.  1.
        -12    1    4    4    0    0  0.25341237093E+02 -0.19435685373E+02 -0.49763138534E+01  0.32321631501E+02  0.00000000000E+00 0.  1.
</event>
<event>
 8    1  0.2534787E-006  0.9118800E+02  0.7816164E-02  0.1184000E+00
        -11   -1    0    0    0    0  0.00000000000E+00  0.00000000000E+00  0.45593999997E+02  0.45594000000E+02  0.51100000000E-03 0.  1.
         11   -1    0    0    0    0 -0.00000000000E+00 -0.00000000000E+00 -0.45593999997E+02  0.45594000000E+02  0.51100000000E-03 0. -1.
         23    2    1    2    0    0  0.17763568394E-14 -0.35527136788E-14  0.35527136788E-14  0.91188000000E+02  0.91188000000E+02 0.  0.
    9900012    2    3    3    0    0  0.94767239604E+01 -0.29015309360E+02  0.20593273121E+02  0.54367090558E+02  0.40000014546E+02 0.  0.
         12    1    3    3    0    0 -0.94767239604E+01  0.29015309360E+02 -0.20593273121E+02  0.36820909442E+02  0.00000000000E+00 0. -1.
         11    1    4    4    0    0 -0.20105197618E+01  0.57685153370E+01 -0.49775238921E+01  0.78799557907E+01  0.51100000000E-03 0. -1.
        -11    1    4    4    0    0  0.77084004903E-01 -0.20587568107E+02  0.12795347383E+02  0.24239942604E+02  0.51100000000E-03 0.  1.
        -12    1    4    4    0    0  0.11410159717E+02 -0.14196256590E+02  0.12775449629E+02  0.22247192164E+02  0.00000000000E+00 0.  1.
</event>
<event>
 8    1  0.2534787E-006  0.9118800E+02  0.7816164E-02  0.1184000E+00
        -11   -1    0    0    0    0  0.00000000000E+00  0.00000000000E+00  0.45593999997E+02  0.45594000000E+02  0.51100000000E-03 0.  1.
         11   -1    0    0    0    0 -0.00000000000E+00 -0.00000000000E+00 -0.45593999997E+02  0.45594000000E+02  0.51100000000E-03 0. -1.
         23    2    1    2    0    0  0.35527136788E-14 -0.35527136788E-14  0.00000000000E+00  0.91188000000E+02  0.91188000000E+02 0.  0.
    9900012    2    3    3    0    0 -0.25560022679E+02 -0.25054521773E+02 -0.86449930793E+01  0.54367085753E+02  0.40000003591E+02 0.  0.
         12    1    3    3    0    0  0.25560022679E+02  0.25054521773E+02  0.86449930793E+01  0.36820914247E+02  0.00000000000E+00 0. -1.
         11    1    4    4    0    0  0.75115576939E+01  0.48292112163E+01 -0.26477864038E+01  0.93142661043E+01  0.51100000000E-03 0. -1.
        -11    1    4    4    0    0 -0.17790035030E+02 -0.17599673237E+02 -0.40394980726E+01  0.25348597384E+02  0.51100000000E-03 0.  1.
         12    1    4    4    0    0 -0.15281545343E+02 -0.12284059753E+02 -0.19577086029E+01  0.19704222265E+02  0.00000000000E+00 0. -1.
</event>
<event>
 8    1  0.2534787E-006  0.9118800E+02  0.7816164E-02  0.1184000E+00
        -11   -1    0    0    0    0  0.00000000000E+00  0.00000000000E+00  0.45593999997E+02  0.45594000000E+02  0.51100000000E-03 0.  1.
         11   -1    0    0    0    0 -0.00000000000E+00 -0.00000000000E+00 -0.45593999997E+02  0.45594000000E+02  0.51100000000E-03 0. -1.
         23    2    1    2    0    0  0.00000000000E+00  0.17763568394E-14  0.13322676296E-14  0.91188000000E+02  0.91188000000E+02 0.  0.
    9900012    2    3    3    0    0  0.34917866743E+02 -0.11246353412E+02 -0.31688956445E+01  0.54367084985E+02  0.40000001840E+02 0.  0.
         12    1    3    3    0    0 -0.34917866743E+02  0.11246353412E+02  0.31688956445E+01  0.36820915015E+02  0.00000000000E+00 0. -1.
         11    1    4    4    0    0  0.28084820736E+02 -0.11750620668E+01 -0.14364715015E+02  0.31567118404E+02  0.51100000000E-03 0. -1.
        -11    1    4    4    0    0  0.43388276293E+01  0.20046437748E+01 -0.15898318491E+01  0.50370216825E+01  0.51100000000E-03 0.  1.
         12    1    4    4    0    0  0.24942183776E+01 -0.12075935120E+02  0.12785651220E+02  0.17762944898E+02  0.00000000000E+00 0. -1.
</event>
<event>
 8    1  0.2534787E-006  0.9118800E+02  0.7816164E-02  0.1184000E+00
        -11   -1    0    0    0    0  0.00000000000E+00  0.00000000000E+00  0.45593999997E+02  0.45594000000E+02  0.51100000000E-03 0.  1.
         11   -1    0    0    0    0 -0.00000000000E+00 -0.00000000000E+00 -0.45593999997E+02  0.45594000000E+02  0.51100000000E-03 0. -1.
         23    2    1    2    0    0  0.00000000000E+00  0.00000000000E+00  0.35527136788E-14  0.91188000000E+02  0.91188000000E+02 0.  0.
    9900012    2    3    3    0    0  0.20870593882E+02  0.10054495805E+02 -0.28620021833E+02  0.54367078982E+02  0.39999988156E+02 0.  0.
        -12    1    3    3    0    0 -0.20870593882E+02 -0.10054495805E+02  0.28620021833E+02  0.36820921018E+02  0.00000000000E+00 0.  1.
         11    1    4    4    0    0  0.16048280462E+02  0.12526869996E+01 -0.21581287770E+02  0.26923382265E+02  0.51100000000E-03 0. -1.
        -11    1    4    4    0    0  0.13359310309E+02  0.11357039853E+02 -0.56679813627E+01  0.18427684042E+02  0.51100000000E-03 0.  1.
        -12    1    4    4    0    0 -0.85369968891E+01 -0.25552310480E+01 -0.13707527002E+01  0.90160126751E+01  0.00000000000E+00 0.  1.
</event>
<event>
 8    1  0.2534787E-006  0.9118800E+02  0.7816164E-02  0.1184000E+00
        -11   -1    0    0    0    0  0.00000000000E+00  0.00000000000E+00  0.45593999997E+02  0.45594000000E+02  0.51100000000E-03 0.  1.
         11   -1    0    0    0    0 -0.00000000000E+00 -0.00000000000E+00 -0.45593999997E+02  0.45594000000E+02  0.51100000000E-03 0. -1.
         23    2    1    2    0    0  0.17763568394E-14  0.00000000000E+00  0.00000000000E+00  0.91188000000E+02  0.91188000000E+02 0.  0.
    9900012    2    3    3    0    0 -0.11825891312E+02 -0.25856277018E+02 -0.23396172404E+02  0.54367086789E+02  0.40000005953E+02 0.  0.
        -12    1    3    3    0    0  0.11825891312E+02  0.25856277018E+02  0.23396172404E+02  0.36820913211E+02  0.00000000000E+00 0.  1.
         11    1    4    4    0    0  0.69775636888E+01 -0.66405231374E+01 -0.81361751313E+01  0.12608738581E+02  0.51100000000E-03 0. -1.
        -11    1    4    4    0    0  0.66362332421E+01 -0.94315372279E+01 -0.57862781054E+01  0.12902499785E+02  0.51100000000E-03 0.  1.
         12    1    4    4    0    0 -0.25439688243E+02 -0.97842166524E+01 -0.94737191671E+01  0.28855848423E+02  0.00000000000E+00 0. -1.
</event>
<event>
 8    1  0.2534787E-006  0.9118800E+02  0.7816164E-02  0.1184000E+00
        -11   -1    0    0    0    0  0.00000000000E+00  0.00000000000E+00  0.45593999997E+02  0.45594000000E+02  0.51100000000E-03 0. -1.
         11   -1    0    0    0    0 -0.00000000000E+00 -0.00000000000E+00 -0.45593999997E+02  0.45594000000E+02  0.51100000000E-03 0.  1.
         23    2    1    2    0    0 -0.35527136788E-14 -0.35527136788E-14  0.00000000000E+00  0.91188000000E+02  0.91188000000E+02 0.  0.
    9900012    2    3    3    0    0  0.13227378672E+02  0.25097312695E+02  0.23472142672E+02  0.54367080231E+02  0.39999991002E+02 0.  0.
        -12    1    3    3    0    0 -0.13227378672E+02 -0.25097312695E+02 -0.23472142672E+02  0.36820919769E+02  0.00000000000E+00 0.  1.
         11    1    4    4    0    0 -0.77693567899E+01  0.21434829842E+01 -0.10076300824E+01  0.81223606714E+01  0.51100000000E-03 0. -1.
        -11    1    4    4    0    0  0.37076456675E+01 -0.22926500095E+01 -0.28578481452E+01  0.52125019658E+01  0.51100000000E-03 0.  1.
         12    1    4    4    0    0  0.17289089795E+02  0.25246479720E+02  0.27337620899E+02  0.41032217593E+02  0.00000000000E+00 0. -1.
</event>
<event>
 8    1  0.2534787E-006  0.9118800E+02  0.7816164E-02  0.1184000E+00
        -11   -1    0    0    0    0  0.00000000000E+00  0.00000000000E+00  0.45593999997E+02  0.45594000000E+02  0.51100000000E-03 0. -1.
         11   -1    0    0    0    0 -0.00000000000E+00 -0.00000000000E+00 -0.45593999997E+02  0.45594000000E+02  0.51100000000E-03 0.  1.
         23    2    1    2    0    0 -0.35527136788E-14  0.00000000000E+00 -0.35527136788E-14  0.91188000000E+02  0.91188000000E+02 0.  0.
    9900012    2    3    3    0    0  0.22606650762E+02 -0.19122622874E+02 -0.21887056549E+02  0.54367100925E+02  0.40000038179E+02 0.  0.
         12    1    3    3    0    0 -0.22606650762E+02  0.19122622874E+02  0.21887056549E+02  0.36820899075E+02  0.00000000000E+00 0. -1.
         11    1    4    4    0    0  0.93460356428E+01  0.12334233807E+01  0.11975426399E+01  0.95028324256E+01  0.51100000000E-03 0. -1.
        -11    1    4    4    0    0 -0.69655423013E+01  0.26014846303E+01 -0.19785134318E+01  0.76942197456E+01  0.51100000000E-03 0.  1.
        -12    1    4    4    0    0  0.20226157421E+02 -0.22957530885E+02 -0.21106085757E+02  0.37170048754E+02  0.00000000000E+00 0.  1.
</event>
<event>
 8    1  0.2534787E-006  0.9118800E+02  0.7816164E-02  0.1184000E+00
        -11   -1    0    0    0    0  0.00000000000E+00  0.00000000000E+00  0.45593999997E+02  0.45594000000E+02  0.51100000000E-03 0.  1.
         11   -1    0    0    0    0 -0.00000000000E+00 -0.00000000000E+00 -0.45593999997E+02  0.45594000000E+02  0.51100000000E-03 0. -1.
         23    2    1    2    0    0  0.00000000000E+00  0.00000000000E+00  0.00000000000E+00  0.91188000000E+02  0.91188000000E+02 0.  0.
    9900012    2    3    3    0    0  0.14220935549E+02 -0.32387384044E+02  0.10227431016E+02  0.54367109214E+02  0.40000057075E+02 0.  0.
         12    1    3    3    0    0 -0.14220935549E+02  0.32387384044E+02 -0.10227431016E+02  0.36820890786E+02  0.00000000000E+00 0. -1.
         11    1    4    4    0    0  0.13431152311E+02  0.21701705530E+01  0.68501076676E+01  0.15232513514E+02  0.51100000000E-03 0. -1.
        -11    1    4    4    0    0  0.79467290193E+01 -0.27257627232E+02  0.78614675757E-01  0.28392515298E+02  0.51100000000E-03 0.  1.
        -12    1    4    4    0    0 -0.71569457814E+01 -0.72999273647E+01  0.32987086731E+01  0.10742080402E+02  0.00000000000E+00 0.  1.
</event>
<event>
 8    1  0.2534787E-006  0.9118800E+02  0.7816164E-02  0.1184000E+00
        -11   -1    0    0    0    0  0.00000000000E+00  0.00000000000E+00  0.45593999997E+02  0.45594000000E+02  0.51100000000E-03 0. -1.
         11   -1    0    0    0    0 -0.00000000000E+00 -0.00000000000E+00 -0.45593999997E+02  0.45594000000E+02  0.51100000000E-03 0.  1.
         23    2    1    2    0    0  0.00000000000E+00  0.00000000000E+00  0.00000000000E+00  0.91188000000E+02  0.91188000000E+02 0.  0.
    9900012    2    3    3    0    0 -0.24088537876E+01  0.83305126961E+01  0.35785176572E+02  0.54367097232E+02  0.40000029761E+02 0.  0.
        -12    1    3    3    0    0  0.24088537876E+01 -0.83305126961E+01 -0.35785176572E+02  0.36820902768E+02  0.00000000000E+00 0.  1.
         11    1    4    4    0    0 -0.35713957953E+01 -0.12122961316E+01  0.26026143427E+02  0.26297997487E+02  0.51100000000E-03 0. -1.
        -11    1    4    4    0    0 -0.28190344422E+01  0.15459953158E+02  0.12846457385E+02  0.20297501680E+02  0.51100000000E-03 0.  1.
         12    1    4    4    0    0  0.39815764499E+01 -0.59171443305E+01 -0.30874242408E+01  0.77715980659E+01  0.00000000000E+00 0. -1.
</event>
<event>
 8    1  0.2534787E-006  0.9118800E+02  0.7816164E-02  0.1184000E+00
        -11   -1    0    0    0    0  0.00000000000E+00  0.00000000000E+00  0.45593999997E+02  0.45594000000E+02  0.51100000000E-03 0.  1.
         11   -1    0    0    0    0 -0.00000000000E+00 -0.00000000000E+00 -0.45593999997E+02  0.45594000000E+02  0.51100000000E-03 0. -1.
         23    2    1    2    0    0  0.22204460493E-15 -0.88817841970E-15  0.00000000000E+00  0.91188000000E+02  0.91188000000E+02 0.  0.
    9900012    2    3    3    0    0 -0.18213661431E+01  0.30448365356E+01  0.36649594149E+02  0.54367066342E+02  0.39999959340E+02 0.  0.
         12    1    3    3    0    0  0.18213661431E+01 -0.30448365356E+01 -0.36649594149E+02  0.36820933658E+02  0.00000000000E+00 0. -1.
         11    1    4    4    0    0 -0.45895234658E+01 -0.27618360446E+01  0.10242260632E+01  0.54534854240E+01  0.51100000000E-03 0. -1.
        -11    1    4    4    0    0 -0.12416261513E+02 -0.15354973907E+01  0.41098167047E+01  0.13168595058E+02  0.51100000000E-03 0.  1.
        -12    1    4    4    0    0  0.15184418836E+02  0.73421699709E+01  0.31515551381E+02  0.35744985860E+02  0.00000000000E+00 0.  1.
</event>
<event>
 8    1  0.2534787E-006  0.9118800E+02  0.7816164E-02  0.1184000E+00
        -11   -1    0    0    0    0  0.00000000000E+00  0.00000000000E+00  0.45593999997E+02  0.45594000000E+02  0.51100000000E-03 0.  1.
         11   -1    0    0    0    0 -0.00000000000E+00 -0.00000000000E+00 -0.45593999997E+02  0.45594000000E+02  0.51100000000E-03 0. -1.
         23    2    1    2    0    0  0.00000000000E+00  0.22204460493E-15  0.00000000000E+00  0.91188000000E+02  0.91188000000E+02 0.  0.
    9900012    2    3    3    0    0 -0.22886130460E+02  0.13216094044E+01 -0.28814203325E+02  0.54367082954E+02  0.39999997210E+02 0.  0.
        -12    1    3    3    0    0  0.22886130460E+02 -0.13216094044E+01  0.28814203325E+02  0.36820917046E+02  0.00000000000E+00 0.  1.
         11    1    4    4    0    0 -0.36238932914E+01 -0.51147889902E+01 -0.87915248162E+01  0.10797433855E+02  0.51100000000E-03 0. -1.
        -11    1    4    4    0    0 -0.16100869388E+02 -0.44099452714E+01 -0.25915936104E+02  0.30827282669E+02  0.51100000000E-03 0.  1.
        -12    1    4    4    0    0 -0.31613677805E+01  0.10846343666E+02  0.58932575947E+01  0.12742366430E+02  0.00000000000E+00 0.  1.
</event>
<event>
 8    1  0.2534787E-006  0.9118800E+02  0.7816164E-02  0.1184000E+00
        -11   -1    0    0    0    0  0.00000000000E+00  0.00000000000E+00  0.45593999997E+02  0.45594000000E+02  0.51100000000E-03 0. -1.
         11   -1    0    0    0    0 -0.00000000000E+00 -0.00000000000E+00 -0.45593999997E+02  0.45594000000E+02  0.51100000000E-03 0.  1.
         23    2    1    2    0    0 -0.88817841970E-15  0.00000000000E+00 -0.13322676296E-14  0.91188000000E+02  0.91188000000E+02 0.  0.
    9900012    2    3    3    0    0 -0.25302332171E+01  0.36701513270E+02  0.15412644056E+01  0.54367100332E+02  0.40000036826E+02 0.  0.
        -12    1    3    3    0    0  0.25302332171E+01 -0.36701513270E+02 -0.15412644056E+01  0.36820899668E+02  0.00000000000E+00 0.  1.
         11    1    4    4    0    0 -0.17621527337E+02  0.15688692068E+02  0.54347557535E+01  0.24211357973E+02  0.51100000000E-03 0. -1.
        -11    1    4    4    0    0  0.75529382783E+01  0.92578438602E+01 -0.93413223536E+01  0.15166240574E+02  0.51100000000E-03 0.  1.
        -12    1    4    4    0    0  0.75383558420E+01  0.11754977341E+02  0.54478310058E+01  0.14989501785E+02  0.00000000000E+00 0.  1.
</event>
<event>
 8    1  0.2534787E-006  0.9118800E+02  0.7816164E-02  0.1184000E+00
        -11   -1    0    0    0    0  0.00000000000E+00  0.00000000000E+00  0.45593999997E+02  0.45594000000E+02  0.51100000000E-03 0.  1.
         11   -1    0    0    0    0 -0.00000000000E+00 -0.00000000000E+00 -0.45593999997E+02  0.45594000000E+02  0.51100000000E-03 0. -1.
         23    2    1    2    0    0  0.71054273576E-14  0.00000000000E+00 -0.31086244690E-14  0.91188000000E+02  0.91188000000E+02 0.  0.
    9900012    2    3    3    0    0 -0.32635821306E+02 -0.16665063924E+02  0.35998042191E+01  0.54367085042E+02  0.40000001970E+02 0.  0.
         12    1    3    3    0    0  0.32635821306E+02  0.16665063924E+02 -0.35998042191E+01  0.36820914958E+02  0.00000000000E+00 0. -1.
         11    1    4    4    0    0 -0.23738925523E+01 -0.59110434567E+01 -0.14940317904E+02  0.16241579354E+02  0.51100000000E-03 0. -1.
        -11    1    4    4    0    0 -0.18457878113E+02 -0.11030602003E+02  0.11688213679E+02  0.24474104360E+02  0.51100000000E-03 0.  1.
         12    1    4    4    0    0 -0.11804050641E+02  0.27658153552E+00  0.68519084441E+01  0.13651401328E+02  0.00000000000E+00 0. -1.
</event>
<event>
 8    1  0.2534787E-006  0.9118800E+02  0.7816164E-02  0.1184000E+00
        -11   -1    0    0    0    0  0.00000000000E+00  0.00000000000E+00  0.45593999997E+02  0.45594000000E+02  0.51100000000E-03 0. -1.
         11   -1    0    0    0    0 -0.00000000000E+00 -0.00000000000E+00 -0.45593999997E+02  0.45594000000E+02  0.51100000000E-03 0.  1.
         23    2    1    2    0    0  0.00000000000E+00  0.35527136788E-14  0.00000000000E+00  0.91188000000E+02  0.91188000000E+02 0.  0.
    9900012    2    3    3    0    0 -0.27501366825E+02  0.22323127510E+02  0.10056464199E+02  0.54367086496E+02  0.40000005285E+02 0.  0.
        -12    1    3    3    0    0  0.27501366825E+02 -0.22323127510E+02 -0.10056464199E+02  0.36820913504E+02  0.00000000000E+00 0.  1.
         11    1    4    4    0    0 -0.18864983571E+02  0.44180624731E+01 -0.71149855687E+01  0.20640491783E+02  0.51100000000E-03 0.  1.
        -11    1    4    4    0    0 -0.12083136245E+02  0.19661012347E+02  0.91572349083E+01  0.24827656745E+02  0.51100000000E-03 0. -1.
         12    1    4    4    0    0  0.34467529916E+01 -0.17559473099E+01  0.80142148594E+01  0.88989379677E+01  0.00000000000E+00 0. -1.
</event>
<event>
 8    1  0.2534787E-006  0.9118800E+02  0.7816164E-02  0.1184000E+00
        -11   -1    0    0    0    0  0.00000000000E+00  0.00000000000E+00  0.45593999997E+02  0.45594000000E+02  0.51100000000E-03 0. -1.
         11   -1    0    0    0    0 -0.00000000000E+00 -0.00000000000E+00 -0.45593999997E+02  0.45594000000E+02  0.51100000000E-03 0.  1.
         23    2    1    2    0    0 -0.88817841970E-15  0.35527136788E-14  0.71054273576E-14  0.91188000000E+02  0.91188000000E+02 0.  0.
    9900012    2    3    3    0    0  0.27601554865E+01  0.17851550975E+02  0.32085596801E+02  0.54367056875E+02  0.39999937758E+02 0.  0.
        -12    1    3    3    0    0 -0.27601554865E+01 -0.17851550975E+02 -0.32085596801E+02  0.36820943125E+02  0.00000000000E+00 0.  1.
         11    1    4    4    0    0 -0.37596634754E+01 -0.14751956037E+01  0.37355935030E+01  0.55014480456E+01  0.51100000000E-03 0. -1.
        -11    1    4    4    0    0  0.41515936648E+01  0.46739370653E+01 -0.76772256629E+01  0.99005662358E+01  0.51100000000E-03 0.  1.
         12    1    4    4    0    0  0.23682252970E+01  0.14652809514E+02  0.36027228961E+02  0.38965042594E+02  0.00000000000E+00 0. -1.
</event>
<event>
 8    1  0.2534787E-006  0.9118800E+02  0.7816164E-02  0.1184000E+00
        -11   -1    0    0    0    0  0.00000000000E+00  0.00000000000E+00  0.45593999997E+02  0.45594000000E+02  0.51100000000E-03 0. -1.
         11   -1    0    0    0    0 -0.00000000000E+00 -0.00000000000E+00 -0.45593999997E+02  0.45594000000E+02  0.51100000000E-03 0.  1.
         23    2    1    2    0    0 -0.35527136788E-14 -0.71054273576E-14  0.00000000000E+00  0.91188000000E+02  0.91188000000E+02 0.  0.
    9900012    2    3    3    0    0  0.24911982987E+02 -0.21584275192E+02 -0.16410127134E+02  0.54367080613E+02  0.39999991874E+02 0.  0.
         12    1    3    3    0    0 -0.24911982987E+02  0.21584275192E+02  0.16410127134E+02  0.36820919387E+02  0.00000000000E+00 0. -1.
         11    1    4    4    0    0  0.14454566371E+01 -0.12044328937E+02  0.35677804085E+00  0.12135999970E+02  0.51100000000E-03 0. -1.
        -11    1    4    4    0    0  0.67083448930E+01  0.10582827377E+02 -0.45021382467E+01  0.13314179492E+02  0.51100000000E-03 0.  1.
        -12    1    4    4    0    0  0.16758181456E+02 -0.20122773632E+02 -0.12264766929E+02  0.28916901151E+02  0.00000000000E+00 0.  1.
</event>
<event>
 8    1  0.2534787E-006  0.9118800E+02  0.7816164E-02  0.1184000E+00
        -11   -1    0    0    0    0  0.00000000000E+00  0.00000000000E+00  0.45593999997E+02  0.45594000000E+02  0.51100000000E-03 0.  1.
         11   -1    0    0    0    0 -0.00000000000E+00 -0.00000000000E+00 -0.45593999997E+02  0.45594000000E+02  0.51100000000E-03 0. -1.
         23    2    1    2    0    0  0.00000000000E+00  0.00000000000E+00  0.00000000000E+00  0.91188000000E+02  0.91188000000E+02 0.  0.
    9900012    2    3    3    0    0  0.33419883820E+02  0.11802202272E+02  0.99799620045E+01  0.54367078575E+02  0.39999987227E+02 0.  0.
        -12    1    3    3    0    0 -0.33419883820E+02 -0.11802202272E+02 -0.99799620045E+01  0.36820921425E+02  0.00000000000E+00 0.  1.
         11    1    4    4    0    0  0.22276928107E+02  0.14713206365E+02  0.66006342314E+01  0.27501060706E+02  0.51100000000E-03 0. -1.
        -11    1    4    4    0    0 -0.34063109464E+01  0.76656849816E+01  0.28887691185E+01  0.88719032785E+01  0.51100000000E-03 0.  1.
        -12    1    4    4    0    0  0.14549266659E+02 -0.10576689075E+02  0.49055865459E+00  0.17994114590E+02  0.00000000000E+00 0.  1.
</event>
<event>
 8    1  0.2534787E-006  0.9118800E+02  0.7816164E-02  0.1184000E+00
        -11   -1    0    0    0    0  0.00000000000E+00  0.00000000000E+00  0.45593999997E+02  0.45594000000E+02  0.51100000000E-03 0. -1.
         11   -1    0    0    0    0 -0.00000000000E+00 -0.00000000000E+00 -0.45593999997E+02  0.45594000000E+02  0.51100000000E-03 0.  1.
         23    2    1    2    0    0  0.35527136788E-14  0.00000000000E+00  0.00000000000E+00  0.91188000000E+02  0.91188000000E+02 0.  0.
    9900012    2    3    3    0    0 -0.17564124658E+02 -0.23293053741E+02 -0.22465871247E+02  0.54367079337E+02  0.39999988965E+02 0.  0.
         12    1    3    3    0    0  0.17564124658E+02  0.23293053741E+02  0.22465871247E+02  0.36820920663E+02  0.00000000000E+00 0. -1.
         11    1    4    4    0    0  0.23205429392E+01 -0.17123906062E+01 -0.13304934454E+02  0.13613907675E+02  0.51100000000E-03 0. -1.
        -11    1    4    4    0    0 -0.16124752421E+02 -0.11558238507E+01  0.33476305607E+01  0.16509094464E+02  0.51100000000E-03 0.  1.
         12    1    4    4    0    0 -0.37599151766E+01 -0.20424839284E+02 -0.12508567354E+02  0.24244077197E+02  0.00000000000E+00 0. -1.
</event>
<event>
 8    1  0.2534787E-006  0.9118800E+02  0.7816164E-02  0.1184000E+00
        -11   -1    0    0    0    0  0.00000000000E+00  0.00000000000E+00  0.45593999997E+02  0.45594000000E+02  0.51100000000E-03 0. -1.
         11   -1    0    0    0    0 -0.00000000000E+00 -0.00000000000E+00 -0.45593999997E+02  0.45594000000E+02  0.51100000000E-03 0.  1.
         23    2    1    2    0    0  0.88817841970E-15 -0.35527136788E-14  0.00000000000E+00  0.91188000000E+02  0.91188000000E+02 0.  0.
    9900012    2    3    3    0    0  0.59479837380E+01 -0.23223777789E+02  0.27947432920E+02  0.54367063399E+02  0.39999952632E+02 0.  0.
        -12    1    3    3    0    0 -0.59479837380E+01  0.23223777789E+02 -0.27947432920E+02  0.36820936601E+02  0.00000000000E+00 0.  1.
         11    1    4    4    0    0  0.89758935930E+01 -0.27629622056E+02  0.16595174548E+02  0.33456875217E+02  0.51100000000E-03 0. -1.
        -11    1    4    4    0    0  0.66707204912E-01 -0.63487125938E+01  0.36304628404E+01  0.73137447417E+01  0.51100000000E-03 0.  1.
        -12    1    4    4    0    0 -0.30946170599E+01  0.10754556861E+02  0.77217955319E+01  0.13596443441E+02  0.00000000000E+00 0.  1.
</event>
<event>
 8    1  0.2534787E-006  0.9118800E+02  0.7816164E-02  0.1184000E+00
        -11   -1    0    0    0    0  0.00000000000E+00  0.00000000000E+00  0.45593999997E+02  0.45594000000E+02  0.51100000000E-03 0. -1.
         11   -1    0    0    0    0 -0.00000000000E+00 -0.00000000000E+00 -0.45593999997E+02  0.45594000000E+02  0.51100000000E-03 0.  1.
         23    2    1    2    0    0 -0.17763568394E-14  0.00000000000E+00  0.00000000000E+00  0.91188000000E+02  0.91188000000E+02 0.  0.
    9900012    2    3    3    0    0 -0.79372240505E+01  0.69240792700E+01  0.35282251181E+02  0.54367086816E+02  0.40000006013E+02 0.  0.
        -12    1    3    3    0    0  0.79372240505E+01 -0.69240792700E+01 -0.35282251181E+02  0.36820913184E+02  0.00000000000E+00 0.  1.
         11    1    4    4    0    0 -0.41980011824E+01  0.13318214325E+02  0.29666482011E+02  0.32788690152E+02  0.51100000000E-03 0. -1.
        -11    1    4    4    0    0  0.58176426523E+01  0.36659459677E+01  0.96404905458E+00  0.69435953733E+01  0.51100000000E-03 0.  1.
        -12    1    4    4    0    0 -0.95568655204E+01 -0.10060081023E+02  0.46517201152E+01  0.14634801290E+02  0.00000000000E+00 0.  1.
</event>
<event>
 8    1  0.2534787E-006  0.9118800E+02  0.7816164E-02  0.1184000E+00
        -11   -1    0    0    0    0  0.00000000000E+00  0.00000000000E+00  0.45593999997E+02  0.45594000000E+02  0.51100000000E-03 0.  1.
         11   -1    0    0    0    0 -0.00000000000E+00 -0.00000000000E+00 -0.45593999997E+02  0.45594000000E+02  0.51100000000E-03 0. -1.
         23    2    1    2    0    0  0.35527136788E-14  0.00000000000E+00 -0.17763568394E-14  0.91188000000E+02  0.91188000000E+02 0.  0.
    9900012    2    3    3    0    0 -0.26274569277E+02 -0.22575766516E+02  0.12480491066E+02  0.54367070059E+02  0.39999967813E+02 0.  0.
         12    1    3    3    0    0  0.26274569277E+02  0.22575766516E+02 -0.12480491066E+02  0.36820929941E+02  0.00000000000E+00 0. -1.
         11    1    4    4    0    0 -0.24939958224E+02 -0.24868428695E+02  0.10208777663E+01  0.35234676863E+02  0.51100000000E-03 0. -1.
        -11    1    4    4    0    0 -0.31798374399E+01 -0.51542699681E+01  0.94112998672E+01  0.11191533876E+02  0.51100000000E-03 0.  1.
        -12    1    4    4    0    0  0.18452263867E+01  0.74469321469E+01  0.20483134323E+01  0.79408593197E+01  0.00000000000E+00 0.  1.
</event>
<event>
 8    1  0.2534787E-006  0.9118800E+02  0.7816164E-02  0.1184000E+00
        -11   -1    0    0    0    0  0.00000000000E+00  0.00000000000E+00  0.45593999997E+02  0.45594000000E+02  0.51100000000E-03 0.  1.
         11   -1    0    0    0    0 -0.00000000000E+00 -0.00000000000E+00 -0.45593999997E+02  0.45594000000E+02  0.51100000000E-03 0. -1.
         23    2    1    2    0    0  0.35527136788E-14  0.00000000000E+00  0.00000000000E+00  0.91188000000E+02  0.91188000000E+02 0.  0.
    9900012    2    3    3    0    0 -0.22435387291E+02 -0.20453608238E+02 -0.20834650182E+02  0.54367090980E+02  0.40000015507E+02 0.  0.
        -12    1    3    3    0    0  0.22435387291E+02  0.20453608238E+02  0.20834650182E+02  0.36820909020E+02  0.00000000000E+00 0.  1.
         11    1    4    4    0    0 -0.14328122691E+02  0.16909867477E+01  0.15350878636E+01  0.14508998278E+02  0.51100000000E-03 0. -1.
        -11    1    4    4    0    0 -0.22489196500E+01 -0.98794642566E+01 -0.24112120467E+02  0.26154460561E+02  0.51100000000E-03 0.  1.
        -12    1    4    4    0    0 -0.58583449499E+01 -0.12265130729E+02  0.17423824209E+01  0.13703632141E+02  0.00000000000E+00 0.  1.
</event>
<event>
 8    1  0.2534787E-006  0.9118800E+02  0.7816164E-02  0.1184000E+00
        -11   -1    0    0    0    0  0.00000000000E+00  0.00000000000E+00  0.45593999997E+02  0.45594000000E+02  0.51100000000E-03 0. -1.
         11   -1    0    0    0    0 -0.00000000000E+00 -0.00000000000E+00 -0.45593999997E+02  0.45594000000E+02  0.51100000000E-03 0.  1.
         23    2    1    2    0    0  0.22204460493E-15  0.00000000000E+00  0.00000000000E+00  0.91188000000E+02  0.91188000000E+02 0.  0.
    9900012    2    3    3    0    0  0.40254203796E-01 -0.15555054773E+01  0.36787978879E+02  0.54367128097E+02  0.40000100123E+02 0.  0.
        -12    1    3    3    0    0 -0.40254203796E-01  0.15555054773E+01 -0.36787978879E+02  0.36820871903E+02  0.00000000000E+00 0.  1.
         11    1    4    4    0    0 -0.68121693012E+01  0.12134761003E+02  0.35258684593E+02  0.37905578939E+02  0.51100000000E-03 0. -1.
        -11    1    4    4    0    0  0.32222911057E+01 -0.59513089237E+01  0.36009501768E+01  0.76660341972E+01  0.51100000000E-03 0.  1.
         12    1    4    4    0    0  0.36301323994E+01 -0.77389575563E+01 -0.20716558912E+01  0.87955149609E+01  0.00000000000E+00 0. -1.
</event>
<event>
 8    1  0.2534787E-006  0.9118800E+02  0.7816164E-02  0.1184000E+00
        -11   -1    0    0    0    0  0.00000000000E+00  0.00000000000E+00  0.45593999997E+02  0.45594000000E+02  0.51100000000E-03 0.  1.
         11   -1    0    0    0    0 -0.00000000000E+00 -0.00000000000E+00 -0.45593999997E+02  0.45594000000E+02  0.51100000000E-03 0. -1.
         23    2    1    2    0    0 -0.35527136788E-14  0.17763568394E-14 -0.17763568394E-14  0.91188000000E+02  0.91188000000E+02 0.  0.
    9900012    2    3    3    0    0 -0.31238594768E+02  0.15004306810E+02 -0.12441976659E+02  0.54367057466E+02  0.39999939105E+02 0.  0.
        -12    1    3    3    0    0  0.31238594768E+02 -0.15004306810E+02  0.12441976659E+02  0.36820942534E+02  0.00000000000E+00 0.  1.
         11    1    4    4    0    0 -0.12535703558E+02 -0.49036224782E+01 -0.79722458754E+01  0.15644362616E+02  0.51100000000E-03 0. -1.
        -11    1    4    4    0    0  0.19028605660E+01  0.13753077870E+00 -0.95320471401E+01  0.97210964397E+01  0.51100000000E-03 0.  1.
         12    1    4    4    0    0 -0.20605751776E+02  0.19770398509E+02  0.50623163564E+01  0.29001598411E+02  0.00000000000E+00 0. -1.
</event>
<event>
 8    1  0.2534787E-006  0.9118800E+02  0.7816164E-02  0.1184000E+00
        -11   -1    0    0    0    0  0.00000000000E+00  0.00000000000E+00  0.45593999997E+02  0.45594000000E+02  0.51100000000E-03 0.  1.
         11   -1    0    0    0    0 -0.00000000000E+00 -0.00000000000E+00 -0.45593999997E+02  0.45594000000E+02  0.51100000000E-03 0. -1.
         23    2    1    2    0    0 -0.35527136788E-14  0.00000000000E+00 -0.17763568394E-14  0.91188000000E+02  0.91188000000E+02 0.  0.
    9900012    2    3    3    0    0 -0.28704360779E+02 -0.16901726452E+02 -0.15689838322E+02  0.54367085952E+02  0.40000004044E+02 0.  0.
        -12    1    3    3    0    0  0.28704360779E+02  0.16901726452E+02  0.15689838322E+02  0.36820914048E+02  0.00000000000E+00 0.  1.
         11    1    4    4    0    0 -0.18875586825E+02  0.11769888496E+01 -0.87430480398E+01  0.20835401844E+02  0.51100000000E-03 0. -1.
        -11    1    4    4    0    0 -0.17933713432E+02 -0.96553733103E+01 -0.78022553470E+01  0.21810994933E+02  0.51100000000E-03 0.  1.
        -12    1    4    4    0    0  0.81049394777E+01 -0.84233419916E+01  0.85546506465E+00  0.11720689174E+02  0.00000000000E+00 0.  1.
</event>
<event>
 8    1  0.2534787E-006  0.9118800E+02  0.7816164E-02  0.1184000E+00
        -11   -1    0    0    0    0  0.00000000000E+00  0.00000000000E+00  0.45593999997E+02  0.45594000000E+02  0.51100000000E-03 0.  1.
         11   -1    0    0    0    0 -0.00000000000E+00 -0.00000000000E+00 -0.45593999997E+02  0.45594000000E+02  0.51100000000E-03 0. -1.
         23    2    1    2    0    0  0.00000000000E+00 -0.35527136788E-14 -0.35527136788E-14  0.91188000000E+02  0.91188000000E+02 0.  0.
    9900012    2    3    3    0    0  0.86751377667E+01 -0.26908285023E+02 -0.23589633002E+02  0.54367019523E+02  0.39999852605E+02 0.  0.
        -12    1    3    3    0    0 -0.86751377667E+01  0.26908285023E+02  0.23589633002E+02  0.36820980477E+02  0.00000000000E+00 0.  1.
         11    1    4    4    0    0  0.82021319883E+01 -0.85921710979E+01 -0.12084206225E+02  0.16944863932E+02  0.51100000000E-03 0. -1.
        -11    1    4    4    0    0 -0.28454121482E+01  0.39214826116E+00  0.90118004370E+01  0.94584722830E+01  0.51100000000E-03 0.  1.
        -12    1    4    4    0    0  0.33184179266E+01 -0.18708262186E+02 -0.20517227215E+02  0.27963683308E+02  0.00000000000E+00 0.  1.
</event>
<event>
 8    1  0.2534787E-006  0.9118800E+02  0.7816164E-02  0.1184000E+00
        -11   -1    0    0    0    0  0.00000000000E+00  0.00000000000E+00  0.45593999997E+02  0.45594000000E+02  0.51100000000E-03 0.  1.
         11   -1    0    0    0    0 -0.00000000000E+00 -0.00000000000E+00 -0.45593999997E+02  0.45594000000E+02  0.51100000000E-03 0. -1.
         23    2    1    2    0    0  0.00000000000E+00  0.00000000000E+00  0.35527136788E-14  0.91188000000E+02  0.91188000000E+02 0.  0.
    9900012    2    3    3    0    0 -0.23463626715E+02  0.50735512433E+01  0.27919483815E+02  0.54367078266E+02  0.39999986523E+02 0.  0.
         12    1    3    3    0    0  0.23463626715E+02 -0.50735512433E+01 -0.27919483815E+02  0.36820921734E+02  0.00000000000E+00 0. -1.
         11    1    4    4    0    0 -0.18653715336E+02 -0.73952262348E+01  0.12504818804E+02  0.23643624098E+02  0.51100000000E-03 0. -1.
        -11    1    4    4    0    0 -0.30782731278E+01 -0.66770045874E+01  0.41991648500E+01  0.84670621474E+01  0.51100000000E-03 0.  1.
         12    1    4    4    0    0 -0.17316382518E+01  0.19145782066E+02  0.11215500160E+02  0.22256392021E+02  0.00000000000E+00 0. -1.
</event>
<event>
 8    1  0.2534787E-006  0.9118800E+02  0.7816164E-02  0.1184000E+00
        -11   -1    0    0    0    0  0.00000000000E+00  0.00000000000E+00  0.45593999997E+02  0.45594000000E+02  0.51100000000E-03 0.  1.
         11   -1    0    0    0    0 -0.00000000000E+00 -0.00000000000E+00 -0.45593999997E+02  0.45594000000E+02  0.51100000000E-03 0. -1.
         23    2    1    2    0    0  0.71054273576E-14 -0.35527136788E-14  0.17763568394E-14  0.91188000000E+02  0.91188000000E+02 0.  0.
    9900012    2    3    3    0    0 -0.27177610641E+02 -0.23494984659E+02  0.80710775534E+01  0.54367094020E+02  0.40000022438E+02 0.  0.
        -12    1    3    3    0    0  0.27177610641E+02  0.23494984659E+02 -0.80710775534E+01  0.36820905980E+02  0.00000000000E+00 0.  1.
         11    1    4    4    0    0 -0.10816666225E+02 -0.15062711950E+02 -0.31086078254E+01  0.18802898777E+02  0.51100000000E-03 0. -1.
        -11    1    4    4    0    0 -0.16895365378E+02  0.40223046443E+01 -0.19290764961E+01  0.17474371013E+02  0.51100000000E-03 0.  1.
        -12    1    4    4    0    0  0.53442096237E+00 -0.12454577353E+02  0.13108761875E+02  0.18089824231E+02  0.00000000000E+00 0.  1.
</event>
<event>
 8    1  0.2534787E-006  0.9118800E+02  0.7816164E-02  0.1184000E+00
        -11   -1    0    0    0    0  0.00000000000E+00  0.00000000000E+00  0.45593999997E+02  0.45594000000E+02  0.51100000000E-03 0.  1.
         11   -1    0    0    0    0 -0.00000000000E+00 -0.00000000000E+00 -0.45593999997E+02  0.45594000000E+02  0.51100000000E-03 0. -1.
         23    2    1    2    0    0 -0.35527136788E-14  0.00000000000E+00  0.44408920985E-15  0.91188000000E+02  0.91188000000E+02 0.  0.
    9900012    2    3    3    0    0 -0.24453406218E+02 -0.27391537131E+02  0.27419401710E+01  0.54367032903E+02  0.39999883109E+02 0.  0.
         12    1    3    3    0    0  0.24453406218E+02  0.27391537131E+02 -0.27419401710E+01  0.36820967097E+02  0.00000000000E+00 0. -1.
         11    1    4    4    0    0 -0.25475931845E+02 -0.25945670248E+02  0.39634906602E+01  0.36577454347E+02  0.51100000000E-03 0. -1.
        -11    1    4    4    0    0 -0.51572694353E+01 -0.54699594911E+01  0.42232337221E+01  0.86228526716E+01  0.51100000000E-03 0.  1.
         12    1    4    4    0    0  0.61797950624E+01  0.40240926088E+01 -0.54447842114E+01  0.91667258848E+01  0.00000000000E+00 0. -1.
</event>
<event>
 8    1  0.2534787E-006  0.9118800E+02  0.7816164E-02  0.1184000E+00
        -11   -1    0    0    0    0  0.00000000000E+00  0.00000000000E+00  0.45593999997E+02  0.45594000000E+02  0.51100000000E-03 0.  1.
         11   -1    0    0    0    0 -0.00000000000E+00 -0.00000000000E+00 -0.45593999997E+02  0.45594000000E+02  0.51100000000E-03 0. -1.
         23    2    1    2    0    0  0.00000000000E+00  0.00000000000E+00 -0.35527136788E-14  0.91188000000E+02  0.91188000000E+02 0.  0.
    9900012    2    3    3    0    0 -0.10623489952E+02  0.15662632723E+02  0.31584871476E+02  0.54367072408E+02  0.39999973168E+02 0.  0.
         12    1    3    3    0    0  0.10623489952E+02 -0.15662632723E+02 -0.31584871476E+02  0.36820927592E+02  0.00000000000E+00 0. -1.
         11    1    4    4    0    0 -0.16123959186E+02  0.62650181786E+01  0.19252155694E+02  0.25882001695E+02  0.51100000000E-03 0. -1.
        -11    1    4    4    0    0 -0.10333635165E+01  0.42121473838E+01  0.17925165229E+02  0.18442385271E+02  0.51100000000E-03 0.  1.
         12    1    4    4    0    0  0.65338327504E+01  0.51854671604E+01 -0.55924494463E+01  0.10042685442E+02  0.00000000000E+00 0. -1.
</event>
<event>
 8    1  0.2534787E-006  0.9118800E+02  0.7816164E-02  0.1184000E+00
        -11   -1    0    0    0    0  0.00000000000E+00  0.00000000000E+00  0.45593999997E+02  0.45594000000E+02  0.51100000000E-03 0.  1.
         11   -1    0    0    0    0 -0.00000000000E+00 -0.00000000000E+00 -0.45593999997E+02  0.45594000000E+02  0.51100000000E-03 0. -1.
         23    2    1    2    0    0  0.35527136788E-14  0.00000000000E+00 -0.88817841970E-15  0.91188000000E+02  0.91188000000E+02 0.  0.
    9900012    2    3    3    0    0 -0.19517244030E+02 -0.31093058283E+02 -0.28423586106E+01  0.54367080805E+02  0.39999992310E+02 0.  0.
        -12    1    3    3    0    0  0.19517244030E+02  0.31093058283E+02  0.28423586106E+01  0.36820919195E+02  0.00000000000E+00 0.  1.
         11    1    4    4    0    0  0.97488970118E-01 -0.84108759006E+01  0.76050625426E+01  0.11339722838E+02  0.51100000000E-03 0. -1.
        -11    1    4    4    0    0 -0.12669300964E+02 -0.18368688124E+02  0.73076927112E+01  0.23480252625E+02  0.51100000000E-03 0.  1.
         12    1    4    4    0    0 -0.69454320362E+01 -0.43134942583E+01 -0.17755113864E+02  0.19547105341E+02  0.00000000000E+00 0. -1.
</event>
<event>
 8    1  0.2534787E-006  0.9118800E+02  0.7816164E-02  0.1184000E+00
        -11   -1    0    0    0    0  0.00000000000E+00  0.00000000000E+00  0.45593999997E+02  0.45594000000E+02  0.51100000000E-03 0.  1.
         11   -1    0    0    0    0 -0.00000000000E+00 -0.00000000000E+00 -0.45593999997E+02  0.45594000000E+02  0.51100000000E-03 0. -1.
         23    2    1    2    0    0  0.00000000000E+00  0.44408920985E-15  0.00000000000E+00  0.91188000000E+02  0.91188000000E+02 0.  0.
    9900012    2    3    3    0    0 -0.70845680000E+01  0.32933379945E+01  0.35982530027E+02  0.54367086838E+02  0.40000006065E+02 0.  0.
         12    1    3    3    0    0  0.70845680000E+01 -0.32933379945E+01 -0.35982530027E+02  0.36820913162E+02  0.00000000000E+00 0. -1.
         11    1    4    4    0    0 -0.50110251263E+01  0.13734514797E+02  0.10212439424E+02  0.17833709339E+02  0.51100000000E-03 0. -1.
        -11    1    4    4    0    0 -0.72942068217E+01  0.43422649314E+01  0.15850872475E+02  0.17980847487E+02  0.51100000000E-03 0.  1.
         12    1    4    4    0    0  0.52206639480E+01 -0.14783441734E+02  0.99192181287E+01  0.18552530012E+02  0.00000000000E+00 0. -1.
</event>
<event>
 8    1  0.2534787E-006  0.9118800E+02  0.7816164E-02  0.1184000E+00
        -11   -1    0    0    0    0  0.00000000000E+00  0.00000000000E+00  0.45593999997E+02  0.45594000000E+02  0.51100000000E-03 0. -1.
         11   -1    0    0    0    0 -0.00000000000E+00 -0.00000000000E+00 -0.45593999997E+02  0.45594000000E+02  0.51100000000E-03 0.  1.
         23    2    1    2    0    0 -0.71054273576E-14  0.00000000000E+00  0.00000000000E+00  0.91188000000E+02  0.91188000000E+02 0.  0.
    9900012    2    3    3    0    0  0.26688318155E+02  0.12110888176E+02 -0.22289933333E+02  0.54367067552E+02  0.39999962097E+02 0.  0.
         12    1    3    3    0    0 -0.26688318155E+02 -0.12110888176E+02  0.22289933333E+02  0.36820932448E+02  0.00000000000E+00 0. -1.
         11    1    4    4    0    0  0.37638261982E+00  0.98092693039E+01 -0.32183370240E+01  0.10330591542E+02  0.51100000000E-03 0. -1.
        -11    1    4    4    0    0  0.85938102144E+01  0.85418058981E+01 -0.21911078264E+02  0.25038198277E+02  0.51100000000E-03 0.  1.
         12    1    4    4    0    0  0.17718125321E+02 -0.62401870262E+01  0.28394819551E+01  0.18998277732E+02  0.00000000000E+00 0. -1.
</event>
<event>
 8    1  0.2534787E-006  0.9118800E+02  0.7816164E-02  0.1184000E+00
        -11   -1    0    0    0    0  0.00000000000E+00  0.00000000000E+00  0.45593999997E+02  0.45594000000E+02  0.51100000000E-03 0.  1.
         11   -1    0    0    0    0 -0.00000000000E+00 -0.00000000000E+00 -0.45593999997E+02  0.45594000000E+02  0.51100000000E-03 0. -1.
         23    2    1    2    0    0  0.00000000000E+00  0.00000000000E+00  0.00000000000E+00  0.91188000000E+02  0.91188000000E+02 0.  0.
    9900012    2    3    3    0    0  0.16463181631E+02  0.18646280212E+02  0.27148857729E+02  0.54367074005E+02  0.39999976809E+02 0.  0.
         12    1    3    3    0    0 -0.16463181631E+02 -0.18646280212E+02 -0.27148857729E+02  0.36820925995E+02  0.00000000000E+00 0. -1.
         11    1    4    4    0    0  0.17164882809E+01  0.54561704211E+00 -0.23475829988E+01  0.29589146950E+01  0.51100000000E-03 0. -1.
        -11    1    4    4    0    0  0.23535837246E+02  0.18937623388E+01  0.17868146853E+02  0.29610684607E+02  0.51100000000E-03 0.  1.
        -12    1    4    4    0    0 -0.87891438966E+01  0.16206900831E+02  0.11628293875E+02  0.21797474703E+02  0.00000000000E+00 0.  1.
</event>
<event>
 8    1  0.2534787E-006  0.9118800E+02  0.7816164E-02  0.1184000E+00
        -11   -1    0    0    0    0  0.00000000000E+00  0.00000000000E+00  0.45593999997E+02  0.45594000000E+02  0.51100000000E-03 0. -1.
         11   -1    0    0    0    0 -0.00000000000E+00 -0.00000000000E+00 -0.45593999997E+02  0.45594000000E+02  0.51100000000E-03 0.  1.
         23    2    1    2    0    0  0.17763568394E-14  0.00000000000E+00  0.00000000000E+00  0.91188000000E+02  0.91188000000E+02 0.  0.
    9900012    2    3    3    0    0  0.14439135900E+02 -0.31604274230E+02  0.12184452987E+02  0.54367086245E+02  0.40000004712E+02 0.  0.
        -12    1    3    3    0    0 -0.14439135900E+02  0.31604274230E+02 -0.12184452987E+02  0.36820913755E+02  0.00000000000E+00 0.  1.
         11    1    4    4    0    0  0.19392669687E+02 -0.15939156899E+02  0.13296834176E+02  0.28406656959E+02  0.51100000000E-03 0. -1.
        -11    1    4    4    0    0 -0.69178964523E+00  0.47645264301E+01  0.12042731109E+01  0.49628176475E+01  0.51100000000E-03 0.  1.
        -12    1    4    4    0    0 -0.42617441417E+01 -0.20429643762E+02 -0.23166542990E+01  0.20997611638E+02  0.00000000000E+00 0.  1.
</event>
<event>
 8    1  0.2534787E-006  0.9118800E+02  0.7816164E-02  0.1184000E+00
        -11   -1    0    0    0    0  0.00000000000E+00  0.00000000000E+00  0.45593999997E+02  0.45594000000E+02  0.51100000000E-03 0.  1.
         11   -1    0    0    0    0 -0.00000000000E+00 -0.00000000000E+00 -0.45593999997E+02  0.45594000000E+02  0.51100000000E-03 0. -1.
         23    2    1    2    0    0 -0.17763568394E-14 -0.71054273576E-14  0.35527136788E-14  0.91188000000E+02  0.91188000000E+02 0.  0.
    9900012    2    3    3    0    0  0.12519314389E+02  0.19841380403E+02 -0.28379004598E+02  0.54367061514E+02  0.39999948332E+02 0.  0.
        -12    1    3    3    0    0 -0.12519314389E+02 -0.19841380403E+02  0.28379004598E+02  0.36820938486E+02  0.00000000000E+00 0.  1.
         11    1    4    4    0    0  0.53878644949E+01 -0.58728385181E+01  0.28920632358E+01  0.84784046905E+01  0.51100000000E-03 0. -1.
        -11    1    4    4    0    0  0.29370879686E+01 -0.32130581537E+01 -0.41787294647E+01  0.60342363754E+01  0.51100000000E-03 0.  1.
        -12    1    4    4    0    0  0.41943619252E+01  0.28927277075E+02 -0.27092338369E+02  0.39854420448E+02  0.00000000000E+00 0.  1.
</event>
<event>
 8    1  0.2534787E-006  0.9118800E+02  0.7816164E-02  0.1184000E+00
        -11   -1    0    0    0    0  0.00000000000E+00  0.00000000000E+00  0.45593999997E+02  0.45594000000E+02  0.51100000000E-03 0.  1.
         11   -1    0    0    0    0 -0.00000000000E+00 -0.00000000000E+00 -0.45593999997E+02  0.45594000000E+02  0.51100000000E-03 0. -1.
         23    2    1    2    0    0  0.00000000000E+00 -0.35527136788E-14 -0.26645352591E-14  0.91188000000E+02  0.91188000000E+02 0.  0.
    9900012    2    3    3    0    0 -0.24693322278E+02 -0.27043023859E+02  0.38328644821E+01  0.54367134248E+02  0.40000114146E+02 0.  0.
        -12    1    3    3    0    0  0.24693322278E+02  0.27043023859E+02 -0.38328644821E+01  0.36820865752E+02  0.00000000000E+00 0.  1.
         11    1    4    4    0    0 -0.84041652748E+01 -0.17539229464E+02 -0.43498352648E+01  0.19929265697E+02  0.51100000000E-03 0. -1.
        -11    1    4    4    0    0 -0.99530071517E+01 -0.17162134208E+01 -0.96528174303E+01  0.13970849096E+02  0.51100000000E-03 0.  1.
        -12    1    4    4    0    0 -0.63361498520E+01 -0.77875809743E+01  0.17835517177E+02  0.20467019455E+02  0.00000000000E+00 0.  1.
</event>
<event>
 8    1  0.2534787E-006  0.9118800E+02  0.7816164E-02  0.1184000E+00
        -11   -1    0    0    0    0  0.00000000000E+00  0.00000000000E+00  0.45593999997E+02  0.45594000000E+02  0.51100000000E-03 0.  1.
         11   -1    0    0    0    0 -0.00000000000E+00 -0.00000000000E+00 -0.45593999997E+02  0.45594000000E+02  0.51100000000E-03 0. -1.
         23    2    1    2    0    0 -0.35527136788E-14  0.00000000000E+00  0.00000000000E+00  0.91188000000E+02  0.91188000000E+02 0.  0.
    9900012    2    3    3    0    0 -0.24386749429E+02  0.19225738680E+02 -0.19784794070E+02  0.54367073180E+02  0.39999974928E+02 0.  0.
        -12    1    3    3    0    0  0.24386749429E+02 -0.19225738680E+02  0.19784794070E+02  0.36820926820E+02  0.00000000000E+00 0.  1.
         11    1    4    4    0    0  0.17450210628E+01 -0.73997761520E+00 -0.14429776452E+02  0.14553731965E+02  0.51100000000E-03 0. -1.
        -11    1    4    4    0    0 -0.33514478000E+01  0.26315939098E+01  0.73493838746E+01  0.84953476950E+01  0.51100000000E-03 0.  1.
         12    1    4    4    0    0 -0.22780322692E+02  0.17334122385E+02 -0.12704401492E+02  0.31317993520E+02  0.00000000000E+00 0. -1.
</event>
<event>
 8    1  0.2534787E-006  0.9118800E+02  0.7816164E-02  0.1184000E+00
        -11   -1    0    0    0    0  0.00000000000E+00  0.00000000000E+00  0.45593999997E+02  0.45594000000E+02  0.51100000000E-03 0.  1.
         11   -1    0    0    0    0 -0.00000000000E+00 -0.00000000000E+00 -0.45593999997E+02  0.45594000000E+02  0.51100000000E-03 0. -1.
         23    2    1    2    0    0  0.00000000000E+00  0.35527136788E-14  0.00000000000E+00  0.91188000000E+02  0.91188000000E+02 0.  0.
    9900012    2    3    3    0    0 -0.10700621426E+02  0.25014265768E+02  0.24810536292E+02  0.54367088795E+02  0.40000010526E+02 0.  0.
         12    1    3    3    0    0  0.10700621426E+02 -0.25014265768E+02 -0.24810536292E+02  0.36820911205E+02  0.00000000000E+00 0. -1.
         11    1    4    4    0    0 -0.86143561825E+01  0.24397196556E+02  0.17052090716E+02  0.30987160733E+02  0.51100000000E-03 0.  1.
        -11    1    4    4    0    0 -0.61419481502E-01  0.10151198644E+02 -0.10977630494E+01  0.10210567577E+02  0.51100000000E-03 0. -1.
        -12    1    4    4    0    0 -0.20248457622E+01 -0.95341294317E+01  0.88562086255E+01  0.13169360486E+02  0.00000000000E+00 0.  1.
</event>
<event>
 8    1  0.2534787E-006  0.9118800E+02  0.7816164E-02  0.1184000E+00
        -11   -1    0    0    0    0  0.00000000000E+00  0.00000000000E+00  0.45593999997E+02  0.45594000000E+02  0.51100000000E-03 0. -1.
         11   -1    0    0    0    0 -0.00000000000E+00 -0.00000000000E+00 -0.45593999997E+02  0.45594000000E+02  0.51100000000E-03 0.  1.
         23    2    1    2    0    0  0.00000000000E+00  0.00000000000E+00  0.88817841970E-15  0.91188000000E+02  0.91188000000E+02 0.  0.
    9900012    2    3    3    0    0 -0.34814287684E+02  0.11558166495E+02  0.31862655675E+01  0.54367107453E+02  0.40000053060E+02 0.  0.
        -12    1    3    3    0    0  0.34814287684E+02 -0.11558166495E+02 -0.31862655675E+01  0.36820892547E+02  0.00000000000E+00 0.  1.
         11    1    4    4    0    0 -0.18806961768E+02 -0.40666667850E+01  0.18515921011E+01  0.19330493612E+02  0.51100000000E-03 0. -1.
        -11    1    4    4    0    0 -0.14274801590E+02  0.97824242550E+01 -0.11534953458E+02  0.20797137695E+02  0.51100000000E-03 0.  1.
         12    1    4    4    0    0 -0.17325243259E+01  0.58424090251E+01  0.12869626925E+02  0.14239476147E+02  0.00000000000E+00 0. -1.
</event>
<event>
 8    1  0.2534787E-006  0.9118800E+02  0.7816164E-02  0.1184000E+00
        -11   -1    0    0    0    0  0.00000000000E+00  0.00000000000E+00  0.45593999997E+02  0.45594000000E+02  0.51100000000E-03 0.  1.
         11   -1    0    0    0    0 -0.00000000000E+00 -0.00000000000E+00 -0.45593999997E+02  0.45594000000E+02  0.51100000000E-03 0. -1.
         23    2    1    2    0    0 -0.22204460493E-15  0.00000000000E+00  0.00000000000E+00  0.91188000000E+02  0.91188000000E+02 0.  0.
    9900012    2    3    3    0    0  0.12525764867E+01 -0.15135944832E+02  0.33542727299E+02  0.54367077572E+02  0.39999984940E+02 0.  0.
         12    1    3    3    0    0 -0.12525764867E+01  0.15135944832E+02 -0.33542727299E+02  0.36820922428E+02  0.00000000000E+00 0. -1.
         11    1    4    4    0    0  0.26776567637E+01 -0.70689352934E+01  0.27011546873E+01  0.80271993143E+01  0.51100000000E-03 0. -1.
        -11    1    4    4    0    0  0.42885490713E+01  0.56999276078E+01 -0.41874938190E+01  0.82713924230E+01  0.51100000000E-03 0.  1.
        -12    1    4    4    0    0 -0.57136293482E+01 -0.13766937147E+02  0.35029066431E+02  0.38068485834E+02  0.00000000000E+00 0.  1.
</event>
<event>
 8    1  0.2534787E-006  0.9118800E+02  0.7816164E-02  0.1184000E+00
        -11   -1    0    0    0    0  0.00000000000E+00  0.00000000000E+00  0.45593999997E+02  0.45594000000E+02  0.51100000000E-03 0. -1.
         11   -1    0    0    0    0 -0.00000000000E+00 -0.00000000000E+00 -0.45593999997E+02  0.45594000000E+02  0.51100000000E-03 0.  1.
         23    2    1    2    0    0 -0.17763568394E-14  0.17763568394E-14  0.35527136788E-14  0.91188000000E+02  0.91188000000E+02 0.  0.
    9900012    2    3    3    0    0 -0.12819085786E+02  0.14362562706E+02  0.31387386292E+02  0.54367079504E+02  0.39999989346E+02 0.  0.
        -12    1    3    3    0    0  0.12819085786E+02 -0.14362562706E+02 -0.31387386292E+02  0.36820920496E+02  0.00000000000E+00 0.  1.
         11    1    4    4    0    0 -0.10619192761E+02  0.14969233242E+02  0.27895024890E+02  0.33391280488E+02  0.51100000000E-03 0. -1.
        -11    1    4    4    0    0  0.19163143140E+01  0.95080954863E+01  0.82364997741E+00  0.97341943618E+01  0.51100000000E-03 0.  1.
         12    1    4    4    0    0 -0.41162073397E+01 -0.10114766022E+02  0.26687114246E+01  0.11241604655E+02  0.00000000000E+00 0. -1.
</event>
<event>
 8    1  0.2534787E-006  0.9118800E+02  0.7816164E-02  0.1184000E+00
        -11   -1    0    0    0    0  0.00000000000E+00  0.00000000000E+00  0.45593999997E+02  0.45594000000E+02  0.51100000000E-03 0. -1.
         11   -1    0    0    0    0 -0.00000000000E+00 -0.00000000000E+00 -0.45593999997E+02  0.45594000000E+02  0.51100000000E-03 0.  1.
         23    2    1    2    0    0 -0.55511151231E-16  0.71054273576E-14  0.00000000000E+00  0.91188000000E+02  0.91188000000E+02 0.  0.
    9900012    2    3    3    0    0  0.25659359345E+00  0.32427263913E+02  0.17440888163E+02  0.54367111023E+02  0.40000061200E+02 0.  0.
        -12    1    3    3    0    0 -0.25659359345E+00 -0.32427263913E+02 -0.17440888163E+02  0.36820888977E+02  0.00000000000E+00 0.  1.
         11    1    4    4    0    0  0.78091914544E+01  0.77303443469E+01  0.11990313953E+02  0.16263742615E+02  0.51100000000E-03 0. -1.
        -11    1    4    4    0    0  0.95503300719E+01  0.11464005497E+02 -0.23704064641E+01  0.15107979798E+02  0.51100000000E-03 0.  1.
         12    1    4    4    0    0 -0.17102927933E+02  0.13232914069E+02  0.78209806743E+01  0.22995388610E+02  0.00000000000E+00 0. -1.
</event>
<event>
 8    1  0.2534787E-006  0.9118800E+02  0.7816164E-02  0.1184000E+00
        -11   -1    0    0    0    0  0.00000000000E+00  0.00000000000E+00  0.45593999997E+02  0.45594000000E+02  0.51100000000E-03 0. -1.
         11   -1    0    0    0    0 -0.00000000000E+00 -0.00000000000E+00 -0.45593999997E+02  0.45594000000E+02  0.51100000000E-03 0.  1.
         23    2    1    2    0    0  0.00000000000E+00  0.00000000000E+00  0.00000000000E+00  0.91188000000E+02  0.91188000000E+02 0.  0.
    9900012    2    3    3    0    0 -0.39981098846E+01 -0.36561016330E+02 -0.17559389032E+01  0.54367134731E+02  0.40000115246E+02 0.  0.
        -12    1    3    3    0    0  0.39981098846E+01  0.36561016330E+02  0.17559389032E+01  0.36820865269E+02  0.00000000000E+00 0.  1.
         11    1    4    4    0    0 -0.15143289632E+01 -0.39791471172E+02  0.17946797139E+01  0.39860698009E+02  0.51100000000E-03 0. -1.
        -11    1    4    4    0    0  0.47254063133E+01  0.46218890305E+01 -0.26000198801E+01  0.71029167723E+01  0.51100000000E-03 0.  1.
        -12    1    4    4    0    0 -0.72091872347E+01 -0.13914341889E+01 -0.95059873702E+00  0.74035199497E+01  0.00000000000E+00 0.  1.
</event>
<event>
 8    1  0.2534787E-006  0.9118800E+02  0.7816164E-02  0.1184000E+00
        -11   -1    0    0    0    0  0.00000000000E+00  0.00000000000E+00  0.45593999997E+02  0.45594000000E+02  0.51100000000E-03 0.  1.
         11   -1    0    0    0    0 -0.00000000000E+00 -0.00000000000E+00 -0.45593999997E+02  0.45594000000E+02  0.51100000000E-03 0. -1.
         23    2    1    2    0    0  0.17763568394E-14  0.00000000000E+00  0.71054273576E-14  0.91188000000E+02  0.91188000000E+02 0.  0.
    9900012    2    3    3    0    0 -0.10610437322E+02 -0.10665042825E+02 -0.33607364122E+02  0.54367089612E+02  0.40000012387E+02 0.  0.
        -12    1    3    3    0    0  0.10610437322E+02  0.10665042825E+02  0.33607364122E+02  0.36820910388E+02  0.00000000000E+00 0.  1.
         11    1    4    4    0    0 -0.21388623850E+01 -0.14041777627E+02 -0.40843127502E+01  0.14779305198E+02  0.51100000000E-03 0.  1.
        -11    1    4    4    0    0  0.82048170248E+01  0.16305058650E+01 -0.45922130844E+01  0.95428503635E+01  0.51100000000E-03 0. -1.
         12    1    4    4    0    0 -0.16676391962E+02  0.17462289374E+01 -0.24930838287E+02  0.30044934050E+02  0.00000000000E+00 0. -1.
</event>
<event>
 8    1  0.2534787E-006  0.9118800E+02  0.7816164E-02  0.1184000E+00
        -11   -1    0    0    0    0  0.00000000000E+00  0.00000000000E+00  0.45593999997E+02  0.45594000000E+02  0.51100000000E-03 0.  1.
         11   -1    0    0    0    0 -0.00000000000E+00 -0.00000000000E+00 -0.45593999997E+02  0.45594000000E+02  0.51100000000E-03 0. -1.
         23    2    1    2    0    0 -0.71054273576E-14 -0.44408920985E-15  0.19984014443E-14  0.91188000000E+02  0.91188000000E+02 0.  0.
    9900012    2    3    3    0    0  0.36772129227E+02  0.17485543757E+01 -0.72931272618E+00  0.54367097956E+02  0.40000031409E+02 0.  0.
        -12    1    3    3    0    0 -0.36772129227E+02 -0.17485543757E+01  0.72931272618E+00  0.36820902044E+02  0.00000000000E+00 0.  1.
         11    1    4    4    0    0  0.17363869733E+02  0.48210902265E+01 -0.11270919226E+02  0.21255128876E+02  0.51100000000E-03 0. -1.
        -11    1    4    4    0    0  0.22746841423E+02 -0.29524883032E+01  0.15099076286E+02  0.27461210586E+02  0.51100000000E-03 0.  1.
        -12    1    4    4    0    0 -0.33385819282E+01 -0.12004754763E+00 -0.45574697861E+01  0.56507584939E+01  0.00000000000E+00 0.  1.
</event>
<event>
 8    1  0.2534787E-006  0.9118800E+02  0.7816164E-02  0.1184000E+00
        -11   -1    0    0    0    0  0.00000000000E+00  0.00000000000E+00  0.45593999997E+02  0.45594000000E+02  0.51100000000E-03 0.  1.
         11   -1    0    0    0    0 -0.00000000000E+00 -0.00000000000E+00 -0.45593999997E+02  0.45594000000E+02  0.51100000000E-03 0. -1.
         23    2    1    2    0    0  0.35527136788E-14  0.00000000000E+00  0.00000000000E+00  0.91188000000E+02  0.91188000000E+02 0.  0.
    9900012    2    3    3    0    0 -0.11960715738E+02  0.33771751663E+02 -0.84954673106E+01  0.54367314290E+02  0.40000524583E+02 0.  0.
        -12    1    3    3    0    0  0.11960715738E+02 -0.33771751663E+02  0.84954673106E+01  0.36820685710E+02  0.00000000000E+00 0.  1.
         11    1    4    4    0    0 -0.18364970126E+02  0.44628400684E+01  0.38197565588E+00  0.18903305924E+02  0.51100000000E-03 0. -1.
        -11    1    4    4    0    0  0.12013550431E+01  0.29022071768E+02 -0.66579060475E+01  0.29800194913E+02  0.51100000000E-03 0.  1.
        -12    1    4    4    0    0  0.52028993453E+01  0.28683982629E+00 -0.22195369189E+01  0.56638134519E+01  0.00000000000E+00 0.  1.
</event>
<event>
 8    1  0.2534787E-006  0.9118800E+02  0.7816164E-02  0.1184000E+00
        -11   -1    0    0    0    0  0.00000000000E+00  0.00000000000E+00  0.45593999997E+02  0.45594000000E+02  0.51100000000E-03 0. -1.
         11   -1    0    0    0    0 -0.00000000000E+00 -0.00000000000E+00 -0.45593999997E+02  0.45594000000E+02  0.51100000000E-03 0.  1.
         23    2    1    2    0    0  0.00000000000E+00  0.00000000000E+00  0.88817841970E-15  0.91188000000E+02  0.91188000000E+02 0.  0.
    9900012    2    3    3    0    0 -0.19524242318E+02  0.31111971976E+02 -0.25749330065E+01  0.54367066846E+02  0.39999960489E+02 0.  0.
        -12    1    3    3    0    0  0.19524242318E+02 -0.31111971976E+02  0.25749330065E+01  0.36820933154E+02  0.00000000000E+00 0.  1.
         11    1    4    4    0    0 -0.72053079434E+01  0.21922723220E+02 -0.12994491448E+02  0.26483562151E+02  0.51100000000E-03 0. -1.
        -11    1    4    4    0    0 -0.12844929936E+02  0.15055559924E+02  0.65929675735E+01  0.20859753866E+02  0.51100000000E-03 0.  1.
         12    1    4    4    0    0  0.52599556113E+00 -0.58663111672E+01  0.38265908681E+01  0.70237508293E+01  0.00000000000E+00 0. -1.
</event>
<event>
 8    1  0.2534787E-006  0.9118800E+02  0.7816164E-02  0.1184000E+00
        -11   -1    0    0    0    0  0.00000000000E+00  0.00000000000E+00  0.45593999997E+02  0.45594000000E+02  0.51100000000E-03 0. -1.
         11   -1    0    0    0    0 -0.00000000000E+00 -0.00000000000E+00 -0.45593999997E+02  0.45594000000E+02  0.51100000000E-03 0.  1.
         23    2    1    2    0    0  0.00000000000E+00  0.00000000000E+00  0.44408920985E-15  0.91188000000E+02  0.91188000000E+02 0.  0.
    9900012    2    3    3    0    0  0.91526179919E+01  0.35470561312E+02 -0.37214504268E+01  0.54367077562E+02  0.39999984918E+02 0.  0.
         12    1    3    3    0    0 -0.91526179919E+01 -0.35470561312E+02  0.37214504268E+01  0.36820922438E+02  0.00000000000E+00 0. -1.
         11    1    4    4    0    0  0.37986311509E+01  0.11239894169E+02  0.37456175673E+01  0.12441642608E+02  0.51100000000E-03 0. -1.
        -11    1    4    4    0    0  0.12538183029E+02  0.39017941500E+01 -0.14196858789E+02  0.19338583997E+02  0.51100000000E-03 0.  1.
        -12    1    4    4    0    0 -0.71841961878E+01  0.20328872993E+02  0.67297907951E+01  0.22586850958E+02  0.00000000000E+00 0.  1.
</event>
<event>
 8    1  0.2534787E-006  0.9118800E+02  0.7816164E-02  0.1184000E+00
        -11   -1    0    0    0    0  0.00000000000E+00  0.00000000000E+00  0.45593999997E+02  0.45594000000E+02  0.51100000000E-03 0.  1.
         11   -1    0    0    0    0 -0.00000000000E+00 -0.00000000000E+00 -0.45593999997E+02  0.45594000000E+02  0.51100000000E-03 0. -1.
         23    2    1    2    0    0  0.35527136788E-14  0.00000000000E+00  0.35527136788E-14  0.91188000000E+02  0.91188000000E+02 0.  0.
    9900012    2    3    3    0    0 -0.26143104207E+02 -0.12268565607E+02 -0.22842951004E+02  0.54367081894E+02  0.39999994794E+02 0.  0.
        -12    1    3    3    0    0  0.26143104207E+02  0.12268565607E+02  0.22842951004E+02  0.36820918106E+02  0.00000000000E+00 0.  1.
         11    1    4    4    0    0  0.14625066731E-01 -0.42662089046E+01 -0.18955769966E+02  0.19429924538E+02  0.51100000000E-03 0. -1.
        -11    1    4    4    0    0 -0.26457418409E+02 -0.11191265213E+02 -0.79089288334E+01  0.29795814496E+02  0.51100000000E-03 0.  1.
        -12    1    4    4    0    0  0.29968913514E+00  0.31889085112E+01  0.40217477954E+01  0.51413428596E+01  0.00000000000E+00 0.  1.
</event>
<event>
 8    1  0.2534787E-006  0.9118800E+02  0.7816164E-02  0.1184000E+00
        -11   -1    0    0    0    0  0.00000000000E+00  0.00000000000E+00  0.45593999997E+02  0.45594000000E+02  0.51100000000E-03 0.  1.
         11   -1    0    0    0    0 -0.00000000000E+00 -0.00000000000E+00 -0.45593999997E+02  0.45594000000E+02  0.51100000000E-03 0. -1.
         23    2    1    2    0    0  0.00000000000E+00  0.00000000000E+00 -0.35527136788E-14  0.91188000000E+02  0.91188000000E+02 0.  0.
    9900012    2    3    3    0    0  0.23289258744E+02  0.11485548535E+02 -0.26105023166E+02  0.54367087022E+02  0.40000006485E+02 0.  0.
        -12    1    3    3    0    0 -0.23289258744E+02 -0.11485548535E+02  0.26105023166E+02  0.36820912978E+02  0.00000000000E+00 0.  1.
         11    1    4    4    0    0  0.98710441702E+01  0.14996552610E+02 -0.29452078366E+02  0.34492883665E+02  0.51100000000E-03 0. -1.
        -11    1    4    4    0    0 -0.12707346362E+01 -0.23904650586E+01 -0.28151740903E+01  0.39056747345E+01  0.51100000000E-03 0.  1.
         12    1    4    4    0    0  0.14688949210E+02 -0.11205390157E+01  0.61622292896E+01  0.15968528623E+02  0.00000000000E+00 0. -1.
</event>
<event>
 8    1  0.2534787E-006  0.9118800E+02  0.7816164E-02  0.1184000E+00
        -11   -1    0    0    0    0  0.00000000000E+00  0.00000000000E+00  0.45593999997E+02  0.45594000000E+02  0.51100000000E-03 0. -1.
         11   -1    0    0    0    0 -0.00000000000E+00 -0.00000000000E+00 -0.45593999997E+02  0.45594000000E+02  0.51100000000E-03 0.  1.
         23    2    1    2    0    0  0.35527136788E-14  0.35527136788E-14  0.00000000000E+00  0.91188000000E+02  0.91188000000E+02 0.  0.
    9900012    2    3    3    0    0 -0.21115222256E+02 -0.23051214378E+02  0.19456798169E+02  0.54367107966E+02  0.40000054229E+02 0.  0.
        -12    1    3    3    0    0  0.21115222256E+02  0.23051214378E+02 -0.19456798169E+02  0.36820892034E+02  0.00000000000E+00 0.  1.
         11    1    4    4    0    0 -0.74169896822E+01 -0.50750673503E+01  0.57899663179E+01  0.10690732191E+02  0.51100000000E-03 0. -1.
        -11    1    4    4    0    0  0.54222769625E+01  0.33161111245E+01 -0.61683640503E+01  0.88569969949E+01  0.51100000000E-03 0.  1.
        -12    1    4    4    0    0 -0.19120509536E+02 -0.21292258152E+02  0.19835195902E+02  0.34819378780E+02  0.00000000000E+00 0.  1.
</event>
<event>
 8    1  0.2534787E-006  0.9118800E+02  0.7816164E-02  0.1184000E+00
        -11   -1    0    0    0    0  0.00000000000E+00  0.00000000000E+00  0.45593999997E+02  0.45594000000E+02  0.51100000000E-03 0.  1.
         11   -1    0    0    0    0 -0.00000000000E+00 -0.00000000000E+00 -0.45593999997E+02  0.45594000000E+02  0.51100000000E-03 0. -1.
         23    2    1    2    0    0  0.71054273576E-14  0.16653345369E-15 -0.35527136788E-14  0.91188000000E+02  0.91188000000E+02 0.  0.
    9900012    2    3    3    0    0 -0.34741346349E+02  0.22720899962E+00  0.12196916732E+02  0.54367115330E+02  0.40000071018E+02 0.  0.
         12    1    3    3    0    0  0.34741346349E+02 -0.22720899962E+00 -0.12196916732E+02  0.36820884670E+02  0.00000000000E+00 0. -1.
         11    1    4    4    0    0 -0.84987696129E-01  0.81821284260E+01 -0.78120398015E+01  0.11312931300E+02  0.51100000000E-03 0. -1.
        -11    1    4    4    0    0 -0.10596133992E+02 -0.13513272600E+01 -0.59197789605E+00  0.10698344686E+02  0.51100000000E-03 0.  1.
        -12    1    4    4    0    0 -0.24060224662E+02 -0.66035921663E+01  0.20600934429E+02  0.32355839344E+02  0.00000000000E+00 0.  1.
</event>
<event>
 8    1  0.2534787E-006  0.9118800E+02  0.7816164E-02  0.1184000E+00
        -11   -1    0    0    0    0  0.00000000000E+00  0.00000000000E+00  0.45593999997E+02  0.45594000000E+02  0.51100000000E-03 0.  1.
         11   -1    0    0    0    0 -0.00000000000E+00 -0.00000000000E+00 -0.45593999997E+02  0.45594000000E+02  0.51100000000E-03 0. -1.
         23    2    1    2    0    0  0.35527136788E-14 -0.35527136788E-14  0.35527136788E-14  0.91188000000E+02  0.91188000000E+02 0.  0.
    9900012    2    3    3    0    0  0.16408729065E+02  0.24754206297E+02  0.21766066093E+02  0.54367098977E+02  0.40000033739E+02 0.  0.
         12    1    3    3    0    0 -0.16408729065E+02 -0.24754206297E+02 -0.21766066093E+02  0.36820901023E+02  0.00000000000E+00 0. -1.
         11    1    4    4    0    0 -0.59743485644E+01  0.27698439655E+00  0.11428114160E+02  0.12898502031E+02  0.51100000000E-03 0. -1.
        -11    1    4    4    0    0  0.12151574442E+02  0.19620498616E+01  0.11313577951E+02  0.16718476228E+02  0.51100000000E-03 0.  1.
        -12    1    4    4    0    0  0.10231503188E+02  0.22515172039E+02 -0.97562601798E+00  0.24750120718E+02  0.00000000000E+00 0.  1.
</event>
<event>
 8    1  0.2534787E-006  0.9118800E+02  0.7816164E-02  0.1184000E+00
        -11   -1    0    0    0    0  0.00000000000E+00  0.00000000000E+00  0.45593999997E+02  0.45594000000E+02  0.51100000000E-03 0.  1.
         11   -1    0    0    0    0 -0.00000000000E+00 -0.00000000000E+00 -0.45593999997E+02  0.45594000000E+02  0.51100000000E-03 0. -1.
         23    2    1    2    0    0 -0.35527136788E-14  0.00000000000E+00  0.00000000000E+00  0.91188000000E+02  0.91188000000E+02 0.  0.
    9900012    2    3    3    0    0 -0.23759285885E+02  0.82728632064E+01 -0.26885623980E+02  0.54367072416E+02  0.39999973186E+02 0.  0.
        -12    1    3    3    0    0  0.23759285885E+02 -0.82728632064E+01  0.26885623980E+02  0.36820927584E+02  0.00000000000E+00 0.  1.
         11    1    4    4    0    0 -0.20535682455E+02  0.70839872932E+01 -0.19595499388E+02  0.29255439261E+02  0.51100000000E-03 0. -1.
        -11    1    4    4    0    0 -0.19279443176E+01  0.66662628198E+01 -0.14434785436E+02  0.16016212415E+02  0.51100000000E-03 0.  1.
         12    1    4    4    0    0 -0.12956591127E+01 -0.54773869065E+01  0.71446608438E+01  0.90954207398E+01  0.00000000000E+00 0. -1.
</event>
<event>
 8    1  0.2534787E-006  0.9118800E+02  0.7816164E-02  0.1184000E+00
        -11   -1    0    0    0    0  0.00000000000E+00  0.00000000000E+00  0.45593999997E+02  0.45594000000E+02  0.51100000000E-03 0. -1.
         11   -1    0    0    0    0 -0.00000000000E+00 -0.00000000000E+00 -0.45593999997E+02  0.45594000000E+02  0.51100000000E-03 0.  1.
         23    2    1    2    0    0 -0.26645352591E-14  0.00000000000E+00  0.00000000000E+00  0.91188000000E+02  0.91188000000E+02 0.  0.
    9900012    2    3    3    0    0 -0.48487594445E+01 -0.28654105778E+02  0.22609965552E+02  0.54367098486E+02  0.40000032618E+02 0.  0.
        -12    1    3    3    0    0  0.48487594445E+01  0.28654105778E+02 -0.22609965552E+02  0.36820901514E+02  0.00000000000E+00 0.  1.
         11    1    4    4    0    0 -0.84406861564E+01 -0.68168248143E+01  0.30830332088E+01  0.11279156767E+02  0.51100000000E-03 0. -1.
        -11    1    4    4    0    0  0.88952007538E+01 -0.10857447709E+02 -0.56368061320E+01  0.15125552910E+02  0.51100000000E-03 0.  1.
        -12    1    4    4    0    0 -0.53032740419E+01 -0.10979833254E+02  0.25163738475E+02  0.27962388809E+02  0.00000000000E+00 0.  1.
</event>
<event>
 8    1  0.2534787E-006  0.9118800E+02  0.7816164E-02  0.1184000E+00
        -11   -1    0    0    0    0  0.00000000000E+00  0.00000000000E+00  0.45593999997E+02  0.45594000000E+02  0.51100000000E-03 0.  1.
         11   -1    0    0    0    0 -0.00000000000E+00 -0.00000000000E+00 -0.45593999997E+02  0.45594000000E+02  0.51100000000E-03 0. -1.
         23    2    1    2    0    0  0.00000000000E+00  0.88817841970E-15  0.00000000000E+00  0.91188000000E+02  0.91188000000E+02 0.  0.
    9900012    2    3    3    0    0  0.18323391739E+02 -0.37392002410E+01  0.31718323310E+02  0.54367077457E+02  0.39999984680E+02 0.  0.
         12    1    3    3    0    0 -0.18323391739E+02  0.37392002410E+01 -0.31718323310E+02  0.36820922543E+02  0.00000000000E+00 0. -1.
         11    1    4    4    0    0  0.15091699771E+02 -0.12723784109E+02  0.22190344248E+02  0.29699586902E+02  0.51100000000E-03 0. -1.
        -11    1    4    4    0    0  0.87858164661E+01  0.24513685828E+01 -0.28973266385E+01  0.95704901032E+01  0.51100000000E-03 0.  1.
         12    1    4    4    0    0 -0.55541244981E+01  0.65332152850E+01  0.12425305700E+02  0.15097000452E+02  0.00000000000E+00 0. -1.
</event>
<event>
 8    1  0.2534787E-006  0.9118800E+02  0.7816164E-02  0.1184000E+00
        -11   -1    0    0    0    0  0.00000000000E+00  0.00000000000E+00  0.45593999997E+02  0.45594000000E+02  0.51100000000E-03 0.  1.
         11   -1    0    0    0    0 -0.00000000000E+00 -0.00000000000E+00 -0.45593999997E+02  0.45594000000E+02  0.51100000000E-03 0. -1.
         23    2    1    2    0    0  0.00000000000E+00  0.00000000000E+00  0.17763568394E-14  0.91188000000E+02  0.91188000000E+02 0.  0.
    9900012    2    3    3    0    0 -0.83343567539E+01 -0.32939088757E+02  0.14189267488E+02  0.54367076838E+02  0.39999983268E+02 0.  0.
        -12    1    3    3    0    0  0.83343567539E+01  0.32939088757E+02 -0.14189267488E+02  0.36820923162E+02  0.00000000000E+00 0.  1.
         11    1    4    4    0    0 -0.69344696149E+01 -0.19946125439E+02  0.14632442410E+01  0.21167802740E+02  0.51100000000E-03 0. -1.
        -11    1    4    4    0    0 -0.36527988903E+01 -0.20223278500E+02  0.14825958678E+02  0.25340343013E+02  0.51100000000E-03 0.  1.
         12    1    4    4    0    0  0.22529117513E+01  0.72303151823E+01 -0.20999354306E+01  0.78589310856E+01  0.00000000000E+00 0. -1.
</event>
<event>
 8    1  0.2534787E-006  0.9118800E+02  0.7816164E-02  0.1184000E+00
        -11   -1    0    0    0    0  0.00000000000E+00  0.00000000000E+00  0.45593999997E+02  0.45594000000E+02  0.51100000000E-03 0. -1.
         11   -1    0    0    0    0 -0.00000000000E+00 -0.00000000000E+00 -0.45593999997E+02  0.45594000000E+02  0.51100000000E-03 0.  1.
         23    2    1    2    0    0  0.00000000000E+00 -0.35527136788E-14  0.10658141036E-13  0.91188000000E+02  0.91188000000E+02 0.  0.
    9900012    2    3    3    0    0  0.66581994265E+01 -0.23370150698E+02  0.27663877773E+02  0.54367004675E+02  0.39999818758E+02 0.  0.
        -12    1    3    3    0    0 -0.66581994265E+01  0.23370150698E+02 -0.27663877773E+02  0.36820995325E+02  0.00000000000E+00 0.  1.
         11    1    4    4    0    0  0.29491033771E+00 -0.74676626946E+01  0.55921072702E+01  0.93340571141E+01  0.51100000000E-03 0. -1.
        -11    1    4    4    0    0 -0.12473336303E+02 -0.12464175145E+02  0.27789967978E+01  0.17851123327E+02  0.51100000000E-03 0.  1.
        -12    1    4    4    0    0  0.18836625392E+02 -0.34383128589E+01  0.19292773705E+02  0.27181824234E+02  0.00000000000E+00 0.  1.
</event>
<event>
 8    1  0.2534787E-006  0.9118800E+02  0.7816164E-02  0.1184000E+00
        -11   -1    0    0    0    0  0.00000000000E+00  0.00000000000E+00  0.45593999997E+02  0.45594000000E+02  0.51100000000E-03 0.  1.
         11   -1    0    0    0    0 -0.00000000000E+00 -0.00000000000E+00 -0.45593999997E+02  0.45594000000E+02  0.51100000000E-03 0. -1.
         23    2    1    2    0    0  0.00000000000E+00 -0.17763568394E-14 -0.35527136788E-14  0.91188000000E+02  0.91188000000E+02 0.  0.
    9900012    2    3    3    0    0  0.28446491074E+02 -0.13800763902E+02 -0.18871089448E+02  0.54367055476E+02  0.39999934568E+02 0.  0.
         12    1    3    3    0    0 -0.28446491074E+02  0.13800763902E+02  0.18871089448E+02  0.36820944524E+02  0.00000000000E+00 0. -1.
         11    1    4    4    0    0  0.58008458694E+01  0.29900557885E+01 -0.46659511465E+01  0.80225523857E+01  0.51100000000E-03 0. -1.
        -11    1    4    4    0    0  0.15479989368E+02  0.81113835315E+01 -0.98724343644E+01  0.20072109360E+02  0.51100000000E-03 0.  1.
         12    1    4    4    0    0  0.71656558366E+01 -0.24902203222E+02 -0.43327039374E+01  0.26272393730E+02  0.00000000000E+00 0. -1.
</event>
<event>
 8    1  0.2534787E-006  0.9118800E+02  0.7816164E-02  0.1184000E+00
        -11   -1    0    0    0    0  0.00000000000E+00  0.00000000000E+00  0.45593999997E+02  0.45594000000E+02  0.51100000000E-03 0.  1.
         11   -1    0    0    0    0 -0.00000000000E+00 -0.00000000000E+00 -0.45593999997E+02  0.45594000000E+02  0.51100000000E-03 0. -1.
         23    2    1    2    0    0  0.00000000000E+00  0.17763568394E-14  0.35527136788E-14  0.91188000000E+02  0.91188000000E+02 0.  0.
    9900012    2    3    3    0    0 -0.26636222001E+02  0.10730664808E+02  0.23046577389E+02  0.54367079057E+02  0.39999988327E+02 0.  0.
         12    1    3    3    0    0  0.26636222001E+02 -0.10730664808E+02 -0.23046577389E+02  0.36820920943E+02  0.00000000000E+00 0. -1.
         11    1    4    4    0    0 -0.13275827012E+02 -0.17012205328E+01 -0.66672093047E+01  0.14953040303E+02  0.51100000000E-03 0. -1.
        -11    1    4    4    0    0 -0.11726030105E+02  0.14613658239E+02  0.31136375258E+02  0.36339133914E+02  0.51100000000E-03 0.  1.
         12    1    4    4    0    0 -0.16343648843E+01 -0.21817728973E+01 -0.14225885647E+01  0.30749048400E+01  0.00000000000E+00 0. -1.
</event>
<event>
 8    1  0.2534787E-006  0.9118800E+02  0.7816164E-02  0.1184000E+00
        -11   -1    0    0    0    0  0.00000000000E+00  0.00000000000E+00  0.45593999997E+02  0.45594000000E+02  0.51100000000E-03 0. -1.
         11   -1    0    0    0    0 -0.00000000000E+00 -0.00000000000E+00 -0.45593999997E+02  0.45594000000E+02  0.51100000000E-03 0.  1.
         23    2    1    2    0    0  0.11102230246E-15  0.00000000000E+00  0.00000000000E+00  0.91188000000E+02  0.91188000000E+02 0.  0.
    9900012    2    3    3    0    0 -0.87956955230E+00  0.17289298804E+02 -0.32497497150E+02  0.54367070941E+02  0.39999969824E+02 0.  0.
         12    1    3    3    0    0  0.87956955230E+00 -0.17289298804E+02  0.32497497150E+02  0.36820929059E+02  0.00000000000E+00 0. -1.
         11    1    4    4    0    0 -0.76978106385E+01  0.32600391357E+01 -0.25503850083E+01  0.87400576511E+01  0.51100000000E-03 0. -1.
        -11    1    4    4    0    0  0.62093998480E+01  0.43505755226E+01  0.51822255405E+01  0.91836602542E+01  0.51100000000E-03 0.  1.
        -12    1    4    4    0    0  0.60884123822E+00  0.96786841462E+01 -0.35129337683E+02  0.36443353036E+02  0.00000000000E+00 0.  1.
</event>
<event>
 8    1  0.2534787E-006  0.9118800E+02  0.7816164E-02  0.1184000E+00
        -11   -1    0    0    0    0  0.00000000000E+00  0.00000000000E+00  0.45593999997E+02  0.45594000000E+02  0.51100000000E-03 0.  1.
         11   -1    0    0    0    0 -0.00000000000E+00 -0.00000000000E+00 -0.45593999997E+02  0.45594000000E+02  0.51100000000E-03 0. -1.
         23    2    1    2    0    0  0.00000000000E+00 -0.35527136788E-14  0.35527136788E-14  0.91188000000E+02  0.91188000000E+02 0.  0.
    9900012    2    3    3    0    0 -0.14289475621E+02  0.12710376812E+02 -0.31464849816E+02  0.54367087923E+02  0.40000008537E+02 0.  0.
        -12    1    3    3    0    0  0.14289475621E+02 -0.12710376812E+02  0.31464849816E+02  0.36820912077E+02  0.00000000000E+00 0.  1.
         11    1    4    4    0    0 -0.14470466418E+02  0.14459054005E+02 -0.40335374430E+01  0.20850133469E+02  0.51100000000E-03 0. -1.
        -11    1    4    4    0    0  0.69872417198E+01  0.20845210414E+01 -0.23820214547E+02  0.24911230322E+02  0.51100000000E-03 0.  1.
        -12    1    4    4    0    0 -0.68062509228E+01 -0.38331982346E+01 -0.36110978265E+01  0.86057241324E+01  0.00000000000E+00 0.  1.
</event>
<event>
 8    1  0.2534787E-006  0.9118800E+02  0.7816164E-02  0.1184000E+00
        -11   -1    0    0    0    0  0.00000000000E+00  0.00000000000E+00  0.45593999997E+02  0.45594000000E+02  0.51100000000E-03 0. -1.
         11   -1    0    0    0    0 -0.00000000000E+00 -0.00000000000E+00 -0.45593999997E+02  0.45594000000E+02  0.51100000000E-03 0.  1.
         23    2    1    2    0    0  0.00000000000E+00  0.17763568394E-14  0.35527136788E-14  0.91188000000E+02  0.91188000000E+02 0.  0.
    9900012    2    3    3    0    0  0.15887992216E+02  0.10119015595E+02  0.31637907153E+02  0.54367082815E+02  0.39999996894E+02 0.  0.
        -12    1    3    3    0    0 -0.15887992216E+02 -0.10119015595E+02 -0.31637907153E+02  0.36820917185E+02  0.00000000000E+00 0.  1.
         11    1    4    4    0    0  0.15543596288E+02  0.48805076603E+01  0.14071618718E+02  0.21527498559E+02  0.51100000000E-03 0. -1.
        -11    1    4    4    0    0  0.94667765826E+01  0.60525889095E+01 -0.18350779505E+01  0.11385130773E+02  0.51100000000E-03 0.  1.
        -12    1    4    4    0    0 -0.91223806546E+01 -0.81408097463E+00  0.19401366386E+02  0.21454453483E+02  0.00000000000E+00 0.  1.
</event>
<event>
 8    1  0.2534787E-006  0.9118800E+02  0.7816164E-02  0.1184000E+00
        -11   -1    0    0    0    0  0.00000000000E+00  0.00000000000E+00  0.45593999997E+02  0.45594000000E+02  0.51100000000E-03 0.  1.
         11   -1    0    0    0    0 -0.00000000000E+00 -0.00000000000E+00 -0.45593999997E+02  0.45594000000E+02  0.51100000000E-03 0. -1.
         23    2    1    2    0    0  0.35527136788E-14  0.00000000000E+00  0.00000000000E+00  0.91188000000E+02  0.91188000000E+02 0.  0.
    9900012    2    3    3    0    0 -0.23242191668E+02  0.27487690948E+02  0.77469994059E+01  0.54366964885E+02  0.39999728047E+02 0.  0.
         12    1    3    3    0    0  0.23242191668E+02 -0.27487690948E+02 -0.77469994059E+01  0.36821035115E+02  0.00000000000E+00 0. -1.
         11    1    4    4    0    0  0.47544508476E+01 -0.53817278008E+01 -0.25696372161E+01  0.76269805734E+01  0.51100000000E-03 0. -1.
        -11    1    4    4    0    0 -0.82733126075E+01  0.20980392596E+02  0.54497580782E+01  0.23201819721E+02  0.51100000000E-03 0.  1.
         12    1    4    4    0    0 -0.19723329908E+02  0.11889026152E+02  0.48668785438E+01  0.23538164590E+02  0.00000000000E+00 0. -1.
</event>
<event>
 8    1  0.2534787E-006  0.9118800E+02  0.7816164E-02  0.1184000E+00
        -11   -1    0    0    0    0  0.00000000000E+00  0.00000000000E+00  0.45593999997E+02  0.45594000000E+02  0.51100000000E-03 0. -1.
         11   -1    0    0    0    0 -0.00000000000E+00 -0.00000000000E+00 -0.45593999997E+02  0.45594000000E+02  0.51100000000E-03 0.  1.
         23    2    1    2    0    0 -0.17763568394E-14 -0.35527136788E-14  0.00000000000E+00  0.91188000000E+02  0.91188000000E+02 0.  0.
    9900012    2    3    3    0    0  0.13490451802E+02  0.21950125420E+02 -0.26305500971E+02  0.54367086417E+02  0.40000005105E+02 0.  0.
        -12    1    3    3    0    0 -0.13490451802E+02 -0.21950125420E+02  0.26305500971E+02  0.36820913583E+02  0.00000000000E+00 0.  1.
         11    1    4    4    0    0  0.39918308146E+01  0.24270518843E+02 -0.48813412027E+01  0.25076289406E+02  0.51100000000E-03 0. -1.
        -11    1    4    4    0    0  0.13000916587E+02  0.59471234278E-01 -0.81186222543E+01  0.15327732921E+02  0.51100000000E-03 0.  1.
        -12    1    4    4    0    0 -0.35022955997E+01 -0.23798646575E+01 -0.13305537514E+02  0.13963064090E+02  0.00000000000E+00 0.  1.
</event>
<event>
 8    1  0.2534787E-006  0.9118800E+02  0.7816164E-02  0.1184000E+00
        -11   -1    0    0    0    0  0.00000000000E+00  0.00000000000E+00  0.45593999997E+02  0.45594000000E+02  0.51100000000E-03 0. -1.
         11   -1    0    0    0    0 -0.00000000000E+00 -0.00000000000E+00 -0.45593999997E+02  0.45594000000E+02  0.51100000000E-03 0.  1.
         23    2    1    2    0    0  0.00000000000E+00 -0.17763568394E-14  0.00000000000E+00  0.91188000000E+02  0.91188000000E+02 0.  0.
    9900012    2    3    3    0    0  0.25320195219E+01 -0.14063257062E+02  0.33935131504E+02  0.54367089198E+02  0.40000011446E+02 0.  0.
        -12    1    3    3    0    0 -0.25320195219E+01  0.14063257062E+02 -0.33935131504E+02  0.36820910802E+02  0.00000000000E+00 0.  1.
         11    1    4    4    0    0 -0.70289950441E+01 -0.16042744587E+02  0.70852524597E+01  0.18893841004E+02  0.51100000000E-03 0. -1.
        -11    1    4    4    0    0  0.17735737606E+01  0.41255330885E+01 -0.24255758837E+01  0.51038226632E+01  0.51100000000E-03 0.  1.
         12    1    4    4    0    0  0.77874408054E+01 -0.21460455641E+01  0.29275454928E+02  0.30369425531E+02  0.00000000000E+00 0. -1.
</event>
<event>
 8    1  0.2534787E-006  0.9118800E+02  0.7816164E-02  0.1184000E+00
        -11   -1    0    0    0    0  0.00000000000E+00  0.00000000000E+00  0.45593999997E+02  0.45594000000E+02  0.51100000000E-03 0. -1.
         11   -1    0    0    0    0 -0.00000000000E+00 -0.00000000000E+00 -0.45593999997E+02  0.45594000000E+02  0.51100000000E-03 0.  1.
         23    2    1    2    0    0  0.35527136788E-14  0.00000000000E+00  0.35527136788E-14  0.91188000000E+02  0.91188000000E+02 0.  0.
    9900012    2    3    3    0    0 -0.19651613621E+02 -0.20955394120E+02 -0.23031818094E+02  0.54367094180E+02  0.40000022803E+02 0.  0.
         12    1    3    3    0    0  0.19651613621E+02  0.20955394120E+02  0.23031818094E+02  0.36820905820E+02  0.00000000000E+00 0. -1.
         11    1    4    4    0    0 -0.17070987183E+02 -0.18142218240E+02 -0.12046978594E+01  0.24940127972E+02  0.51100000000E-03 0. -1.
        -11    1    4    4    0    0 -0.94262640043E+01 -0.32124912757E+01 -0.19981510258E+02  0.22325664732E+02  0.51100000000E-03 0.  1.
         12    1    4    4    0    0  0.68456375659E+01  0.39931539585E+00 -0.18456099770E+01  0.71013014762E+01  0.00000000000E+00 0. -1.
</event>
<event>
 8    1  0.2534787E-006  0.9118800E+02  0.7816164E-02  0.1184000E+00
        -11   -1    0    0    0    0  0.00000000000E+00  0.00000000000E+00  0.45593999997E+02  0.45594000000E+02  0.51100000000E-03 0.  1.
         11   -1    0    0    0    0 -0.00000000000E+00 -0.00000000000E+00 -0.45593999997E+02  0.45594000000E+02  0.51100000000E-03 0. -1.
         23    2    1    2    0    0 -0.35527136788E-14  0.00000000000E+00  0.00000000000E+00  0.91188000000E+02  0.91188000000E+02 0.  0.
    9900012    2    3    3    0    0 -0.21766712429E+02 -0.24129136515E+02  0.17313926643E+02  0.54367122026E+02  0.40000086283E+02 0.  0.
         12    1    3    3    0    0  0.21766712429E+02  0.24129136515E+02 -0.17313926643E+02  0.36820877974E+02  0.00000000000E+00 0. -1.
         11    1    4    4    0    0  0.12101189316E+01 -0.13986404407E+02  0.66706692331E+01  0.15542899483E+02  0.51100000000E-03 0. -1.
        -11    1    4    4    0    0 -0.15983521660E+02 -0.98535133541E+01 -0.68464556342E+01  0.19985961200E+02  0.51100000000E-03 0.  1.
        -12    1    4    4    0    0 -0.69933097009E+01 -0.28921875407E+00  0.17489713045E+02  0.18838261343E+02  0.00000000000E+00 0.  1.
</event>
<event>
 8    1  0.2534787E-006  0.9118800E+02  0.7816164E-02  0.1184000E+00
        -11   -1    0    0    0    0  0.00000000000E+00  0.00000000000E+00  0.45593999997E+02  0.45594000000E+02  0.51100000000E-03 0.  1.
         11   -1    0    0    0    0 -0.00000000000E+00 -0.00000000000E+00 -0.45593999997E+02  0.45594000000E+02  0.51100000000E-03 0. -1.
         23    2    1    2    0    0  0.00000000000E+00  0.00000000000E+00  0.00000000000E+00  0.91188000000E+02  0.91188000000E+02 0.  0.
    9900012    2    3    3    0    0  0.11481593019E+02  0.22876820784E+01  0.34910188198E+02  0.54367058845E+02  0.39999942248E+02 0.  0.
         12    1    3    3    0    0 -0.11481593019E+02 -0.22876820784E+01 -0.34910188198E+02  0.36820941155E+02  0.00000000000E+00 0. -1.
         11    1    4    4    0    0  0.39975044566E-01 -0.48956109295E+01  0.45248816542E+01  0.66665702294E+01  0.51100000000E-03 0. -1.
        -11    1    4    4    0    0 -0.11731754006E+02 -0.18255252995E+01  0.10799166069E+02  0.16049566434E+02  0.51100000000E-03 0.  1.
        -12    1    4    4    0    0  0.23173371981E+02  0.90088183074E+01  0.19586140475E+02  0.31650922182E+02  0.00000000000E+00 0.  1.
</event>
<event>
 8    1  0.2534787E-006  0.9118800E+02  0.7816164E-02  0.1184000E+00
        -11   -1    0    0    0    0  0.00000000000E+00  0.00000000000E+00  0.45593999997E+02  0.45594000000E+02  0.51100000000E-03 0.  1.
         11   -1    0    0    0    0 -0.00000000000E+00 -0.00000000000E+00 -0.45593999997E+02  0.45594000000E+02  0.51100000000E-03 0. -1.
         23    2    1    2    0    0  0.00000000000E+00  0.71054273576E-14  0.00000000000E+00  0.91188000000E+02  0.91188000000E+02 0.  0.
    9900012    2    3    3    0    0 -0.13431595770E+02 -0.29670691875E+02 -0.17176151716E+02  0.54367110426E+02  0.40000059838E+02 0.  0.
        -12    1    3    3    0    0  0.13431595770E+02  0.29670691875E+02  0.17176151716E+02  0.36820889574E+02  0.00000000000E+00 0.  1.
         11    1    4    4    0    0 -0.11185632448E+02 -0.16441257077E+02 -0.18943469220E+02  0.27464310184E+02  0.51100000000E-03 0. -1.
        -11    1    4    4    0    0  0.92574959604E+01 -0.80508600433E+00  0.33938683261E+01  0.98928124114E+01  0.51100000000E-03 0.  1.
        -12    1    4    4    0    0 -0.11503459283E+02 -0.12424348793E+02 -0.16265508222E+01  0.17009987830E+02  0.00000000000E+00 0.  1.
</event>
<event>
 8    1  0.2534787E-006  0.9118800E+02  0.7816164E-02  0.1184000E+00
        -11   -1    0    0    0    0  0.00000000000E+00  0.00000000000E+00  0.45593999997E+02  0.45594000000E+02  0.51100000000E-03 0.  1.
         11   -1    0    0    0    0 -0.00000000000E+00 -0.00000000000E+00 -0.45593999997E+02  0.45594000000E+02  0.51100000000E-03 0. -1.
         23    2    1    2    0    0 -0.17763568394E-14 -0.71054273576E-14  0.17763568394E-14  0.91188000000E+02  0.91188000000E+02 0.  0.
    9900012    2    3    3    0    0 -0.55521650857E+01 -0.36304996065E+02  0.26268557998E+01  0.54367086814E+02  0.40000006010E+02 0.  0.
        -12    1    3    3    0    0  0.55521650857E+01  0.36304996065E+02 -0.26268557998E+01  0.36820913186E+02  0.00000000000E+00 0.  1.
         11    1    4    4    0    0  0.28526474766E+01 -0.15411662009E+02  0.84750539966E+01  0.17818065664E+02  0.51100000000E-03 0. -1.
        -11    1    4    4    0    0 -0.82513318992E+01 -0.10387859815E+01  0.86229386807E+01  0.11979925967E+02  0.51100000000E-03 0.  1.
         12    1    4    4    0    0 -0.15348066309E+00 -0.19854548075E+02 -0.14471136878E+02  0.24569095183E+02  0.00000000000E+00 0. -1.
</event>
<event>
 8    1  0.2534787E-006  0.9118800E+02  0.7816164E-02  0.1184000E+00
        -11   -1    0    0    0    0  0.00000000000E+00  0.00000000000E+00  0.45593999997E+02  0.45594000000E+02  0.51100000000E-03 0.  1.
         11   -1    0    0    0    0 -0.00000000000E+00 -0.00000000000E+00 -0.45593999997E+02  0.45594000000E+02  0.51100000000E-03 0. -1.
         23    2    1    2    0    0  0.00000000000E+00  0.00000000000E+00  0.22204460493E-14  0.91188000000E+02  0.91188000000E+02 0.  0.
    9900012    2    3    3    0    0  0.56599189296E+01  0.36358543190E+02  0.13422360846E+01  0.54367082808E+02  0.39999996876E+02 0.  0.
         12    1    3    3    0    0 -0.56599189296E+01 -0.36358543190E+02 -0.13422360846E+01  0.36820917192E+02  0.00000000000E+00 0. -1.
         11    1    4    4    0    0  0.13309468656E+02  0.13119234002E+02  0.99691350608E+01  0.21181121567E+02  0.51100000000E-03 0. -1.
        -11    1    4    4    0    0 -0.10192011725E+02  0.13870539757E+02 -0.13913069029E+02  0.22132385010E+02  0.51100000000E-03 0.  1.
         12    1    4    4    0    0  0.25424619983E+01  0.93687694304E+01  0.52861700528E+01  0.11053576230E+02  0.00000000000E+00 0. -1.
</event>
<event>
 8    1  0.2534787E-006  0.9118800E+02  0.7816164E-02  0.1184000E+00
        -11   -1    0    0    0    0  0.00000000000E+00  0.00000000000E+00  0.45593999997E+02  0.45594000000E+02  0.51100000000E-03 0.  1.
         11   -1    0    0    0    0 -0.00000000000E+00 -0.00000000000E+00 -0.45593999997E+02  0.45594000000E+02  0.51100000000E-03 0. -1.
         23    2    1    2    0    0  0.00000000000E+00  0.00000000000E+00  0.00000000000E+00  0.91188000000E+02  0.91188000000E+02 0.  0.
    9900012    2    3    3    0    0  0.21630694365E+02  0.21756485460E+02 -0.20360453254E+02  0.54367086717E+02  0.40000005789E+02 0.  0.
        -12    1    3    3    0    0 -0.21630694365E+02 -0.21756485460E+02  0.20360453254E+02  0.36820913283E+02  0.00000000000E+00 0.  1.
         11    1    4    4    0    0  0.17326369216E+02  0.48907910081E+01 -0.10974321780E+02  0.21084559414E+02  0.51100000000E-03 0. -1.
        -11    1    4    4    0    0 -0.10557501933E+02  0.18910857088E+01 -0.18782268870E+01  0.10888745967E+02  0.51100000000E-03 0.  1.
        -12    1    4    4    0    0  0.14861827083E+02  0.14974608743E+02 -0.75079045870E+01  0.22393781336E+02  0.00000000000E+00 0.  1.
</event>
<event>
 8    1  0.2534787E-006  0.9118800E+02  0.7816164E-02  0.1184000E+00
        -11   -1    0    0    0    0  0.00000000000E+00  0.00000000000E+00  0.45593999997E+02  0.45594000000E+02  0.51100000000E-03 0.  1.
         11   -1    0    0    0    0 -0.00000000000E+00 -0.00000000000E+00 -0.45593999997E+02  0.45594000000E+02  0.51100000000E-03 0. -1.
         23    2    1    2    0    0 -0.88817841970E-15  0.00000000000E+00 -0.17763568394E-14  0.91188000000E+02  0.91188000000E+02 0.  0.
    9900012    2    3    3    0    0 -0.66271635292E+01 -0.33145807694E+02 -0.14601792998E+02  0.54367133322E+02  0.40000112035E+02 0.  0.
        -12    1    3    3    0    0  0.66271635292E+01  0.33145807694E+02  0.14601792998E+02  0.36820866678E+02  0.00000000000E+00 0.  1.
         11    1    4    4    0    0  0.68077501058E+01  0.44904866511E+01 -0.64629455568E+01  0.10405748286E+02  0.51100000000E-03 0. -1.
        -11    1    4    4    0    0 -0.90806355758E+01 -0.16035728125E+02  0.39226865533E+01  0.18841178015E+02  0.51100000000E-03 0.  1.
         12    1    4    4    0    0 -0.43542780591E+01 -0.21600566221E+02 -0.12061533995E+02  0.25120207021E+02  0.00000000000E+00 0. -1.
</event>
<event>
 8    1  0.2534787E-006  0.9118800E+02  0.7816164E-02  0.1184000E+00
        -11   -1    0    0    0    0  0.00000000000E+00  0.00000000000E+00  0.45593999997E+02  0.45594000000E+02  0.51100000000E-03 0.  1.
         11   -1    0    0    0    0 -0.00000000000E+00 -0.00000000000E+00 -0.45593999997E+02  0.45594000000E+02  0.51100000000E-03 0. -1.
         23    2    1    2    0    0  0.00000000000E+00  0.00000000000E+00  0.00000000000E+00  0.91188000000E+02  0.91188000000E+02 0.  0.
    9900012    2    3    3    0    0  0.69788144790E+01  0.31912591319E+02  0.16990071690E+02  0.54367083767E+02  0.39999999063E+02 0.  0.
         12    1    3    3    0    0 -0.69788144790E+01 -0.31912591319E+02 -0.16990071690E+02  0.36820916233E+02  0.00000000000E+00 0. -1.
         11    1    4    4    0    0  0.10952679176E+02  0.29052104721E+02 -0.34997420536E-01  0.31048143180E+02  0.51100000000E-03 0. -1.
        -11    1    4    4    0    0 -0.51631920309E+01  0.32249870266E+00  0.19127804737E+02  0.19815031458E+02  0.51100000000E-03 0.  1.
        -12    1    4    4    0    0  0.11893273337E+01  0.25379878955E+01 -0.21027356267E+01  0.35039091285E+01  0.00000000000E+00 0.  1.
</event>
<event>
 8    1  0.2534787E-006  0.9118800E+02  0.7816164E-02  0.1184000E+00
        -11   -1    0    0    0    0  0.00000000000E+00  0.00000000000E+00  0.45593999997E+02  0.45594000000E+02  0.51100000000E-03 0.  1.
         11   -1    0    0    0    0 -0.00000000000E+00 -0.00000000000E+00 -0.45593999997E+02  0.45594000000E+02  0.51100000000E-03 0. -1.
         23    2    1    2    0    0 -0.88817841970E-15  0.35527136788E-14  0.10658141036E-13  0.91188000000E+02  0.91188000000E+02 0.  0.
    9900012    2    3    3    0    0  0.63842312641E+01 -0.23505612945E+02 -0.27613525303E+02  0.54367095225E+02  0.40000025186E+02 0.  0.
        -12    1    3    3    0    0 -0.63842312641E+01  0.23505612945E+02  0.27613525303E+02  0.36820904775E+02  0.00000000000E+00 0.  1.
         11    1    4    4    0    0  0.18380194077E+01  0.62171828767E+01  0.32687803638E+01  0.72606200557E+01  0.51100000000E-03 0. -1.
        -11    1    4    4    0    0  0.88578973858E+01 -0.12873838752E+02 -0.59797015400E+01  0.16731852888E+02  0.51100000000E-03 0.  1.
         12    1    4    4    0    0 -0.43116855293E+01 -0.16848957069E+02 -0.24902604127E+02  0.30374622282E+02  0.00000000000E+00 0. -1.
</event>
<event>
 8    1  0.2534787E-006  0.9118800E+02  0.7816164E-02  0.1184000E+00
        -11   -1    0    0    0    0  0.00000000000E+00  0.00000000000E+00  0.45593999997E+02  0.45594000000E+02  0.51100000000E-03 0. -1.
         11   -1    0    0    0    0 -0.00000000000E+00 -0.00000000000E+00 -0.45593999997E+02  0.45594000000E+02  0.51100000000E-03 0.  1.
         23    2    1    2    0    0  0.00000000000E+00  0.00000000000E+00  0.00000000000E+00  0.91188000000E+02  0.91188000000E+02 0.  0.
    9900012    2    3    3    0    0  0.13552106611E+02  0.31883325834E+02 -0.12472958823E+02  0.54367071690E+02  0.39999971531E+02 0.  0.
         12    1    3    3    0    0 -0.13552106611E+02 -0.31883325834E+02  0.12472958823E+02  0.36820928310E+02  0.00000000000E+00 0. -1.
         11    1    4    4    0    0  0.10221815119E+02  0.12379420452E+02  0.57861064295E+01  0.17065010487E+02  0.51100000000E-03 0. -1.
        -11    1    4    4    0    0  0.67622391467E+01  0.17468752262E+02 -0.23916589042E+02  0.30379078583E+02  0.51100000000E-03 0.  1.
        -12    1    4    4    0    0 -0.34319476541E+01  0.20351531201E+01  0.56575237896E+01  0.69229826197E+01  0.00000000000E+00 0.  1.
</event>
<event>
 8    1  0.2534787E-006  0.9118800E+02  0.7816164E-02  0.1184000E+00
        -11   -1    0    0    0    0  0.00000000000E+00  0.00000000000E+00  0.45593999997E+02  0.45594000000E+02  0.51100000000E-03 0. -1.
         11   -1    0    0    0    0 -0.00000000000E+00 -0.00000000000E+00 -0.45593999997E+02  0.45594000000E+02  0.51100000000E-03 0.  1.
         23    2    1    2    0    0  0.00000000000E+00  0.00000000000E+00  0.00000000000E+00  0.91188000000E+02  0.91188000000E+02 0.  0.
    9900012    2    3    3    0    0 -0.25005300892E+02 -0.25386089362E+02  0.92769271551E+01  0.54367082260E+02  0.39999995628E+02 0.  0.
        -12    1    3    3    0    0  0.25005300892E+02  0.25386089362E+02 -0.92769271551E+01  0.36820917740E+02  0.00000000000E+00 0.  1.
         11    1    4    4    0    0 -0.16561021664E+02 -0.20761511780E+02 -0.65777293973E+01  0.27360086517E+02  0.51100000000E-03 0. -1.
        -11    1    4    4    0    0  0.53333361168E+01 -0.57232870167E+01  0.39410644667E+01  0.87597076323E+01  0.51100000000E-03 0.  1.
         12    1    4    4    0    0 -0.13777615344E+02  0.10987094348E+01  0.11913592086E+02  0.18247288110E+02  0.00000000000E+00 0. -1.
</event>
<event>
 8    1  0.2534787E-006  0.9118800E+02  0.7816164E-02  0.1184000E+00
        -11   -1    0    0    0    0  0.00000000000E+00  0.00000000000E+00  0.45593999997E+02  0.45594000000E+02  0.51100000000E-03 0. -1.
         11   -1    0    0    0    0 -0.00000000000E+00 -0.00000000000E+00 -0.45593999997E+02  0.45594000000E+02  0.51100000000E-03 0.  1.
         23    2    1    2    0    0 -0.66613381478E-15  0.00000000000E+00  0.00000000000E+00  0.91188000000E+02  0.91188000000E+02 0.  0.
    9900012    2    3    3    0    0  0.14014630328E+01 -0.34923249063E+02 -0.11583155578E+02  0.54367259691E+02  0.40000400115E+02 0.  0.
         12    1    3    3    0    0 -0.14014630328E+01  0.34923249063E+02  0.11583155578E+02  0.36820740309E+02  0.00000000000E+00 0. -1.
         11    1    4    4    0    0 -0.18675850559E+01  0.48744595377E+01 -0.21554140871E+01  0.56474808432E+01  0.51100000000E-03 0. -1.
        -11    1    4    4    0    0  0.99229616011E+01 -0.38842014901E+02 -0.11463174339E+02  0.41696182735E+02  0.51100000000E-03 0.  1.
        -12    1    4    4    0    0 -0.66539135123E+01 -0.95569370055E+00  0.20354328478E+01  0.70235961129E+01  0.00000000000E+00 0.  1.
</event>
<event>
 8    1  0.2534787E-006  0.9118800E+02  0.7816164E-02  0.1184000E+00
        -11   -1    0    0    0    0  0.00000000000E+00  0.00000000000E+00  0.45593999997E+02  0.45594000000E+02  0.51100000000E-03 0.  1.
         11   -1    0    0    0    0 -0.00000000000E+00 -0.00000000000E+00 -0.45593999997E+02  0.45594000000E+02  0.51100000000E-03 0. -1.
         23    2    1    2    0    0  0.00000000000E+00  0.00000000000E+00  0.71054273576E-14  0.91188000000E+02  0.91188000000E+02 0.  0.
    9900012    2    3    3    0    0  0.51113721209E+01 -0.41451292185E+01  0.36228063210E+02  0.54367071370E+02  0.39999970803E+02 0.  0.
         12    1    3    3    0    0 -0.51113721209E+01  0.41451292185E+01 -0.36228063210E+02  0.36820928630E+02  0.00000000000E+00 0. -1.
         11    1    4    4    0    0  0.58480155661E+01  0.11843887371E+01  0.25529117582E+02  0.26217130039E+02  0.51100000000E-03 0. -1.
        -11    1    4    4    0    0  0.50642701917E+01 -0.14334870340E+02  0.76104007319E+01  0.17001574627E+02  0.51100000000E-03 0.  1.
         12    1    4    4    0    0 -0.58009136369E+01  0.90053523844E+01  0.30885448966E+01  0.11148366704E+02  0.00000000000E+00 0. -1.
</event>
<event>
 8    1  0.2534787E-006  0.9118800E+02  0.7816164E-02  0.1184000E+00
        -11   -1    0    0    0    0  0.00000000000E+00  0.00000000000E+00  0.45593999997E+02  0.45594000000E+02  0.51100000000E-03 0.  1.
         11   -1    0    0    0    0 -0.00000000000E+00 -0.00000000000E+00 -0.45593999997E+02  0.45594000000E+02  0.51100000000E-03 0. -1.
         23    2    1    2    0    0  0.71054273576E-14 -0.17763568394E-14 -0.22204460493E-15  0.91188000000E+02  0.91188000000E+02 0.  0.
    9900012    2    3    3    0    0  0.35167466077E+02 -0.10880501731E+02  0.80200083921E+00  0.54367092984E+02  0.40000020075E+02 0.  0.
        -12    1    3    3    0    0 -0.35167466077E+02  0.10880501731E+02 -0.80200083921E+00  0.36820907016E+02  0.00000000000E+00 0.  1.
         11    1    4    4    0    0  0.36818555665E+01 -0.70681585654E+01 -0.62498571496E+01  0.10127963298E+02  0.51100000000E-03 0.  1.
        -11    1    4    4    0    0  0.63678610188E+01  0.12081229251E+02 -0.14070870236E+00  0.13657435827E+02  0.51100000000E-03 0. -1.
        -12    1    4    4    0    0  0.25117749491E+02 -0.15893572416E+02  0.71925666911E+01  0.30581693859E+02  0.00000000000E+00 0.  1.
</event>
<event>
 8    1  0.2534787E-006  0.9118800E+02  0.7816164E-02  0.1184000E+00
        -11   -1    0    0    0    0  0.00000000000E+00  0.00000000000E+00  0.45593999997E+02  0.45594000000E+02  0.51100000000E-03 0. -1.
         11   -1    0    0    0    0 -0.00000000000E+00 -0.00000000000E+00 -0.45593999997E+02  0.45594000000E+02  0.51100000000E-03 0.  1.
         23    2    1    2    0    0  0.00000000000E+00  0.00000000000E+00  0.35527136788E-14  0.91188000000E+02  0.91188000000E+02 0.  0.
    9900012    2    3    3    0    0 -0.11236308695E+02  0.25997306458E+02 -0.23530095996E+02  0.54367082117E+02  0.39999995303E+02 0.  0.
         12    1    3    3    0    0  0.11236308695E+02 -0.25997306458E+02  0.23530095996E+02  0.36820917883E+02  0.00000000000E+00 0. -1.
         11    1    4    4    0    0 -0.13859118412E+02  0.18195624207E+02 -0.26566512697E+02  0.35056176354E+02  0.51100000000E-03 0. -1.
        -11    1    4    4    0    0  0.19337211738E+01  0.11397859810E+02 -0.32737515321E+01  0.12015320852E+02  0.51100000000E-03 0.  1.
        -12    1    4    4    0    0  0.68908854413E+00 -0.35961775590E+01  0.63101682330E+01  0.72955849105E+01  0.00000000000E+00 0.  1.
</event>
<event>
 8    1  0.2534787E-006  0.9118800E+02  0.7816164E-02  0.1184000E+00
        -11   -1    0    0    0    0  0.00000000000E+00  0.00000000000E+00  0.45593999997E+02  0.45594000000E+02  0.51100000000E-03 0.  1.
         11   -1    0    0    0    0 -0.00000000000E+00 -0.00000000000E+00 -0.45593999997E+02  0.45594000000E+02  0.51100000000E-03 0. -1.
         23    2    1    2    0    0  0.00000000000E+00 -0.88817841970E-15  0.00000000000E+00  0.91188000000E+02  0.91188000000E+02 0.  0.
    9900012    2    3    3    0    0  0.33449221668E+02  0.48143777057E+01  0.14620029190E+02  0.54367164642E+02  0.40000183435E+02 0.  0.
         12    1    3    3    0    0 -0.33449221668E+02 -0.48143777057E+01 -0.14620029190E+02  0.36820835358E+02  0.00000000000E+00 0. -1.
         11    1    4    4    0    0  0.90974495358E+01 -0.70131642651E+01  0.27078361178E+01  0.11801713340E+02  0.51100000000E-03 0. -1.
        -11    1    4    4    0    0  0.31030549378E+01  0.14469229176E+02  0.14835851876E+02  0.20954475514E+02  0.51100000000E-03 0.  1.
        -12    1    4    4    0    0  0.21248717195E+02 -0.26416872056E+01 -0.29236588038E+01  0.21610975788E+02  0.00000000000E+00 0.  1.
</event>
<event>
 8    1  0.2534787E-006  0.9118800E+02  0.7816164E-02  0.1184000E+00
        -11   -1    0    0    0    0  0.00000000000E+00  0.00000000000E+00  0.45593999997E+02  0.45594000000E+02  0.51100000000E-03 0. -1.
         11   -1    0    0    0    0 -0.00000000000E+00 -0.00000000000E+00 -0.45593999997E+02  0.45594000000E+02  0.51100000000E-03 0.  1.
         23    2    1    2    0    0 -0.17763568394E-14  0.35527136788E-14  0.00000000000E+00  0.91188000000E+02  0.91188000000E+02 0.  0.
    9900012    2    3    3    0    0  0.13582287310E+02 -0.20597274338E+02  0.27332285429E+02  0.54367081142E+02  0.39999993080E+02 0.  0.
        -12    1    3    3    0    0 -0.13582287310E+02  0.20597274338E+02 -0.27332285429E+02  0.36820918858E+02  0.00000000000E+00 0.  1.
         11    1    4    4    0    0  0.46465412558E+01 -0.76896866261E+00 -0.15663911658E+01  0.49633899697E+01  0.51100000000E-03 0. -1.
        -11    1    4    4    0    0  0.99076166755E+01 -0.12786720607E+02 -0.32323816855E+01  0.16495738349E+02  0.51100000000E-03 0.  1.
         12    1    4    4    0    0 -0.97187062110E+00 -0.70415850679E+01  0.32131058281E+02  0.32907952823E+02  0.00000000000E+00 0. -1.
</event>
<event>
 8    1  0.2534787E-006  0.9118800E+02  0.7816164E-02  0.1184000E+00
        -11   -1    0    0    0    0  0.00000000000E+00  0.00000000000E+00  0.45593999997E+02  0.45594000000E+02  0.51100000000E-03 0.  1.
         11   -1    0    0    0    0 -0.00000000000E+00 -0.00000000000E+00 -0.45593999997E+02  0.45594000000E+02  0.51100000000E-03 0. -1.
         23    2    1    2    0    0  0.00000000000E+00  0.00000000000E+00  0.00000000000E+00  0.91188000000E+02  0.91188000000E+02 0.  0.
    9900012    2    3    3    0    0  0.19047137081E+02  0.23538725119E+02  0.20950316345E+02  0.54367071628E+02  0.39999971391E+02 0.  0.
         12    1    3    3    0    0 -0.19047137081E+02 -0.23538725119E+02 -0.20950316345E+02  0.36820928372E+02  0.00000000000E+00 0. -1.
         11    1    4    4    0    0  0.15342089368E+02  0.59358389114E+01  0.10777016181E+02  0.19666163017E+02  0.51100000000E-03 0. -1.
        -11    1    4    4    0    0  0.41492401276E+01  0.59461341696E+01  0.18827895086E+02  0.20175785953E+02  0.51100000000E-03 0.  1.
         12    1    4    4    0    0 -0.44419241465E+00  0.11656752038E+02 -0.86545949225E+01  0.14525122658E+02  0.00000000000E+00 0. -1.
</event>
<event>
 8    1  0.2534787E-006  0.9118800E+02  0.7816164E-02  0.1184000E+00
        -11   -1    0    0    0    0  0.00000000000E+00  0.00000000000E+00  0.45593999997E+02  0.45594000000E+02  0.51100000000E-03 0. -1.
         11   -1    0    0    0    0 -0.00000000000E+00 -0.00000000000E+00 -0.45593999997E+02  0.45594000000E+02  0.51100000000E-03 0.  1.
         23    2    1    2    0    0  0.00000000000E+00 -0.88817841970E-15 -0.71054273576E-14  0.91188000000E+02  0.91188000000E+02 0.  0.
    9900012    2    3    3    0    0  0.16398971554E+02  0.60018966668E+01 -0.32416518644E+02  0.54367085935E+02  0.40000004005E+02 0.  0.
         12    1    3    3    0    0 -0.16398971554E+02 -0.60018966668E+01  0.32416518644E+02  0.36820914065E+02  0.00000000000E+00 0. -1.
         11    1    4    4    0    0 -0.95605646534E+01  0.62960271510E+01 -0.66613753040E+01  0.13244556451E+02  0.51100000000E-03 0. -1.
        -11    1    4    4    0    0  0.12170030422E+02 -0.81204220561E+01 -0.60542333881E+01  0.15833655201E+02  0.51100000000E-03 0.  1.
        -12    1    4    4    0    0  0.13789505786E+02  0.78262915718E+01 -0.19700909951E+02  0.25288874283E+02  0.00000000000E+00 0.  1.
</event>
<event>
 8    1  0.2534787E-006  0.9118800E+02  0.7816164E-02  0.1184000E+00
        -11   -1    0    0    0    0  0.00000000000E+00  0.00000000000E+00  0.45593999997E+02  0.45594000000E+02  0.51100000000E-03 0. -1.
         11   -1    0    0    0    0 -0.00000000000E+00 -0.00000000000E+00 -0.45593999997E+02  0.45594000000E+02  0.51100000000E-03 0.  1.
         23    2    1    2    0    0 -0.17763568394E-14 -0.35527136788E-14  0.00000000000E+00  0.91188000000E+02  0.91188000000E+02 0.  0.
    9900012    2    3    3    0    0  0.90244240033E+01  0.28651794685E+02 -0.21293267311E+02  0.54367234119E+02  0.40000341820E+02 0.  0.
         12    1    3    3    0    0 -0.90244240033E+01 -0.28651794685E+02  0.21293267311E+02  0.36820765881E+02  0.00000000000E+00 0. -1.
         11    1    4    4    0    0  0.10812523467E+02  0.95562861114E+01 -0.21847976798E+02  0.26183341239E+02  0.51100000000E-03 0. -1.
        -11    1    4    4    0    0  0.63251016406E+01  0.51360987551E+01 -0.66369144617E+01  0.10508808449E+02  0.51100000000E-03 0.  1.
         12    1    4    4    0    0 -0.81132011045E+01  0.13959409818E+02  0.71916239491E+01  0.17675084432E+02  0.00000000000E+00 0. -1.
</event>
<event>
 8    1  0.2534787E-006  0.9118800E+02  0.7816164E-02  0.1184000E+00
        -11   -1    0    0    0    0  0.00000000000E+00  0.00000000000E+00  0.45593999997E+02  0.45594000000E+02  0.51100000000E-03 0. -1.
         11   -1    0    0    0    0 -0.00000000000E+00 -0.00000000000E+00 -0.45593999997E+02  0.45594000000E+02  0.51100000000E-03 0.  1.
         23    2    1    2    0    0  0.00000000000E+00  0.00000000000E+00  0.00000000000E+00  0.91188000000E+02  0.91188000000E+02 0.  0.
    9900012    2    3    3    0    0 -0.16614100403E+02  0.29169043506E+02  0.15130125249E+02  0.54367053226E+02  0.39999929440E+02 0.  0.
        -12    1    3    3    0    0  0.16614100403E+02 -0.29169043506E+02 -0.15130125249E+02  0.36820946774E+02  0.00000000000E+00 0.  1.
         11    1    4    4    0    0 -0.12014397955E+01  0.10391287868E+02  0.84436601620E+01  0.13443129038E+02  0.51100000000E-03 0. -1.
        -11    1    4    4    0    0 -0.22454121188E+02  0.91064760144E+01  0.12892485721E+02  0.27446887839E+02  0.51100000000E-03 0.  1.
        -12    1    4    4    0    0  0.70414605801E+01  0.96712796241E+01 -0.62060206340E+01  0.13477036350E+02  0.00000000000E+00 0.  1.
</event>
<event>
 8    1  0.2534787E-006  0.9118800E+02  0.7816164E-02  0.1184000E+00
        -11   -1    0    0    0    0  0.00000000000E+00  0.00000000000E+00  0.45593999997E+02  0.45594000000E+02  0.51100000000E-03 0.  1.
         11   -1    0    0    0    0 -0.00000000000E+00 -0.00000000000E+00 -0.45593999997E+02  0.45594000000E+02  0.51100000000E-03 0. -1.
         23    2    1    2    0    0 -0.17763568394E-14  0.35527136788E-14  0.00000000000E+00  0.91188000000E+02  0.91188000000E+02 0.  0.
    9900012    2    3    3    0    0  0.91159428733E+01 -0.26707587622E+02  0.23651283471E+02  0.54367097500E+02  0.40000030371E+02 0.  0.
         12    1    3    3    0    0 -0.91159428733E+01  0.26707587622E+02 -0.23651283471E+02  0.36820902500E+02  0.00000000000E+00 0. -1.
         11    1    4    4    0    0  0.13900361229E+02 -0.10635788629E+02  0.29633897418E+01  0.17751668121E+02  0.51100000000E-03 0. -1.
        -11    1    4    4    0    0 -0.18009717912E+01 -0.21016333660E+02  0.22223285951E+02  0.30639912184E+02  0.51100000000E-03 0.  1.
        -12    1    4    4    0    0 -0.29834465647E+01  0.49445346670E+01 -0.15353922215E+01  0.59755171953E+01  0.00000000000E+00 0.  1.
</event>
<event>
 8    1  0.2534787E-006  0.9118800E+02  0.7816164E-02  0.1184000E+00
        -11   -1    0    0    0    0  0.00000000000E+00  0.00000000000E+00  0.45593999997E+02  0.45594000000E+02  0.51100000000E-03 0.  1.
         11   -1    0    0    0    0 -0.00000000000E+00 -0.00000000000E+00 -0.45593999997E+02  0.45594000000E+02  0.51100000000E-03 0. -1.
         23    2    1    2    0    0  0.00000000000E+00 -0.17763568394E-14  0.00000000000E+00  0.91188000000E+02  0.91188000000E+02 0.  0.
    9900012    2    3    3    0    0  0.15680897741E+02  0.84116419848E+01  0.32235611967E+02  0.54367069081E+02  0.39999965585E+02 0.  0.
         12    1    3    3    0    0 -0.15680897741E+02 -0.84116419848E+01 -0.32235611967E+02  0.36820930919E+02  0.00000000000E+00 0. -1.
         11    1    4    4    0    0  0.15876852434E+02 -0.68443173020E+01  0.22876983240E+02  0.28675346292E+02  0.51100000000E-03 0. -1.
        -11    1    4    4    0    0  0.67206338283E+01  0.12874688531E+02  0.10970757425E+02  0.18201154979E+02  0.51100000000E-03 0.  1.
         12    1    4    4    0    0 -0.69165885216E+01  0.23812707557E+01 -0.16121286976E+01  0.74905678107E+01  0.00000000000E+00 0. -1.
</event>
<event>
 8    1  0.2534787E-006  0.9118800E+02  0.7816164E-02  0.1184000E+00
        -11   -1    0    0    0    0  0.00000000000E+00  0.00000000000E+00  0.45593999997E+02  0.45594000000E+02  0.51100000000E-03 0. -1.
         11   -1    0    0    0    0 -0.00000000000E+00 -0.00000000000E+00 -0.45593999997E+02  0.45594000000E+02  0.51100000000E-03 0.  1.
         23    2    1    2    0    0  0.71054273576E-14 -0.35527136788E-14 -0.17763568394E-14  0.91188000000E+02  0.91188000000E+02 0.  0.
    9900012    2    3    3    0    0  0.32622949359E+02 -0.14856100418E+02  0.84152909760E+01  0.54367113716E+02  0.40000067339E+02 0.  0.
        -12    1    3    3    0    0 -0.32622949359E+02  0.14856100418E+02 -0.84152909760E+01  0.36820886284E+02  0.00000000000E+00 0.  1.
         11    1    4    4    0    0  0.36686847273E+02 -0.16807504296E+02  0.79656932529E+01  0.41132338041E+02  0.51100000000E-03 0. -1.
        -11    1    4    4    0    0  0.26347976789E+01 -0.26688236498E+01 -0.25795094800E+01  0.45517741487E+01  0.51100000000E-03 0.  1.
        -12    1    4    4    0    0 -0.66986955931E+01  0.46202275273E+01  0.30291072031E+01  0.86830015260E+01  0.00000000000E+00 0.  1.
</event>
<event>
 8    1  0.2534787E-006  0.9118800E+02  0.7816164E-02  0.1184000E+00
        -11   -1    0    0    0    0  0.00000000000E+00  0.00000000000E+00  0.45593999997E+02  0.45594000000E+02  0.51100000000E-03 0.  1.
         11   -1    0    0    0    0 -0.00000000000E+00 -0.00000000000E+00 -0.45593999997E+02  0.45594000000E+02  0.51100000000E-03 0. -1.
         23    2    1    2    0    0  0.17763568394E-14  0.26645352591E-14 -0.71054273576E-14  0.91188000000E+02  0.91188000000E+02 0.  0.
    9900012    2    3    3    0    0 -0.14932070851E+02  0.50568681929E+01  0.33275229239E+02  0.54367088323E+02  0.40000009450E+02 0.  0.
         12    1    3    3    0    0  0.14932070851E+02 -0.50568681929E+01 -0.33275229239E+02  0.36820911677E+02  0.00000000000E+00 0. -1.
         11    1    4    4    0    0  0.11361031513E+01 -0.38093881188E+01 -0.11702701707E+01  0.41438750879E+01  0.51100000000E-03 0. -1.
        -11    1    4    4    0    0 -0.68330239257E+01 -0.85266561331E+01  0.45018529390E+00  0.10936029803E+02  0.51100000000E-03 0.  1.
         12    1    4    4    0    0 -0.92351500767E+01  0.17392912445E+02  0.33995314116E+02  0.39287183433E+02  0.00000000000E+00 0. -1.
</event>
<event>
 8    1  0.2534787E-006  0.9118800E+02  0.7816164E-02  0.1184000E+00
        -11   -1    0    0    0    0  0.00000000000E+00  0.00000000000E+00  0.45593999997E+02  0.45594000000E+02  0.51100000000E-03 0. -1.
         11   -1    0    0    0    0 -0.00000000000E+00 -0.00000000000E+00 -0.45593999997E+02  0.45594000000E+02  0.51100000000E-03 0.  1.
         23    2    1    2    0    0 -0.71054273576E-14  0.17763568394E-14  0.88817841970E-15  0.91188000000E+02  0.91188000000E+02 0.  0.
    9900012    2    3    3    0    0 -0.35101068299E+02 -0.85048583260E+01  0.71667166358E+01  0.54367089661E+02  0.40000012500E+02 0.  0.
         12    1    3    3    0    0  0.35101068299E+02  0.85048583260E+01 -0.71667166358E+01  0.36820910339E+02  0.00000000000E+00 0. -1.
         11    1    4    4    0    0 -0.25453342406E+02  0.17733744549E+01  0.10886315262E+02  0.27740392153E+02  0.51100000000E-03 0. -1.
        -11    1    4    4    0    0 -0.84682952676E+01  0.54091948203E+00  0.72597919228E+01  0.11167327238E+02  0.51100000000E-03 0.  1.
        -12    1    4    4    0    0 -0.11794306257E+01 -0.10819152263E+02 -0.10979390549E+02  0.15459370269E+02  0.00000000000E+00 0.  1.
</event>
<event>
 8    1  0.2534787E-006  0.9118800E+02  0.7816164E-02  0.1184000E+00
        -11   -1    0    0    0    0  0.00000000000E+00  0.00000000000E+00  0.45593999997E+02  0.45594000000E+02  0.51100000000E-03 0.  1.
         11   -1    0    0    0    0 -0.00000000000E+00 -0.00000000000E+00 -0.45593999997E+02  0.45594000000E+02  0.51100000000E-03 0. -1.
         23    2    1    2    0    0  0.00000000000E+00  0.00000000000E+00  0.00000000000E+00  0.91188000000E+02  0.91188000000E+02 0.  0.
    9900012    2    3    3    0    0  0.31516828508E+02 -0.13716689940E+02 -0.13203052719E+02  0.54367100185E+02  0.40000036491E+02 0.  0.
        -12    1    3    3    0    0 -0.31516828508E+02  0.13716689940E+02  0.13203052719E+02  0.36820899815E+02  0.00000000000E+00 0.  1.
         11    1    4    4    0    0  0.16649692976E+02 -0.90213335001E+01 -0.18575478638E+02  0.26526310358E+02  0.51100000000E-03 0. -1.
        -11    1    4    4    0    0  0.30969017257E+01  0.21703131298E+01 -0.79377309338E+01  0.87925327420E+01  0.51100000000E-03 0.  1.
        -12    1    4    4    0    0  0.11770233806E+02 -0.68656695702E+01  0.13310156853E+02  0.19048257084E+02  0.00000000000E+00 0.  1.
</event>
<event>
 8    1  0.2534787E-006  0.9118800E+02  0.7816164E-02  0.1184000E+00
        -11   -1    0    0    0    0  0.00000000000E+00  0.00000000000E+00  0.45593999997E+02  0.45594000000E+02  0.51100000000E-03 0.  1.
         11   -1    0    0    0    0 -0.00000000000E+00 -0.00000000000E+00 -0.45593999997E+02  0.45594000000E+02  0.51100000000E-03 0. -1.
         23    2    1    2    0    0  0.00000000000E+00  0.17763568394E-14  0.35527136788E-14  0.91188000000E+02  0.91188000000E+02 0.  0.
    9900012    2    3    3    0    0 -0.17770006248E+02 -0.87476014059E+01  0.31040045207E+02  0.54367108391E+02  0.40000055199E+02 0.  0.
         12    1    3    3    0    0  0.17770006248E+02  0.87476014059E+01 -0.31040045207E+02  0.36820891609E+02  0.00000000000E+00 0. -1.
         11    1    4    4    0    0 -0.11739047307E+02 -0.17318595423E+02  0.27064160195E+02  0.34208299380E+02  0.51100000000E-03 0. -1.
        -11    1    4    4    0    0 -0.62529373388E+01  0.38882317019E+01  0.10067035139E+02  0.12472480422E+02  0.51100000000E-03 0.  1.
         12    1    4    4    0    0  0.22197839776E+00  0.46827623152E+01 -0.60911501269E+01  0.76863285891E+01  0.00000000000E+00 0. -1.
</event>
<event>
 8    1  0.2534787E-006  0.9118800E+02  0.7816164E-02  0.1184000E+00
        -11   -1    0    0    0    0  0.00000000000E+00  0.00000000000E+00  0.45593999997E+02  0.45594000000E+02  0.51100000000E-03 0. -1.
         11   -1    0    0    0    0 -0.00000000000E+00 -0.00000000000E+00 -0.45593999997E+02  0.45594000000E+02  0.51100000000E-03 0.  1.
         23    2    1    2    0    0 -0.13322676296E-14  0.00000000000E+00  0.71054273576E-14  0.91188000000E+02  0.91188000000E+02 0.  0.
    9900012    2    3    3    0    0  0.14296979162E+01 -0.10010452737E+02  0.35405156732E+02  0.54367104800E+02  0.40000047012E+02 0.  0.
        -12    1    3    3    0    0 -0.14296979162E+01  0.10010452737E+02 -0.35405156732E+02  0.36820895200E+02  0.00000000000E+00 0.  1.
         11    1    4    4    0    0 -0.16472184470E+00 -0.17361967402E+01  0.12493507688E+02  0.12614644150E+02  0.51100000000E-03 0. -1.
        -11    1    4    4    0    0 -0.58623381147E+01 -0.11191446405E+02 -0.43324322944E+01  0.13356101626E+02  0.51100000000E-03 0.  1.
        -12    1    4    4    0    0  0.74567578756E+01  0.29171904075E+01  0.27244081338E+02  0.28396359024E+02  0.00000000000E+00 0.  1.
</event>
<event>
 8    1  0.2534787E-006  0.9118800E+02  0.7816164E-02  0.1184000E+00
        -11   -1    0    0    0    0  0.00000000000E+00  0.00000000000E+00  0.45593999997E+02  0.45594000000E+02  0.51100000000E-03 0.  1.
         11   -1    0    0    0    0 -0.00000000000E+00 -0.00000000000E+00 -0.45593999997E+02  0.45594000000E+02  0.51100000000E-03 0. -1.
         23    2    1    2    0    0  0.00000000000E+00  0.00000000000E+00  0.00000000000E+00  0.91188000000E+02  0.91188000000E+02 0.  0.
    9900012    2    3    3    0    0  0.29483295093E+02 -0.12509060900E+02  0.18166816890E+02  0.54367156310E+02  0.40000164439E+02 0.  0.
         12    1    3    3    0    0 -0.29483295093E+02  0.12509060900E+02 -0.18166816890E+02  0.36820843690E+02  0.00000000000E+00 0. -1.
         11    1    4    4    0    0  0.59464913616E+01 -0.21559291829E+02 -0.84723948829E+00  0.22380385133E+02  0.51100000000E-03 0. -1.
        -11    1    4    4    0    0  0.10274054547E+02  0.59869507717E+01  0.10953780583E+02  0.16167408132E+02  0.51100000000E-03 0.  1.
         12    1    4    4    0    0  0.13262749185E+02  0.30632801575E+01  0.80602757949E+01  0.15819363045E+02  0.00000000000E+00 0. -1.
</event>
<event>
 8    1  0.2534787E-006  0.9118800E+02  0.7816164E-02  0.1184000E+00
        -11   -1    0    0    0    0  0.00000000000E+00  0.00000000000E+00  0.45593999997E+02  0.45594000000E+02  0.51100000000E-03 0. -1.
         11   -1    0    0    0    0 -0.00000000000E+00 -0.00000000000E+00 -0.45593999997E+02  0.45594000000E+02  0.51100000000E-03 0.  1.
         23    2    1    2    0    0  0.00000000000E+00 -0.71054273576E-14  0.00000000000E+00  0.91188000000E+02  0.91188000000E+02 0.  0.
    9900012    2    3    3    0    0 -0.81032887796E+01  0.35083592058E+02  0.76979211414E+01  0.54367085962E+02  0.40000004067E+02 0.  0.
        -12    1    3    3    0    0  0.81032887796E+01 -0.35083592058E+02 -0.76979211414E+01  0.36820914038E+02  0.00000000000E+00 0.  1.
         11    1    4    4    0    0 -0.99878943889E+01  0.37618889998E+02  0.69233629664E+01  0.39533174348E+02  0.51100000000E-03 0. -1.
        -11    1    4    4    0    0  0.33689219007E+01 -0.74825649171E-02  0.71019343094E+01  0.78604810259E+01  0.51100000000E-03 0.  1.
         12    1    4    4    0    0 -0.14843162914E+01 -0.25278153751E+01 -0.63273761345E+01  0.69734305884E+01  0.00000000000E+00 0. -1.
</event>
<event>
 8    1  0.2534787E-006  0.9118800E+02  0.7816164E-02  0.1184000E+00
        -11   -1    0    0    0    0  0.00000000000E+00  0.00000000000E+00  0.45593999997E+02  0.45594000000E+02  0.51100000000E-03 0. -1.
         11   -1    0    0    0    0 -0.00000000000E+00 -0.00000000000E+00 -0.45593999997E+02  0.45594000000E+02  0.51100000000E-03 0.  1.
         23    2    1    2    0    0  0.00000000000E+00  0.35527136788E-14  0.35527136788E-14  0.91188000000E+02  0.91188000000E+02 0.  0.
    9900012    2    3    3    0    0  0.37773880827E+00  0.27517478557E+02  0.24462736078E+02  0.54367085167E+02  0.40000002254E+02 0.  0.
        -12    1    3    3    0    0 -0.37773880827E+00 -0.27517478557E+02 -0.24462736078E+02  0.36820914833E+02  0.00000000000E+00 0.  1.
         11    1    4    4    0    0  0.12588838549E+01  0.15256561446E+02  0.16812657710E+02  0.22737918006E+02  0.51100000000E-03 0. -1.
        -11    1    4    4    0    0  0.33160816855E+00 -0.71288902172E+01 -0.47578817024E+01  0.85772069032E+01  0.51100000000E-03 0.  1.
        -12    1    4    4    0    0 -0.12127532152E+01  0.19389807328E+02  0.12407960070E+02  0.23051960257E+02  0.00000000000E+00 0.  1.
</event>
<event>
 8    1  0.2534787E-006  0.9118800E+02  0.7816164E-02  0.1184000E+00
        -11   -1    0    0    0    0  0.00000000000E+00  0.00000000000E+00  0.45593999997E+02  0.45594000000E+02  0.51100000000E-03 0.  1.
         11   -1    0    0    0    0 -0.00000000000E+00 -0.00000000000E+00 -0.45593999997E+02  0.45594000000E+02  0.51100000000E-03 0. -1.
         23    2    1    2    0    0  0.00000000000E+00  0.35527136788E-14  0.17763568394E-14  0.91188000000E+02  0.91188000000E+02 0.  0.
    9900012    2    3    3    0    0 -0.24337012667E+02  0.23560195694E+02 -0.14436260313E+02  0.54367100792E+02  0.40000037874E+02 0.  0.
        -12    1    3    3    0    0  0.24337012667E+02 -0.23560195694E+02  0.14436260313E+02  0.36820899208E+02  0.00000000000E+00 0.  1.
         11    1    4    4    0    0 -0.82425832884E+01 -0.12927340275E+01 -0.90419969569E+01  0.12303212985E+02  0.51100000000E-03 0. -1.
        -11    1    4    4    0    0 -0.10293617115E+02  0.70305928410E+01 -0.16191182611E+02  0.20433848967E+02  0.51100000000E-03 0.  1.
        -12    1    4    4    0    0 -0.58008122638E+01  0.17822336881E+02  0.10796919255E+02  0.21630038840E+02  0.00000000000E+00 0.  1.
</event>
<event>
 8    1  0.2534787E-006  0.9118800E+02  0.7816164E-02  0.1184000E+00
        -11   -1    0    0    0    0  0.00000000000E+00  0.00000000000E+00  0.45593999997E+02  0.45594000000E+02  0.51100000000E-03 0.  1.
         11   -1    0    0    0    0 -0.00000000000E+00 -0.00000000000E+00 -0.45593999997E+02  0.45594000000E+02  0.51100000000E-03 0. -1.
         23    2    1    2    0    0  0.00000000000E+00  0.35527136788E-14 -0.71054273576E-14  0.91188000000E+02  0.91188000000E+02 0.  0.
    9900012    2    3    3    0    0  0.11398813172E+02 -0.13468425032E+02  0.32317846605E+02  0.54367155037E+02  0.40000161538E+02 0.  0.
         12    1    3    3    0    0 -0.11398813172E+02  0.13468425032E+02 -0.32317846605E+02  0.36820844963E+02  0.00000000000E+00 0. -1.
         11    1    4    4    0    0  0.36086308779E+01  0.10361917212E+02  0.17658173987E+02  0.20789484216E+02  0.51100000000E-03 0. -1.
        -11    1    4    4    0    0  0.18923936665E+01 -0.29865649192E+01  0.11069032988E+02  0.11619992055E+02  0.51100000000E-03 0.  1.
        -12    1    4    4    0    0  0.58977886278E+01 -0.20843777325E+02  0.35906396301E+01  0.21957678767E+02  0.00000000000E+00 0.  1.
</event>
<event>
 8    1  0.2534787E-006  0.9118800E+02  0.7816164E-02  0.1184000E+00
        -11   -1    0    0    0    0  0.00000000000E+00  0.00000000000E+00  0.45593999997E+02  0.45594000000E+02  0.51100000000E-03 0.  1.
         11   -1    0    0    0    0 -0.00000000000E+00 -0.00000000000E+00 -0.45593999997E+02  0.45594000000E+02  0.51100000000E-03 0. -1.
         23    2    1    2    0    0  0.71054273576E-14  0.17763568394E-14  0.00000000000E+00  0.91188000000E+02  0.91188000000E+02 0.  0.
    9900012    2    3    3    0    0  0.33193207776E+02  0.86351119783E+01  0.13394966107E+02  0.54367091288E+02  0.40000016210E+02 0.  0.
         12    1    3    3    0    0 -0.33193207776E+02 -0.86351119783E+01 -0.13394966107E+02  0.36820908712E+02  0.00000000000E+00 0. -1.
         11    1    4    4    0    0  0.23178419116E+02  0.14489838494E+02 -0.71185003281E+01  0.28246549869E+02  0.51100000000E-03 0. -1.
        -11    1    4    4    0    0  0.95710372343E+01 -0.35682018282E+00  0.81254613162E+01  0.12560063545E+02  0.51100000000E-03 0.  1.
         12    1    4    4    0    0  0.44375142595E+00 -0.54979063327E+01  0.12388005119E+02  0.13560477875E+02  0.00000000000E+00 0. -1.
</event>
<event>
 8    1  0.2534787E-006  0.9118800E+02  0.7816164E-02  0.1184000E+00
        -11   -1    0    0    0    0  0.00000000000E+00  0.00000000000E+00  0.45593999997E+02  0.45594000000E+02  0.51100000000E-03 0. -1.
         11   -1    0    0    0    0 -0.00000000000E+00 -0.00000000000E+00 -0.45593999997E+02  0.45594000000E+02  0.51100000000E-03 0.  1.
         23    2    1    2    0    0  0.00000000000E+00  0.00000000000E+00  0.00000000000E+00  0.91188000000E+02  0.91188000000E+02 0.  0.
    9900012    2    3    3    0    0  0.10005999945E+02 -0.26619614643E+02 -0.23389216092E+02  0.54367090886E+02  0.40000015292E+02 0.  0.
         12    1    3    3    0    0 -0.10005999945E+02  0.26619614643E+02  0.23389216092E+02  0.36820909114E+02  0.00000000000E+00 0. -1.
         11    1    4    4    0    0  0.69575523318E+01  0.67892094015E+01 -0.19830572900E+01  0.99213615609E+01  0.51100000000E-03 0. -1.
        -11    1    4    4    0    0  0.82945571556E+01 -0.20201970616E+02 -0.20897117489E+02  0.30225962595E+02  0.51100000000E-03 0.  1.
         12    1    4    4    0    0 -0.52461095423E+01 -0.13206853428E+02 -0.50904131272E+00  0.14219766730E+02  0.00000000000E+00 0. -1.
</event>
<event>
 8    1  0.2826103E-006  0.9118800E+02  0.7816164E-02  0.1184000E+00
        -11   -1    0    0    0    0  0.00000000000E+00  0.00000000000E+00  0.45593999997E+02  0.45594000000E+02  0.51100000000E-03 0.  1.
         11   -1    0    0    0    0 -0.00000000000E+00 -0.00000000000E+00 -0.45593999997E+02  0.45594000000E+02  0.51100000000E-03 0. -1.
         23    2    1    2    0    0 -0.88817841970E-15  0.17763568394E-14 -0.71054273576E-14  0.91188000000E+02  0.91188000000E+02 0.  0.
    9900012    2    3    3    0    0  0.20736793263E+01 -0.11406147064E+02  0.34948220877E+02  0.54367102683E+02  0.40000042186E+02 0.  0.
         12    1    3    3    0    0 -0.20736793263E+01  0.11406147064E+02 -0.34948220877E+02  0.36820897317E+02  0.00000000000E+00 0. -1.
         11    1    4    4    0    0  0.36417344196E+00 -0.10239593343E+02  0.11654546514E+02  0.15518065241E+02  0.51100000000E-03 0. -1.
        -11    1    4    4    0    0  0.89216243031E+01 -0.10527149923E+02  0.23244853806E+02  0.27032193667E+02  0.51100000000E-03 0.  1.
         12    1    4    4    0    0 -0.72121184188E+01  0.93605962024E+01  0.48820556564E-01  0.11816843775E+02  0.00000000000E+00 0. -1.
</event>
<event>
 8    1  0.2534787E-006  0.9118800E+02  0.7816164E-02  0.1184000E+00
        -11   -1    0    0    0    0  0.00000000000E+00  0.00000000000E+00  0.45593999997E+02  0.45594000000E+02  0.51100000000E-03 0.  1.
         11   -1    0    0    0    0 -0.00000000000E+00 -0.00000000000E+00 -0.45593999997E+02  0.45594000000E+02  0.51100000000E-03 0. -1.
         23    2    1    2    0    0 -0.17763568394E-14  0.00000000000E+00  0.00000000000E+00  0.91188000000E+02  0.91188000000E+02 0.  0.
    9900012    2    3    3    0    0 -0.13119372920E+02  0.33683100438E+02  0.70079580490E+01  0.54367072839E+02  0.39999974152E+02 0.  0.
         12    1    3    3    0    0  0.13119372920E+02 -0.33683100438E+02 -0.70079580490E+01  0.36820927161E+02  0.00000000000E+00 0. -1.
         11    1    4    4    0    0  0.10603250430E+02  0.38347828968E+01 -0.74203641122E+01  0.13498010348E+02  0.51100000000E-03 0. -1.
        -11    1    4    4    0    0 -0.52896065069E+01  0.85454269211E+01  0.32657269427E+01  0.10567366322E+02  0.51100000000E-03 0.  1.
         12    1    4    4    0    0 -0.18433016843E+02  0.21302890620E+02  0.11162595218E+02  0.30301696169E+02  0.00000000000E+00 0. -1.
</event>
<event>
 8    1  0.2534787E-006  0.9118800E+02  0.7816164E-02  0.1184000E+00
        -11   -1    0    0    0    0  0.00000000000E+00  0.00000000000E+00  0.45593999997E+02  0.45594000000E+02  0.51100000000E-03 0. -1.
         11   -1    0    0    0    0 -0.00000000000E+00 -0.00000000000E+00 -0.45593999997E+02  0.45594000000E+02  0.51100000000E-03 0.  1.
         23    2    1    2    0    0 -0.35527136788E-14  0.17763568394E-14  0.35527136788E-14  0.91188000000E+02  0.91188000000E+02 0.  0.
    9900012    2    3    3    0    0  0.24013156237E+02 -0.87952150534E+01 -0.26491228828E+02  0.54367181363E+02  0.40000221552E+02 0.  0.
         12    1    3    3    0    0 -0.24013156237E+02  0.87952150534E+01  0.26491228828E+02  0.36820818637E+02  0.00000000000E+00 0. -1.
         11    1    4    4    0    0  0.21435125086E+02 -0.89467508581E+01  0.22410959441E+01  0.23335197657E+02  0.51100000000E-03 0. -1.
        -11    1    4    4    0    0 -0.14981679009E+01 -0.41941826185E+01 -0.56568823141E+01  0.71997217080E+01  0.51100000000E-03 0.  1.
        -12    1    4    4    0    0  0.40761990518E+01  0.43457184232E+01 -0.23075442458E+02  0.23832261998E+02  0.00000000000E+00 0.  1.
</event>
<event>
 8    1  0.2534787E-006  0.9118800E+02  0.7816164E-02  0.1184000E+00
        -11   -1    0    0    0    0  0.00000000000E+00  0.00000000000E+00  0.45593999997E+02  0.45594000000E+02  0.51100000000E-03 0. -1.
         11   -1    0    0    0    0 -0.00000000000E+00 -0.00000000000E+00 -0.45593999997E+02  0.45594000000E+02  0.51100000000E-03 0.  1.
         23    2    1    2    0    0 -0.35527136788E-14  0.00000000000E+00  0.00000000000E+00  0.91188000000E+02  0.91188000000E+02 0.  0.
    9900012    2    3    3    0    0 -0.23657702532E+02  0.10941008331E+02 -0.26007433428E+02  0.54367093630E+02  0.40000021548E+02 0.  0.
         12    1    3    3    0    0  0.23657702532E+02 -0.10941008331E+02  0.26007433428E+02  0.36820906370E+02  0.00000000000E+00 0. -1.
         11    1    4    4    0    0 -0.38110541638E+01  0.89826834860E+01 -0.13853049071E+02  0.16944606967E+02  0.51100000000E-03 0.  1.
        -11    1    4    4    0    0 -0.25029407674E+01  0.50648371039E+01  0.85422892378E+01  0.10241483929E+02  0.51100000000E-03 0. -1.
        -12    1    4    4    0    0 -0.17343707601E+02 -0.31065122585E+01 -0.20696673595E+02  0.27181002734E+02  0.00000000000E+00 0.  1.
</event>
<event>
 8    1  0.2534787E-006  0.9118800E+02  0.7816164E-02  0.1184000E+00
        -11   -1    0    0    0    0  0.00000000000E+00  0.00000000000E+00  0.45593999997E+02  0.45594000000E+02  0.51100000000E-03 0. -1.
         11   -1    0    0    0    0 -0.00000000000E+00 -0.00000000000E+00 -0.45593999997E+02  0.45594000000E+02  0.51100000000E-03 0.  1.
         23    2    1    2    0    0  0.00000000000E+00  0.00000000000E+00 -0.35527136788E-14  0.91188000000E+02  0.91188000000E+02 0.  0.
    9900012    2    3    3    0    0 -0.28779957738E+02 -0.58322260864E+01 -0.22214372437E+02  0.54367093286E+02  0.40000020763E+02 0.  0.
         12    1    3    3    0    0  0.28779957738E+02  0.58322260864E+01  0.22214372437E+02  0.36820906714E+02  0.00000000000E+00 0. -1.
         11    1    4    4    0    0 -0.98896739933E+01  0.82776553109E+01 -0.22587015296E+02  0.26009584568E+02  0.51100000000E-03 0. -1.
        -11    1    4    4    0    0 -0.19410378631E+02 -0.10620438142E+02 -0.42621862063E+01  0.22532703709E+02  0.51100000000E-03 0.  1.
        -12    1    4    4    0    0  0.52009488661E+00 -0.34894432549E+01  0.46348290657E+01  0.58248050086E+01  0.00000000000E+00 0.  1.
</event>
<event>
 8    1  0.2534787E-006  0.9118800E+02  0.7816164E-02  0.1184000E+00
        -11   -1    0    0    0    0  0.00000000000E+00  0.00000000000E+00  0.45593999997E+02  0.45594000000E+02  0.51100000000E-03 0.  1.
         11   -1    0    0    0    0 -0.00000000000E+00 -0.00000000000E+00 -0.45593999997E+02  0.45594000000E+02  0.51100000000E-03 0. -1.
         23    2    1    2    0    0 -0.17763568394E-14  0.35527136788E-14 -0.35527136788E-14  0.91188000000E+02  0.91188000000E+02 0.  0.
    9900012    2    3    3    0    0 -0.13558456862E+02 -0.23312806098E+02 -0.25069120101E+02  0.54367089320E+02  0.40000011723E+02 0.  0.
        -12    1    3    3    0    0  0.13558456862E+02  0.23312806098E+02  0.25069120101E+02  0.36820910680E+02  0.00000000000E+00 0.  1.
         11    1    4    4    0    0  0.24034380493E+01  0.12897012706E+01 -0.24749817480E+02  0.24899664844E+02  0.51100000000E-03 0. -1.
        -11    1    4    4    0    0 -0.12688220672E+02 -0.20407872006E+02 -0.12615672770E+01  0.24063743181E+02  0.51100000000E-03 0.  1.
         12    1    4    4    0    0 -0.32736742392E+01 -0.41946353635E+01  0.94226465585E+00  0.54036812951E+01  0.00000000000E+00 0. -1.
</event>
<event>
 8    1  0.2534787E-006  0.9118800E+02  0.7816164E-02  0.1184000E+00
        -11   -1    0    0    0    0  0.00000000000E+00  0.00000000000E+00  0.45593999997E+02  0.45594000000E+02  0.51100000000E-03 0.  1.
         11   -1    0    0    0    0 -0.00000000000E+00 -0.00000000000E+00 -0.45593999997E+02  0.45594000000E+02  0.51100000000E-03 0. -1.
         23    2    1    2    0    0  0.00000000000E+00  0.00000000000E+00  0.00000000000E+00  0.91188000000E+02  0.91188000000E+02 0.  0.
    9900012    2    3    3    0    0  0.16964611646E+02  0.53262106740E+01  0.32243008640E+02  0.54367106820E+02  0.40000051617E+02 0.  0.
         12    1    3    3    0    0 -0.16964611646E+02 -0.53262106740E+01 -0.32243008640E+02  0.36820893180E+02  0.00000000000E+00 0. -1.
         11    1    4    4    0    0  0.11593138761E+02 -0.77596155920E+01  0.72055862403E+01  0.15701368533E+02  0.51100000000E-03 0. -1.
        -11    1    4    4    0    0 -0.89461877150E+01  0.16635782882E+01  0.15604211846E+02  0.18063587543E+02  0.51100000000E-03 0.  1.
         12    1    4    4    0    0  0.14317660600E+02  0.11422247978E+02  0.94332105537E+01  0.20602150744E+02  0.00000000000E+00 0. -1.
</event>
<event>
 8    1  0.2534787E-006  0.9118800E+02  0.7816164E-02  0.1184000E+00
        -11   -1    0    0    0    0  0.00000000000E+00  0.00000000000E+00  0.45593999997E+02  0.45594000000E+02  0.51100000000E-03 0.  1.
         11   -1    0    0    0    0 -0.00000000000E+00 -0.00000000000E+00 -0.45593999997E+02  0.45594000000E+02  0.51100000000E-03 0. -1.
         23    2    1    2    0    0  0.00000000000E+00  0.00000000000E+00  0.00000000000E+00  0.91188000000E+02  0.91188000000E+02 0.  0.
    9900012    2    3    3    0    0  0.10451457967E+02  0.18892312273E+02  0.29826638292E+02  0.54367071325E+02  0.39999970701E+02 0.  0.
         12    1    3    3    0    0 -0.10451457967E+02 -0.18892312273E+02 -0.29826638292E+02  0.36820928675E+02  0.00000000000E+00 0. -1.
         11    1    4    4    0    0 -0.58031269138E+01  0.26814122134E+01 -0.11026614453E+01  0.64870729886E+01  0.51100000000E-03 0. -1.
        -11    1    4    4    0    0 -0.53913796054E+01 -0.70115422117E+00  0.15385295663E+02  0.16317656517E+02  0.51100000000E-03 0.  1.
        -12    1    4    4    0    0  0.21645964486E+02  0.16912054280E+02  0.15544004074E+02  0.31562341820E+02  0.00000000000E+00 0.  1.
</event>
<event>
 8    1  0.2534787E-006  0.9118800E+02  0.7816164E-02  0.1184000E+00
        -11   -1    0    0    0    0  0.00000000000E+00  0.00000000000E+00  0.45593999997E+02  0.45594000000E+02  0.51100000000E-03 0.  1.
         11   -1    0    0    0    0 -0.00000000000E+00 -0.00000000000E+00 -0.45593999997E+02  0.45594000000E+02  0.51100000000E-03 0. -1.
         23    2    1    2    0    0  0.00000000000E+00  0.00000000000E+00  0.00000000000E+00  0.91188000000E+02  0.91188000000E+02 0.  0.
    9900012    2    3    3    0    0  0.65433417377E+01 -0.17587916308E+02 -0.31680117459E+02  0.54367082529E+02  0.39999996242E+02 0.  0.
        -12    1    3    3    0    0 -0.65433417377E+01  0.17587916308E+02  0.31680117459E+02  0.36820917471E+02  0.00000000000E+00 0.  1.
         11    1    4    4    0    0  0.89265880929E+00 -0.11489774852E+02 -0.11632825295E+02  0.16374809632E+02  0.51100000000E-03 0.  1.
        -11    1    4    4    0    0  0.14736741997E+02 -0.11934249207E+02 -0.19468929337E+02  0.27177878479E+02  0.51100000000E-03 0. -1.
        -12    1    4    4    0    0 -0.90860590686E+01  0.58361077510E+01 -0.57836282803E+00  0.10814394419E+02  0.00000000000E+00 0.  1.
</event>
<event>
 8    1  0.2534787E-006  0.9118800E+02  0.7816164E-02  0.1184000E+00
        -11   -1    0    0    0    0  0.00000000000E+00  0.00000000000E+00  0.45593999997E+02  0.45594000000E+02  0.51100000000E-03 0. -1.
         11   -1    0    0    0    0 -0.00000000000E+00 -0.00000000000E+00 -0.45593999997E+02  0.45594000000E+02  0.51100000000E-03 0.  1.
         23    2    1    2    0    0  0.00000000000E+00 -0.35527136788E-14  0.00000000000E+00  0.91188000000E+02  0.91188000000E+02 0.  0.
    9900012    2    3    3    0    0 -0.29250987128E+02  0.19759529455E+02 -0.10474860208E+02  0.54367055571E+02  0.39999934785E+02 0.  0.
         12    1    3    3    0    0  0.29250987128E+02 -0.19759529455E+02  0.10474860208E+02  0.36820944429E+02  0.00000000000E+00 0. -1.
         11    1    4    4    0    0  0.23573551139E+01  0.14251734633E+02 -0.10183430587E+02  0.17674029590E+02  0.51100000000E-03 0. -1.
        -11    1    4    4    0    0 -0.22004172081E+02  0.53190679229E+01 -0.83759070720E+01  0.24137768995E+02  0.51100000000E-03 0.  1.
         12    1    4    4    0    0 -0.96041701614E+01  0.18872689955E+00  0.80844774507E+01  0.12555256986E+02  0.00000000000E+00 0. -1.
</event>
<event>
 8    1  0.2534787E-006  0.9118800E+02  0.7816164E-02  0.1184000E+00
        -11   -1    0    0    0    0  0.00000000000E+00  0.00000000000E+00  0.45593999997E+02  0.45594000000E+02  0.51100000000E-03 0. -1.
         11   -1    0    0    0    0 -0.00000000000E+00 -0.00000000000E+00 -0.45593999997E+02  0.45594000000E+02  0.51100000000E-03 0.  1.
         23    2    1    2    0    0 -0.44408920985E-15  0.71054273576E-14 -0.88817841970E-15  0.91188000000E+02  0.91188000000E+02 0.  0.
    9900012    2    3    3    0    0  0.99241458777E+00  0.36104833959E+02 -0.71578182313E+01  0.54367105337E+02  0.40000048237E+02 0.  0.
        -12    1    3    3    0    0 -0.99241458777E+00 -0.36104833959E+02  0.71578182313E+01  0.36820894663E+02  0.00000000000E+00 0.  1.
         11    1    4    4    0    0  0.17444429517E+01  0.11159554473E+02  0.10862249004E+02  0.15670583618E+02  0.51100000000E-03 0. -1.
        -11    1    4    4    0    0  0.42475743644E+01  0.39427943862E+01 -0.15994794504E+02  0.17012376878E+02  0.51100000000E-03 0.  1.
        -12    1    4    4    0    0 -0.49996027284E+01  0.21002485100E+02 -0.20252727311E+01  0.21684144841E+02  0.00000000000E+00 0.  1.
</event>
<event>
 8    1  0.2534787E-006  0.9118800E+02  0.7816164E-02  0.1184000E+00
        -11   -1    0    0    0    0  0.00000000000E+00  0.00000000000E+00  0.45593999997E+02  0.45594000000E+02  0.51100000000E-03 0.  1.
         11   -1    0    0    0    0 -0.00000000000E+00 -0.00000000000E+00 -0.45593999997E+02  0.45594000000E+02  0.51100000000E-03 0. -1.
         23    2    1    2    0    0  0.00000000000E+00  0.00000000000E+00  0.00000000000E+00  0.91188000000E+02  0.91188000000E+02 0.  0.
    9900012    2    3    3    0    0  0.25007068188E+02 -0.18031143194E+02 -0.20132187072E+02  0.54367074692E+02  0.39999978375E+02 0.  0.
         12    1    3    3    0    0 -0.25007068188E+02  0.18031143194E+02  0.20132187072E+02  0.36820925308E+02  0.00000000000E+00 0. -1.
         11    1    4    4    0    0  0.30294836152E+01 -0.15040349908E+01 -0.88407121951E+01  0.94656264772E+01  0.51100000000E-03 0. -1.
        -11    1    4    4    0    0  0.26077079242E+02 -0.76852715733E+01 -0.18409648238E+02  0.32832797771E+02  0.51100000000E-03 0.  1.
        -12    1    4    4    0    0 -0.40994946691E+01 -0.88418366302E+01  0.71181733613E+01  0.12068650444E+02  0.00000000000E+00 0.  1.
</event>
<event>
 8    1  0.2534787E-006  0.9118800E+02  0.7816164E-02  0.1184000E+00
        -11   -1    0    0    0    0  0.00000000000E+00  0.00000000000E+00  0.45593999997E+02  0.45594000000E+02  0.51100000000E-03 0. -1.
         11   -1    0    0    0    0 -0.00000000000E+00 -0.00000000000E+00 -0.45593999997E+02  0.45594000000E+02  0.51100000000E-03 0.  1.
         23    2    1    2    0    0  0.00000000000E+00 -0.88817841970E-15  0.00000000000E+00  0.91188000000E+02  0.91188000000E+02 0.  0.
    9900012    2    3    3    0    0  0.26934544880E+02  0.77507896508E+01 -0.23879613420E+02  0.54367076801E+02  0.39999983184E+02 0.  0.
         12    1    3    3    0    0 -0.26934544880E+02 -0.77507896508E+01  0.23879613420E+02  0.36820923199E+02  0.00000000000E+00 0. -1.
         11    1    4    4    0    0  0.45403507228E+01 -0.17647991261E+01  0.52212409934E+00  0.48991748772E+01  0.51100000000E-03 0. -1.
        -11    1    4    4    0    0  0.13300859037E+02  0.94927733380E-01 -0.31771115383E+02  0.34443078192E+02  0.51100000000E-03 0.  1.
        -12    1    4    4    0    0  0.90933351201E+01  0.94206610435E+01  0.73693778630E+01  0.15024823732E+02  0.00000000000E+00 0.  1.
</event>
<event>
 8    1  0.2534787E-006  0.9118800E+02  0.7816164E-02  0.1184000E+00
        -11   -1    0    0    0    0  0.00000000000E+00  0.00000000000E+00  0.45593999997E+02  0.45594000000E+02  0.51100000000E-03 0.  1.
         11   -1    0    0    0    0 -0.00000000000E+00 -0.00000000000E+00 -0.45593999997E+02  0.45594000000E+02  0.51100000000E-03 0. -1.
         23    2    1    2    0    0  0.00000000000E+00 -0.17763568394E-14  0.71054273576E-14  0.91188000000E+02  0.91188000000E+02 0.  0.
    9900012    2    3    3    0    0 -0.82582059838E+01 -0.74743855751E+01  0.35095789208E+02  0.54367097975E+02  0.40000031453E+02 0.  0.
         12    1    3    3    0    0  0.82582059838E+01  0.74743855751E+01 -0.35095789208E+02  0.36820902025E+02  0.00000000000E+00 0. -1.
         11    1    4    4    0    0 -0.77796713855E+01  0.10709761062E+02  0.16765455892E+02  0.21361244823E+02  0.51100000000E-03 0. -1.
        -11    1    4    4    0    0 -0.29250540814E+01 -0.74871384316E+01  0.20321428852E+02  0.21853458630E+02  0.51100000000E-03 0.  1.
         12    1    4    4    0    0  0.24465194831E+01 -0.10697008206E+02 -0.19910955349E+01  0.11152394521E+02  0.00000000000E+00 0. -1.
</event>
<event>
 8    1  0.2534787E-006  0.9118800E+02  0.7816164E-02  0.1184000E+00
        -11   -1    0    0    0    0  0.00000000000E+00  0.00000000000E+00  0.45593999997E+02  0.45594000000E+02  0.51100000000E-03 0. -1.
         11   -1    0    0    0    0 -0.00000000000E+00 -0.00000000000E+00 -0.45593999997E+02  0.45594000000E+02  0.51100000000E-03 0.  1.
         23    2    1    2    0    0  0.00000000000E+00  0.00000000000E+00 -0.17763568394E-14  0.91188000000E+02  0.91188000000E+02 0.  0.
    9900012    2    3    3    0    0 -0.22218381128E+02  0.26009805497E+02  0.13624060042E+02  0.54367062288E+02  0.39999950098E+02 0.  0.
        -12    1    3    3    0    0  0.22218381128E+02 -0.26009805497E+02 -0.13624060042E+02  0.36820937712E+02  0.00000000000E+00 0.  1.
         11    1    4    4    0    0 -0.16511401666E+02  0.14110418214E+02  0.17077439069E+02  0.27629137022E+02  0.51100000000E-03 0. -1.
        -11    1    4    4    0    0  0.23699667562E+01  0.16752492348E+02 -0.75409446776E+00  0.16936097573E+02  0.51100000000E-03 0.  1.
        -12    1    4    4    0    0 -0.80769462182E+01 -0.48531050644E+01 -0.26992845601E+01  0.98018276926E+01  0.00000000000E+00 0.  1.
</event>
<event>
 8    1  0.2534787E-006  0.9118800E+02  0.7816164E-02  0.1184000E+00
        -11   -1    0    0    0    0  0.00000000000E+00  0.00000000000E+00  0.45593999997E+02  0.45594000000E+02  0.51100000000E-03 0.  1.
         11   -1    0    0    0    0 -0.00000000000E+00 -0.00000000000E+00 -0.45593999997E+02  0.45594000000E+02  0.51100000000E-03 0. -1.
         23    2    1    2    0    0  0.00000000000E+00 -0.35527136788E-14  0.00000000000E+00  0.91188000000E+02  0.91188000000E+02 0.  0.
    9900012    2    3    3    0    0  0.20166167604E+02  0.27289082969E+02 -0.14297300227E+02  0.54367066295E+02  0.39999959233E+02 0.  0.
         12    1    3    3    0    0 -0.20166167604E+02 -0.27289082969E+02  0.14297300227E+02  0.36820933705E+02  0.00000000000E+00 0. -1.
         11    1    4    4    0    0  0.61217200792E+01  0.14603517385E+01 -0.14851757776E+02  0.16130182678E+02  0.51100000000E-03 0. -1.
        -11    1    4    4    0    0 -0.55044839907E+01  0.26222325460E+01 -0.43636861635E+01  0.74978133295E+01  0.51100000000E-03 0.  1.
        -12    1    4    4    0    0  0.19548931515E+02  0.23206498684E+02  0.49181437124E+01  0.30739070288E+02  0.00000000000E+00 0.  1.
</event>
<event>
 8    1  0.2534787E-006  0.9118800E+02  0.7816164E-02  0.1184000E+00
        -11   -1    0    0    0    0  0.00000000000E+00  0.00000000000E+00  0.45593999997E+02  0.45594000000E+02  0.51100000000E-03 0.  1.
         11   -1    0    0    0    0 -0.00000000000E+00 -0.00000000000E+00 -0.45593999997E+02  0.45594000000E+02  0.51100000000E-03 0. -1.
         23    2    1    2    0    0  0.00000000000E+00 -0.17763568394E-14  0.35527136788E-14  0.91188000000E+02  0.91188000000E+02 0.  0.
    9900012    2    3    3    0    0 -0.28483539784E+02 -0.10882054710E+02  0.20640920174E+02  0.54367099156E+02  0.40000034146E+02 0.  0.
         12    1    3    3    0    0  0.28483539784E+02  0.10882054710E+02 -0.20640920174E+02  0.36820900844E+02  0.00000000000E+00 0. -1.
         11    1    4    4    0    0 -0.16831385886E+02 -0.16117069592E+02  0.28003191755E+01  0.23471200882E+02  0.51100000000E-03 0. -1.
        -11    1    4    4    0    0 -0.13230146107E+02  0.56635830335E+01  0.14951664838E+01  0.14468879082E+02  0.51100000000E-03 0.  1.
        -12    1    4    4    0    0  0.15779922102E+01 -0.42856815112E+00  0.16345434515E+02  0.16427019193E+02  0.00000000000E+00 0.  1.
</event>
<event>
 8    1  0.2534787E-006  0.9118800E+02  0.7816164E-02  0.1184000E+00
        -11   -1    0    0    0    0  0.00000000000E+00  0.00000000000E+00  0.45593999997E+02  0.45594000000E+02  0.51100000000E-03 0.  1.
         11   -1    0    0    0    0 -0.00000000000E+00 -0.00000000000E+00 -0.45593999997E+02  0.45594000000E+02  0.51100000000E-03 0. -1.
         23    2    1    2    0    0 -0.35527136788E-14 -0.35527136788E-14  0.35527136788E-14  0.91188000000E+02  0.91188000000E+02 0.  0.
    9900012    2    3    3    0    0 -0.18485630843E+02 -0.24203152064E+02  0.20694656409E+02  0.54367083100E+02  0.39999997543E+02 0.  0.
         12    1    3    3    0    0  0.18485630843E+02  0.24203152064E+02 -0.20694656409E+02  0.36820916900E+02  0.00000000000E+00 0. -1.
         11    1    4    4    0    0 -0.70943531028E+01 -0.14244997034E+02 -0.84387167577E+01  0.18012821190E+02  0.51100000000E-03 0. -1.
        -11    1    4    4    0    0 -0.90178252208E+01  0.13571670351E+01  0.74280256877E+01  0.11761744767E+02  0.51100000000E-03 0.  1.
         12    1    4    4    0    0 -0.23734525192E+01 -0.11315322065E+02  0.21705347479E+02  0.24592517144E+02  0.00000000000E+00 0. -1.
</event>
<event>
 8    1  0.2534787E-006  0.9118800E+02  0.7816164E-02  0.1184000E+00
        -11   -1    0    0    0    0  0.00000000000E+00  0.00000000000E+00  0.45593999997E+02  0.45594000000E+02  0.51100000000E-03 0. -1.
         11   -1    0    0    0    0 -0.00000000000E+00 -0.00000000000E+00 -0.45593999997E+02  0.45594000000E+02  0.51100000000E-03 0.  1.
         23    2    1    2    0    0  0.00000000000E+00  0.17763568394E-14  0.17763568394E-14  0.91188000000E+02  0.91188000000E+02 0.  0.
    9900012    2    3    3    0    0  0.34045339126E+02  0.12413791628E+02  0.65262073846E+01  0.54367099391E+02  0.40000034682E+02 0.  0.
        -12    1    3    3    0    0 -0.34045339126E+02 -0.12413791628E+02 -0.65262073846E+01  0.36820900609E+02  0.00000000000E+00 0.  1.
         11    1    4    4    0    0  0.25902408392E+02  0.42153899020E+01 -0.54242806492E+00  0.26248780943E+02  0.51100000000E-03 0. -1.
        -11    1    4    4    0    0 -0.20486358433E+01 -0.78988068665E+01  0.19308496626E+01  0.83854778882E+01  0.51100000000E-03 0.  1.
        -12    1    4    4    0    0  0.10191566578E+02  0.16097208592E+02  0.51377857869E+01  0.19732840560E+02  0.00000000000E+00 0.  1.
</event>
<event>
 8    1  0.2534787E-006  0.9118800E+02  0.7816164E-02  0.1184000E+00
        -11   -1    0    0    0    0  0.00000000000E+00  0.00000000000E+00  0.45593999997E+02  0.45594000000E+02  0.51100000000E-03 0. -1.
         11   -1    0    0    0    0 -0.00000000000E+00 -0.00000000000E+00 -0.45593999997E+02  0.45594000000E+02  0.51100000000E-03 0.  1.
         23    2    1    2    0    0 -0.17763568394E-14 -0.17763568394E-14  0.00000000000E+00  0.91188000000E+02  0.91188000000E+02 0.  0.
    9900012    2    3    3    0    0  0.97943563695E+01  0.64174119994E+01 -0.34909434810E+02  0.54367065300E+02  0.39999956964E+02 0.  0.
         12    1    3    3    0    0 -0.97943563695E+01 -0.64174119994E+01  0.34909434810E+02  0.36820934700E+02  0.00000000000E+00 0. -1.
         11    1    4    4    0    0  0.13690971564E+02  0.16181737178E+02 -0.17514307669E+02  0.27496223265E+02  0.51100000000E-03 0. -1.
        -11    1    4    4    0    0 -0.64716357794E+01  0.24663132783E+01 -0.10550813191E+02  0.12620793560E+02  0.51100000000E-03 0.  1.
        -12    1    4    4    0    0  0.25750205850E+01 -0.12230638457E+02 -0.68443139504E+01  0.14250048474E+02  0.00000000000E+00 0.  1.
</event>
<event>
 8    1  0.2534787E-006  0.9118800E+02  0.7816164E-02  0.1184000E+00
        -11   -1    0    0    0    0  0.00000000000E+00  0.00000000000E+00  0.45593999997E+02  0.45594000000E+02  0.51100000000E-03 0.  1.
         11   -1    0    0    0    0 -0.00000000000E+00 -0.00000000000E+00 -0.45593999997E+02  0.45594000000E+02  0.51100000000E-03 0. -1.
         23    2    1    2    0    0  0.00000000000E+00  0.00000000000E+00 -0.35527136788E-14  0.91188000000E+02  0.91188000000E+02 0.  0.
    9900012    2    3    3    0    0 -0.15781562708E+02 -0.25907614790E+02  0.20869077054E+02  0.54367073848E+02  0.39999976452E+02 0.  0.
         12    1    3    3    0    0  0.15781562708E+02  0.25907614790E+02 -0.20869077054E+02  0.36820926152E+02  0.00000000000E+00 0. -1.
         11    1    4    4    0    0  0.30000631450E+01 -0.16492311462E+02  0.15132436238E+02  0.22582899348E+02  0.51100000000E-03 0. -1.
        -11    1    4    4    0    0 -0.22891439822E+02 -0.81871531893E+01  0.94767146042E+01  0.26093210121E+02  0.51100000000E-03 0.  1.
         12    1    4    4    0    0  0.41098139690E+01 -0.12281501384E+01 -0.37400737883E+01  0.56909643791E+01  0.00000000000E+00 0. -1.
</event>
<event>
 8    1  0.2534787E-006  0.9118800E+02  0.7816164E-02  0.1184000E+00
        -11   -1    0    0    0    0  0.00000000000E+00  0.00000000000E+00  0.45593999997E+02  0.45594000000E+02  0.51100000000E-03 0.  1.
         11   -1    0    0    0    0 -0.00000000000E+00 -0.00000000000E+00 -0.45593999997E+02  0.45594000000E+02  0.51100000000E-03 0. -1.
         23    2    1    2    0    0  0.00000000000E+00 -0.88817841970E-15 -0.17763568394E-14  0.91188000000E+02  0.91188000000E+02 0.  0.
    9900012    2    3    3    0    0  0.35569240865E+02 -0.45942221312E+01 -0.83367186304E+01  0.54367100361E+02  0.40000036894E+02 0.  0.
        -12    1    3    3    0    0 -0.35569240865E+02  0.45942221312E+01  0.83367186304E+01  0.36820899639E+02  0.00000000000E+00 0.  1.
         11    1    4    4    0    0  0.66939161764E+01  0.84906402751E+01  0.11452868356E+02  0.15750164440E+02  0.51100000000E-03 0.  1.
        -11    1    4    4    0    0  0.12139480095E+02 -0.11666553308E+01 -0.10397704384E+02  0.16026238435E+02  0.51100000000E-03 0. -1.
         12    1    4    4    0    0  0.16735844593E+02 -0.11918207075E+02 -0.93918826022E+01  0.22590697487E+02  0.00000000000E+00 0. -1.
</event>
<event>
 8    1  0.2534787E-006  0.9118800E+02  0.7816164E-02  0.1184000E+00
        -11   -1    0    0    0    0  0.00000000000E+00  0.00000000000E+00  0.45593999997E+02  0.45594000000E+02  0.51100000000E-03 0.  1.
         11   -1    0    0    0    0 -0.00000000000E+00 -0.00000000000E+00 -0.45593999997E+02  0.45594000000E+02  0.51100000000E-03 0. -1.
         23    2    1    2    0    0  0.44408920985E-15  0.00000000000E+00  0.00000000000E+00  0.91188000000E+02  0.91188000000E+02 0.  0.
    9900012    2    3    3    0    0 -0.11509562157E+01  0.36521050953E+02 -0.45462791914E+01  0.54367075006E+02  0.39999979091E+02 0.  0.
        -12    1    3    3    0    0  0.11509562157E+01 -0.36521050953E+02  0.45462791914E+01  0.36820924994E+02  0.00000000000E+00 0.  1.
         11    1    4    4    0    0  0.13549964210E+02  0.18033866854E+02 -0.15134410641E+02  0.27163804400E+02  0.51100000000E-03 0. -1.
        -11    1    4    4    0    0 -0.70542399360E+01  0.27688980363E+01  0.32660177061E+01  0.82520281948E+01  0.51100000000E-03 0.  1.
        -12    1    4    4    0    0 -0.76466804894E+01  0.15718286062E+02  0.73221137430E+01  0.18951242411E+02  0.00000000000E+00 0.  1.
</event>
<event>
 8    1  0.2534787E-006  0.9118800E+02  0.7816164E-02  0.1184000E+00
        -11   -1    0    0    0    0  0.00000000000E+00  0.00000000000E+00  0.45593999997E+02  0.45594000000E+02  0.51100000000E-03 0.  1.
         11   -1    0    0    0    0 -0.00000000000E+00 -0.00000000000E+00 -0.45593999997E+02  0.45594000000E+02  0.51100000000E-03 0. -1.
         23    2    1    2    0    0  0.17763568394E-14  0.00000000000E+00  0.88817841970E-15  0.91188000000E+02  0.91188000000E+02 0.  0.
    9900012    2    3    3    0    0  0.14534941782E+02  0.33481353821E+02  0.48489749866E+01  0.54367107225E+02  0.40000052541E+02 0.  0.
        -12    1    3    3    0    0 -0.14534941782E+02 -0.33481353821E+02 -0.48489749866E+01  0.36820892775E+02  0.00000000000E+00 0.  1.
         11    1    4    4    0    0  0.10704464661E+02  0.54785202254E+01  0.12501499535E+02  0.17346101534E+02  0.51100000000E-03 0.  1.
        -11    1    4    4    0    0 -0.74162115604E+01  0.52704655860E+01 -0.72859170708E+01  0.11656010862E+02  0.51100000000E-03 0. -1.
        -12    1    4    4    0    0  0.11246688682E+02  0.22732368010E+02 -0.36660747748E+00  0.25364994829E+02  0.00000000000E+00 0.  1.
</event>
<event>
 8    1  0.2534787E-006  0.9118800E+02  0.7816164E-02  0.1184000E+00
        -11   -1    0    0    0    0  0.00000000000E+00  0.00000000000E+00  0.45593999997E+02  0.45594000000E+02  0.51100000000E-03 0.  1.
         11   -1    0    0    0    0 -0.00000000000E+00 -0.00000000000E+00 -0.45593999997E+02  0.45594000000E+02  0.51100000000E-03 0. -1.
         23    2    1    2    0    0  0.00000000000E+00  0.00000000000E+00  0.13322676296E-14  0.91188000000E+02  0.91188000000E+02 0.  0.
    9900012    2    3    3    0    0 -0.20276917066E+02 -0.30561653782E+02  0.32576068496E+01  0.54367081354E+02  0.39999993563E+02 0.  0.
         12    1    3    3    0    0  0.20276917066E+02  0.30561653782E+02 -0.32576068496E+01  0.36820918646E+02  0.00000000000E+00 0. -1.
         11    1    4    4    0    0  0.20022076660E+01 -0.51409551625E+01  0.11354518143E+02  0.12623919282E+02  0.51100000000E-03 0. -1.
        -11    1    4    4    0    0 -0.15190790148E+01 -0.26768202164E+00 -0.89859160899E+01  0.91173429767E+01  0.51100000000E-03 0.  1.
        -12    1    4    4    0    0 -0.20760045717E+02 -0.25153016597E+02  0.88900479651E+00  0.32625819095E+02  0.00000000000E+00 0.  1.
</event>
<event>
 8    1  0.2534787E-006  0.9118800E+02  0.7816164E-02  0.1184000E+00
        -11   -1    0    0    0    0  0.00000000000E+00  0.00000000000E+00  0.45593999997E+02  0.45594000000E+02  0.51100000000E-03 0. -1.
         11   -1    0    0    0    0 -0.00000000000E+00 -0.00000000000E+00 -0.45593999997E+02  0.45594000000E+02  0.51100000000E-03 0.  1.
         23    2    1    2    0    0 -0.17763568394E-14  0.35527136788E-14 -0.35527136788E-14  0.91188000000E+02  0.91188000000E+02 0.  0.
    9900012    2    3    3    0    0 -0.93744873779E+01  0.16830422945E+02 -0.31378906136E+02  0.54367083385E+02  0.39999998192E+02 0.  0.
         12    1    3    3    0    0  0.93744873779E+01 -0.16830422945E+02  0.31378906136E+02  0.36820916615E+02  0.00000000000E+00 0. -1.
         11    1    4    4    0    0 -0.14712041949E+01  0.57331344232E+01 -0.21183615181E+02  0.21994972710E+02  0.51100000000E-03 0. -1.
        -11    1    4    4    0    0  0.64481102937E+01  0.11514364091E+01 -0.13123575811E+02  0.14667384719E+02  0.51100000000E-03 0.  1.
         12    1    4    4    0    0 -0.14351393477E+02  0.99458521122E+01  0.29282848563E+01  0.17704725956E+02  0.00000000000E+00 0. -1.
</event>
<event>
 8    1  0.2534787E-006  0.9118800E+02  0.7816164E-02  0.1184000E+00
        -11   -1    0    0    0    0  0.00000000000E+00  0.00000000000E+00  0.45593999997E+02  0.45594000000E+02  0.51100000000E-03 0.  1.
         11   -1    0    0    0    0 -0.00000000000E+00 -0.00000000000E+00 -0.45593999997E+02  0.45594000000E+02  0.51100000000E-03 0. -1.
         23    2    1    2    0    0  0.00000000000E+00 -0.35527136788E-14  0.00000000000E+00  0.91188000000E+02  0.91188000000E+02 0.  0.
    9900012    2    3    3    0    0  0.44905584478E+01  0.19527031840E+02  0.30891916096E+02  0.54367074323E+02  0.39999977533E+02 0.  0.
         12    1    3    3    0    0 -0.44905584478E+01 -0.19527031840E+02 -0.30891916096E+02  0.36820925677E+02  0.00000000000E+00 0. -1.
         11    1    4    4    0    0  0.14052263529E+02  0.21386145453E+02  0.10076641651E+02  0.27502218726E+02  0.51100000000E-03 0. -1.
        -11    1    4    4    0    0  0.29656654557E+01 -0.27391054820E+01  0.28346349901E+01  0.49328517335E+01  0.51100000000E-03 0.  1.
        -12    1    4    4    0    0 -0.12527370537E+02  0.87999186931E+00  0.17980639455E+02  0.21932003863E+02  0.00000000000E+00 0.  1.
</event>
<event>
 8    1  0.2534787E-006  0.9118800E+02  0.7816164E-02  0.1184000E+00
        -11   -1    0    0    0    0  0.00000000000E+00  0.00000000000E+00  0.45593999997E+02  0.45594000000E+02  0.51100000000E-03 0. -1.
         11   -1    0    0    0    0 -0.00000000000E+00 -0.00000000000E+00 -0.45593999997E+02  0.45594000000E+02  0.51100000000E-03 0.  1.
         23    2    1    2    0    0 -0.35527136788E-14  0.00000000000E+00  0.00000000000E+00  0.91188000000E+02  0.91188000000E+02 0.  0.
    9900012    2    3    3    0    0  0.21840834556E+02 -0.13497456719E+02  0.26392606564E+02  0.54367176092E+02  0.40000209537E+02 0.  0.
        -12    1    3    3    0    0 -0.21840834556E+02  0.13497456719E+02 -0.26392606564E+02  0.36820823908E+02  0.00000000000E+00 0.  1.
         11    1    4    4    0    0  0.16086731854E+02 -0.16174251767E+02  0.10953816397E+02  0.25305640792E+02  0.51100000000E-03 0. -1.
        -11    1    4    4    0    0  0.63444980098E+00 -0.44354005151E+01 -0.50657200481E+01  0.67629005719E+01  0.51100000000E-03 0.  1.
        -12    1    4    4    0    0  0.51196529019E+01  0.71121955636E+01  0.20504510216E+02  0.22298634728E+02  0.00000000000E+00 0.  1.
</event>
<event>
 8    1  0.2534787E-006  0.9118800E+02  0.7816164E-02  0.1184000E+00
        -11   -1    0    0    0    0  0.00000000000E+00  0.00000000000E+00  0.45593999997E+02  0.45594000000E+02  0.51100000000E-03 0.  1.
         11   -1    0    0    0    0 -0.00000000000E+00 -0.00000000000E+00 -0.45593999997E+02  0.45594000000E+02  0.51100000000E-03 0. -1.
         23    2    1    2    0    0  0.00000000000E+00  0.00000000000E+00 -0.88817841970E-15  0.91188000000E+02  0.91188000000E+02 0.  0.
    9900012    2    3    3    0    0 -0.23425882127E+02 -0.28161102723E+02 -0.37362913432E+01  0.54367088374E+02  0.40000009566E+02 0.  0.
        -12    1    3    3    0    0  0.23425882127E+02  0.28161102723E+02  0.37362913432E+01  0.36820911626E+02  0.00000000000E+00 0.  1.
         11    1    4    4    0    0 -0.17934031881E+02 -0.43039626219E+01 -0.50451053021E+01  0.19120844164E+02  0.51100000000E-03 0. -1.
        -11    1    4    4    0    0  0.37097905132E+00 -0.20466454912E+02 -0.94399883491E+01  0.22541667693E+02  0.51100000000E-03 0.  1.
        -12    1    4    4    0    0 -0.58628292966E+01 -0.33906851893E+01  0.10748802308E+02  0.12704576517E+02  0.00000000000E+00 0.  1.
</event>
<event>
 8    1  0.2534787E-006  0.9118800E+02  0.7816164E-02  0.1184000E+00
        -11   -1    0    0    0    0  0.00000000000E+00  0.00000000000E+00  0.45593999997E+02  0.45594000000E+02  0.51100000000E-03 0.  1.
         11   -1    0    0    0    0 -0.00000000000E+00 -0.00000000000E+00 -0.45593999997E+02  0.45594000000E+02  0.51100000000E-03 0. -1.
         23    2    1    2    0    0  0.00000000000E+00  0.00000000000E+00  0.00000000000E+00  0.91188000000E+02  0.91188000000E+02 0.  0.
    9900012    2    3    3    0    0 -0.83473709868E+01  0.98596590976E+01  0.34480266535E+02  0.54367078498E+02  0.39999987052E+02 0.  0.
         12    1    3    3    0    0  0.83473709868E+01 -0.98596590976E+01 -0.34480266535E+02  0.36820921502E+02  0.00000000000E+00 0. -1.
         11    1    4    4    0    0 -0.12952616900E+01 -0.91352845839E+01  0.17417168286E+01  0.93896062242E+01  0.51100000000E-03 0. -1.
        -11    1    4    4    0    0  0.75002639867E+01  0.86836837216E+01  0.63128710386E+01  0.13096284353E+02  0.51100000000E-03 0.  1.
         12    1    4    4    0    0 -0.14552373284E+02  0.10311259960E+02  0.26425678668E+02  0.31881187921E+02  0.00000000000E+00 0. -1.
</event>
<event>
 8    1  0.2534787E-006  0.9118800E+02  0.7816164E-02  0.1184000E+00
        -11   -1    0    0    0    0  0.00000000000E+00  0.00000000000E+00  0.45593999997E+02  0.45594000000E+02  0.51100000000E-03 0. -1.
         11   -1    0    0    0    0 -0.00000000000E+00 -0.00000000000E+00 -0.45593999997E+02  0.45594000000E+02  0.51100000000E-03 0.  1.
         23    2    1    2    0    0  0.00000000000E+00  0.00000000000E+00  0.17763568394E-14  0.91188000000E+02  0.91188000000E+02 0.  0.
    9900012    2    3    3    0    0 -0.13557749297E+02 -0.32424719385E+02  0.10982052050E+02  0.54367075780E+02  0.39999980856E+02 0.  0.
        -12    1    3    3    0    0  0.13557749297E+02  0.32424719385E+02 -0.10982052050E+02  0.36820924220E+02  0.00000000000E+00 0.  1.
         11    1    4    4    0    0 -0.13417932212E+02 -0.29540919504E+02 -0.83993436670E+01  0.33515008642E+02  0.51100000000E-03 0. -1.
        -11    1    4    4    0    0 -0.36328960815E-01  0.23651681893E+01  0.47308033008E+01  0.52892192703E+01  0.51100000000E-03 0.  1.
         12    1    4    4    0    0 -0.10348812409E+00 -0.52489680704E+01  0.14650592417E+02  0.15562847868E+02  0.00000000000E+00 0. -1.
</event>
<event>
 8    1  0.2534787E-006  0.9118800E+02  0.7816164E-02  0.1184000E+00
        -11   -1    0    0    0    0  0.00000000000E+00  0.00000000000E+00  0.45593999997E+02  0.45594000000E+02  0.51100000000E-03 0. -1.
         11   -1    0    0    0    0 -0.00000000000E+00 -0.00000000000E+00 -0.45593999997E+02  0.45594000000E+02  0.51100000000E-03 0.  1.
         23    2    1    2    0    0 -0.35527136788E-14  0.17763568394E-14  0.00000000000E+00  0.91188000000E+02  0.91188000000E+02 0.  0.
    9900012    2    3    3    0    0 -0.20262371851E+02  0.78938550815E+01 -0.29713679709E+02  0.54367089869E+02  0.40000012974E+02 0.  0.
         12    1    3    3    0    0  0.20262371851E+02 -0.78938550815E+01  0.29713679709E+02  0.36820910131E+02  0.00000000000E+00 0. -1.
         11    1    4    4    0    0 -0.25198545371E+01 -0.41558116228E+01  0.19124442522E+01  0.52228230308E+01  0.51100000000E-03 0. -1.
        -11    1    4    4    0    0 -0.21203254455E+02  0.19761847212E+02 -0.26404411100E+02  0.39208436981E+02  0.51100000000E-03 0.  1.
        -12    1    4    4    0    0  0.34607371409E+01 -0.77121805080E+01 -0.52217128610E+01  0.99358298571E+01  0.00000000000E+00 0.  1.
</event>
<event>
 8    1  0.2534787E-006  0.9118800E+02  0.7816164E-02  0.1184000E+00
        -11   -1    0    0    0    0  0.00000000000E+00  0.00000000000E+00  0.45593999997E+02  0.45594000000E+02  0.51100000000E-03 0.  1.
         11   -1    0    0    0    0 -0.00000000000E+00 -0.00000000000E+00 -0.45593999997E+02  0.45594000000E+02  0.51100000000E-03 0. -1.
         23    2    1    2    0    0 -0.35527136788E-14  0.00000000000E+00  0.00000000000E+00  0.91188000000E+02  0.91188000000E+02 0.  0.
    9900012    2    3    3    0    0 -0.28450447536E+02  0.98149807148E+01 -0.21213634689E+02  0.54367080563E+02  0.39999991759E+02 0.  0.
        -12    1    3    3    0    0  0.28450447536E+02 -0.98149807148E+01  0.21213634689E+02  0.36820919437E+02  0.00000000000E+00 0.  1.
         11    1    4    4    0    0 -0.17193021032E+02  0.32875442490E+01 -0.53397839628E+01  0.18300852779E+02  0.51100000000E-03 0. -1.
        -11    1    4    4    0    0 -0.16755147709E+02 -0.62399694362E+00 -0.20040986658E+02  0.26129781733E+02  0.51100000000E-03 0.  1.
        -12    1    4    4    0    0  0.54977212044E+01  0.71514334094E+01  0.41671359315E+01  0.99364460509E+01  0.00000000000E+00 0.  1.
</event>
<event>
 8    1  0.2534787E-006  0.9118800E+02  0.7816164E-02  0.1184000E+00
        -11   -1    0    0    0    0  0.00000000000E+00  0.00000000000E+00  0.45593999997E+02  0.45594000000E+02  0.51100000000E-03 0.  1.
         11   -1    0    0    0    0 -0.00000000000E+00 -0.00000000000E+00 -0.45593999997E+02  0.45594000000E+02  0.51100000000E-03 0. -1.
         23    2    1    2    0    0  0.35527136788E-14  0.17763568394E-14  0.00000000000E+00  0.91188000000E+02  0.91188000000E+02 0.  0.
    9900012    2    3    3    0    0 -0.25364052904E+02 -0.93944320748E+01  0.24983787764E+02  0.54367079524E+02  0.39999989390E+02 0.  0.
         12    1    3    3    0    0  0.25364052904E+02  0.93944320748E+01 -0.24983787764E+02  0.36820920476E+02  0.00000000000E+00 0. -1.
         11    1    4    4    0    0 -0.66911657538E+01  0.90648844878E+01  0.27980444983E+01  0.11609172374E+02  0.51100000000E-03 0. -1.
        -11    1    4    4    0    0  0.48024278991E+01 -0.38642272452E+01  0.11641379034E+02  0.13172595493E+02  0.51100000000E-03 0.  1.
        -12    1    4    4    0    0 -0.23475315049E+02 -0.14595089317E+02  0.10544364231E+02  0.29585311657E+02  0.00000000000E+00 0.  1.
</event>
<event>
 8    1  0.2534787E-006  0.9118800E+02  0.7816164E-02  0.1184000E+00
        -11   -1    0    0    0    0  0.00000000000E+00  0.00000000000E+00  0.45593999997E+02  0.45594000000E+02  0.51100000000E-03 0. -1.
         11   -1    0    0    0    0 -0.00000000000E+00 -0.00000000000E+00 -0.45593999997E+02  0.45594000000E+02  0.51100000000E-03 0.  1.
         23    2    1    2    0    0 -0.88817841970E-15 -0.17763568394E-14  0.00000000000E+00  0.91188000000E+02  0.91188000000E+02 0.  0.
    9900012    2    3    3    0    0  0.42893590907E+01 -0.14260730283E+02  0.33675097633E+02  0.54367092485E+02  0.40000018938E+02 0.  0.
        -12    1    3    3    0    0 -0.42893590907E+01  0.14260730283E+02 -0.33675097633E+02  0.36820907515E+02  0.00000000000E+00 0.  1.
         11    1    4    4    0    0  0.88644000071E+01 -0.22195379563E+01  0.23165124091E+02  0.24902347492E+02  0.51100000000E-03 0. -1.
        -11    1    4    4    0    0 -0.87794973580E+01 -0.14519633928E+02  0.15137889868E+02  0.22738844588E+02  0.51100000000E-03 0.  1.
        -12    1    4    4    0    0  0.42044564417E+01  0.24784416016E+01 -0.46279163256E+01  0.67259004051E+01  0.00000000000E+00 0.  1.
</event>
<event>
 8    1  0.2534787E-006  0.9118800E+02  0.7816164E-02  0.1184000E+00
        -11   -1    0    0    0    0  0.00000000000E+00  0.00000000000E+00  0.45593999997E+02  0.45594000000E+02  0.51100000000E-03 0. -1.
         11   -1    0    0    0    0 -0.00000000000E+00 -0.00000000000E+00 -0.45593999997E+02  0.45594000000E+02  0.51100000000E-03 0.  1.
         23    2    1    2    0    0  0.00000000000E+00 -0.35527136788E-14  0.00000000000E+00  0.91188000000E+02  0.91188000000E+02 0.  0.
    9900012    2    3    3    0    0 -0.92043980016E+01 -0.20536708097E+02  0.29142819506E+02  0.54367065047E+02  0.39999956387E+02 0.  0.
        -12    1    3    3    0    0  0.92043980016E+01  0.20536708097E+02 -0.29142819506E+02  0.36820934953E+02  0.00000000000E+00 0.  1.
         11    1    4    4    0    0 -0.14758241318E+00 -0.15504277660E+02  0.73957223069E+01  0.17178507357E+02  0.51100000000E-03 0. -1.
        -11    1    4    4    0    0 -0.10031731190E+02 -0.96251471220E+01 -0.10224124154E+01  0.13940029240E+02  0.51100000000E-03 0.  1.
        -12    1    4    4    0    0  0.97491560199E+00  0.45927166849E+01  0.22769509615E+02  0.23248528450E+02  0.00000000000E+00 0.  1.
</event>
<event>
 8    1  0.2534787E-006  0.9118800E+02  0.7816164E-02  0.1184000E+00
        -11   -1    0    0    0    0  0.00000000000E+00  0.00000000000E+00  0.45593999997E+02  0.45594000000E+02  0.51100000000E-03 0.  1.
         11   -1    0    0    0    0 -0.00000000000E+00 -0.00000000000E+00 -0.45593999997E+02  0.45594000000E+02  0.51100000000E-03 0. -1.
         23    2    1    2    0    0 -0.17763568394E-14  0.00000000000E+00  0.00000000000E+00  0.91188000000E+02  0.91188000000E+02 0.  0.
    9900012    2    3    3    0    0 -0.93101857748E+01  0.17381525971E+01 -0.35582001620E+02  0.54367087832E+02  0.40000008330E+02 0.  0.
        -12    1    3    3    0    0  0.93101857748E+01 -0.17381525971E+01  0.35582001620E+02  0.36820912168E+02  0.00000000000E+00 0.  1.
         11    1    4    4    0    0  0.13497172251E+00 -0.20631982278E+01 -0.34023290344E+01  0.39813122726E+01  0.51100000000E-03 0. -1.
        -11    1    4    4    0    0 -0.23554551392E+02 -0.16440213187E+01 -0.20660531834E+02  0.31374787223E+02  0.51100000000E-03 0.  1.
        -12    1    4    4    0    0  0.14109393895E+02  0.54453721436E+01 -0.11519140752E+02  0.19010988336E+02  0.00000000000E+00 0.  1.
</event>
<event>
 8    1  0.2534787E-006  0.9118800E+02  0.7816164E-02  0.1184000E+00
        -11   -1    0    0    0    0  0.00000000000E+00  0.00000000000E+00  0.45593999997E+02  0.45594000000E+02  0.51100000000E-03 0. -1.
         11   -1    0    0    0    0 -0.00000000000E+00 -0.00000000000E+00 -0.45593999997E+02  0.45594000000E+02  0.51100000000E-03 0.  1.
         23    2    1    2    0    0  0.00000000000E+00  0.17763568394E-14  0.35527136788E-14  0.91188000000E+02  0.91188000000E+02 0.  0.
    9900012    2    3    3    0    0 -0.27167035116E+02  0.11116954820E+02  0.22229340771E+02  0.54367108205E+02  0.40000054775E+02 0.  0.
        -12    1    3    3    0    0  0.27167035116E+02 -0.11116954820E+02 -0.22229340771E+02  0.36820891795E+02  0.00000000000E+00 0.  1.
         11    1    4    4    0    0 -0.37867801782E+01 -0.79148211056E+01  0.89607010192E+01  0.12541062964E+02  0.51100000000E-03 0.  1.
        -11    1    4    4    0    0 -0.66898843567E+01  0.21206817430E+02  0.11106179391E+02  0.24856204037E+02  0.51100000000E-03 0. -1.
         12    1    4    4    0    0 -0.16690370581E+02 -0.21750415038E+01  0.21624603603E+01  0.16969841204E+02  0.00000000000E+00 0. -1.
</event>
<event>
 8    1  0.2534787E-006  0.9118800E+02  0.7816164E-02  0.1184000E+00
        -11   -1    0    0    0    0  0.00000000000E+00  0.00000000000E+00  0.45593999997E+02  0.45594000000E+02  0.51100000000E-03 0.  1.
         11   -1    0    0    0    0 -0.00000000000E+00 -0.00000000000E+00 -0.45593999997E+02  0.45594000000E+02  0.51100000000E-03 0. -1.
         23    2    1    2    0    0  0.00000000000E+00 -0.88817841970E-15  0.00000000000E+00  0.91188000000E+02  0.91188000000E+02 0.  0.
    9900012    2    3    3    0    0 -0.21901942435E+02 -0.45996876311E+01 -0.29239137919E+02  0.54367090248E+02  0.40000013839E+02 0.  0.
        -12    1    3    3    0    0  0.21901942435E+02  0.45996876311E+01  0.29239137919E+02  0.36820909752E+02  0.00000000000E+00 0.  1.
         11    1    4    4    0    0 -0.21698497676E+02  0.14648205385E+01 -0.46592770166E+01  0.22241388518E+02  0.51100000000E-03 0. -1.
        -11    1    4    4    0    0 -0.10431197944E+01 -0.34341143845E+01  0.28340534864E+01  0.45730842914E+01  0.51100000000E-03 0.  1.
        -12    1    4    4    0    0  0.83967503586E+00 -0.26303937851E+01 -0.27413914389E+02  0.27552617439E+02  0.00000000000E+00 0.  1.
</event>
<event>
 8    1  0.2534787E-006  0.9118800E+02  0.7816164E-02  0.1184000E+00
        -11   -1    0    0    0    0  0.00000000000E+00  0.00000000000E+00  0.45593999997E+02  0.45594000000E+02  0.51100000000E-03 0.  1.
         11   -1    0    0    0    0 -0.00000000000E+00 -0.00000000000E+00 -0.45593999997E+02  0.45594000000E+02  0.51100000000E-03 0. -1.
         23    2    1    2    0    0  0.17763568394E-14  0.00000000000E+00  0.00000000000E+00  0.91188000000E+02  0.91188000000E+02 0.  0.
    9900012    2    3    3    0    0  0.15680001660E+02  0.25255016237E+02 -0.21727855562E+02  0.54367109129E+02  0.40000056882E+02 0.  0.
        -12    1    3    3    0    0 -0.15680001660E+02 -0.25255016237E+02  0.21727855562E+02  0.36820890871E+02  0.00000000000E+00 0.  1.
         11    1    4    4    0    0 -0.17695459336E+01  0.67637744048E+00 -0.18772849042E+02  0.18868191240E+02  0.51100000000E-03 0. -1.
        -11    1    4    4    0    0  0.16788241770E+02  0.77928057502E+01 -0.44898052636E+00  0.18514169356E+02  0.51100000000E-03 0.  1.
        -12    1    4    4    0    0  0.66130582394E+00  0.16785833046E+02 -0.25060259939E+01  0.16984748533E+02  0.00000000000E+00 0.  1.
</event>
