<event>
 4    1  0.3876841E+000  0.1934615E+03  0.7546771E-02  0.1155376E+00
         21   -1    0    0  503  502  0.00000000000E+00  0.00000000000E+00  0.53457426082E+03  0.53457426082E+03  0.00000000000E+00 0.  1.
         21   -1    0    0  501  503 -0.00000000000E+00 -0.00000000000E+00 -0.14447645787E+03  0.14447645787E+03  0.00000000000E+00 0.  1.
          6    1    1    2  501    0 -0.12721196330E+02 -0.85653422703E+02 -0.48700881981E+02  0.19949715177E+03  0.17300000000E+03 0.  1.
         -6    1    1    2    0  502  0.12721196330E+02  0.85653422703E+02  0.43879868493E+03  0.47955356693E+03  0.17300000000E+03 0.  1.
<mgrwt>
<rscale>  2 0.19346146E+03</rscale>
<asrwt>0</asrwt>
<pdfrwt beam="1">  1       21 0.82242193E-01 0.19346146E+03</pdfrwt>
<pdfrwt beam="2">  1       21 0.22227148E-01 0.19346146E+03</pdfrwt>
<totfact> 0.24448211E+04</totfact>
</mgrwt>
</event>
<event>
 4    1  0.3876841E+000  0.2223034E+03  0.7546771E-02  0.1132177E+00
         21   -1    0    0  503  502  0.00000000000E+00  0.00000000000E+00  0.19716806609E+03  0.19716806609E+03  0.00000000000E+00 0. -1.
         21   -1    0    0  501  503 -0.00000000000E+00 -0.00000000000E+00 -0.44930919377E+03  0.44930919377E+03  0.00000000000E+00 0. -1.
          6    1    1    2  501    0  0.13837324884E+03 -0.18510210462E+02 -0.34100829251E+03  0.40706933002E+03  0.17300000000E+03 0. -1.
         -6    1    1    2    0  502 -0.13837324884E+03  0.18510210462E+02  0.88867164827E+02  0.23940792984E+03  0.17300000000E+03 0. -1.
<mgrwt>
<rscale>  2 0.22230336E+03</rscale>
<asrwt>0</asrwt>
<pdfrwt beam="1">  1       21 0.30333549E-01 0.22230336E+03</pdfrwt>
<pdfrwt beam="2">  1       21 0.69124491E-01 0.22230336E+03</pdfrwt>
<totfact> 0.19524561E+04</totfact>
</mgrwt>
</event>
<event>
 4    1  0.3876841E+000  0.1871053E+03  0.7546771E-02  0.1161098E+00
         21   -1    0    0  501  502  0.00000000000E+00  0.00000000000E+00  0.25940069816E+03  0.25940069816E+03  0.00000000000E+00 0.  1.
         21   -1    0    0  502  503 -0.00000000000E+00 -0.00000000000E+00 -0.37773962667E+03  0.37773962667E+03  0.00000000000E+00 0.  1.
          6    1    1    2  501    0 -0.37280922899E+01  0.71172326413E+02  0.19622768470E+03  0.27113410512E+03  0.17300000000E+03 0.  1.
         -6    1    1    2    0  503  0.37280922899E+01 -0.71172326413E+02 -0.31456661321E+03  0.36600621970E+03  0.17300000000E+03 0.  1.
<mgrwt>
<rscale>  2 0.18710531E+03</rscale>
<asrwt>0</asrwt>
<pdfrwt beam="1">  1       21 0.39907800E-01 0.18710531E+03</pdfrwt>
<pdfrwt beam="2">  1       21 0.58113788E-01 0.18710531E+03</pdfrwt>
<totfact> 0.16848788E+04</totfact>
</mgrwt>
</event>
<event>
 4    1  0.3876841E+000  0.2394936E+03  0.7546771E-02  0.1120131E+00
         21   -1    0    0  501  502  0.00000000000E+00  0.00000000000E+00  0.34099520968E+03  0.34099520968E+03  0.00000000000E+00 0. -1.
         21   -1    0    0  502  503 -0.00000000000E+00 -0.00000000000E+00 -0.54247715134E+03  0.54247715134E+03  0.00000000000E+00 0.  1.
          6    1    1    2  501    0 -0.16070716118E+03  0.40017139737E+02  0.26617439051E+03  0.35805861153E+03  0.17300000000E+03 0. -1.
         -6    1    1    2    0  503  0.16070716118E+03 -0.40017139737E+02 -0.46765633217E+03  0.52541374948E+03  0.17300000000E+03 0.  1.
<mgrwt>
<rscale>  2 0.23949356E+03</rscale>
<asrwt>0</asrwt>
<pdfrwt beam="1">  1       21 0.52460802E-01 0.23949356E+03</pdfrwt>
<pdfrwt beam="2">  1       21 0.83458022E-01 0.23949356E+03</pdfrwt>
<totfact> 0.41578720E+03</totfact>
</mgrwt>
</event>
<event>
 4    1  0.3876841E+000  0.2391015E+03  0.7546771E-02  0.1120393E+00
         21   -1    0    0  503  502  0.00000000000E+00  0.00000000000E+00  0.19055240945E+04  0.19055240945E+04  0.00000000000E+00 0. -1.
         21   -1    0    0  501  503 -0.00000000000E+00 -0.00000000000E+00 -0.98734531603E+02  0.98734531603E+02  0.00000000000E+00 0. -1.
          6    1    1    2  501    0  0.14459897548E+03 -0.79571665058E+02  0.67271272446E+02  0.24838465671E+03  0.17300000000E+03 0. -1.
         -6    1    1    2    0  502 -0.14459897548E+03  0.79571665058E+02  0.17395182905E+04  0.17558739694E+04  0.17300000000E+03 0. -1.
<mgrwt>
<rscale>  2 0.23910147E+03</rscale>
<asrwt>0</asrwt>
<pdfrwt beam="1">  1       21 0.29315753E+00 0.23910147E+03</pdfrwt>
<pdfrwt beam="2">  1       21 0.15189929E-01 0.23910147E+03</pdfrwt>
<totfact> 0.13568094E+03</totfact>
</mgrwt>
</event>
<event>
 4    1  0.3876841E+000  0.1875063E+03  0.7546771E-02  0.1160730E+00
         21   -1    0    0  501  502  0.00000000000E+00  0.00000000000E+00  0.31763566208E+03  0.31763566208E+03  0.00000000000E+00 0.  1.
         21   -1    0    0  502  503 -0.00000000000E+00 -0.00000000000E+00 -0.13226767556E+03  0.13226767556E+03  0.00000000000E+00 0.  1.
          6    1    1    2  501    0 -0.44463770552E+00 -0.72314672695E+02  0.18354550403E+03  0.26238818883E+03  0.17300000000E+03 0.  1.
         -6    1    1    2    0  503  0.44463770552E+00  0.72314672695E+02  0.18224824884E+01  0.18751514881E+03  0.17300000000E+03 0.  1.
<mgrwt>
<rscale>  2 0.18750629E+03</rscale>
<asrwt>0</asrwt>
<pdfrwt beam="1">  1       21 0.48867025E-01 0.18750629E+03</pdfrwt>
<pdfrwt beam="2">  1       21 0.20348873E-01 0.18750629E+03</pdfrwt>
<totfact> 0.89500490E+04</totfact>
</mgrwt>
</event>
<event>
 4    1  0.3876841E+000  0.1746414E+03  0.7546771E-02  0.1173092E+00
         21   -1    0    0  503  502  0.00000000000E+00  0.00000000000E+00  0.17559083468E+03  0.17559083468E+03  0.00000000000E+00 0.  1.
         21   -1    0    0  501  503 -0.00000000000E+00 -0.00000000000E+00 -0.18723936584E+03  0.18723936584E+03  0.00000000000E+00 0.  1.
          6    1    1    2  501    0 -0.16239513489E+01 -0.23832002227E+02  0.42964754172E+02  0.17984874659E+03  0.17300000000E+03 0.  1.
         -6    1    1    2    0  502  0.16239513489E+01  0.23832002227E+02 -0.54613285335E+02  0.18298145393E+03  0.17300000000E+03 0.  1.
<mgrwt>
<rscale>  2 0.17464135E+03</rscale>
<asrwt>0</asrwt>
<pdfrwt beam="1">  1       21 0.27013975E-01 0.17464135E+03</pdfrwt>
<pdfrwt beam="2">  1       21 0.28806056E-01 0.17464135E+03</pdfrwt>
<totfact> 0.15143942E+05</totfact>
</mgrwt>
</event>
<event>
 4    1  0.3876841E+000  0.2094814E+03  0.7546771E-02  0.1141977E+00
         21   -1    0    0  503  502  0.00000000000E+00  0.00000000000E+00  0.52054975084E+03  0.52054975084E+03  0.00000000000E+00 0.  1.
         21   -1    0    0  501  503 -0.00000000000E+00 -0.00000000000E+00 -0.84408538204E+02  0.84408538204E+02  0.00000000000E+00 0.  1.
          6    1    1    2  501    0  0.11578949150E+03  0.23371936113E+02  0.20723454700E+03  0.29466694964E+03  0.17300000000E+03 0.  1.
         -6    1    1    2    0  502 -0.11578949150E+03 -0.23371936113E+02  0.22890666564E+03  0.31029133941E+03  0.17300000000E+03 0.  1.
<mgrwt>
<rscale>  2 0.20948139E+03</rscale>
<asrwt>0</asrwt>
<pdfrwt beam="1">  1       21 0.80084575E-01 0.20948139E+03</pdfrwt>
<pdfrwt beam="2">  1       21 0.12985929E-01 0.20948139E+03</pdfrwt>
<totfact> 0.69344176E+04</totfact>
</mgrwt>
</event>
<event>
 4    1  0.3876841E+000  0.1742547E+03  0.7546771E-02  0.1173482E+00
         21   -1    0    0  501  502  0.00000000000E+00  0.00000000000E+00  0.11805963690E+03  0.11805963690E+03  0.00000000000E+00 0.  1.
         21   -1    0    0  502  503 -0.00000000000E+00 -0.00000000000E+00 -0.29403268346E+03  0.29403268346E+03  0.00000000000E+00 0.  1.
          6    1    1    2  501    0 -0.11997893094E+02 -0.17080992235E+02 -0.15058434675E+02  0.17490416287E+03  0.17300000000E+03 0.  1.
         -6    1    1    2    0  503  0.11997893094E+02  0.17080992235E+02 -0.16091461189E+03  0.23718815749E+03  0.17300000000E+03 0.  1.
<mgrwt>
<rscale>  2 0.17425473E+03</rscale>
<asrwt>0</asrwt>
<pdfrwt beam="1">  1       21 0.18163021E-01 0.17425473E+03</pdfrwt>
<pdfrwt beam="2">  1       21 0.45235797E-01 0.17425473E+03</pdfrwt>
<totfact> 0.13027075E+05</totfact>
</mgrwt>
</event>
<event>
 4    1  0.3876841E+000  0.1880242E+03  0.7546771E-02  0.1160256E+00
         21   -1    0    0  501  502  0.00000000000E+00  0.00000000000E+00  0.66176000552E+02  0.66176000552E+02  0.00000000000E+00 0.  1.
         21   -1    0    0  502  503 -0.00000000000E+00 -0.00000000000E+00 -0.72510592475E+03  0.72510592475E+03  0.00000000000E+00 0.  1.
          6    1    1    2  501    0 -0.73623716850E+02  0.19086088649E+01 -0.12647339500E+03  0.22660232592E+03  0.17300000000E+03 0.  1.
         -6    1    1    2    0  503  0.73623716850E+02 -0.19086088649E+01 -0.53245652919E+03  0.56467959938E+03  0.17300000000E+03 0.  1.
<mgrwt>
<rscale>  2 0.18802419E+03</rscale>
<asrwt>0</asrwt>
<pdfrwt beam="1">  1       21 0.10180924E-01 0.18802419E+03</pdfrwt>
<pdfrwt beam="2">  1       21 0.11155475E+00 0.18802419E+03</pdfrwt>
<totfact> 0.49743254E+04</totfact>
</mgrwt>
</event>
<event>
 4    1  0.3876841E+000  0.2164115E+03  0.7546771E-02  0.1136587E+00
         21   -1    0    0  501  502  0.00000000000E+00  0.00000000000E+00  0.21881607267E+03  0.21881607267E+03  0.00000000000E+00 0. -1.
         21   -1    0    0  502  503 -0.00000000000E+00 -0.00000000000E+00 -0.25731508133E+03  0.25731508133E+03  0.00000000000E+00 0.  1.
          6    1    1    2  501    0  0.98007077285E+02 -0.85437427708E+02  0.78387894151E+02  0.23017081309E+03  0.17300000000E+03 0. -1.
         -6    1    1    2    0  503 -0.98007077285E+02  0.85437427708E+02 -0.11688690281E+03  0.24596034091E+03  0.17300000000E+03 0.  1.
<mgrwt>
<rscale>  2 0.21641151E+03</rscale>
<asrwt>0</asrwt>
<pdfrwt beam="1">  1       21 0.33664011E-01 0.21641151E+03</pdfrwt>
<pdfrwt beam="2">  1       21 0.39586935E-01 0.21641151E+03</pdfrwt>
<totfact> 0.51699686E+04</totfact>
</mgrwt>
</event>
<event>
 4    1  0.3876841E+000  0.2007454E+03  0.7546771E-02  0.1149112E+00
         21   -1    0    0  501  502  0.00000000000E+00  0.00000000000E+00  0.10787937617E+04  0.10787937617E+04  0.00000000000E+00 0.  1.
         21   -1    0    0  502  503 -0.00000000000E+00 -0.00000000000E+00 -0.97593734550E+02  0.97593734550E+02  0.00000000000E+00 0.  1.
          6    1    1    2  501    0 -0.94251639206E+02  0.38553246762E+02  0.95271076672E+03  0.97363059183E+03  0.17300000000E+03 0.  1.
         -6    1    1    2    0  503  0.94251639206E+02 -0.38553246762E+02  0.28489260430E+02  0.20275690442E+03  0.17300000000E+03 0.  1.
<mgrwt>
<rscale>  2 0.20074542E+03</rscale>
<asrwt>0</asrwt>
<pdfrwt beam="1">  1       21 0.16596826E+00 0.20074542E+03</pdfrwt>
<pdfrwt beam="2">  1       21 0.15014421E-01 0.20074542E+03</pdfrwt>
<totfact> 0.88667764E+03</totfact>
</mgrwt>
</event>
<event>
 4    1  0.3876841E+000  0.1818570E+03  0.7546771E-02  0.1166018E+00
         21   -1    0    0  501  502  0.00000000000E+00  0.00000000000E+00  0.55833016378E+03  0.55833016378E+03  0.00000000000E+00 0. -1.
         21   -1    0    0  502  503 -0.00000000000E+00 -0.00000000000E+00 -0.59789289490E+02  0.59789289490E+02  0.00000000000E+00 0. -1.
          6    1    1    2  501    0 -0.36064768677E+02 -0.42921832418E+02  0.27906347992E+03  0.33308914282E+03  0.17300000000E+03 0. -1.
         -6    1    1    2    0  503  0.36064768677E+02  0.42921832418E+02  0.21947739437E+03  0.28503031046E+03  0.17300000000E+03 0. -1.
<mgrwt>
<rscale>  2 0.18185695E+03</rscale>
<asrwt>0</asrwt>
<pdfrwt beam="1">  1       21 0.85896945E-01 0.18185695E+03</pdfrwt>
<pdfrwt beam="2">  1       21 0.91983526E-02 0.18185695E+03</pdfrwt>
<totfact> 0.11043562E+05</totfact>
</mgrwt>
</event>
<event>
 4    1  0.3876841E+000  0.2245101E+03  0.7546771E-02  0.1130565E+00
         21   -1    0    0  501  502  0.00000000000E+00  0.00000000000E+00  0.22548727995E+03  0.22548727995E+03  0.00000000000E+00 0.  1.
         21   -1    0    0  502  503 -0.00000000000E+00 -0.00000000000E+00 -0.33750064860E+03  0.33750064860E+03  0.00000000000E+00 0.  1.
          6    1    1    2  501    0 -0.12133301928E+03 -0.75855540670E+02  0.10756752553E+03  0.24894886456E+03  0.17300000000E+03 0.  1.
         -6    1    1    2    0  503  0.12133301928E+03  0.75855540670E+02 -0.21958089419E+03  0.31403906399E+03  0.17300000000E+03 0.  1.
<mgrwt>
<rscale>  2 0.22451005E+03</rscale>
<asrwt>0</asrwt>
<pdfrwt beam="1">  1       21 0.34690351E-01 0.22451005E+03</pdfrwt>
<pdfrwt beam="2">  1       21 0.51923177E-01 0.22451005E+03</pdfrwt>
<totfact> 0.27723157E+04</totfact>
</mgrwt>
</event>
<event>
 4    1  0.3876841E+000  0.2361290E+03  0.7546771E-02  0.1122399E+00
         21   -1    0    0  503  502  0.00000000000E+00  0.00000000000E+00  0.14419290837E+03  0.14419290837E+03  0.00000000000E+00 0. -1.
         21   -1    0    0  501  503 -0.00000000000E+00 -0.00000000000E+00 -0.46705829882E+03  0.46705829882E+03  0.00000000000E+00 0.  1.
          6    1    1    2  501    0  0.14824468540E+02  0.16002541963E+03 -0.28821725320E+03  0.37259372625E+03  0.17300000000E+03 0.  1.
         -6    1    1    2    0  502 -0.14824468540E+02 -0.16002541963E+03 -0.34648137241E+02  0.23865748094E+03  0.17300000000E+03 0. -1.
<mgrwt>
<rscale>  2 0.23612899E+03</rscale>
<asrwt>0</asrwt>
<pdfrwt beam="1">  1       21 0.22183524E-01 0.23612899E+03</pdfrwt>
<pdfrwt beam="2">  1       21 0.71855123E-01 0.23612899E+03</pdfrwt>
<totfact> 0.32500366E+04</totfact>
</mgrwt>
</event>
<event>
 4    1  0.3876841E+000  0.2580251E+03  0.7546771E-02  0.1108336E+00
         21   -1    0    0  501  502  0.00000000000E+00  0.00000000000E+00  0.26879097593E+03  0.26879097593E+03  0.00000000000E+00 0. -1.
         21   -1    0    0  502  503 -0.00000000000E+00 -0.00000000000E+00 -0.35248036888E+03  0.35248036888E+03  0.00000000000E+00 0. -1.
          6    1    1    2  501    0  0.82063891631E+02 -0.17295508291E+03  0.12752812649E+03  0.28782002373E+03  0.17300000000E+03 0. -1.
         -6    1    1    2    0  503 -0.82063891631E+02  0.17295508291E+03 -0.21121751944E+03  0.33345132108E+03  0.17300000000E+03 0. -1.
<mgrwt>
<rscale>  2 0.25802508E+03</rscale>
<asrwt>0</asrwt>
<pdfrwt beam="1">  1       21 0.41352458E-01 0.25802508E+03</pdfrwt>
<pdfrwt beam="2">  1       21 0.54227749E-01 0.25802508E+03</pdfrwt>
<totfact> 0.17457815E+04</totfact>
</mgrwt>
</event>
<event>
 4    1  0.3876841E+000  0.1814893E+03  0.7546771E-02  0.1166369E+00
         21   -1    0    0  503  502  0.00000000000E+00  0.00000000000E+00  0.40840399972E+03  0.40840399972E+03  0.00000000000E+00 0.  1.
         21   -1    0    0  501  503 -0.00000000000E+00 -0.00000000000E+00 -0.83203981313E+02  0.83203981313E+02  0.00000000000E+00 0.  1.
          6    1    1    2  501    0  0.24217764595E+02 -0.49222615562E+02  0.11954692794E+03  0.21732426000E+03  0.17300000000E+03 0. -1.
         -6    1    1    2    0  502 -0.24217764595E+02  0.49222615562E+02  0.20565309047E+03  0.27428372103E+03  0.17300000000E+03 0. -1.
<mgrwt>
<rscale>  2 0.18148930E+03</rscale>
<asrwt>0</asrwt>
<pdfrwt beam="1">  1       21 0.62831383E-01 0.18148930E+03</pdfrwt>
<pdfrwt beam="2">  1       21 0.12800613E-01 0.18148930E+03</pdfrwt>
<totfact> 0.12310286E+05</totfact>
</mgrwt>
</event>
<event>
 4    1  0.3876841E+000  0.1788470E+03  0.7546771E-02  0.1168924E+00
         21   -1    0    0  503  502  0.00000000000E+00  0.00000000000E+00  0.49498384331E+02  0.49498384331E+02  0.00000000000E+00 0.  1.
         21   -1    0    0  501  503 -0.00000000000E+00 -0.00000000000E+00 -0.15019154779E+04  0.15019154779E+04  0.00000000000E+00 0.  1.
          6    1    1    2  501    0 -0.23154541453E+02  0.39001717695E+02 -0.13117228560E+04  0.13238591759E+04  0.17300000000E+03 0.  1.
         -6    1    1    2    0  502  0.23154541453E+02 -0.39001717695E+02 -0.14069423760E+03  0.22755468632E+03  0.17300000000E+03 0.  1.
<mgrwt>
<rscale>  2 0.17884705E+03</rscale>
<asrwt>0</asrwt>
<pdfrwt beam="1">  1       21 0.76151362E-02 0.17884705E+03</pdfrwt>
<pdfrwt beam="2">  1       21 0.23106391E+00 0.17884705E+03</pdfrwt>
<totfact> 0.11409791E+04</totfact>
</mgrwt>
</event>
<event>
 4    1  0.3876841E+000  0.2189429E+03  0.7546771E-02  0.1134674E+00
         21   -1    0    0  501  502  0.00000000000E+00  0.00000000000E+00  0.28932923165E+03  0.28932923165E+03  0.00000000000E+00 0.  1.
         21   -1    0    0  502  503 -0.00000000000E+00 -0.00000000000E+00 -0.68898239773E+03  0.68898239773E+03  0.00000000000E+00 0. -1.
          6    1    1    2  501    0 -0.11060830570E+02 -0.13373352487E+03  0.22647762449E+03  0.31500493971E+03  0.17300000000E+03 0.  1.
         -6    1    1    2    0  503  0.11060830570E+02  0.13373352487E+03 -0.62613079058E+03  0.66330668967E+03  0.17300000000E+03 0. -1.
<mgrwt>
<rscale>  2 0.21894291E+03</rscale>
<asrwt>0</asrwt>
<pdfrwt beam="1">  1       21 0.44512190E-01 0.21894291E+03</pdfrwt>
<pdfrwt beam="2">  1       21 0.10599729E+00 0.21894291E+03</pdfrwt>
<totfact> 0.33874397E+03</totfact>
</mgrwt>
</event>
<event>
 4    1  0.3876841E+000  0.1797563E+03  0.7546771E-02  0.1168039E+00
         21   -1    0    0  501  502  0.00000000000E+00  0.00000000000E+00  0.27780236112E+03  0.27780236112E+03  0.00000000000E+00 0.  1.
         21   -1    0    0  502  503 -0.00000000000E+00 -0.00000000000E+00 -0.11813851185E+03  0.11813851185E+03  0.00000000000E+00 0.  1.
          6    1    1    2  501    0  0.41949347071E+02  0.24971733417E+02  0.55230259573E+02  0.18804977203E+03  0.17300000000E+03 0.  1.
         -6    1    1    2    0  503 -0.41949347071E+02 -0.24971733417E+02  0.10443358970E+03  0.20789110093E+03  0.17300000000E+03 0.  1.
<mgrwt>
<rscale>  2 0.17975632E+03</rscale>
<asrwt>0</asrwt>
<pdfrwt beam="1">  1       21 0.42738825E-01 0.17975632E+03</pdfrwt>
<pdfrwt beam="2">  1       21 0.18175156E-01 0.17975632E+03</pdfrwt>
<totfact> 0.14583171E+05</totfact>
</mgrwt>
</event>
<event>
 4    1  0.3876841E+000  0.1912422E+03  0.7546771E-02  0.1157346E+00
         21   -1    0    0  503  502  0.00000000000E+00  0.00000000000E+00  0.12519167267E+04  0.12519167267E+04  0.00000000000E+00 0.  1.
         21   -1    0    0  501  503 -0.00000000000E+00 -0.00000000000E+00 -0.39195074021E+02  0.39195074021E+02  0.00000000000E+00 0. -1.
          6    1    1    2  501    0 -0.59204327954E+02  0.56030583710E+02  0.28059516977E+03  0.33956918007E+03  0.17300000000E+03 0. -1.
         -6    1    1    2    0  502  0.59204327954E+02 -0.56030583710E+02  0.93212648287E+03  0.95154262060E+03  0.17300000000E+03 0.  1.
<mgrwt>
<rscale>  2 0.19124220E+03</rscale>
<asrwt>0</asrwt>
<pdfrwt beam="1">  1       21 0.19260254E+00 0.19124220E+03</pdfrwt>
<pdfrwt beam="2">  1       21 0.60300123E-02 0.19124220E+03</pdfrwt>
<totfact> 0.29345163E+04</totfact>
</mgrwt>
</event>
<event>
 4    1  0.3876841E+000  0.1825816E+03  0.7546771E-02  0.1165328E+00
         21   -1    0    0  503  502  0.00000000000E+00  0.00000000000E+00  0.59798263718E+03  0.59798263718E+03  0.00000000000E+00 0.  1.
         21   -1    0    0  501  503 -0.00000000000E+00 -0.00000000000E+00 -0.26644186042E+03  0.26644186042E+03  0.00000000000E+00 0.  1.
          6    1    1    2  501    0  0.37316045255E+01  0.58250542194E+02 -0.21857553071E+03  0.28480047957E+03  0.17300000000E+03 0.  1.
         -6    1    1    2    0  502 -0.37316045255E+01 -0.58250542194E+02  0.55011630747E+03  0.57962401803E+03  0.17300000000E+03 0.  1.
<mgrwt>
<rscale>  2 0.18258163E+03</rscale>
<asrwt>0</asrwt>
<pdfrwt beam="1">  1       21 0.91997329E-01 0.18258163E+03</pdfrwt>
<pdfrwt beam="2">  1       21 0.40991056E-01 0.18258163E+03</pdfrwt>
<totfact> 0.57683812E+03</totfact>
</mgrwt>
</event>
<event>
 4    1  0.3876841E+000  0.4389728E+03  0.7546771E-02  0.1031062E+00
         21   -1    0    0  503  502  0.00000000000E+00  0.00000000000E+00  0.16403295113E+03  0.16403295113E+03  0.00000000000E+00 0. -1.
         21   -1    0    0  501  503 -0.00000000000E+00 -0.00000000000E+00 -0.11925531739E+04  0.11925531739E+04  0.00000000000E+00 0. -1.
          6    1    1    2  501    0 -0.40216664346E+03  0.32095941458E+02 -0.59714362740E+03  0.74113269413E+03  0.17300000000E+03 0. -1.
         -6    1    1    2    0  502  0.40216664346E+03 -0.32095941458E+02 -0.43137659536E+03  0.61545343089E+03  0.17300000000E+03 0. -1.
<mgrwt>
<rscale>  2 0.43897284E+03</rscale>
<asrwt>0</asrwt>
<pdfrwt beam="1">  1       21 0.25235839E-01 0.43897284E+03</pdfrwt>
<pdfrwt beam="2">  1       21 0.18346971E+00 0.43897284E+03</pdfrwt>
<totfact> 0.21921627E+03</totfact>
</mgrwt>
</event>
<event>
 4    1  0.3876841E+000  0.2470310E+03  0.7546771E-02  0.1115196E+00
         21   -1    0    0  503  502  0.00000000000E+00  0.00000000000E+00  0.38810161933E+03  0.38810161933E+03  0.00000000000E+00 0. -1.
         21   -1    0    0  501  503 -0.00000000000E+00 -0.00000000000E+00 -0.19756568497E+03  0.19756568497E+03  0.00000000000E+00 0. -1.
          6    1    1    2  501    0  0.17298073046E+03  0.34249072304E+02 -0.37034133143E+02  0.24979163133E+03  0.17300000000E+03 0. -1.
         -6    1    1    2    0  502 -0.17298073046E+03 -0.34249072304E+02  0.22757006751E+03  0.33587567297E+03  0.17300000000E+03 0. -1.
<mgrwt>
<rscale>  2 0.24703103E+03</rscale>
<asrwt>0</asrwt>
<pdfrwt beam="1">  1       21 0.59707941E-01 0.24703103E+03</pdfrwt>
<pdfrwt beam="2">  1       21 0.30394721E-01 0.24703103E+03</pdfrwt>
<totfact> 0.26443548E+04</totfact>
</mgrwt>
</event>
<event>
 4    1  0.3876841E+000  0.2327594E+03  0.7546771E-02  0.1124712E+00
         21   -1    0    0  503  502  0.00000000000E+00  0.00000000000E+00  0.26261672502E+03  0.26261672502E+03  0.00000000000E+00 0. -1.
         21   -1    0    0  501  503 -0.00000000000E+00 -0.00000000000E+00 -0.22331778395E+03  0.22331778395E+03  0.00000000000E+00 0. -1.
          6    1    1    2  501    0 -0.15072951131E+03 -0.39096951377E+02 -0.47428515762E+02  0.23754246208E+03  0.17300000000E+03 0. -1.
         -6    1    1    2    0  502  0.15072951131E+03  0.39096951377E+02  0.86727456833E+02  0.24839204688E+03  0.17300000000E+03 0. -1.
<mgrwt>
<rscale>  2 0.23275944E+03</rscale>
<asrwt>0</asrwt>
<pdfrwt beam="1">  1       21 0.40402573E-01 0.23275944E+03</pdfrwt>
<pdfrwt beam="2">  1       21 0.34356582E-01 0.23275944E+03</pdfrwt>
<totfact> 0.47297838E+04</totfact>
</mgrwt>
</event>
<event>
 4    1  0.3876841E+000  0.2183090E+03  0.7546771E-02  0.1135150E+00
         21   -1    0    0  501  502  0.00000000000E+00  0.00000000000E+00  0.69063398034E+03  0.69063398034E+03  0.00000000000E+00 0. -1.
         21   -1    0    0  502  503 -0.00000000000E+00 -0.00000000000E+00 -0.93374700304E+02  0.93374700304E+02  0.00000000000E+00 0. -1.
          6    1    1    2  501    0  0.18668414631E+02 -0.13183824282E+03  0.49888321335E+03  0.54455788722E+03  0.17300000000E+03 0. -1.
         -6    1    1    2    0  503 -0.18668414631E+02  0.13183824282E+03  0.98376066689E+02  0.23945079342E+03  0.17300000000E+03 0. -1.
<mgrwt>
<rscale>  2 0.21830903E+03</rscale>
<asrwt>0</asrwt>
<pdfrwt beam="1">  1       21 0.10625138E+00 0.21830903E+03</pdfrwt>
<pdfrwt beam="2">  1       21 0.14365339E-01 0.21830903E+03</pdfrwt>
<totfact> 0.29700421E+04</totfact>
</mgrwt>
</event>
<event>
 4    1  0.3876841E+000  0.1978828E+03  0.7546771E-02  0.1151538E+00
         21   -1    0    0  501  502  0.00000000000E+00  0.00000000000E+00  0.48424581702E+03  0.48424581702E+03  0.00000000000E+00 0. -1.
         21   -1    0    0  502  503 -0.00000000000E+00 -0.00000000000E+00 -0.94670496106E+02  0.94670496106E+02  0.00000000000E+00 0. -1.
          6    1    1    2  501    0 -0.47739472677E+02 -0.83364039926E+02  0.30533143180E+03  0.36384736312E+03  0.17300000000E+03 0. -1.
         -6    1    1    2    0  503  0.47739472677E+02  0.83364039926E+02  0.84243889116E+02  0.21506895001E+03  0.17300000000E+03 0. -1.
<mgrwt>
<rscale>  2 0.19788285E+03</rscale>
<asrwt>0</asrwt>
<pdfrwt beam="1">  1       21 0.74499355E-01 0.19788285E+03</pdfrwt>
<pdfrwt beam="2">  1       21 0.14564692E-01 0.19788285E+03</pdfrwt>
<totfact> 0.66631647E+04</totfact>
</mgrwt>
</event>
<event>
 4    1  0.3876841E+000  0.1815476E+03  0.7546771E-02  0.1166314E+00
         21   -1    0    0  503  502  0.00000000000E+00  0.00000000000E+00  0.30063863046E+03  0.30063863046E+03  0.00000000000E+00 0. -1.
         21   -1    0    0  501  503 -0.00000000000E+00 -0.00000000000E+00 -0.58505663170E+03  0.58505663170E+03  0.00000000000E+00 0. -1.
          6    1    1    2  501    0  0.34488991458E+01  0.54942072438E+02 -0.54141434411E+03  0.57104204594E+03  0.17300000000E+03 0. -1.
         -6    1    1    2    0  502 -0.34488991458E+01 -0.54942072438E+02  0.25699634286E+03  0.31465321621E+03  0.17300000000E+03 0. -1.
<mgrwt>
<rscale>  2 0.18154759E+03</rscale>
<asrwt>0</asrwt>
<pdfrwt beam="1">  1       21 0.46252097E-01 0.18154759E+03</pdfrwt>
<pdfrwt beam="2">  1       21 0.90008713E-01 0.18154759E+03</pdfrwt>
<totfact> 0.47461840E+03</totfact>
</mgrwt>
</event>
<event>
 4    1  0.3876841E+000  0.1784359E+03  0.7546771E-02  0.1169325E+00
         21   -1    0    0  503  502  0.00000000000E+00  0.00000000000E+00  0.53676489037E+03  0.53676489037E+03  0.00000000000E+00 0. -1.
         21   -1    0    0  501  503 -0.00000000000E+00 -0.00000000000E+00 -0.14480986955E+03  0.14480986955E+03  0.00000000000E+00 0. -1.
          6    1    1    2  501    0 -0.41530119397E+02  0.13623789245E+02 -0.65870339748E+02  0.19020583616E+03  0.17300000000E+03 0. -1.
         -6    1    1    2    0  502  0.41530119397E+02 -0.13623789245E+02  0.45782536057E+03  0.49136892375E+03  0.17300000000E+03 0. -1.
<mgrwt>
<rscale>  2 0.17843587E+03</rscale>
<asrwt>0</asrwt>
<pdfrwt beam="1">  1       21 0.82579213E-01 0.17843587E+03</pdfrwt>
<pdfrwt beam="2">  1       21 0.22278442E-01 0.17843587E+03</pdfrwt>
<totfact> 0.24327371E+04</totfact>
</mgrwt>
</event>
<event>
 4    1  0.3876841E+000  0.1889756E+03  0.7546771E-02  0.1159389E+00
         21   -1    0    0  503  502  0.00000000000E+00  0.00000000000E+00  0.46640108879E+03  0.46640108879E+03  0.00000000000E+00 0.  1.
         21   -1    0    0  501  503 -0.00000000000E+00 -0.00000000000E+00 -0.12118643221E+03  0.12118643221E+03  0.00000000000E+00 0. -1.
          6    1    1    2  501    0  0.54844841093E+01  0.75846497638E+02 -0.56588021208E+01  0.18906028883E+03  0.17300000000E+03 0. -1.
         -6    1    1    2    0  502 -0.54844841093E+01 -0.75846497638E+02  0.35087345870E+03  0.39852723218E+03  0.17300000000E+03 0.  1.
<mgrwt>
<rscale>  2 0.18897558E+03</rscale>
<asrwt>0</asrwt>
<pdfrwt beam="1">  1       21 0.71754012E-01 0.18897558E+03</pdfrwt>
<pdfrwt beam="2">  1       21 0.18644067E-01 0.18897558E+03</pdfrwt>
<totfact> 0.46232192E+04</totfact>
</mgrwt>
</event>
<event>
 4    1  0.3876841E+000  0.2315923E+03  0.7546771E-02  0.1125524E+00
         21   -1    0    0  503  502  0.00000000000E+00  0.00000000000E+00  0.20749434538E+03  0.20749434538E+03  0.00000000000E+00 0. -1.
         21   -1    0    0  501  503 -0.00000000000E+00 -0.00000000000E+00 -0.32990260972E+03  0.32990260972E+03  0.00000000000E+00 0.  1.
          6    1    1    2  501    0  0.35705197363E+02 -0.14977029156E+03  0.63811087650E+02  0.24022251406E+03  0.17300000000E+03 0. -1.
         -6    1    1    2    0  502 -0.35705197363E+02  0.14977029156E+03 -0.18621935199E+03  0.29717444104E+03  0.17300000000E+03 0.  1.
<mgrwt>
<rscale>  2 0.23159232E+03</rscale>
<asrwt>0</asrwt>
<pdfrwt beam="1">  1       21 0.31922207E-01 0.23159232E+03</pdfrwt>
<pdfrwt beam="2">  1       21 0.50754247E-01 0.23159232E+03</pdfrwt>
<totfact> 0.34172693E+04</totfact>
</mgrwt>
</event>
<event>
 4    1  0.3876841E+000  0.1778909E+03  0.7546771E-02  0.1169860E+00
         21   -1    0    0  501  502  0.00000000000E+00  0.00000000000E+00  0.74196037010E+03  0.74196037010E+03  0.00000000000E+00 0.  1.
         21   -1    0    0  502  503 -0.00000000000E+00 -0.00000000000E+00 -0.69367869155E+02  0.69367869155E+02  0.00000000000E+00 0. -1.
          6    1    1    2  501    0 -0.40648626462E+02  0.79904616233E+01  0.58805369431E+03  0.61437147208E+03  0.17300000000E+03 0.  1.
         -6    1    1    2    0  503  0.40648626462E+02 -0.79904616233E+01  0.84538806638E+02  0.19695676718E+03  0.17300000000E+03 0. -1.
<mgrwt>
<rscale>  2 0.17789086E+03</rscale>
<asrwt>0</asrwt>
<pdfrwt beam="1">  1       21 0.11414774E+00 0.17789086E+03</pdfrwt>
<pdfrwt beam="2">  1       21 0.10671980E-01 0.17789086E+03</pdfrwt>
<totfact> 0.43514820E+04</totfact>
</mgrwt>
</event>
<event>
 4    1  0.3876841E+000  0.1849489E+03  0.7546771E-02  0.1163098E+00
         21   -1    0    0  503  502  0.00000000000E+00  0.00000000000E+00  0.17152421968E+03  0.17152421968E+03  0.00000000000E+00 0. -1.
         21   -1    0    0  501  503 -0.00000000000E+00 -0.00000000000E+00 -0.31193289587E+03  0.31193289587E+03  0.00000000000E+00 0. -1.
          6    1    1    2  501    0  0.43945869390E+02 -0.48433951161E+02 -0.21537883896E+03  0.28389105539E+03  0.17300000000E+03 0. -1.
         -6    1    1    2    0  502 -0.43945869390E+02  0.48433951161E+02  0.74970162773E+02  0.19956606016E+03  0.17300000000E+03 0. -1.
<mgrwt>
<rscale>  2 0.18494888E+03</rscale>
<asrwt>0</asrwt>
<pdfrwt beam="1">  1       21 0.26388342E-01 0.18494888E+03</pdfrwt>
<pdfrwt beam="2">  1       21 0.47989675E-01 0.18494888E+03</pdfrwt>
<totfact> 0.56873887E+04</totfact>
</mgrwt>
</event>
<event>
 4    1  0.3876841E+000  0.1780227E+03  0.7546771E-02  0.1169731E+00
         21   -1    0    0  501  502  0.00000000000E+00  0.00000000000E+00  0.77330585731E+03  0.77330585731E+03  0.00000000000E+00 0. -1.
         21   -1    0    0  502  503 -0.00000000000E+00 -0.00000000000E+00 -0.10643084936E+03  0.10643084936E+03  0.00000000000E+00 0. -1.
          6    1    1    2  501    0 -0.73114047418E+01 -0.41347530971E+02  0.67837309834E+03  0.70134309401E+03  0.17300000000E+03 0. -1.
         -6    1    1    2    0  503  0.73114047418E+01  0.41347530971E+02 -0.11498090388E+02  0.17839361266E+03  0.17300000000E+03 0. -1.
<mgrwt>
<rscale>  2 0.17802268E+03</rscale>
<asrwt>0</asrwt>
<pdfrwt beam="1">  1       21 0.11897013E+00 0.17802268E+03</pdfrwt>
<pdfrwt beam="2">  1       21 0.16373977E-01 0.17802268E+03</pdfrwt>
<totfact> 0.18204492E+04</totfact>
</mgrwt>
</event>
<event>
 4    1  0.3876841E+000  0.2206958E+03  0.7546771E-02  0.1133365E+00
         21   -1    0    0  503  502  0.00000000000E+00  0.00000000000E+00  0.23874853604E+03  0.23874853604E+03  0.00000000000E+00 0. -1.
         21   -1    0    0  501  503 -0.00000000000E+00 -0.00000000000E+00 -0.24979444900E+03  0.24979444900E+03  0.00000000000E+00 0. -1.
          6    1    1    2  501    0 -0.12644359288E+03 -0.52817007234E+02  0.99057307785E+02  0.24190694215E+03  0.17300000000E+03 0. -1.
         -6    1    1    2    0  502  0.12644359288E+03  0.52817007234E+02 -0.11010322074E+03  0.24663604289E+03  0.17300000000E+03 0. -1.
<mgrwt>
<rscale>  2 0.22069576E+03</rscale>
<asrwt>0</asrwt>
<pdfrwt beam="1">  1       21 0.36730544E-01 0.22069576E+03</pdfrwt>
<pdfrwt beam="2">  1       21 0.38429915E-01 0.22069576E+03</pdfrwt>
<totfact> 0.46049481E+04</totfact>
</mgrwt>
</event>
<event>
 4    1  0.3876841E+000  0.2649266E+03  0.7546771E-02  0.1104219E+00
         21   -1    0    0  503  502  0.00000000000E+00  0.00000000000E+00  0.40969904495E+02  0.40969904495E+02  0.00000000000E+00 0. -1.
         21   -1    0    0  501  503 -0.00000000000E+00 -0.00000000000E+00 -0.17156510491E+04  0.17156510491E+04  0.00000000000E+00 0.  1.
          6    1    1    2  501    0 -0.36862449212E+02  0.19722648908E+03 -0.87111396179E+03  0.91050846376E+03  0.17300000000E+03 0. -1.
         -6    1    1    2    0  502  0.36862449212E+02 -0.19722648908E+03 -0.80356718284E+03  0.84611248986E+03  0.17300000000E+03 0.  1.
<mgrwt>
<rscale>  2 0.26492665E+03</rscale>
<asrwt>0</asrwt>
<pdfrwt beam="1">  1       21 0.63030623E-02 0.26492665E+03</pdfrwt>
<pdfrwt beam="2">  1       21 0.26394631E+00 0.26492665E+03</pdfrwt>
<totfact> 0.93873150E+03</totfact>
</mgrwt>
</event>
<event>
 4    1  0.3876841E+000  0.2237778E+03  0.7546771E-02  0.1131097E+00
         21   -1    0    0  503  502  0.00000000000E+00  0.00000000000E+00  0.18677904031E+03  0.18677904031E+03  0.00000000000E+00 0. -1.
         21   -1    0    0  501  503 -0.00000000000E+00 -0.00000000000E+00 -0.33375124442E+03  0.33375124442E+03  0.00000000000E+00 0. -1.
          6    1    1    2  501    0  0.12986948164E+03 -0.57283880803E+02 -0.18891304359E+03  0.29285604535E+03  0.17300000000E+03 0. -1.
         -6    1    1    2    0  502 -0.12986948164E+03  0.57283880803E+02  0.41940839476E+02  0.22767423938E+03  0.17300000000E+03 0. -1.
<mgrwt>
<rscale>  2 0.22377785E+03</rscale>
<asrwt>0</asrwt>
<pdfrwt beam="1">  1       21 0.28735237E-01 0.22377785E+03</pdfrwt>
<pdfrwt beam="2">  1       21 0.51346346E-01 0.22377785E+03</pdfrwt>
<totfact> 0.41130546E+04</totfact>
</mgrwt>
</event>
<event>
 4    1  0.3876841E+000  0.1907631E+03  0.7546771E-02  0.1157775E+00
         21   -1    0    0  503  502  0.00000000000E+00  0.00000000000E+00  0.47362439192E+03  0.47362439192E+03  0.00000000000E+00 0.  1.
         21   -1    0    0  501  503 -0.00000000000E+00 -0.00000000000E+00 -0.13509224529E+03  0.13509224529E+03  0.00000000000E+00 0. -1.
          6    1    1    2  501    0  0.77297392950E+02 -0.22060494906E+02 -0.30604064413E+02  0.19320238392E+03  0.17300000000E+03 0. -1.
         -6    1    1    2    0  502 -0.77297392950E+02  0.22060494906E+02  0.36913621104E+03  0.41551425330E+03  0.17300000000E+03 0.  1.
<mgrwt>
<rscale>  2 0.19076308E+03</rscale>
<asrwt>0</asrwt>
<pdfrwt beam="1">  1       21 0.72865290E-01 0.19076308E+03</pdfrwt>
<pdfrwt beam="2">  1       21 0.20783423E-01 0.19076308E+03</pdfrwt>
<totfact> 0.36459312E+04</totfact>
</mgrwt>
</event>
<event>
 4    1  0.3876841E+000  0.2049131E+03  0.7546771E-02  0.1145659E+00
         21   -1    0    0  501  502  0.00000000000E+00  0.00000000000E+00  0.71235911304E+02  0.71235911304E+02  0.00000000000E+00 0.  1.
         21   -1    0    0  502  503 -0.00000000000E+00 -0.00000000000E+00 -0.75486531152E+03  0.75486531152E+03  0.00000000000E+00 0. -1.
          6    1    1    2  501    0 -0.94860345414E+01  0.10940932587E+03 -0.14845415603E+03  0.25303758985E+03  0.17300000000E+03 0.  1.
         -6    1    1    2    0  503  0.94860345414E+01 -0.10940932587E+03 -0.53517524419E+03  0.57306363297E+03  0.17300000000E+03 0. -1.
<mgrwt>
<rscale>  2 0.20491312E+03</rscale>
<asrwt>0</asrwt>
<pdfrwt beam="1">  1       21 0.10959371E-01 0.20491312E+03</pdfrwt>
<pdfrwt beam="2">  1       21 0.11613312E+00 0.20491312E+03</pdfrwt>
<totfact> 0.39219815E+04</totfact>
</mgrwt>
</event>
<event>
 4    1  0.3876841E+000  0.2848526E+03  0.7546771E-02  0.1093068E+00
         21   -1    0    0  503  502  0.00000000000E+00  0.00000000000E+00  0.32834774640E+03  0.32834774640E+03  0.00000000000E+00 0.  1.
         21   -1    0    0  501  503 -0.00000000000E+00 -0.00000000000E+00 -0.34760422172E+03  0.34760422172E+03  0.00000000000E+00 0. -1.
          6    1    1    2  501    0 -0.13762676390E+03  0.17964100485E+03 -0.19134462259E+03  0.34315270851E+03  0.17300000000E+03 0. -1.
         -6    1    1    2    0  502  0.13762676390E+03 -0.17964100485E+03  0.17208814726E+03  0.33279925961E+03  0.17300000000E+03 0.  1.
<mgrwt>
<rscale>  2 0.28485262E+03</rscale>
<asrwt>0</asrwt>
<pdfrwt beam="1">  1       21 0.50515038E-01 0.28485262E+03</pdfrwt>
<pdfrwt beam="2">  1       21 0.53477573E-01 0.28485262E+03</pdfrwt>
<totfact> 0.11720126E+04</totfact>
</mgrwt>
</event>
<event>
 4    1  0.3876841E+000  0.1771008E+03  0.7546771E-02  0.1170639E+00
         21   -1    0    0  501  502  0.00000000000E+00  0.00000000000E+00  0.63070302902E+02  0.63070302902E+02  0.00000000000E+00 0. -1.
         21   -1    0    0  502  503 -0.00000000000E+00 -0.00000000000E+00 -0.58602428621E+03  0.58602428621E+03  0.00000000000E+00 0. -1.
          6    1    1    2  501    0 -0.76941752845E+01  0.37101083770E+02 -0.38776091733E+03  0.42629006528E+03  0.17300000000E+03 0.  1.
         -6    1    1    2    0  503  0.76941752845E+01 -0.37101083770E+02 -0.13519306598E+03  0.22280452383E+03  0.17300000000E+03 0.  1.
<mgrwt>
<rscale>  2 0.17710079E+03</rscale>
<asrwt>0</asrwt>
<pdfrwt beam="1">  1       21 0.97031229E-02 0.17710079E+03</pdfrwt>
<pdfrwt beam="2">  1       21 0.90157589E-01 0.17710079E+03</pdfrwt>
<totfact> 0.90126749E+04</totfact>
</mgrwt>
</event>
<event>
 4    1  0.3876841E+000  0.2069879E+03  0.7546771E-02  0.1143974E+00
         21   -1    0    0  501  502  0.00000000000E+00  0.00000000000E+00  0.51081445128E+03  0.51081445128E+03  0.00000000000E+00 0.  1.
         21   -1    0    0  502  503 -0.00000000000E+00 -0.00000000000E+00 -0.83947619598E+02  0.83947619598E+02  0.00000000000E+00 0.  1.
          6    1    1    2  501    0 -0.11064797356E+03  0.25923209607E+02  0.20461932412E+03  0.29105507151E+03  0.17300000000E+03 0.  1.
         -6    1    1    2    0  503  0.11064797356E+03 -0.25923209607E+02  0.22224750756E+03  0.30370699937E+03  0.17300000000E+03 0.  1.
<mgrwt>
<rscale>  2 0.20698789E+03</rscale>
<asrwt>0</asrwt>
<pdfrwt beam="1">  1       21 0.78586837E-01 0.20698789E+03</pdfrwt>
<pdfrwt beam="2">  1       21 0.12915019E-01 0.20698789E+03</pdfrwt>
<totfact> 0.73167763E+04</totfact>
</mgrwt>
</event>
<event>
 4    1  0.3876841E+000  0.2053822E+03  0.7546771E-02  0.1145276E+00
         21   -1    0    0  501  502  0.00000000000E+00  0.00000000000E+00  0.91251102031E+02  0.91251102031E+02  0.00000000000E+00 0. -1.
         21   -1    0    0  502  503 -0.00000000000E+00 -0.00000000000E+00 -0.83793324855E+03  0.83793324855E+03  0.00000000000E+00 0. -1.
          6    1    1    2  501    0  0.77956930985E+02  0.78584712088E+02 -0.62261391859E+02  0.21461202431E+03  0.17300000000E+03 0. -1.
         -6    1    1    2    0  503 -0.77956930985E+02 -0.78584712088E+02 -0.68442075466E+03  0.71457232627E+03  0.17300000000E+03 0. -1.
<mgrwt>
<rscale>  2 0.20538218E+03</rscale>
<asrwt>0</asrwt>
<pdfrwt beam="1">  1       21 0.14038631E-01 0.20538218E+03</pdfrwt>
<pdfrwt beam="2">  1       21 0.12891281E+00 0.20538218E+03</pdfrwt>
<totfact> 0.19372513E+04</totfact>
</mgrwt>
</event>
<event>
 4    1  0.3876841E+000  0.2499381E+03  0.7546771E-02  0.1113344E+00
         21   -1    0    0  503  502  0.00000000000E+00  0.00000000000E+00  0.13234226264E+04  0.13234226264E+04  0.00000000000E+00 0. -1.
         21   -1    0    0  501  503 -0.00000000000E+00 -0.00000000000E+00 -0.84905653868E+02  0.84905653868E+02  0.00000000000E+00 0. -1.
          6    1    1    2  501    0  0.18038859202E+03  0.14740072907E+00  0.15002010446E+03  0.29150488435E+03  0.17300000000E+03 0. -1.
         -6    1    1    2    0  502 -0.18038859202E+03 -0.14740072907E+00  0.10884968681E+04  0.11168233959E+04  0.17300000000E+03 0. -1.
<mgrwt>
<rscale>  2 0.24993812E+03</rscale>
<asrwt>0</asrwt>
<pdfrwt beam="1">  1       21 0.20360347E+00 0.24993812E+03</pdfrwt>
<pdfrwt beam="2">  1       21 0.13062409E-01 0.24993812E+03</pdfrwt>
<totfact> 0.61249130E+03</totfact>
</mgrwt>
</event>
<event>
 4    1  0.3876841E+000  0.2616792E+03  0.7546771E-02  0.1106139E+00
         21   -1    0    0  501  502  0.00000000000E+00  0.00000000000E+00  0.45608617100E+03  0.45608617100E+03  0.00000000000E+00 0.  1.
         21   -1    0    0  502  503 -0.00000000000E+00 -0.00000000000E+00 -0.18243857454E+03  0.18243857454E+03  0.00000000000E+00 0. -1.
          6    1    1    2  501    0  0.59406430019E+02 -0.18713063493E+03  0.24877506610E+01  0.26169101505E+03  0.17300000000E+03 0.  1.
         -6    1    1    2    0  503 -0.59406430019E+02  0.18713063493E+03  0.27115984579E+03  0.37683373048E+03  0.17300000000E+03 0. -1.
<mgrwt>
<rscale>  2 0.26167919E+03</rscale>
<asrwt>0</asrwt>
<pdfrwt beam="1">  1       21 0.70167103E-01 0.26167919E+03</pdfrwt>
<pdfrwt beam="2">  1       21 0.28067473E-01 0.26167919E+03</pdfrwt>
<totfact> 0.21552854E+04</totfact>
</mgrwt>
</event>
<event>
 4    1  0.3876841E+000  0.1938342E+03  0.7546771E-02  0.1155048E+00
         21   -1    0    0  503  502  0.00000000000E+00  0.00000000000E+00  0.13180601482E+03  0.13180601482E+03  0.00000000000E+00 0.  1.
         21   -1    0    0  501  503 -0.00000000000E+00 -0.00000000000E+00 -0.35404788711E+03  0.35404788711E+03  0.00000000000E+00 0.  1.
          6    1    1    2  501    0  0.36396174483E+02  0.79485914453E+02 -0.21836007971E+03  0.29198084958E+03  0.17300000000E+03 0.  1.
         -6    1    1    2    0  502 -0.36396174483E+02 -0.79485914453E+02 -0.38817925758E+01  0.19387305235E+03  0.17300000000E+03 0.  1.
<mgrwt>
<rscale>  2 0.19383419E+03</rscale>
<asrwt>0</asrwt>
<pdfrwt beam="1">  1       21 0.20277848E-01 0.19383419E+03</pdfrwt>
<pdfrwt beam="2">  1       21 0.54468906E-01 0.19383419E+03</pdfrwt>
<totfact> 0.71588446E+04</totfact>
</mgrwt>
</event>
<event>
 4    1  0.3876841E+000  0.2533622E+03  0.7546771E-02  0.1111198E+00
         21   -1    0    0  501  502  0.00000000000E+00  0.00000000000E+00  0.12743882145E+04  0.12743882145E+04  0.00000000000E+00 0.  1.
         21   -1    0    0  502  503 -0.00000000000E+00 -0.00000000000E+00 -0.52831652189E+02  0.52831652189E+02  0.00000000000E+00 0. -1.
          6    1    1    2  501    0  0.18350696962E+03  0.24260722391E+02  0.75398991780E+03  0.79542013219E+03  0.17300000000E+03 0. -1.
         -6    1    1    2    0  503 -0.18350696962E+03 -0.24260722391E+02  0.46756664447E+03  0.53179973446E+03  0.17300000000E+03 0.  1.
<mgrwt>
<rscale>  2 0.25336217E+03</rscale>
<asrwt>0</asrwt>
<pdfrwt beam="1">  1       21 0.19605970E+00 0.25336217E+03</pdfrwt>
<pdfrwt beam="2">  1       21 0.81279474E-02 0.25336217E+03</pdfrwt>
<totfact> 0.15929971E+04</totfact>
</mgrwt>
</event>
<event>
 4    1  0.3876841E+000  0.2498050E+03  0.7546771E-02  0.1113428E+00
         21   -1    0    0  501  502  0.00000000000E+00  0.00000000000E+00  0.23662929389E+03  0.23662929389E+03  0.00000000000E+00 0.  1.
         21   -1    0    0  502  503 -0.00000000000E+00 -0.00000000000E+00 -0.32328307793E+03  0.32328307793E+03  0.00000000000E+00 0. -1.
          6    1    1    2  501    0  0.17984760473E+03  0.11330315209E+02  0.76846355690E+02  0.26135779948E+03  0.17300000000E+03 0.  1.
         -6    1    1    2    0  503 -0.17984760473E+03 -0.11330315209E+02 -0.16350013973E+03  0.29855457233E+03  0.17300000000E+03 0.  1.
<mgrwt>
<rscale>  2 0.24980500E+03</rscale>
<asrwt>0</asrwt>
<pdfrwt beam="1">  1       21 0.36404507E-01 0.24980500E+03</pdfrwt>
<pdfrwt beam="2">  1       21 0.49735858E-01 0.24980500E+03</pdfrwt>
<totfact> 0.27228515E+04</totfact>
</mgrwt>
</event>
<event>
 4    1  0.3876841E+000  0.1735078E+03  0.7546771E-02  0.1174238E+00
         21   -1    0    0  501  502  0.00000000000E+00  0.00000000000E+00  0.62221680919E+03  0.62221680919E+03  0.00000000000E+00 0. -1.
         21   -1    0    0  502  503 -0.00000000000E+00 -0.00000000000E+00 -0.53670680381E+02  0.53670680381E+02  0.00000000000E+00 0. -1.
          6    1    1    2  501    0  0.13257324194E+02  0.45303614640E+00  0.39034297982E+03  0.42716812121E+03  0.17300000000E+03 0. -1.
         -6    1    1    2    0  503 -0.13257324194E+02 -0.45303614640E+00  0.17820314899E+03  0.24871936836E+03  0.17300000000E+03 0. -1.
<mgrwt>
<rscale>  2 0.17350782E+03</rscale>
<asrwt>0</asrwt>
<pdfrwt beam="1">  1       21 0.95725658E-01 0.17350782E+03</pdfrwt>
<pdfrwt beam="2">  1       21 0.82570282E-02 0.17350782E+03</pdfrwt>
<totfact> 0.10415370E+05</totfact>
</mgrwt>
</event>
<event>
 4    1  0.3876841E+000  0.1828603E+03  0.7546771E-02  0.1165063E+00
         21   -1    0    0  501  502  0.00000000000E+00  0.00000000000E+00  0.49663596136E+03  0.49663596136E+03  0.00000000000E+00 0. -1.
         21   -1    0    0  502  503 -0.00000000000E+00 -0.00000000000E+00 -0.74652864836E+02  0.74652864836E+02  0.00000000000E+00 0. -1.
          6    1    1    2  501    0 -0.36666445454E+02  0.46523921784E+02  0.12152131437E+03  0.21955713007E+03  0.17300000000E+03 0.  1.
         -6    1    1    2    0  503  0.36666445454E+02 -0.46523921784E+02  0.30046178215E+03  0.35173169612E+03  0.17300000000E+03 0.  1.
<mgrwt>
<rscale>  2 0.18286034E+03</rscale>
<asrwt>0</asrwt>
<pdfrwt beam="1">  1       21 0.76405530E-01 0.18286034E+03</pdfrwt>
<pdfrwt beam="2">  1       21 0.11485056E-01 0.18286034E+03</pdfrwt>
<totfact> 0.97173139E+04</totfact>
</mgrwt>
</event>
<event>
 4    1  0.3876841E+000  0.2078172E+03  0.7546771E-02  0.1143306E+00
         21   -1    0    0  503  502  0.00000000000E+00  0.00000000000E+00  0.89412285170E+02  0.89412285170E+02  0.00000000000E+00 0.  1.
         21   -1    0    0  501  503 -0.00000000000E+00 -0.00000000000E+00 -0.51641400938E+03  0.51641400938E+03  0.00000000000E+00 0.  1.
          6    1    1    2  501    0  0.72316630641E+02 -0.89606246219E+02 -0.29052903275E+03  0.35720455386E+03  0.17300000000E+03 0.  1.
         -6    1    1    2    0  502 -0.72316630641E+02  0.89606246219E+02 -0.13647269146E+03  0.24862174069E+03  0.17300000000E+03 0.  1.
<mgrwt>
<rscale>  2 0.20781717E+03</rscale>
<asrwt>0</asrwt>
<pdfrwt beam="1">  1       21 0.13755736E-01 0.20781717E+03</pdfrwt>
<pdfrwt beam="2">  1       21 0.79448311E-01 0.20781717E+03</pdfrwt>
<totfact> 0.63674128E+04</totfact>
</mgrwt>
</event>
<event>
 4    1  0.3876841E+000  0.2854348E+03  0.7546771E-02  0.1092757E+00
         21   -1    0    0  501  502  0.00000000000E+00  0.00000000000E+00  0.49451821358E+03  0.49451821358E+03  0.00000000000E+00 0.  1.
         21   -1    0    0  502  503 -0.00000000000E+00 -0.00000000000E+00 -0.16613299251E+03  0.16613299251E+03  0.00000000000E+00 0.  1.
          6    1    1    2  501    0 -0.14705473935E+03  0.17297087018E+03  0.13407911872E+03  0.31535730271E+03  0.17300000000E+03 0.  1.
         -6    1    1    2    0  503  0.14705473935E+03 -0.17297087018E+03  0.19430610235E+03  0.34529390338E+03  0.17300000000E+03 0.  1.
<mgrwt>
<rscale>  2 0.28543479E+03</rscale>
<asrwt>0</asrwt>
<pdfrwt beam="1">  1       21 0.76079725E-01 0.28543479E+03</pdfrwt>
<pdfrwt beam="2">  1       21 0.25558922E-01 0.28543479E+03</pdfrwt>
<totfact> 0.21333568E+04</totfact>
</mgrwt>
</event>
<event>
 4    1  0.3876841E+000  0.1877182E+03  0.7546771E-02  0.1160536E+00
         21   -1    0    0  503  502  0.00000000000E+00  0.00000000000E+00  0.24467390587E+03  0.24467390587E+03  0.00000000000E+00 0. -1.
         21   -1    0    0  501  503 -0.00000000000E+00 -0.00000000000E+00 -0.22197291504E+03  0.22197291504E+03  0.00000000000E+00 0. -1.
          6    1    1    2  501    0  0.24724430705E+01 -0.72821647982E+02 -0.12691778885E+03  0.22659706643E+03  0.17300000000E+03 0. -1.
         -6    1    1    2    0  502 -0.24724430705E+01  0.72821647982E+02  0.14961877969E+03  0.24004975448E+03  0.17300000000E+03 0. -1.
<mgrwt>
<rscale>  2 0.18771815E+03</rscale>
<asrwt>0</asrwt>
<pdfrwt beam="1">  1       21 0.37642139E-01 0.18771815E+03</pdfrwt>
<pdfrwt beam="2">  1       21 0.34149679E-01 0.18771815E+03</pdfrwt>
<totfact> 0.56363854E+04</totfact>
</mgrwt>
</event>
<event>
 4    1  0.3876841E+000  0.1890963E+03  0.7546771E-02  0.1159279E+00
         21   -1    0    0  503  502  0.00000000000E+00  0.00000000000E+00  0.62079670431E+03  0.62079670431E+03  0.00000000000E+00 0. -1.
         21   -1    0    0  501  503 -0.00000000000E+00 -0.00000000000E+00 -0.58535114685E+02  0.58535114685E+02  0.00000000000E+00 0. -1.
          6    1    1    2  501    0  0.56995924667E+02  0.50792301253E+02  0.23818091595E+03  0.30411764503E+03  0.17300000000E+03 0.  1.
         -6    1    1    2    0  502 -0.56995924667E+02 -0.50792301253E+02  0.32408067367E+03  0.37521417397E+03  0.17300000000E+03 0.  1.
<mgrwt>
<rscale>  2 0.18909625E+03</rscale>
<asrwt>0</asrwt>
<pdfrwt beam="1">  1       21 0.95507180E-01 0.18909625E+03</pdfrwt>
<pdfrwt beam="2">  1       21 0.90054027E-02 0.18909625E+03</pdfrwt>
<totfact> 0.89406734E+04</totfact>
</mgrwt>
</event>
<event>
 4    1  0.3876841E+000  0.2864640E+03  0.7546771E-02  0.1092210E+00
         21   -1    0    0  501  502  0.00000000000E+00  0.00000000000E+00  0.99316210886E+03  0.99316210886E+03  0.00000000000E+00 0. -1.
         21   -1    0    0  502  503 -0.00000000000E+00 -0.00000000000E+00 -0.27878557363E+03  0.27878557363E+03  0.00000000000E+00 0.  1.
          6    1    1    2  501    0  0.25064205058E+02  0.22694579028E+03  0.89065605105E+03  0.93559061954E+03  0.17300000000E+03 0. -1.
         -6    1    1    2    0  503 -0.25064205058E+02 -0.22694579028E+03 -0.17627951582E+03  0.33635706295E+03  0.17300000000E+03 0.  1.
<mgrwt>
<rscale>  2 0.28646397E+03</rscale>
<asrwt>0</asrwt>
<pdfrwt beam="1">  1       21 0.15279417E+00 0.28646397E+03</pdfrwt>
<pdfrwt beam="2">  1       21 0.42890089E-01 0.28646397E+03</pdfrwt>
<totfact> 0.13764141E+03</totfact>
</mgrwt>
</event>
<event>
 4    1  0.3876841E+000  0.2027790E+03  0.7546771E-02  0.1147415E+00
         21   -1    0    0  501  502  0.00000000000E+00  0.00000000000E+00  0.14969947779E+03  0.14969947779E+03  0.00000000000E+00 0.  1.
         21   -1    0    0  502  503 -0.00000000000E+00 -0.00000000000E+00 -0.30474819042E+03  0.30474819042E+03  0.00000000000E+00 0. -1.
          6    1    1    2  501    0  0.31439916325E+02 -0.10100415129E+03 -0.61497069173E+01  0.20287219083E+03  0.17300000000E+03 0.  1.
         -6    1    1    2    0  503 -0.31439916325E+02  0.10100415129E+03 -0.14889900571E+03  0.25157547738E+03  0.17300000000E+03 0. -1.
<mgrwt>
<rscale>  2 0.20277896E+03</rscale>
<asrwt>0</asrwt>
<pdfrwt beam="1">  1       21 0.23030689E-01 0.20277896E+03</pdfrwt>
<pdfrwt beam="2">  1       21 0.46884337E-01 0.20277896E+03</pdfrwt>
<totfact> 0.76754996E+04</totfact>
</mgrwt>
</event>
<event>
 4    1  0.3876841E+000  0.2740005E+03  0.7546771E-02  0.1099012E+00
         21   -1    0    0  501  502  0.00000000000E+00  0.00000000000E+00  0.20010460838E+03  0.20010460838E+03  0.00000000000E+00 0.  1.
         21   -1    0    0  502  503 -0.00000000000E+00 -0.00000000000E+00 -0.37896516753E+03  0.37896516753E+03  0.00000000000E+00 0. -1.
          6    1    1    2  501    0  0.98152665111E+02  0.18844973406E+03 -0.60513052003E+02  0.28060306021E+03  0.17300000000E+03 0.  1.
         -6    1    1    2    0  503 -0.98152665111E+02 -0.18844973406E+03 -0.11834750715E+03  0.29846671571E+03  0.17300000000E+03 0. -1.
<mgrwt>
<rscale>  2 0.27400045E+03</rscale>
<asrwt>0</asrwt>
<pdfrwt beam="1">  1       21 0.30785324E-01 0.27400045E+03</pdfrwt>
<pdfrwt beam="2">  1       21 0.58302334E-01 0.27400045E+03</pdfrwt>
<totfact> 0.26829882E+04</totfact>
</mgrwt>
</event>
<event>
 4    1  0.3876841E+000  0.2099038E+03  0.7546771E-02  0.1141642E+00
         21   -1    0    0  501  502  0.00000000000E+00  0.00000000000E+00  0.21013853830E+03  0.21013853830E+03  0.00000000000E+00 0.  1.
         21   -1    0    0  502  503 -0.00000000000E+00 -0.00000000000E+00 -0.92664442528E+03  0.92664442528E+03  0.00000000000E+00 0. -1.
          6    1    1    2  501    0  0.74480477308E+02 -0.92646003833E+02  0.14171598226E+03  0.25326476888E+03  0.17300000000E+03 0.  1.
         -6    1    1    2    0  503 -0.74480477308E+02  0.92646003833E+02 -0.85822186925E+03  0.88351819471E+03  0.17300000000E+03 0. -1.
<mgrwt>
<rscale>  2 0.20990384E+03</rscale>
<asrwt>0</asrwt>
<pdfrwt beam="1">  1       21 0.32329006E-01 0.20990384E+03</pdfrwt>
<pdfrwt beam="2">  1       21 0.14256068E+00 0.20990384E+03</pdfrwt>
<totfact> 0.30957565E+03</totfact>
</mgrwt>
</event>
<event>
 4    1  0.3876841E+000  0.2384351E+03  0.7546771E-02  0.1120840E+00
         21   -1    0    0  501  502  0.00000000000E+00  0.00000000000E+00  0.10419290225E+03  0.10419290225E+03  0.00000000000E+00 0.  1.
         21   -1    0    0  502  503 -0.00000000000E+00 -0.00000000000E+00 -0.61009809604E+03  0.61009809604E+03  0.00000000000E+00 0.  1.
          6    1    1    2  501    0  0.30577563852E+01  0.16405160754E+03 -0.13686083771E+03  0.27492211390E+03  0.17300000000E+03 0.  1.
         -6    1    1    2    0  503 -0.30577563852E+01 -0.16405160754E+03 -0.36904435608E+03  0.43936888439E+03  0.17300000000E+03 0.  1.
<mgrwt>
<rscale>  2 0.23843506E+03</rscale>
<asrwt>0</asrwt>
<pdfrwt beam="1">  1       21 0.16029677E-01 0.23843506E+03</pdfrwt>
<pdfrwt beam="2">  1       21 0.93861248E-01 0.23843506E+03</pdfrwt>
<totfact> 0.32328758E+04</totfact>
</mgrwt>
</event>
<event>
 4    1  0.3876841E+000  0.3706933E+03  0.7546771E-02  0.1054428E+00
         21   -1    0    0  503  502  0.00000000000E+00  0.00000000000E+00  0.15747557054E+03  0.15747557054E+03  0.00000000000E+00 0.  1.
         21   -1    0    0  501  503 -0.00000000000E+00 -0.00000000000E+00 -0.11140337976E+04  0.11140337976E+04  0.00000000000E+00 0.  1.
          6    1    1    2  501    0  0.29390406641E+03  0.14527535663E+03 -0.77424212537E+03  0.85840806042E+03  0.17300000000E+03 0.  1.
         -6    1    1    2    0  502 -0.29390406641E+03 -0.14527535663E+03 -0.18231610168E+03  0.41310130771E+03  0.17300000000E+03 0.  1.
<mgrwt>
<rscale>  2 0.37069331E+03</rscale>
<asrwt>0</asrwt>
<pdfrwt beam="1">  1       21 0.24227010E-01 0.37069331E+03</pdfrwt>
<pdfrwt beam="2">  1       21 0.17138982E+00 0.37069331E+03</pdfrwt>
<totfact> 0.29793481E+03</totfact>
</mgrwt>
</event>
<event>
 4    1  0.3876841E+000  0.2190533E+03  0.7546771E-02  0.1134591E+00
         21   -1    0    0  501  502  0.00000000000E+00  0.00000000000E+00  0.47332253028E+03  0.47332253028E+03  0.00000000000E+00 0. -1.
         21   -1    0    0  502  503 -0.00000000000E+00 -0.00000000000E+00 -0.19930925997E+03  0.19930925997E+03  0.00000000000E+00 0.  1.
          6    1    1    2  501    0 -0.66178267739E+02  0.11694356987E+03  0.37275296189E+03  0.43235301809E+03  0.17300000000E+03 0. -1.
         -6    1    1    2    0  503  0.66178267739E+02 -0.11694356987E+03 -0.98739691578E+02  0.24027877216E+03  0.17300000000E+03 0.  1.
<mgrwt>
<rscale>  2 0.21905333E+03</rscale>
<asrwt>0</asrwt>
<pdfrwt beam="1">  1       21 0.72818850E-01 0.21905333E+03</pdfrwt>
<pdfrwt beam="2">  1       21 0.30662963E-01 0.21905333E+03</pdfrwt>
<totfact> 0.17062025E+04</totfact>
</mgrwt>
</event>
<event>
 4    1  0.3876841E+000  0.1776730E+03  0.7546771E-02  0.1170074E+00
         21   -1    0    0  501  502  0.00000000000E+00  0.00000000000E+00  0.19089527015E+03  0.19089527015E+03  0.00000000000E+00 0.  1.
         21   -1    0    0  502  503 -0.00000000000E+00 -0.00000000000E+00 -0.39073092840E+03  0.39073092840E+03  0.00000000000E+00 0.  1.
          6    1    1    2  501    0  0.40294413850E+02 -0.38797932397E+01  0.12094249451E+03  0.21492970842E+03  0.17300000000E+03 0.  1.
         -6    1    1    2    0  503 -0.40294413850E+02  0.38797932397E+01 -0.32077815276E+03  0.36669649013E+03  0.17300000000E+03 0.  1.
<mgrwt>
<rscale>  2 0.17767299E+03</rscale>
<asrwt>0</asrwt>
<pdfrwt beam="1">  1       21 0.29368504E-01 0.17767299E+03</pdfrwt>
<pdfrwt beam="2">  1       21 0.60112450E-01 0.17767299E+03</pdfrwt>
<totfact> 0.28901761E+04</totfact>
</mgrwt>
</event>
<event>
 4    1  0.3876841E+000  0.2454331E+03  0.7546771E-02  0.1116225E+00
         21   -1    0    0  501  502  0.00000000000E+00  0.00000000000E+00  0.94196199533E+02  0.94196199533E+02  0.00000000000E+00 0.  1.
         21   -1    0    0  502  503 -0.00000000000E+00 -0.00000000000E+00 -0.65603965927E+03  0.65603965927E+03  0.00000000000E+00 0. -1.
          6    1    1    2  501    0  0.90822347287E+02 -0.14852517341E+03 -0.22134022410E+03  0.33049798896E+03  0.17300000000E+03 0.  1.
         -6    1    1    2    0  503 -0.90822347287E+02  0.14852517341E+03 -0.34050323564E+03  0.41973786985E+03  0.17300000000E+03 0. -1.
<mgrwt>
<rscale>  2 0.24543314E+03</rscale>
<asrwt>0</asrwt>
<pdfrwt beam="1">  1       21 0.14491722E-01 0.24543314E+03</pdfrwt>
<pdfrwt beam="2">  1       21 0.10092918E+00 0.24543314E+03</pdfrwt>
<totfact> 0.32637429E+04</totfact>
</mgrwt>
</event>
<event>
 4    1  0.3876841E+000  0.2583884E+03  0.7546771E-02  0.1108115E+00
         21   -1    0    0  503  502  0.00000000000E+00  0.00000000000E+00  0.15665534026E+03  0.15665534026E+03  0.00000000000E+00 0.  1.
         21   -1    0    0  501  503 -0.00000000000E+00 -0.00000000000E+00 -0.93318046047E+03  0.93318046047E+03  0.00000000000E+00 0.  1.
          6    1    1    2  501    0  0.12893346919E+03  0.14216803005E+03 -0.78991379850E+03  0.83110071430E+03  0.17300000000E+03 0.  1.
         -6    1    1    2    0  502 -0.12893346919E+03 -0.14216803005E+03  0.13388678296E+02  0.25873508644E+03  0.17300000000E+03 0.  1.
<mgrwt>
<rscale>  2 0.25838844E+03</rscale>
<asrwt>0</asrwt>
<pdfrwt beam="1">  1       21 0.24100822E-01 0.25838844E+03</pdfrwt>
<pdfrwt beam="2">  1       21 0.14356622E+00 0.25838844E+03</pdfrwt>
<totfact> 0.51890051E+03</totfact>
</mgrwt>
</event>
<event>
 4    1  0.3876841E+000  0.1764788E+03  0.7546771E-02  0.1171255E+00
         21   -1    0    0  501  502  0.00000000000E+00  0.00000000000E+00  0.16838702054E+04  0.16838702054E+04  0.00000000000E+00 0.  1.
         21   -1    0    0  502  503 -0.00000000000E+00 -0.00000000000E+00 -0.36400435602E+02  0.36400435602E+02  0.00000000000E+00 0.  1.
          6    1    1    2  501    0  0.34860394151E+02 -0.71499425889E+00  0.14269810441E+04  0.14378524467E+04  0.17300000000E+03 0.  1.
         -6    1    1    2    0  503 -0.34860394151E+02  0.71499425889E+00  0.22048872563E+03  0.28241819422E+03  0.17300000000E+03 0.  1.
<mgrwt>
<rscale>  2 0.17647878E+03</rscale>
<asrwt>0</asrwt>
<pdfrwt beam="1">  1       21 0.25905689E+00 0.17647878E+03</pdfrwt>
<pdfrwt beam="2">  1       21 0.56000683E-02 0.17647878E+03</pdfrwt>
<totfact> 0.13262927E+04</totfact>
</mgrwt>
</event>
<event>
 4    1  0.3876841E+000  0.3194101E+03  0.7546771E-02  0.1075921E+00
         21   -1    0    0  501  502  0.00000000000E+00  0.00000000000E+00  0.46938202603E+03  0.46938202603E+03  0.00000000000E+00 0.  1.
         21   -1    0    0  502  503 -0.00000000000E+00 -0.00000000000E+00 -0.31051847678E+03  0.31051847678E+03  0.00000000000E+00 0.  1.
          6    1    1    2  501    0 -0.25767243062E+03 -0.75489837271E+02  0.29302476707E+03  0.43345854606E+03  0.17300000000E+03 0.  1.
         -6    1    1    2    0  503  0.25767243062E+03  0.75489837271E+02 -0.13416121782E+03  0.34644195676E+03  0.17300000000E+03 0.  1.
<mgrwt>
<rscale>  2 0.31941008E+03</rscale>
<asrwt>0</asrwt>
<pdfrwt beam="1">  1       21 0.72212620E-01 0.31941008E+03</pdfrwt>
<pdfrwt beam="2">  1       21 0.47772073E-01 0.31941008E+03</pdfrwt>
<totfact> 0.67304540E+03</totfact>
</mgrwt>
</event>
<event>
 4    1  0.3876841E+000  0.2600023E+03  0.7546771E-02  0.1107142E+00
         21   -1    0    0  501  502  0.00000000000E+00  0.00000000000E+00  0.33865730981E+03  0.33865730981E+03  0.00000000000E+00 0. -1.
         21   -1    0    0  502  503 -0.00000000000E+00 -0.00000000000E+00 -0.20098992343E+03  0.20098992343E+03  0.00000000000E+00 0. -1.
          6    1    1    2  501    0  0.27574362421E+02 -0.19212460736E+03  0.46520032520E+02  0.26413126214E+03  0.17300000000E+03 0. -1.
         -6    1    1    2    0  503 -0.27574362421E+02  0.19212460736E+03  0.91147353858E+02  0.27551597110E+03  0.17300000000E+03 0. -1.
<mgrwt>
<rscale>  2 0.26000233E+03</rscale>
<asrwt>0</asrwt>
<pdfrwt beam="1">  1       21 0.52101125E-01 0.26000233E+03</pdfrwt>
<pdfrwt beam="2">  1       21 0.30921527E-01 0.26000233E+03</pdfrwt>
<totfact> 0.34007985E+04</totfact>
</mgrwt>
</event>
<event>
 4    1  0.3876841E+000  0.1756045E+03  0.7546771E-02  0.1172126E+00
         21   -1    0    0  501  502  0.00000000000E+00  0.00000000000E+00  0.53441560431E+02  0.53441560431E+02  0.00000000000E+00 0. -1.
         21   -1    0    0  502  503 -0.00000000000E+00 -0.00000000000E+00 -0.58917539858E+03  0.58917539858E+03  0.00000000000E+00 0. -1.
          6    1    1    2  501    0  0.20107212121E+02  0.22441951005E+02 -0.31401501109E+03  0.35978100052E+03  0.17300000000E+03 0. -1.
         -6    1    1    2    0  503 -0.20107212121E+02 -0.22441951005E+02 -0.22171882706E+03  0.28283595849E+03  0.17300000000E+03 0. -1.
<mgrwt>
<rscale>  2 0.17560450E+03</rscale>
<asrwt>0</asrwt>
<pdfrwt beam="1">  1       21 0.82217785E-02 0.17560450E+03</pdfrwt>
<pdfrwt beam="2">  1       21 0.90642369E-01 0.17560450E+03</pdfrwt>
<totfact> 0.11901902E+05</totfact>
</mgrwt>
</event>
<event>
 4    1  0.3876841E+000  0.1804808E+03  0.7546771E-02  0.1167339E+00
         21   -1    0    0  503  502  0.00000000000E+00  0.00000000000E+00  0.61448905666E+03  0.61448905666E+03  0.00000000000E+00 0. -1.
         21   -1    0    0  501  503 -0.00000000000E+00 -0.00000000000E+00 -0.11372214504E+03  0.11372214504E+03  0.00000000000E+00 0.  1.
          6    1    1    2  501    0  0.47536692184E+02 -0.19610513923E+02 -0.15656596386E+02  0.18115860005E+03  0.17300000000E+03 0.  1.
         -6    1    1    2    0  502 -0.47536692184E+02  0.19610513923E+02  0.51642350800E+03  0.54705260166E+03  0.17300000000E+03 0. -1.
<mgrwt>
<rscale>  2 0.18048077E+03</rscale>
<asrwt>0</asrwt>
<pdfrwt beam="1">  1       21 0.94536776E-01 0.18048077E+03</pdfrwt>
<pdfrwt beam="2">  1       21 0.17495715E-01 0.18048077E+03</pdfrwt>
<totfact> 0.27917404E+04</totfact>
</mgrwt>
</event>
<event>
 4    1  0.3876841E+000  0.1735641E+03  0.7546771E-02  0.1174181E+00
         21   -1    0    0  501  502  0.00000000000E+00  0.00000000000E+00  0.43735943706E+03  0.43735943706E+03  0.00000000000E+00 0.  1.
         21   -1    0    0  502  503 -0.00000000000E+00 -0.00000000000E+00 -0.94899408369E+02  0.94899408369E+02  0.00000000000E+00 0.  1.
          6    1    1    2  501    0 -0.74822868914E+01 -0.11812019391E+02  0.31058589374E+03  0.35579222281E+03  0.17300000000E+03 0.  1.
         -6    1    1    2    0  503  0.74822868914E+01  0.11812019391E+02  0.31874134945E+02  0.17646662262E+03  0.17300000000E+03 0.  1.
<mgrwt>
<rscale>  2 0.17356413E+03</rscale>
<asrwt>0</asrwt>
<pdfrwt beam="1">  1       21 0.67286066E-01 0.17356413E+03</pdfrwt>
<pdfrwt beam="2">  1       21 0.14599909E-01 0.17356413E+03</pdfrwt>
<totfact> 0.83942012E+04</totfact>
</mgrwt>
</event>
<event>
 4    1  0.3876841E+000  0.1849109E+03  0.7546771E-02  0.1163133E+00
         21   -1    0    0  503  502  0.00000000000E+00  0.00000000000E+00  0.50041599428E+03  0.50041599428E+03  0.00000000000E+00 0.  1.
         21   -1    0    0  501  503 -0.00000000000E+00 -0.00000000000E+00 -0.11118865349E+03  0.11118865349E+03  0.00000000000E+00 0.  1.
          6    1    1    2  501    0 -0.55412359677E+02 -0.34532782390E+02  0.47491566059E+01  0.18497188206E+03  0.17300000000E+03 0.  1.
         -6    1    1    2    0  502  0.55412359677E+02  0.34532782390E+02  0.38447818418E+03  0.42663276571E+03  0.17300000000E+03 0.  1.
<mgrwt>
<rscale>  2 0.18491090E+03</rscale>
<asrwt>0</asrwt>
<pdfrwt beam="1">  1       21 0.76987075E-01 0.18491090E+03</pdfrwt>
<pdfrwt beam="2">  1       21 0.17105947E-01 0.18491090E+03</pdfrwt>
<totfact> 0.46424709E+04</totfact>
</mgrwt>
</event>
<event>
 4    1  0.3876841E+000  0.1953066E+03  0.7546771E-02  0.1153760E+00
         21   -1    0    0  501  502  0.00000000000E+00  0.00000000000E+00  0.80746009635E+03  0.80746009635E+03  0.00000000000E+00 0.  1.
         21   -1    0    0  502  503 -0.00000000000E+00 -0.00000000000E+00 -0.11152958592E+03  0.11152958592E+03  0.00000000000E+00 0.  1.
          6    1    1    2  501    0  0.79688365157E+02 -0.43190574321E+02  0.69682822934E+03  0.72368103640E+03  0.17300000000E+03 0.  1.
         -6    1    1    2    0  503 -0.79688365157E+02  0.43190574321E+02 -0.89771890944E+00  0.19530864587E+03  0.17300000000E+03 0.  1.
<mgrwt>
<rscale>  2 0.19530658E+03</rscale>
<asrwt>0</asrwt>
<pdfrwt beam="1">  1       21 0.12422463E+00 0.19530658E+03</pdfrwt>
<pdfrwt beam="2">  1       21 0.17158398E-01 0.19530658E+03</pdfrwt>
<totfact> 0.14832927E+04</totfact>
</mgrwt>
</event>
<event>
 4    1  0.3876841E+000  0.2000816E+03  0.7546771E-02  0.1149670E+00
         21   -1    0    0  501  502  0.00000000000E+00  0.00000000000E+00  0.23953541622E+03  0.23953541622E+03  0.00000000000E+00 0.  1.
         21   -1    0    0  502  503 -0.00000000000E+00 -0.00000000000E+00 -0.22854900178E+03  0.22854900178E+03  0.00000000000E+00 0.  1.
          6    1    1    2  501    0  0.54513994543E+02  0.84450335635E+02  0.12682356260E+03  0.23688995508E+03  0.17300000000E+03 0.  1.
         -6    1    1    2    0  503 -0.54513994543E+02 -0.84450335635E+02 -0.11583714815E+03  0.23119446291E+03  0.17300000000E+03 0.  1.
<mgrwt>
<rscale>  2 0.20008157E+03</rscale>
<asrwt>0</asrwt>
<pdfrwt beam="1">  1       21 0.36851602E-01 0.20008157E+03</pdfrwt>
<pdfrwt beam="2">  1       21 0.35161385E-01 0.20008157E+03</pdfrwt>
<totfact> 0.55182499E+04</totfact>
</mgrwt>
</event>
<event>
 4    1  0.3876841E+000  0.1817647E+03  0.7546771E-02  0.1166106E+00
         21   -1    0    0  501  502  0.00000000000E+00  0.00000000000E+00  0.14399473233E+03  0.14399473233E+03  0.00000000000E+00 0. -1.
         21   -1    0    0  502  503 -0.00000000000E+00 -0.00000000000E+00 -0.24066288353E+03  0.24066288353E+03  0.00000000000E+00 0. -1.
          6    1    1    2  501    0 -0.49425565147E+02  0.25817359063E+02 -0.68046834605E+01  0.18189207304E+03  0.17300000000E+03 0. -1.
         -6    1    1    2    0  503  0.49425565147E+02 -0.25817359063E+02 -0.89863467738E+02  0.20276554281E+03  0.17300000000E+03 0. -1.
<mgrwt>
<rscale>  2 0.18176474E+03</rscale>
<asrwt>0</asrwt>
<pdfrwt beam="1">  1       21 0.22153036E-01 0.18176474E+03</pdfrwt>
<pdfrwt beam="2">  1       21 0.37025059E-01 0.18176474E+03</pdfrwt>
<totfact> 0.13453081E+05</totfact>
</mgrwt>
</event>
<event>
 4    1  0.3876841E+000  0.2016666E+03  0.7546771E-02  0.1148340E+00
         21   -1    0    0  503  502  0.00000000000E+00  0.00000000000E+00  0.15105409774E+04  0.15105409774E+04  0.00000000000E+00 0.  1.
         21   -1    0    0  501  503 -0.00000000000E+00 -0.00000000000E+00 -0.62724833806E+02  0.62724833806E+02  0.00000000000E+00 0.  1.
          6    1    1    2  501    0 -0.10362992635E+03 -0.11209429161E+01  0.12961526319E+03  0.23972804300E+03  0.17300000000E+03 0.  1.
         -6    1    1    2    0  502  0.10362992635E+03  0.11209429161E+01  0.13182008804E+04  0.13335377682E+04  0.17300000000E+03 0.  1.
<mgrwt>
<rscale>  2 0.20166660E+03</rscale>
<asrwt>0</asrwt>
<pdfrwt beam="1">  1       21 0.23239089E+00 0.20166660E+03</pdfrwt>
<pdfrwt beam="2">  1       21 0.96499756E-02 0.20166660E+03</pdfrwt>
<totfact> 0.72486474E+03</totfact>
</mgrwt>
</event>
<event>
 4    1  0.3876841E+000  0.2547388E+03  0.7546771E-02  0.1110346E+00
         21   -1    0    0  503  502  0.00000000000E+00  0.00000000000E+00  0.24674902120E+03  0.24674902120E+03  0.00000000000E+00 0. -1.
         21   -1    0    0  501  503 -0.00000000000E+00 -0.00000000000E+00 -0.26531942231E+03  0.26531942231E+03  0.00000000000E+00 0. -1.
          6    1    1    2  501    0 -0.57728405242E+02  0.17784905267E+03 -0.33289601802E+02  0.25690475257E+03  0.17300000000E+03 0. -1.
         -6    1    1    2    0  502  0.57728405242E+02 -0.17784905267E+03  0.14719200689E+02  0.25516369094E+03  0.17300000000E+03 0. -1.
<mgrwt>
<rscale>  2 0.25473880E+03</rscale>
<asrwt>0</asrwt>
<pdfrwt beam="1">  1       21 0.37961388E-01 0.25473880E+03</pdfrwt>
<pdfrwt beam="2">  1       21 0.40818372E-01 0.25473880E+03</pdfrwt>
<totfact> 0.37579255E+04</totfact>
</mgrwt>
</event>
<event>
 4    1  0.3876841E+000  0.2374964E+03  0.7546771E-02  0.1121472E+00
         21   -1    0    0  503  502  0.00000000000E+00  0.00000000000E+00  0.51059756039E+02  0.51059756039E+02  0.00000000000E+00 0.  1.
         21   -1    0    0  501  503 -0.00000000000E+00 -0.00000000000E+00 -0.19255377021E+04  0.19255377021E+04  0.00000000000E+00 0. -1.
          6    1    1    2  501    0 -0.16030360261E+03  0.27898346005E+02 -0.15825169284E+04  0.16002388544E+04  0.17300000000E+03 0. -1.
         -6    1    1    2    0  502  0.16030360261E+03 -0.27898346005E+02 -0.29196101769E+03  0.37635860369E+03  0.17300000000E+03 0.  1.
<mgrwt>
<rscale>  2 0.23749645E+03</rscale>
<asrwt>0</asrwt>
<pdfrwt beam="1">  1       21 0.78553471E-02 0.23749645E+03</pdfrwt>
<pdfrwt beam="2">  1       21 0.29623657E+00 0.23749645E+03</pdfrwt>
<totfact> 0.42372945E+03</totfact>
</mgrwt>
</event>
<event>
 4    1  0.3876841E+000  0.2004743E+03  0.7546771E-02  0.1149339E+00
         21   -1    0    0  501  502  0.00000000000E+00  0.00000000000E+00  0.21371810375E+04  0.21371810375E+04  0.00000000000E+00 0.  1.
         21   -1    0    0  502  503 -0.00000000000E+00 -0.00000000000E+00 -0.20788716058E+02  0.20788716058E+02  0.00000000000E+00 0. -1.
          6    1    1    2  501    0  0.52499838930E+02  0.86629746903E+02  0.72490167485E+03  0.75211194934E+03  0.17300000000E+03 0.  1.
         -6    1    1    2    0  503 -0.52499838930E+02 -0.86629746903E+02  0.13914906466E+04  0.14058578042E+04  0.17300000000E+03 0.  1.
<mgrwt>
<rscale>  2 0.20047430E+03</rscale>
<asrwt>0</asrwt>
<pdfrwt beam="1">  1       21 0.32879691E+00 0.20047430E+03</pdfrwt>
<pdfrwt beam="2">  1       21 0.31982657E-02 0.20047430E+03</pdfrwt>
<totfact> 0.13130230E+04</totfact>
</mgrwt>
</event>
<event>
 4    1  0.3876841E+000  0.1772901E+03  0.7546771E-02  0.1170452E+00
         21   -1    0    0  503  502  0.00000000000E+00  0.00000000000E+00  0.36595982803E+03  0.36595982803E+03  0.00000000000E+00 0.  1.
         21   -1    0    0  501  503 -0.00000000000E+00 -0.00000000000E+00 -0.88015340499E+02  0.88015340499E+02  0.00000000000E+00 0.  1.
          6    1    1    2  501    0  0.36958198477E+02  0.11699927653E+02  0.10368849359E+03  0.20538524885E+03  0.17300000000E+03 0.  1.
         -6    1    1    2    0  502 -0.36958198477E+02 -0.11699927653E+02  0.17425599394E+03  0.24858991968E+03  0.17300000000E+03 0.  1.
<mgrwt>
<rscale>  2 0.17729015E+03</rscale>
<asrwt>0</asrwt>
<pdfrwt beam="1">  1       21 0.56301511E-01 0.17729015E+03</pdfrwt>
<pdfrwt beam="2">  1       21 0.13540822E-01 0.17729015E+03</pdfrwt>
<totfact> 0.14091936E+05</totfact>
</mgrwt>
</event>
<event>
 4    1  0.3876841E+000  0.3224272E+03  0.7546771E-02  0.1074538E+00
         21   -1    0    0  501  502  0.00000000000E+00  0.00000000000E+00  0.79700971061E+03  0.79700971061E+03  0.00000000000E+00 0.  1.
         21   -1    0    0  502  503 -0.00000000000E+00 -0.00000000000E+00 -0.15445104277E+03  0.15445104277E+03  0.00000000000E+00 0.  1.
          6    1    1    2  501    0 -0.23456987665E+02  0.27107207404E+03  0.50886558561E+03  0.60241471082E+03  0.17300000000E+03 0.  1.
         -6    1    1    2    0  503  0.23456987665E+02 -0.27107207404E+03  0.13369308223E+03  0.34904604256E+03  0.17300000000E+03 0.  1.
<mgrwt>
<rscale>  2 0.32242720E+03</rscale>
<asrwt>0</asrwt>
<pdfrwt beam="1">  1       21 0.12261688E+00 0.32242720E+03</pdfrwt>
<pdfrwt beam="2">  1       21 0.23761699E-01 0.32242720E+03</pdfrwt>
<totfact> 0.77349625E+03</totfact>
</mgrwt>
</event>
<event>
 4    1  0.3876841E+000  0.2113098E+03  0.7546771E-02  0.1140533E+00
         21   -1    0    0  503  502  0.00000000000E+00  0.00000000000E+00  0.11803752190E+04  0.11803752190E+04  0.00000000000E+00 0. -1.
         21   -1    0    0  501  503 -0.00000000000E+00 -0.00000000000E+00 -0.11456328395E+03  0.11456328395E+03  0.00000000000E+00 0.  1.
          6    1    1    2  501    0 -0.29153944831E+02  0.11778312665E+03  0.30076087280E+01  0.21133116934E+03  0.17300000000E+03 0.  1.
         -6    1    1    2    0  502  0.29153944831E+02 -0.11778312665E+03  0.10628043264E+04  0.10836073337E+04  0.17300000000E+03 0. -1.
<mgrwt>
<rscale>  2 0.21130977E+03</rscale>
<asrwt>0</asrwt>
<pdfrwt beam="1">  1       21 0.18159618E+00 0.21130977E+03</pdfrwt>
<pdfrwt beam="2">  1       21 0.17625121E-01 0.21130977E+03</pdfrwt>
<totfact> 0.50970353E+03</totfact>
</mgrwt>
</event>
<event>
 4    1  0.3876841E+000  0.2589244E+03  0.7546771E-02  0.1107791E+00
         21   -1    0    0  501  502  0.00000000000E+00  0.00000000000E+00  0.57829261953E+03  0.57829261953E+03  0.00000000000E+00 0.  1.
         21   -1    0    0  502  503 -0.00000000000E+00 -0.00000000000E+00 -0.11791049260E+03  0.11791049260E+03  0.00000000000E+00 0.  1.
          6    1    1    2  501    0  0.18228046980E+03  0.62343121371E+02  0.27529827535E+03  0.37792985442E+03  0.17300000000E+03 0.  1.
         -6    1    1    2    0  503 -0.18228046980E+03 -0.62343121371E+02  0.18508385159E+03  0.31827325771E+03  0.17300000000E+03 0.  1.
<mgrwt>
<rscale>  2 0.25892438E+03</rscale>
<asrwt>0</asrwt>
<pdfrwt beam="1">  1       21 0.88968094E-01 0.25892438E+03</pdfrwt>
<pdfrwt beam="2">  1       21 0.18140076E-01 0.25892438E+03</pdfrwt>
<totfact> 0.28872314E+04</totfact>
</mgrwt>
</event>
<event>
 4    1  0.3876841E+000  0.1780149E+03  0.7546771E-02  0.1169738E+00
         21   -1    0    0  501  502  0.00000000000E+00  0.00000000000E+00  0.36352366415E+03  0.36352366415E+03  0.00000000000E+00 0. -1.
         21   -1    0    0  502  503 -0.00000000000E+00 -0.00000000000E+00 -0.17682536762E+03  0.17682536762E+03  0.00000000000E+00 0. -1.
          6    1    1    2  501    0 -0.13704695101E+01 -0.41933621949E+02  0.28572649108E+03  0.33664363136E+03  0.17300000000E+03 0. -1.
         -6    1    1    2    0  503  0.13704695101E+01  0.41933621949E+02 -0.99028194544E+02  0.20370540040E+03  0.17300000000E+03 0. -1.
<mgrwt>
<rscale>  2 0.17801491E+03</rscale>
<asrwt>0</asrwt>
<pdfrwt beam="1">  1       21 0.55926717E-01 0.17801491E+03</pdfrwt>
<pdfrwt beam="2">  1       21 0.27203903E-01 0.17801491E+03</pdfrwt>
<totfact> 0.39071202E+04</totfact>
</mgrwt>
</event>
<event>
 4    1  0.3876841E+000  0.3840151E+03  0.7546771E-02  0.1049460E+00
         21   -1    0    0  503  502  0.00000000000E+00  0.00000000000E+00  0.33293865663E+03  0.33293865663E+03  0.00000000000E+00 0. -1.
         21   -1    0    0  501  503 -0.00000000000E+00 -0.00000000000E+00 -0.44677098567E+03  0.44677098567E+03  0.00000000000E+00 0.  1.
          6    1    1    2  501    0 -0.27870270977E+03  0.19965818381E+03 -0.93077075212E+02  0.39513406930E+03  0.17300000000E+03 0.  1.
         -6    1    1    2    0  502  0.27870270977E+03 -0.19965818381E+03 -0.20755253829E+02  0.38457557301E+03  0.17300000000E+03 0. -1.
<mgrwt>
<rscale>  2 0.38401509E+03</rscale>
<asrwt>0</asrwt>
<pdfrwt beam="1">  1       21 0.51221332E-01 0.38401509E+03</pdfrwt>
<pdfrwt beam="2">  1       21 0.68733998E-01 0.38401509E+03</pdfrwt>
<totfact> 0.63184630E+03</totfact>
</mgrwt>
</event>
<event>
 4    1  0.3876841E+000  0.1932253E+03  0.7546771E-02  0.1155584E+00
         21   -1    0    0  503  502  0.00000000000E+00  0.00000000000E+00  0.10283006089E+03  0.10283006089E+03  0.00000000000E+00 0. -1.
         21   -1    0    0  501  503 -0.00000000000E+00 -0.00000000000E+00 -0.37386359734E+03  0.37386359734E+03  0.00000000000E+00 0.  1.
          6    1    1    2  501    0  0.62340721371E+02  0.59335151974E+02 -0.95046211911E+02  0.21533649992E+03  0.17300000000E+03 0. -1.
         -6    1    1    2    0  502 -0.62340721371E+02 -0.59335151974E+02 -0.17598732453E+03  0.26135715830E+03  0.17300000000E+03 0. -1.
<mgrwt>
<rscale>  2 0.19322532E+03</rscale>
<asrwt>0</asrwt>
<pdfrwt beam="1">  1       21 0.15820009E-01 0.19322532E+03</pdfrwt>
<pdfrwt beam="2">  1       21 0.57517476E-01 0.19322532E+03</pdfrwt>
<totfact> 0.10095328E+05</totfact>
</mgrwt>
</event>
<event>
 4    1  0.3876841E+000  0.1747703E+03  0.7546771E-02  0.1172963E+00
         21   -1    0    0  503  502  0.00000000000E+00  0.00000000000E+00  0.26674079546E+03  0.26674079546E+03  0.00000000000E+00 0. -1.
         21   -1    0    0  501  503 -0.00000000000E+00 -0.00000000000E+00 -0.19034565529E+03  0.19034565529E+03  0.00000000000E+00 0. -1.
          6    1    1    2  501    0 -0.86087376310E+00 -0.24797165684E+02 -0.10605778954E+03  0.20443310704E+03  0.17300000000E+03 0. -1.
         -6    1    1    2    0  502  0.86087376310E+00  0.24797165684E+02  0.18245292972E+03  0.25265334372E+03  0.17300000000E+03 0. -1.
<mgrwt>
<rscale>  2 0.17477025E+03</rscale>
<asrwt>0</asrwt>
<pdfrwt beam="1">  1       21 0.41037046E-01 0.17477025E+03</pdfrwt>
<pdfrwt beam="2">  1       21 0.29283947E-01 0.17477025E+03</pdfrwt>
<totfact> 0.64386068E+04</totfact>
</mgrwt>
</event>
<event>
 4    1  0.3876841E+000  0.1789883E+03  0.7546771E-02  0.1168786E+00
         21   -1    0    0  501  502  0.00000000000E+00  0.00000000000E+00  0.13921443918E+04  0.13921443918E+04  0.00000000000E+00 0. -1.
         21   -1    0    0  502  503 -0.00000000000E+00 -0.00000000000E+00 -0.33639977992E+02  0.33639977992E+02  0.00000000000E+00 0. -1.
          6    1    1    2  501    0  0.45860717918E+02  0.21441436530E+01  0.10799435277E+04  0.10946756715E+04  0.17300000000E+03 0.  1.
         -6    1    1    2    0  503 -0.45860717918E+02 -0.21441436530E+01  0.27856088610E+03  0.33110869826E+03  0.17300000000E+03 0.  1.
<mgrwt>
<rscale>  2 0.17898828E+03</rscale>
<asrwt>0</asrwt>
<pdfrwt beam="1">  1       21 0.21417602E+00 0.17898828E+03</pdfrwt>
<pdfrwt beam="2">  1       21 0.51753823E-02 0.17898828E+03</pdfrwt>
<totfact> 0.28016578E+04</totfact>
</mgrwt>
</event>
<event>
 4    1  0.3876841E+000  0.1805233E+03  0.7546771E-02  0.1167298E+00
         21   -1    0    0  503  502  0.00000000000E+00  0.00000000000E+00  0.84005881257E+02  0.84005881257E+02  0.00000000000E+00 0.  1.
         21   -1    0    0  501  503 -0.00000000000E+00 -0.00000000000E+00 -0.18792607710E+04  0.18792607710E+04  0.00000000000E+00 0.  1.
          6    1    1    2  501    0 -0.31759703166E+02  0.40632205983E+02 -0.17720922205E+04  0.17812634541E+04  0.17300000000E+03 0.  1.
         -6    1    1    2    0  502  0.31759703166E+02 -0.40632205983E+02 -0.23162669277E+02  0.18200319820E+03  0.17300000000E+03 0.  1.
<mgrwt>
<rscale>  2 0.18052328E+03</rscale>
<asrwt>0</asrwt>
<pdfrwt beam="1">  1       21 0.12923980E-01 0.18052328E+03</pdfrwt>
<pdfrwt beam="2">  1       21 0.28911707E+00 0.18052328E+03</pdfrwt>
<totfact> 0.20573592E+03</totfact>
</mgrwt>
</event>
<event>
 4    1  0.3876841E+000  0.1968261E+03  0.7546771E-02  0.1152445E+00
         21   -1    0    0  501  502  0.00000000000E+00  0.00000000000E+00  0.23249859860E+03  0.23249859860E+03  0.00000000000E+00 0.  1.
         21   -1    0    0  502  503 -0.00000000000E+00 -0.00000000000E+00 -0.17418236436E+03  0.17418236436E+03  0.00000000000E+00 0. -1.
          6    1    1    2  501    0 -0.93474277962E+02  0.86066400764E+01  0.71508082545E+02  0.20941327743E+03  0.17300000000E+03 0. -1.
         -6    1    1    2    0  503  0.93474277962E+02 -0.86066400764E+01 -0.13191848311E+02  0.19726768553E+03  0.17300000000E+03 0. -1.
<mgrwt>
<rscale>  2 0.19682610E+03</rscale>
<asrwt>0</asrwt>
<pdfrwt beam="1">  1       21 0.35769015E-01 0.19682610E+03</pdfrwt>
<pdfrwt beam="2">  1       21 0.26797287E-01 0.19682610E+03</pdfrwt>
<totfact> 0.99772489E+04</totfact>
</mgrwt>
</event>
<event>
 4    1  0.3876841E+000  0.1971799E+03  0.7546771E-02  0.1152140E+00
         21   -1    0    0  503  502  0.00000000000E+00  0.00000000000E+00  0.13611936135E+04  0.13611936135E+04  0.00000000000E+00 0.  1.
         21   -1    0    0  501  503 -0.00000000000E+00 -0.00000000000E+00 -0.29094362083E+02  0.29094362083E+02  0.00000000000E+00 0.  1.
          6    1    1    2  501    0  0.64405232784E+02 -0.69302807105E+02  0.57211545050E+03  0.60514130729E+03  0.17300000000E+03 0.  1.
         -6    1    1    2    0  502 -0.64405232784E+02  0.69302807105E+02  0.75998380090E+03  0.78514666828E+03  0.17300000000E+03 0.  1.
<mgrwt>
<rscale>  2 0.19717990E+03</rscale>
<asrwt>0</asrwt>
<pdfrwt beam="1">  1       21 0.20941435E+00 0.19717990E+03</pdfrwt>
<pdfrwt beam="2">  1       21 0.44760568E-02 0.19717990E+03</pdfrwt>
<totfact> 0.37836011E+04</totfact>
</mgrwt>
</event>
<event>
 4    1  0.3876841E+000  0.2585163E+03  0.7546771E-02  0.1108038E+00
         21   -1    0    0  501  502  0.00000000000E+00  0.00000000000E+00  0.17761865393E+03  0.17761865393E+03  0.00000000000E+00 0.  1.
         21   -1    0    0  502  503 -0.00000000000E+00 -0.00000000000E+00 -0.60404222467E+03  0.60404222467E+03  0.00000000000E+00 0.  1.
          6    1    1    2  501    0 -0.15455473754E+03 -0.11408126057E+03  0.26790374588E+02  0.25990079854E+03  0.17300000000E+03 0.  1.
         -6    1    1    2    0  503  0.15455473754E+03  0.11408126057E+03 -0.45321394533E+03  0.52176008007E+03  0.17300000000E+03 0.  1.
<mgrwt>
<rscale>  2 0.25851635E+03</rscale>
<asrwt>0</asrwt>
<pdfrwt beam="1">  1       21 0.27325946E-01 0.25851635E+03</pdfrwt>
<pdfrwt beam="2">  1       21 0.92929574E-01 0.25851635E+03</pdfrwt>
<totfact> 0.11969764E+04</totfact>
</mgrwt>
</event>
<event>
 4    1  0.3876841E+000  0.1799103E+03  0.7546771E-02  0.1167890E+00
         21   -1    0    0  501  502  0.00000000000E+00  0.00000000000E+00  0.29907623285E+03  0.29907623285E+03  0.00000000000E+00 0. -1.
         21   -1    0    0  502  503 -0.00000000000E+00 -0.00000000000E+00 -0.10852376239E+03  0.10852376239E+03  0.00000000000E+00 0. -1.
          6    1    1    2  501    0  0.49139656130E+02  0.48982149907E+01  0.84593466104E+02  0.19880581687E+03  0.17300000000E+03 0. -1.
         -6    1    1    2    0  503 -0.49139656130E+02 -0.48982149907E+01  0.10595900436E+03  0.20879417836E+03  0.17300000000E+03 0. -1.
<mgrwt>
<rscale>  2 0.17991025E+03</rscale>
<asrwt>0</asrwt>
<pdfrwt beam="1">  1       21 0.46011728E-01 0.17991025E+03</pdfrwt>
<pdfrwt beam="2">  1       21 0.16695964E-01 0.17991025E+03</pdfrwt>
<totfact> 0.14659710E+05</totfact>
</mgrwt>
</event>
<event>
 4    1  0.3876841E+000  0.2134677E+03  0.7546771E-02  0.1138849E+00
         21   -1    0    0  503  502  0.00000000000E+00  0.00000000000E+00  0.62675356690E+02  0.62675356690E+02  0.00000000000E+00 0.  1.
         21   -1    0    0  501  503 -0.00000000000E+00 -0.00000000000E+00 -0.85138851476E+03  0.85138851476E+03  0.00000000000E+00 0.  1.
          6    1    1    2  501    0  0.12304088057E+03 -0.22370095987E+02 -0.56900932632E+03  0.60773357068E+03  0.17300000000E+03 0.  1.
         -6    1    1    2    0  502 -0.12304088057E+03  0.22370095987E+02 -0.21970383175E+03  0.30633030077E+03  0.17300000000E+03 0.  1.
<mgrwt>
<rscale>  2 0.21346775E+03</rscale>
<asrwt>0</asrwt>
<pdfrwt beam="1">  1       21 0.96423633E-02 0.21346775E+03</pdfrwt>
<pdfrwt beam="2">  1       21 0.13098284E+00 0.21346775E+03</pdfrwt>
<totfact> 0.36265135E+04</totfact>
</mgrwt>
</event>
<event>
 4    1  0.3876841E+000  0.1732985E+03  0.7546771E-02  0.1174451E+00
         21   -1    0    0  501  502  0.00000000000E+00  0.00000000000E+00  0.12893822635E+04  0.12893822635E+04  0.00000000000E+00 0.  1.
         21   -1    0    0  502  503 -0.00000000000E+00 -0.00000000000E+00 -0.43597896941E+02  0.43597896941E+02  0.00000000000E+00 0.  1.
          6    1    1    2  501    0 -0.74909516681E+01  0.68735716819E+01  0.10777455767E+04  0.10915896154E+04  0.17300000000E+03 0.  1.
         -6    1    1    2    0  503  0.74909516681E+01 -0.68735716819E+01  0.16803878990E+03  0.24139054508E+03  0.17300000000E+03 0.  1.
<mgrwt>
<rscale>  2 0.17329847E+03</rscale>
<asrwt>0</asrwt>
<pdfrwt beam="1">  1       21 0.19836647E+00 0.17329847E+03</pdfrwt>
<pdfrwt beam="2">  1       21 0.67073697E-02 0.17329847E+03</pdfrwt>
<totfact> 0.22732004E+04</totfact>
</mgrwt>
</event>
<event>
 4    1  0.3876841E+000  0.1757781E+03  0.7546771E-02  0.1171953E+00
         21   -1    0    0  503  502  0.00000000000E+00  0.00000000000E+00  0.21683084806E+03  0.21683084806E+03  0.00000000000E+00 0.  1.
         21   -1    0    0  501  503 -0.00000000000E+00 -0.00000000000E+00 -0.16515313766E+03  0.16515313766E+03  0.00000000000E+00 0.  1.
          6    1    1    2  501    0 -0.14482868030E+02  0.27553043195E+02 -0.44899800399E+02  0.18142192737E+03  0.17300000000E+03 0.  1.
         -6    1    1    2    0  502  0.14482868030E+02 -0.27553043195E+02  0.96577510800E+02  0.20056205835E+03  0.17300000000E+03 0.  1.
<mgrwt>
<rscale>  2 0.17577805E+03</rscale>
<asrwt>0</asrwt>
<pdfrwt beam="1">  1       21 0.33358592E-01 0.17577805E+03</pdfrwt>
<pdfrwt beam="2">  1       21 0.25408175E-01 0.17577805E+03</pdfrwt>
<totfact> 0.12783050E+05</totfact>
</mgrwt>
</event>
<event>
 4    1  0.3876841E+000  0.2236974E+03  0.7546771E-02  0.1131156E+00
         21   -1    0    0  503  502  0.00000000000E+00  0.00000000000E+00  0.10134291886E+04  0.10134291886E+04  0.00000000000E+00 0. -1.
         21   -1    0    0  501  503 -0.00000000000E+00 -0.00000000000E+00 -0.58077790065E+02  0.58077790065E+02  0.00000000000E+00 0.  1.
          6    1    1    2  501    0 -0.67097711120E+02 -0.12493760992E+03  0.27031375172E+03  0.35087039427E+03  0.17300000000E+03 0.  1.
         -6    1    1    2    0  502  0.67097711120E+02  0.12493760992E+03  0.68503764683E+03  0.72063658441E+03  0.17300000000E+03 0. -1.
<mgrwt>
<rscale>  2 0.22369736E+03</rscale>
<asrwt>0</asrwt>
<pdfrwt beam="1">  1       21 0.15591217E+00 0.22369736E+03</pdfrwt>
<pdfrwt beam="2">  1       21 0.89350454E-02 0.22369736E+03</pdfrwt>
<totfact> 0.26178877E+04</totfact>
</mgrwt>
</event>
<event>
 4    1  0.3876841E+000  0.1873494E+03  0.7546771E-02  0.1160874E+00
         21   -1    0    0  501  502  0.00000000000E+00  0.00000000000E+00  0.23861708200E+03  0.23861708200E+03  0.00000000000E+00 0.  1.
         21   -1    0    0  502  503 -0.00000000000E+00 -0.00000000000E+00 -0.48411827091E+03  0.48411827091E+03  0.00000000000E+00 0.  1.
          6    1    1    2  501    0 -0.20333344733E+02 -0.68973640567E+02  0.17875984563E+03  0.25894959048E+03  0.17300000000E+03 0.  1.
         -6    1    1    2    0  503  0.20333344733E+02  0.68973640567E+02 -0.42426103454E+03  0.46378576243E+03  0.17300000000E+03 0.  1.
<mgrwt>
<rscale>  2 0.18734943E+03</rscale>
<asrwt>0</asrwt>
<pdfrwt beam="1">  1       21 0.36710321E-01 0.18734943E+03</pdfrwt>
<pdfrwt beam="2">  1       21 0.74479734E-01 0.18734943E+03</pdfrwt>
<totfact> 0.11597361E+04</totfact>
</mgrwt>
</event>
<event>
 4    1  0.3876841E+000  0.1966493E+03  0.7546771E-02  0.1152597E+00
         21   -1    0    0  501  502  0.00000000000E+00  0.00000000000E+00  0.46148734825E+02  0.46148734825E+02  0.00000000000E+00 0. -1.
         21   -1    0    0  502  503 -0.00000000000E+00 -0.00000000000E+00 -0.14677612264E+04  0.14677612264E+04  0.00000000000E+00 0. -1.
          6    1    1    2  501    0 -0.55561302037E+01  0.93333180814E+02 -0.21496470819E+03  0.29134306065E+03  0.17300000000E+03 0. -1.
         -6    1    1    2    0  503  0.55561302037E+01 -0.93333180814E+02 -0.12066477833E+04  0.12225669005E+04  0.17300000000E+03 0. -1.
<mgrwt>
<rscale>  2 0.19664932E+03</rscale>
<asrwt>0</asrwt>
<pdfrwt beam="1">  1       21 0.70998047E-02 0.19664932E+03</pdfrwt>
<pdfrwt beam="2">  1       21 0.22580944E+00 0.19664932E+03</pdfrwt>
<totfact> 0.13638324E+04</totfact>
</mgrwt>
</event>
<event>
 4    1  0.3876841E+000  0.2102550E+03  0.7546771E-02  0.1141364E+00
         21   -1    0    0  503  502  0.00000000000E+00  0.00000000000E+00  0.30343581052E+03  0.30343581052E+03  0.00000000000E+00 0.  1.
         21   -1    0    0  501  503 -0.00000000000E+00 -0.00000000000E+00 -0.16442966032E+03  0.16442966032E+03  0.00000000000E+00 0.  1.
          6    1    1    2  501    0  0.45682028554E+02 -0.11041425704E+03 -0.94733245951E+01  0.21046828685E+03  0.17300000000E+03 0.  1.
         -6    1    1    2    0  502 -0.45682028554E+02  0.11041425704E+03  0.14847947480E+03  0.25739718399E+03  0.17300000000E+03 0.  1.
<mgrwt>
<rscale>  2 0.21025498E+03</rscale>
<asrwt>0</asrwt>
<pdfrwt beam="1">  1       21 0.46682432E-01 0.21025498E+03</pdfrwt>
<pdfrwt beam="2">  1       21 0.25296871E-01 0.21025498E+03</pdfrwt>
<totfact> 0.64550218E+04</totfact>
</mgrwt>
</event>
<event>
 4    1  0.3876841E+000  0.2224948E+03  0.7546771E-02  0.1132037E+00
         21   -1    0    0  501  502  0.00000000000E+00  0.00000000000E+00  0.31238657658E+03  0.31238657658E+03  0.00000000000E+00 0. -1.
         21   -1    0    0  502  503 -0.00000000000E+00 -0.00000000000E+00 -0.19003374288E+03  0.19003374288E+03  0.00000000000E+00 0. -1.
          6    1    1    2  501    0  0.50209546000E+02 -0.13059067844E+03  0.16355652410E+03  0.27614246392E+03  0.17300000000E+03 0. -1.
         -6    1    1    2    0  503 -0.50209546000E+02  0.13059067844E+03 -0.41203690392E+02  0.22627785554E+03  0.17300000000E+03 0. -1.
<mgrwt>
<rscale>  2 0.22249477E+03</rscale>
<asrwt>0</asrwt>
<pdfrwt beam="1">  1       21 0.48059473E-01 0.22249477E+03</pdfrwt>
<pdfrwt beam="2">  1       21 0.29235961E-01 0.22249477E+03</pdfrwt>
<totfact> 0.45695441E+04</totfact>
</mgrwt>
</event>
<event>
 4    1  0.3876841E+000  0.2117271E+03  0.7546771E-02  0.1140206E+00
         21   -1    0    0  501  502  0.00000000000E+00  0.00000000000E+00  0.95145948560E+03  0.95145948560E+03  0.00000000000E+00 0.  1.
         21   -1    0    0  502  503 -0.00000000000E+00 -0.00000000000E+00 -0.40277984203E+03  0.40277984203E+03  0.00000000000E+00 0.  1.
          6    1    1    2  501    0  0.12139984542E+03  0.12705360366E+02  0.91062501324E+03  0.93491511026E+03  0.17300000000E+03 0.  1.
         -6    1    1    2    0  503 -0.12139984542E+03 -0.12705360366E+02 -0.36194536967E+03  0.41932421737E+03  0.17300000000E+03 0.  1.
<mgrwt>
<rscale>  2 0.21172706E+03</rscale>
<asrwt>0</asrwt>
<pdfrwt beam="1">  1       21 0.14637838E+00 0.21172706E+03</pdfrwt>
<pdfrwt beam="2">  1       21 0.61966130E-01 0.21172706E+03</pdfrwt>
<totfact> 0.75515076E+02</totfact>
</mgrwt>
</event>
<event>
 4    1  0.3876841E+000  0.1788122E+03  0.7546771E-02  0.1168958E+00
         21   -1    0    0  503  502  0.00000000000E+00  0.00000000000E+00  0.26096395088E+02  0.26096395088E+02  0.00000000000E+00 0. -1.
         21   -1    0    0  501  503 -0.00000000000E+00 -0.00000000000E+00 -0.12408555316E+04  0.12408555316E+04  0.00000000000E+00 0. -1.
          6    1    1    2  501    0 -0.33507466642E+02  0.30365274508E+02 -0.53626818187E+03  0.56529405012E+03  0.17300000000E+03 0. -1.
         -6    1    1    2    0  502  0.33507466642E+02 -0.30365274508E+02 -0.67849095463E+03  0.70165787656E+03  0.17300000000E+03 0. -1.
<mgrwt>
<rscale>  2 0.17881219E+03</rscale>
<asrwt>0</asrwt>
<pdfrwt beam="1">  1       21 0.40148302E-02 0.17881219E+03</pdfrwt>
<pdfrwt beam="2">  1       21 0.19090084E+00 0.17881219E+03</pdfrwt>
<totfact> 0.60430852E+04</totfact>
</mgrwt>
</event>
<event>
 4    1  0.3876841E+000  0.1800302E+03  0.7546771E-02  0.1167774E+00
         21   -1    0    0  503  502  0.00000000000E+00  0.00000000000E+00  0.24568127386E+02  0.24568127386E+02  0.00000000000E+00 0.  1.
         21   -1    0    0  501  503 -0.00000000000E+00 -0.00000000000E+00 -0.24634671113E+04  0.24634671113E+04  0.00000000000E+00 0.  1.
          6    1    1    2  501    0  0.49165604870E+02 -0.80379644738E+01 -0.20672863303E+04  0.20751105120E+04  0.17300000000E+03 0.  1.
         -6    1    1    2    0  502 -0.49165604870E+02  0.80379644738E+01 -0.37161265354E+03  0.41292472661E+03  0.17300000000E+03 0.  1.
<mgrwt>
<rscale>  2 0.18003018E+03</rscale>
<asrwt>0</asrwt>
<pdfrwt beam="1">  1       21 0.37797126E-02 0.18003018E+03</pdfrwt>
<pdfrwt beam="2">  1       21 0.37899487E+00 0.18003018E+03</pdfrwt>
<totfact> 0.51416842E+03</totfact>
</mgrwt>
</event>
<event>
 4    1  0.3876841E+000  0.2153241E+03  0.7546771E-02  0.1137418E+00
         21   -1    0    0  501  502  0.00000000000E+00  0.00000000000E+00  0.53575165711E+02  0.53575165711E+02  0.00000000000E+00 0. -1.
         21   -1    0    0  502  503 -0.00000000000E+00 -0.00000000000E+00 -0.10640171158E+04  0.10640171158E+04  0.00000000000E+00 0. -1.
          6    1    1    2  501    0  0.26270545595E+02 -0.12548044205E+03 -0.26379915543E+03  0.34052089115E+03  0.17300000000E+03 0. -1.
         -6    1    1    2    0  503 -0.26270545595E+02  0.12548044205E+03 -0.74664279465E+03  0.77707139036E+03  0.17300000000E+03 0. -1.
<mgrwt>
<rscale>  2 0.21532413E+03</rscale>
<asrwt>0</asrwt>
<pdfrwt beam="1">  1       21 0.82423324E-02 0.21532413E+03</pdfrwt>
<pdfrwt beam="2">  1       21 0.16369496E+00 0.21532413E+03</pdfrwt>
<totfact> 0.26562603E+04</totfact>
</mgrwt>
</event>
<event>
 4    1  0.3876841E+000  0.1742378E+03  0.7546771E-02  0.1173499E+00
         21   -1    0    0  503  502  0.00000000000E+00  0.00000000000E+00  0.28319268888E+02  0.28319268888E+02  0.00000000000E+00 0. -1.
         21   -1    0    0  501  503 -0.00000000000E+00 -0.00000000000E+00 -0.11504903648E+04  0.11504903648E+04  0.00000000000E+00 0. -1.
          6    1    1    2  501    0 -0.17038438956E+02  0.11811761219E+02 -0.71501604948E+03  0.73593938414E+03  0.17300000000E+03 0.  1.
         -6    1    1    2    0  502  0.17038438956E+02 -0.11811761219E+02 -0.40715504643E+03  0.44287024955E+03  0.17300000000E+03 0.  1.
<mgrwt>
<rscale>  2 0.17423784E+03</rscale>
<asrwt>0</asrwt>
<pdfrwt beam="1">  1       21 0.43568111E-02 0.17423784E+03</pdfrwt>
<pdfrwt beam="2">  1       21 0.17699850E+00 0.17423784E+03</pdfrwt>
<totfact> 0.65458060E+04</totfact>
</mgrwt>
</event>
<event>
 4    1  0.3876841E+000  0.2502376E+03  0.7546771E-02  0.1113155E+00
         21   -1    0    0  501  502  0.00000000000E+00  0.00000000000E+00  0.51995691702E+03  0.51995691702E+03  0.00000000000E+00 0.  1.
         21   -1    0    0  502  503 -0.00000000000E+00 -0.00000000000E+00 -0.12263072320E+03  0.12263072320E+03  0.00000000000E+00 0. -1.
          6    1    1    2  501    0 -0.60040476741E+02 -0.17054328397E+03  0.15563042524E+03  0.29468576453E+03  0.17300000000E+03 0. -1.
         -6    1    1    2    0  503  0.60040476741E+02  0.17054328397E+03  0.24169576859E+03  0.34790187569E+03  0.17300000000E+03 0. -1.
<mgrwt>
<rscale>  2 0.25023763E+03</rscale>
<asrwt>0</asrwt>
<pdfrwt beam="1">  1       21 0.79993371E-01 0.25023763E+03</pdfrwt>
<pdfrwt beam="2">  1       21 0.18866265E-01 0.25023763E+03</pdfrwt>
<totfact> 0.34406318E+04</totfact>
</mgrwt>
</event>
<event>
 4    1  0.3876841E+000  0.2697601E+03  0.7546771E-02  0.1101417E+00
         21   -1    0    0  503  502  0.00000000000E+00  0.00000000000E+00  0.15911479275E+03  0.15911479275E+03  0.00000000000E+00 0.  1.
         21   -1    0    0  501  503 -0.00000000000E+00 -0.00000000000E+00 -0.49643575420E+03  0.49643575420E+03  0.00000000000E+00 0.  1.
          6    1    1    2  501    0 -0.19750561111E+03 -0.61911391550E+02 -0.26063702342E+03  0.37510284563E+03  0.17300000000E+03 0.  1.
         -6    1    1    2    0  502  0.19750561111E+03  0.61911391550E+02 -0.76683938025E+02  0.28044770132E+03  0.17300000000E+03 0.  1.
<mgrwt>
<rscale>  2 0.26976005E+03</rscale>
<asrwt>0</asrwt>
<pdfrwt beam="1">  1       21 0.24479199E-01 0.26976005E+03</pdfrwt>
<pdfrwt beam="2">  1       21 0.76374730E-01 0.26976005E+03</pdfrwt>
<totfact> 0.23135408E+04</totfact>
</mgrwt>
</event>
<event>
 4    1  0.3876841E+000  0.1740835E+03  0.7546771E-02  0.1173655E+00
         21   -1    0    0  501  502  0.00000000000E+00  0.00000000000E+00  0.12588241763E+04  0.12588241763E+04  0.00000000000E+00 0.  1.
         21   -1    0    0  502  503 -0.00000000000E+00 -0.00000000000E+00 -0.81821428620E+02  0.81821428620E+02  0.00000000000E+00 0.  1.
          6    1    1    2  501    0 -0.12984812240E+02  0.14403289575E+02  0.11516414178E+04  0.11647244375E+04  0.17300000000E+03 0.  1.
         -6    1    1    2    0  503  0.12984812240E+02 -0.14403289575E+02  0.25361329891E+02  0.17592116744E+03  0.17300000000E+03 0.  1.
<mgrwt>
<rscale>  2 0.17408349E+03</rscale>
<asrwt>0</asrwt>
<pdfrwt beam="1">  1       21 0.19366524E+00 0.17408349E+03</pdfrwt>
<pdfrwt beam="2">  1       21 0.12587913E-01 0.17408349E+03</pdfrwt>
<totfact> 0.80801194E+03</totfact>
</mgrwt>
</event>
<event>
 4    1  0.3876841E+000  0.1964217E+03  0.7546771E-02  0.1152794E+00
         21   -1    0    0  501  502  0.00000000000E+00  0.00000000000E+00  0.47034606984E+03  0.47034606984E+03  0.00000000000E+00 0. -1.
         21   -1    0    0  502  503 -0.00000000000E+00 -0.00000000000E+00 -0.15224038114E+03  0.15224038114E+03  0.00000000000E+00 0. -1.
          6    1    1    2  501    0  0.90862168000E+02 -0.19913327874E+02  0.37045629433E+03  0.41930816854E+03  0.17300000000E+03 0. -1.
         -6    1    1    2    0  503 -0.90862168000E+02  0.19913327874E+02 -0.52350605629E+02  0.20327828244E+03  0.17300000000E+03 0. -1.
<mgrwt>
<rscale>  2 0.19642167E+03</rscale>
<asrwt>0</asrwt>
<pdfrwt beam="1">  1       21 0.72360933E-01 0.19642167E+03</pdfrwt>
<pdfrwt beam="2">  1       21 0.23421597E-01 0.19642167E+03</pdfrwt>
<totfact> 0.29464715E+04</totfact>
</mgrwt>
</event>
<event>
 4    1  0.3876841E+000  0.2008146E+03  0.7546771E-02  0.1149054E+00
         21   -1    0    0  503  502  0.00000000000E+00  0.00000000000E+00  0.20096477279E+03  0.20096477279E+03  0.00000000000E+00 0. -1.
         21   -1    0    0  501  503 -0.00000000000E+00 -0.00000000000E+00 -0.33907255379E+03  0.33907255379E+03  0.00000000000E+00 0.  1.
          6    1    1    2  501    0 -0.88645014160E+02 -0.50394076994E+02 -0.24156938182E+03  0.31413733902E+03  0.17300000000E+03 0.  1.
         -6    1    1    2    0  502  0.88645014160E+02  0.50394076994E+02  0.10346160082E+03  0.22589998755E+03  0.17300000000E+03 0. -1.
<mgrwt>
<rscale>  2 0.20081459E+03</rscale>
<asrwt>0</asrwt>
<pdfrwt beam="1">  1       21 0.30917657E-01 0.20081459E+03</pdfrwt>
<pdfrwt beam="2">  1       21 0.52165008E-01 0.20081459E+03</pdfrwt>
<totfact> 0.34884231E+04</totfact>
</mgrwt>
</event>
<event>
 4    1  0.3876841E+000  0.2662338E+03  0.7546771E-02  0.1103455E+00
         21   -1    0    0  503  502  0.00000000000E+00  0.00000000000E+00  0.23341784042E+03  0.23341784042E+03  0.00000000000E+00 0. -1.
         21   -1    0    0  501  503 -0.00000000000E+00 -0.00000000000E+00 -0.30366582694E+03  0.30366582694E+03  0.00000000000E+00 0.  1.
          6    1    1    2  501    0  0.23541985215E+02  0.20099052846E+03 -0.35907860381E+02  0.26864435977E+03  0.17300000000E+03 0. -1.
         -6    1    1    2    0  502 -0.23541985215E+02 -0.20099052846E+03 -0.34340126133E+02  0.26843930759E+03  0.17300000000E+03 0.  1.
<mgrwt>
<rscale>  2 0.26623376E+03</rscale>
<asrwt>0</asrwt>
<pdfrwt beam="1">  1       21 0.35910437E-01 0.26623376E+03</pdfrwt>
<pdfrwt beam="2">  1       21 0.46717819E-01 0.26623376E+03</pdfrwt>
<totfact> 0.31670677E+04</totfact>
</mgrwt>
</event>
<event>
 4    1  0.3876841E+000  0.1735845E+03  0.7546771E-02  0.1174161E+00
         21   -1    0    0  503  502  0.00000000000E+00  0.00000000000E+00  0.58176144469E+02  0.58176144469E+02  0.00000000000E+00 0. -1.
         21   -1    0    0  501  503 -0.00000000000E+00 -0.00000000000E+00 -0.57929319059E+03  0.57929319059E+03  0.00000000000E+00 0. -1.
          6    1    1    2  501    0 -0.93344908309E+01  0.10744142274E+02 -0.36428981747E+03  0.40353270056E+03  0.17300000000E+03 0. -1.
         -6    1    1    2    0  502  0.93344908309E+01 -0.10744142274E+02 -0.15682722865E+03  0.23393663450E+03  0.17300000000E+03 0. -1.
<mgrwt>
<rscale>  2 0.17358447E+03</rscale>
<asrwt>0</asrwt>
<pdfrwt beam="1">  1       21 0.89501758E-02 0.17358447E+03</pdfrwt>
<pdfrwt beam="2">  1       21 0.89122032E-01 0.17358447E+03</pdfrwt>
<totfact> 0.10681085E+05</totfact>
</mgrwt>
</event>
<event>
 4    1  0.3876841E+000  0.2398406E+03  0.7546771E-02  0.1119899E+00
         21   -1    0    0  503  502  0.00000000000E+00  0.00000000000E+00  0.87572322336E+03  0.87572322336E+03  0.00000000000E+00 0.  1.
         21   -1    0    0  501  503 -0.00000000000E+00 -0.00000000000E+00 -0.90711224685E+02  0.90711224685E+02  0.00000000000E+00 0.  1.
          6    1    1    2  501    0  0.16072807483E+03 -0.41964325250E+02  0.13870500254E+03  0.27706063662E+03  0.17300000000E+03 0.  1.
         -6    1    1    2    0  502 -0.16072807483E+03  0.41964325250E+02  0.64630699614E+03  0.68937381143E+03  0.17300000000E+03 0.  1.
<mgrwt>
<rscale>  2 0.23984061E+03</rscale>
<asrwt>0</asrwt>
<pdfrwt beam="1">  1       21 0.13472664E+00 0.23984061E+03</pdfrwt>
<pdfrwt beam="2">  1       21 0.13955574E-01 0.23984061E+03</pdfrwt>
<totfact> 0.17146495E+04</totfact>
</mgrwt>
</event>
<event>
 4    1  0.3876841E+000  0.3475763E+03  0.7546771E-02  0.1063614E+00
         21   -1    0    0  501  502  0.00000000000E+00  0.00000000000E+00  0.18372435841E+03  0.18372435841E+03  0.00000000000E+00 0. -1.
         21   -1    0    0  502  503 -0.00000000000E+00 -0.00000000000E+00 -0.65758541259E+03  0.65758541259E+03  0.00000000000E+00 0. -1.
          6    1    1    2  501    0 -0.30127775740E+03  0.10583148888E+02 -0.23968173063E+03  0.42220447907E+03  0.17300000000E+03 0. -1.
         -6    1    1    2    0  503  0.30127775740E+03 -0.10583148888E+02 -0.23417932355E+03  0.41910529193E+03  0.17300000000E+03 0. -1.
<mgrwt>
<rscale>  2 0.34757631E+03</rscale>
<asrwt>0</asrwt>
<pdfrwt beam="1">  1       21 0.28265286E-01 0.34757631E+03</pdfrwt>
<pdfrwt beam="2">  1       21 0.10116699E+00 0.34757631E+03</pdfrwt>
<totfact> 0.87856053E+03</totfact>
</mgrwt>
</event>
<event>
 4    1  0.3876841E+000  0.1942581E+03  0.7546771E-02  0.1154676E+00
         21   -1    0    0  503  502  0.00000000000E+00  0.00000000000E+00  0.62220607617E+03  0.62220607617E+03  0.00000000000E+00 0. -1.
         21   -1    0    0  501  503 -0.00000000000E+00 -0.00000000000E+00 -0.91686915005E+02  0.91686915005E+02  0.00000000000E+00 0. -1.
          6    1    1    2  501    0 -0.65804348212E+02 -0.58966221472E+02  0.57579360000E+02  0.20261196958E+03  0.17300000000E+03 0. -1.
         -6    1    1    2    0  502  0.65804348212E+02  0.58966221472E+02  0.47293980116E+03  0.51128102159E+03  0.17300000000E+03 0. -1.
<mgrwt>
<rscale>  2 0.19425815E+03</rscale>
<asrwt>0</asrwt>
<pdfrwt beam="1">  1       21 0.95724009E-01 0.19425815E+03</pdfrwt>
<pdfrwt beam="2">  1       21 0.14105680E-01 0.19425815E+03</pdfrwt>
<totfact> 0.39883112E+04</totfact>
</mgrwt>
</event>
<event>
 4    1  0.3876841E+000  0.2039810E+03  0.7546771E-02  0.1146423E+00
         21   -1    0    0  501  502  0.00000000000E+00  0.00000000000E+00  0.22482933327E+04  0.22482933327E+04  0.00000000000E+00 0.  1.
         21   -1    0    0  502  503 -0.00000000000E+00 -0.00000000000E+00 -0.24950706188E+02  0.24950706188E+02  0.00000000000E+00 0. -1.
          6    1    1    2  501    0 -0.10441874750E+03  0.27856334392E+02  0.16893099257E+04  0.17015805227E+04  0.17300000000E+03 0.  1.
         -6    1    1    2    0  503  0.10441874750E+03 -0.27856334392E+02  0.53403270085E+03  0.57166351622E+03  0.17300000000E+03 0. -1.
<mgrwt>
<rscale>  2 0.20398100E+03</rscale>
<asrwt>0</asrwt>
<pdfrwt beam="1">  1       21 0.34589112E+00 0.20398100E+03</pdfrwt>
<pdfrwt beam="2">  1       21 0.38385720E-02 0.20398100E+03</pdfrwt>
<totfact> 0.76594456E+03</totfact>
</mgrwt>
</event>
<event>
 4    1  0.3876841E+000  0.1874464E+03  0.7546771E-02  0.1160785E+00
         21   -1    0    0  503  502  0.00000000000E+00  0.00000000000E+00  0.27964983605E+03  0.27964983605E+03  0.00000000000E+00 0.  1.
         21   -1    0    0  501  503 -0.00000000000E+00 -0.00000000000E+00 -0.17797556975E+03  0.17797556975E+03  0.00000000000E+00 0. -1.
          6    1    1    2  501    0 -0.24811671295E+02 -0.67760984500E+02 -0.73237814523E+02  0.20124598761E+03  0.17300000000E+03 0. -1.
         -6    1    1    2    0  502  0.24811671295E+02  0.67760984500E+02  0.17491208083E+03  0.25637941819E+03  0.17300000000E+03 0.  1.
<mgrwt>
<rscale>  2 0.18744645E+03</rscale>
<asrwt>0</asrwt>
<pdfrwt beam="1">  1       21 0.43023051E-01 0.18744645E+03</pdfrwt>
<pdfrwt beam="2">  1       21 0.27380857E-01 0.18744645E+03</pdfrwt>
<totfact> 0.66237105E+04</totfact>
</mgrwt>
</event>
<event>
 4    1  0.3876841E+000  0.1871117E+03  0.7546771E-02  0.1161092E+00
         21   -1    0    0  501  502  0.00000000000E+00  0.00000000000E+00  0.66255126209E+02  0.66255126209E+02  0.00000000000E+00 0.  1.
         21   -1    0    0  502  503 -0.00000000000E+00 -0.00000000000E+00 -0.63000805048E+03  0.63000805048E+03  0.00000000000E+00 0.  1.
          6    1    1    2  501    0  0.16723358200E+02 -0.69297288633E+02 -0.42166887241E+03  0.46131922015E+03  0.17300000000E+03 0.  1.
         -6    1    1    2    0  503 -0.16723358200E+02  0.69297288633E+02 -0.14208405186E+03  0.23494395654E+03  0.17300000000E+03 0.  1.
<mgrwt>
<rscale>  2 0.18711169E+03</rscale>
<asrwt>0</asrwt>
<pdfrwt beam="1">  1       21 0.10193096E-01 0.18711169E+03</pdfrwt>
<pdfrwt beam="2">  1       21 0.96924315E-01 0.18711169E+03</pdfrwt>
<totfact> 0.69503612E+04</totfact>
</mgrwt>
</event>
<event>
 4    1  0.3876841E+000  0.1764417E+03  0.7546771E-02  0.1171292E+00
         21   -1    0    0  501  502  0.00000000000E+00  0.00000000000E+00  0.59597518276E+02  0.59597518276E+02  0.00000000000E+00 0.  1.
         21   -1    0    0  502  503 -0.00000000000E+00 -0.00000000000E+00 -0.61882580997E+03  0.61882580997E+03  0.00000000000E+00 0.  1.
          6    1    1    2  501    0  0.33874393952E+02 -0.74295908578E+01 -0.14568921673E+03  0.22881656683E+03  0.17300000000E+03 0.  1.
         -6    1    1    2    0  503 -0.33874393952E+02  0.74295908578E+01 -0.41353907496E+03  0.44960676141E+03  0.17300000000E+03 0.  1.
<mgrwt>
<rscale>  2 0.17644170E+03</rscale>
<asrwt>0</asrwt>
<pdfrwt beam="1">  1       21 0.91688489E-02 0.17644170E+03</pdfrwt>
<pdfrwt beam="2">  1       21 0.95203971E-01 0.17644170E+03</pdfrwt>
<totfact> 0.87748232E+04</totfact>
</mgrwt>
</event>
<event>
 4    1  0.3876841E+000  0.1878275E+03  0.7546771E-02  0.1160436E+00
         21   -1    0    0  503  502  0.00000000000E+00  0.00000000000E+00  0.43182874623E+02  0.43182874623E+02  0.00000000000E+00 0.  1.
         21   -1    0    0  501  503 -0.00000000000E+00 -0.00000000000E+00 -0.86960066606E+03  0.86960066606E+03  0.00000000000E+00 0. -1.
          6    1    1    2  501    0 -0.63329252263E+02  0.36599986841E+02 -0.52548658597E+03  0.55804597057E+03  0.17300000000E+03 0. -1.
         -6    1    1    2    0  502  0.63329252263E+02 -0.36599986841E+02 -0.30093120546E+03  0.35473757011E+03  0.17300000000E+03 0.  1.
<mgrwt>
<rscale>  2 0.18782746E+03</rscale>
<asrwt>0</asrwt>
<pdfrwt beam="1">  1       21 0.66435199E-02 0.18782746E+03</pdfrwt>
<pdfrwt beam="2">  1       21 0.13378470E+00 0.18782746E+03</pdfrwt>
<totfact> 0.66700296E+04</totfact>
</mgrwt>
</event>
<event>
 4    1  0.3876841E+000  0.2110624E+03  0.7546771E-02  0.1140727E+00
         21   -1    0    0  503  502  0.00000000000E+00  0.00000000000E+00  0.58691592874E+03  0.58691592874E+03  0.00000000000E+00 0.  1.
         21   -1    0    0  501  503 -0.00000000000E+00 -0.00000000000E+00 -0.28425872623E+03  0.28425872623E+03  0.00000000000E+00 0.  1.
          6    1    1    2  501    0 -0.11885282194E+03  0.22189084499E+02 -0.22159804650E+03  0.30602784672E+03  0.17300000000E+03 0.  1.
         -6    1    1    2    0  502  0.11885282194E+03 -0.22189084499E+02  0.52425524902E+03  0.56514680825E+03  0.17300000000E+03 0.  1.
<mgrwt>
<rscale>  2 0.21106243E+03</rscale>
<asrwt>0</asrwt>
<pdfrwt beam="1">  1       21 0.90294758E-01 0.21106243E+03</pdfrwt>
<pdfrwt beam="2">  1       21 0.43732112E-01 0.21106243E+03</pdfrwt>
<totfact> 0.51652233E+03</totfact>
</mgrwt>
</event>
<event>
 4    1  0.3876841E+000  0.2237249E+03  0.7546771E-02  0.1131136E+00
         21   -1    0    0  503  502  0.00000000000E+00  0.00000000000E+00  0.11613026701E+04  0.11613026701E+04  0.00000000000E+00 0. -1.
         21   -1    0    0  501  503 -0.00000000000E+00 -0.00000000000E+00 -0.46188385274E+02  0.46188385274E+02  0.00000000000E+00 0.  1.
          6    1    1    2  501    0 -0.69456086926E+02 -0.12369187523E+03  0.71366038405E+03  0.74790639238E+03  0.17300000000E+03 0.  1.
         -6    1    1    2    0  502  0.69456086926E+02  0.12369187523E+03  0.40145390080E+03  0.45958466301E+03  0.17300000000E+03 0.  1.
<mgrwt>
<rscale>  2 0.22372489E+03</rscale>
<asrwt>0</asrwt>
<pdfrwt beam="1">  1       21 0.17866193E+00 0.22372489E+03</pdfrwt>
<pdfrwt beam="2">  1       21 0.71059063E-02 0.22372489E+03</pdfrwt>
<totfact> 0.26833861E+04</totfact>
</mgrwt>
</event>
<event>
 4    1  0.3876841E+000  0.2957088E+03  0.7546771E-02  0.1087406E+00
         21   -1    0    0  501  502  0.00000000000E+00  0.00000000000E+00  0.26920400465E+04  0.26920400465E+04  0.00000000000E+00 0.  1.
         21   -1    0    0  502  503 -0.00000000000E+00 -0.00000000000E+00 -0.77938831347E+02  0.77938831347E+02  0.00000000000E+00 0. -1.
          6    1    1    2  501    0  0.53381682872E+02 -0.23380564228E+03  0.23647630427E+04  0.23831802136E+04  0.17300000000E+03 0.  1.
         -6    1    1    2    0  503 -0.53381682872E+02  0.23380564228E+03  0.24933817250E+03  0.38679866429E+03  0.17300000000E+03 0. -1.
<mgrwt>
<rscale>  2 0.29570878E+03</rscale>
<asrwt>0</asrwt>
<pdfrwt beam="1">  1       21 0.41415993E+00 0.29570878E+03</pdfrwt>
<pdfrwt beam="2">  1       21 0.11990592E-01 0.29570878E+03</pdfrwt>
<totfact> 0.36389196E+02</totfact>
</mgrwt>
</event>
<event>
 4    1  0.3876841E+000  0.2714037E+03  0.7546771E-02  0.1100479E+00
         21   -1    0    0  503  502  0.00000000000E+00  0.00000000000E+00  0.61664037355E+03  0.61664037355E+03  0.00000000000E+00 0.  1.
         21   -1    0    0  501  503 -0.00000000000E+00 -0.00000000000E+00 -0.18720713513E+03  0.18720713513E+03  0.00000000000E+00 0. -1.
          6    1    1    2  501    0  0.28689515923E+00 -0.20911927912E+03  0.45651213033E+03  0.53109630044E+03  0.17300000000E+03 0.  1.
         -6    1    1    2    0  502 -0.28689515923E+00  0.20911927912E+03 -0.27078891904E+02  0.27275120823E+03  0.17300000000E+03 0. -1.
<mgrwt>
<rscale>  2 0.27140368E+03</rscale>
<asrwt>0</asrwt>
<pdfrwt beam="1">  1       21 0.94867749E-01 0.27140368E+03</pdfrwt>
<pdfrwt beam="2">  1       21 0.28801098E-01 0.27140368E+03</pdfrwt>
<totfact> 0.10222418E+04</totfact>
</mgrwt>
</event>
<event>
 4    1  0.3876841E+000  0.1857437E+03  0.7546771E-02  0.1162357E+00
         21   -1    0    0  503  502  0.00000000000E+00  0.00000000000E+00  0.34427787968E+02  0.34427787968E+02  0.00000000000E+00 0.  1.
         21   -1    0    0  501  503 -0.00000000000E+00 -0.00000000000E+00 -0.10158650828E+04  0.10158650828E+04  0.00000000000E+00 0.  1.
          6    1    1    2  501    0  0.28121064840E+02  0.61489142836E+02 -0.42962918188E+03  0.46806190071E+03  0.17300000000E+03 0.  1.
         -6    1    1    2    0  502 -0.28121064840E+02 -0.61489142836E+02 -0.55180811298E+03  0.58223097008E+03  0.17300000000E+03 0.  1.
<mgrwt>
<rscale>  2 0.18574366E+03</rscale>
<asrwt>0</asrwt>
<pdfrwt beam="1">  1       21 0.52965817E-02 0.18574366E+03</pdfrwt>
<pdfrwt beam="2">  1       21 0.15628697E+00 0.18574366E+03</pdfrwt>
<totfact> 0.65633486E+04</totfact>
</mgrwt>
</event>
<event>
 4    1  0.3876841E+000  0.1776123E+03  0.7546771E-02  0.1170134E+00
         21   -1    0    0  503  502  0.00000000000E+00  0.00000000000E+00  0.76694219473E+03  0.76694219473E+03  0.00000000000E+00 0. -1.
         21   -1    0    0  501  503 -0.00000000000E+00 -0.00000000000E+00 -0.69443600979E+02  0.69443600979E+02  0.00000000000E+00 0. -1.
          6    1    1    2  501    0 -0.39992605168E+01 -0.40014379096E+02  0.81731647737E+02  0.19551523434E+03  0.17300000000E+03 0. -1.
         -6    1    1    2    0  502  0.39992605168E+01  0.40014379096E+02  0.61576694601E+03  0.64087056136E+03  0.17300000000E+03 0. -1.
<mgrwt>
<rscale>  2 0.17761234E+03</rscale>
<asrwt>0</asrwt>
<pdfrwt beam="1">  1       21 0.11799110E+00 0.17761234E+03</pdfrwt>
<pdfrwt beam="2">  1       21 0.10683631E-01 0.17761234E+03</pdfrwt>
<totfact> 0.40071409E+04</totfact>
</mgrwt>
</event>
<event>
 4    1  0.3876841E+000  0.2048942E+03  0.7546771E-02  0.1145674E+00
         21   -1    0    0  503  502  0.00000000000E+00  0.00000000000E+00  0.50024370496E+02  0.50024370496E+02  0.00000000000E+00 0. -1.
         21   -1    0    0  501  503 -0.00000000000E+00 -0.00000000000E+00 -0.12202791067E+04  0.12202791067E+04  0.00000000000E+00 0. -1.
          6    1    1    2  501    0 -0.99774127557E+02  0.45801139138E+02 -0.94005691493E+03  0.96212713515E+03  0.17300000000E+03 0. -1.
         -6    1    1    2    0  502  0.99774127557E+02 -0.45801139138E+02 -0.23019782124E+03  0.30817634202E+03  0.17300000000E+03 0. -1.
<mgrwt>
<rscale>  2 0.20489417E+03</rscale>
<asrwt>0</asrwt>
<pdfrwt beam="1">  1       21 0.76960579E-02 0.20489417E+03</pdfrwt>
<pdfrwt beam="2">  1       21 0.18773523E+00 0.20489417E+03</pdfrwt>
<totfact> 0.20538853E+04</totfact>
</mgrwt>
</event>
<event>
 4    1  0.3876841E+000  0.1926657E+03  0.7546771E-02  0.1156079E+00
         21   -1    0    0  503  502  0.00000000000E+00  0.00000000000E+00  0.51255289812E+03  0.51255289812E+03  0.00000000000E+00 0.  1.
         21   -1    0    0  501  503 -0.00000000000E+00 -0.00000000000E+00 -0.86180357824E+02  0.86180357824E+02  0.00000000000E+00 0.  1.
          6    1    1    2  501    0 -0.26394922125E+02  0.80587623907E+02  0.33280082997E+03  0.38454707055E+03  0.17300000000E+03 0.  1.
         -6    1    1    2    0  502  0.26394922125E+02 -0.80587623907E+02  0.93571710332E+02  0.21418618540E+03  0.17300000000E+03 0.  1.
<mgrwt>
<rscale>  2 0.19266566E+03</rscale>
<asrwt>0</asrwt>
<pdfrwt beam="1">  1       21 0.78854290E-01 0.19266566E+03</pdfrwt>
<pdfrwt beam="2">  1       21 0.13258517E-01 0.19266566E+03</pdfrwt>
<totfact> 0.69710156E+04</totfact>
</mgrwt>
</event>
<event>
 4    1  0.3876841E+000  0.1896105E+03  0.7546771E-02  0.1158813E+00
         21   -1    0    0  501  502  0.00000000000E+00  0.00000000000E+00  0.14578283651E+03  0.14578283651E+03  0.00000000000E+00 0.  1.
         21   -1    0    0  502  503 -0.00000000000E+00 -0.00000000000E+00 -0.26403870011E+03  0.26403870011E+03  0.00000000000E+00 0.  1.
          6    1    1    2  501    0 -0.68979745107E+02  0.35566120489E+02 -0.64888837287E+01  0.18972153218E+03  0.17300000000E+03 0. -1.
         -6    1    1    2    0  503  0.68979745107E+02 -0.35566120489E+02 -0.11176697987E+03  0.22010000443E+03  0.17300000000E+03 0. -1.
<mgrwt>
<rscale>  2 0.18961053E+03</rscale>
<asrwt>0</asrwt>
<pdfrwt beam="1">  1       21 0.22428129E-01 0.18961053E+03</pdfrwt>
<pdfrwt beam="2">  1       21 0.40621338E-01 0.18961053E+03</pdfrwt>
<totfact> 0.10880197E+05</totfact>
</mgrwt>
</event>
<event>
 4    1  0.3876841E+000  0.2306355E+03  0.7546771E-02  0.1126193E+00
         21   -1    0    0  503  502  0.00000000000E+00  0.00000000000E+00  0.88755074275E+02  0.88755074275E+02  0.00000000000E+00 0. -1.
         21   -1    0    0  501  503 -0.00000000000E+00 -0.00000000000E+00 -0.79999472485E+03  0.79999472485E+03  0.00000000000E+00 0. -1.
          6    1    1    2  501    0  0.15145103464E+03 -0.18064226123E+02 -0.13305742526E+03  0.26626492555E+03  0.17300000000E+03 0. -1.
         -6    1    1    2    0  502 -0.15145103464E+03  0.18064226123E+02 -0.57818222532E+03  0.62248487358E+03  0.17300000000E+03 0. -1.
<mgrwt>
<rscale>  2 0.23063550E+03</rscale>
<asrwt>0</asrwt>
<pdfrwt beam="1">  1       21 0.13654627E-01 0.23063550E+03</pdfrwt>
<pdfrwt beam="2">  1       21 0.12307611E+00 0.23063550E+03</pdfrwt>
<totfact> 0.22552239E+04</totfact>
</mgrwt>
</event>
<event>
 4    1  0.3876841E+000  0.2197623E+03  0.7546771E-02  0.1134060E+00
         21   -1    0    0  503  502  0.00000000000E+00  0.00000000000E+00  0.55662033349E+02  0.55662033349E+02  0.00000000000E+00 0.  1.
         21   -1    0    0  501  503 -0.00000000000E+00 -0.00000000000E+00 -0.91128688834E+03  0.91128688834E+03  0.00000000000E+00 0.  1.
          6    1    1    2  501    0  0.10683121261E+03 -0.83388110440E+02 -0.32202255332E+03  0.38986409144E+03  0.17300000000E+03 0.  1.
         -6    1    1    2    0  502 -0.10683121261E+03  0.83388110440E+02 -0.53360230168E+03  0.57708483025E+03  0.17300000000E+03 0.  1.
<mgrwt>
<rscale>  2 0.21976234E+03</rscale>
<asrwt>0</asrwt>
<pdfrwt beam="1">  1       21 0.85633905E-02 0.21976234E+03</pdfrwt>
<pdfrwt beam="2">  1       21 0.14019797E+00 0.21976234E+03</pdfrwt>
<totfact> 0.37410950E+04</totfact>
</mgrwt>
</event>
<event>
 4    1  0.3876841E+000  0.2898728E+03  0.7546771E-02  0.1090416E+00
         21   -1    0    0  503  502  0.00000000000E+00  0.00000000000E+00  0.76330008029E+03  0.76330008029E+03  0.00000000000E+00 0. -1.
         21   -1    0    0  501  503 -0.00000000000E+00 -0.00000000000E+00 -0.12317086892E+03  0.12317086892E+03  0.00000000000E+00 0.  1.
          6    1    1    2  501    0  0.14836230040E+03  0.17912522486E+03  0.17558115140E+03  0.33890258053E+03  0.17300000000E+03 0.  1.
         -6    1    1    2    0  502 -0.14836230040E+03 -0.17912522486E+03  0.46454805997E+03  0.54756836868E+03  0.17300000000E+03 0. -1.
<mgrwt>
<rscale>  2 0.28987276E+03</rscale>
<asrwt>0</asrwt>
<pdfrwt beam="1">  1       21 0.11743078E+00 0.28987276E+03</pdfrwt>
<pdfrwt beam="2">  1       21 0.18949365E-01 0.28987276E+03</pdfrwt>
<totfact> 0.13451756E+04</totfact>
</mgrwt>
</event>
<event>
 4    1  0.3876841E+000  0.2349278E+03  0.7546771E-02  0.1123219E+00
         21   -1    0    0  501  502  0.00000000000E+00  0.00000000000E+00  0.83650716331E+02  0.83650716331E+02  0.00000000000E+00 0.  1.
         21   -1    0    0  502  503 -0.00000000000E+00 -0.00000000000E+00 -0.82923775364E+03  0.82923775364E+03  0.00000000000E+00 0. -1.
          6    1    1    2  501    0  0.23462626885E+02  0.15719920787E+03 -0.57913125767E+03  0.62496727868E+03  0.17300000000E+03 0. -1.
         -6    1    1    2    0  503 -0.23462626885E+02 -0.15719920787E+03 -0.16645577964E+03  0.28792119129E+03  0.17300000000E+03 0.  1.
<mgrwt>
<rscale>  2 0.23492783E+03</rscale>
<asrwt>0</asrwt>
<pdfrwt beam="1">  1       21 0.12869341E-01 0.23492783E+03</pdfrwt>
<pdfrwt beam="2">  1       21 0.12757504E+00 0.23492783E+03</pdfrwt>
<totfact> 0.22881028E+04</totfact>
</mgrwt>
</event>
<event>
 4    1  0.3876841E+000  0.1999022E+03  0.7546771E-02  0.1149822E+00
         21   -1    0    0  503  502  0.00000000000E+00  0.00000000000E+00  0.27492405758E+02  0.27492405758E+02  0.00000000000E+00 0.  1.
         21   -1    0    0  501  503 -0.00000000000E+00 -0.00000000000E+00 -0.20141213394E+04  0.20141213394E+04  0.00000000000E+00 0.  1.
          6    1    1    2  501    0 -0.67443745384E+02  0.74048842311E+02 -0.15318644651E+04  0.15448526238E+04  0.17300000000E+03 0.  1.
         -6    1    1    2    0  502  0.67443745384E+02 -0.74048842311E+02 -0.45476446852E+03  0.49676112133E+03  0.17300000000E+03 0.  1.
<mgrwt>
<rscale>  2 0.19990220E+03</rscale>
<asrwt>0</asrwt>
<pdfrwt beam="1">  1       21 0.42296009E-02 0.19990220E+03</pdfrwt>
<pdfrwt beam="2">  1       21 0.30986482E+00 0.19990220E+03</pdfrwt>
<totfact> 0.10602711E+04</totfact>
</mgrwt>
</event>
<event>
 4    1  0.3876841E+000  0.1799216E+03  0.7546771E-02  0.1167879E+00
         21   -1    0    0  501  502  0.00000000000E+00  0.00000000000E+00  0.52611401295E+02  0.52611401295E+02  0.00000000000E+00 0.  1.
         21   -1    0    0  502  503 -0.00000000000E+00 -0.00000000000E+00 -0.84078548103E+03  0.84078548103E+03  0.00000000000E+00 0.  1.
          6    1    1    2  501    0  0.47933940894E+02 -0.12046753525E+02 -0.62541667763E+03  0.65078245798E+03  0.17300000000E+03 0.  1.
         -6    1    1    2    0  503 -0.47933940894E+02  0.12046753525E+02 -0.16275740211E+03  0.24261442435E+03  0.17300000000E+03 0.  1.
<mgrwt>
<rscale>  2 0.17992161E+03</rscale>
<asrwt>0</asrwt>
<pdfrwt beam="1">  1       21 0.80940627E-02 0.17992161E+03</pdfrwt>
<pdfrwt beam="2">  1       21 0.12935160E+00 0.17992161E+03</pdfrwt>
<totfact> 0.51817712E+04</totfact>
</mgrwt>
</event>
<event>
 4    1  0.3876841E+000  0.2010789E+03  0.7546771E-02  0.1148832E+00
         21   -1    0    0  501  502  0.00000000000E+00  0.00000000000E+00  0.51764868212E+03  0.51764868212E+03  0.00000000000E+00 0. -1.
         21   -1    0    0  502  503 -0.00000000000E+00 -0.00000000000E+00 -0.80881100316E+02  0.80881100316E+02  0.00000000000E+00 0. -1.
          6    1    1    2  501    0 -0.10047166436E+03 -0.20227799271E+02  0.27379305305E+03  0.33969891831E+03  0.17300000000E+03 0. -1.
         -6    1    1    2    0  503  0.10047166436E+03  0.20227799271E+02  0.16297452875E+03  0.25883086412E+03  0.17300000000E+03 0. -1.
<mgrwt>
<rscale>  2 0.20107889E+03</rscale>
<asrwt>0</asrwt>
<pdfrwt beam="1">  1       21 0.79638257E-01 0.20107889E+03</pdfrwt>
<pdfrwt beam="2">  1       21 0.12443247E-01 0.20107889E+03</pdfrwt>
<totfact> 0.76119984E+04</totfact>
</mgrwt>
</event>
<event>
 4    1  0.3876841E+000  0.1751473E+03  0.7546771E-02  0.1172584E+00
         21   -1    0    0  501  502  0.00000000000E+00  0.00000000000E+00  0.17660119142E+03  0.17660119142E+03  0.00000000000E+00 0. -1.
         21   -1    0    0  502  503 -0.00000000000E+00 -0.00000000000E+00 -0.28498583060E+03  0.28498583060E+03  0.00000000000E+00 0. -1.
          6    1    1    2  501    0 -0.13293006702E+02  0.23892690160E+02  0.90026366630E+02  0.19692971172E+03  0.17300000000E+03 0. -1.
         -6    1    1    2    0  503  0.13293006702E+02 -0.23892690160E+02 -0.19841100581E+03  0.26465731030E+03  0.17300000000E+03 0. -1.
<mgrwt>
<rscale>  2 0.17514727E+03</rscale>
<asrwt>0</asrwt>
<pdfrwt beam="1">  1       21 0.27169414E-01 0.17514727E+03</pdfrwt>
<pdfrwt beam="2">  1       21 0.43843973E-01 0.17514727E+03</pdfrwt>
<totfact> 0.65040276E+04</totfact>
</mgrwt>
</event>
<event>
 4    1  0.3876841E+000  0.1739333E+03  0.7546771E-02  0.1173807E+00
         21   -1    0    0  501  502  0.00000000000E+00  0.00000000000E+00  0.21453976063E+04  0.21453976063E+04  0.00000000000E+00 0. -1.
         21   -1    0    0  502  503 -0.00000000000E+00 -0.00000000000E+00 -0.20981687141E+02  0.20981687141E+02  0.00000000000E+00 0. -1.
          6    1    1    2  501    0  0.17887847165E+02 -0.19564782624E+01  0.16824941230E+04  0.16914606932E+04  0.17300000000E+03 0. -1.
         -6    1    1    2    0  503 -0.17887847165E+02  0.19564782624E+01  0.44192179612E+03  0.47491860015E+03  0.17300000000E+03 0. -1.
<mgrwt>
<rscale>  2 0.17393333E+03</rscale>
<asrwt>0</asrwt>
<pdfrwt beam="1">  1       21 0.33006100E+00 0.17393333E+03</pdfrwt>
<pdfrwt beam="2">  1       21 0.32279536E-02 0.17393333E+03</pdfrwt>
<totfact> 0.13107508E+04</totfact>
</mgrwt>
</event>
<event>
 4    1  0.3876841E+000  0.2333963E+03  0.7546771E-02  0.1124272E+00
         21   -1    0    0  501  502  0.00000000000E+00  0.00000000000E+00  0.12582291704E+03  0.12582291704E+03  0.00000000000E+00 0.  1.
         21   -1    0    0  502  503 -0.00000000000E+00 -0.00000000000E+00 -0.47290150669E+03  0.47290150669E+03  0.00000000000E+00 0. -1.
          6    1    1    2  501    0  0.15432929452E+03 -0.26968369376E+02 -0.86517030199E+02  0.24891568976E+03  0.17300000000E+03 0.  1.
         -6    1    1    2    0  503 -0.15432929452E+03  0.26968369376E+02 -0.26056155946E+03  0.34980873397E+03  0.17300000000E+03 0.  1.
<mgrwt>
<rscale>  2 0.23339628E+03</rscale>
<asrwt>0</asrwt>
<pdfrwt beam="1">  1       21 0.19357372E-01 0.23339628E+03</pdfrwt>
<pdfrwt beam="2">  1       21 0.72754078E-01 0.23339628E+03</pdfrwt>
<totfact> 0.40910501E+04</totfact>
</mgrwt>
</event>
<event>
 4    1  0.3876841E+000  0.2855357E+03  0.7546771E-02  0.1092703E+00
         21   -1    0    0  501  502  0.00000000000E+00  0.00000000000E+00  0.10793751129E+04  0.10793751129E+04  0.00000000000E+00 0. -1.
         21   -1    0    0  502  503 -0.00000000000E+00 -0.00000000000E+00 -0.17834641321E+03  0.17834641321E+03  0.00000000000E+00 0.  1.
          6    1    1    2  501    0 -0.29851919081E+02  0.22518992036E+03  0.92798084142E+03  0.97091661813E+03  0.17300000000E+03 0. -1.
         -6    1    1    2    0  503  0.29851919081E+02 -0.22518992036E+03 -0.26952141720E+02  0.28680490799E+03  0.17300000000E+03 0.  1.
<mgrwt>
<rscale>  2 0.28553570E+03</rscale>
<asrwt>0</asrwt>
<pdfrwt beam="1">  1       21 0.16605771E+00 0.28553570E+03</pdfrwt>
<pdfrwt beam="2">  1       21 0.27437910E-01 0.28553570E+03</pdfrwt>
<totfact> 0.26807619E+03</totfact>
</mgrwt>
</event>
<event>
 4    1  0.3876841E+000  0.1808517E+03  0.7546771E-02  0.1166981E+00
         21   -1    0    0  501  502  0.00000000000E+00  0.00000000000E+00  0.56714573113E+03  0.56714573113E+03  0.00000000000E+00 0.  1.
         21   -1    0    0  502  503 -0.00000000000E+00 -0.00000000000E+00 -0.57991635899E+02  0.57991635899E+02  0.00000000000E+00 0.  1.
          6    1    1    2  501    0 -0.40388298690E+02  0.33869077503E+02  0.23130129945E+03  0.29361134210E+03  0.17300000000E+03 0.  1.
         -6    1    1    2    0  503  0.40388298690E+02 -0.33869077503E+02  0.27785279577E+03  0.33152602492E+03  0.17300000000E+03 0.  1.
<mgrwt>
<rscale>  2 0.18085168E+03</rscale>
<asrwt>0</asrwt>
<pdfrwt beam="1">  1       21 0.87253185E-01 0.18085168E+03</pdfrwt>
<pdfrwt beam="2">  1       21 0.89217906E-02 0.18085168E+03</pdfrwt>
<totfact> 0.11244034E+05</totfact>
</mgrwt>
</event>
<event>
 4    1  0.3876841E+000  0.1789724E+03  0.7546771E-02  0.1168801E+00
         21   -1    0    0  503  502  0.00000000000E+00  0.00000000000E+00  0.49093472399E+03  0.49093472399E+03  0.00000000000E+00 0.  1.
         21   -1    0    0  501  503 -0.00000000000E+00 -0.00000000000E+00 -0.11776947478E+03  0.11776947478E+03  0.00000000000E+00 0.  1.
          6    1    1    2  501    0  0.15623094829E+02 -0.43105059167E+02 -0.16671807423E+02  0.17974725695E+03  0.17300000000E+03 0.  1.
         -6    1    1    2    0  502 -0.15623094829E+02  0.43105059167E+02  0.38983705663E+03  0.42895694182E+03  0.17300000000E+03 0.  1.
<mgrwt>
<rscale>  2 0.17897242E+03</rscale>
<asrwt>0</asrwt>
<pdfrwt beam="1">  1       21 0.75528418E-01 0.17897242E+03</pdfrwt>
<pdfrwt beam="2">  1       21 0.18118381E-01 0.17897242E+03</pdfrwt>
<totfact> 0.43711994E+04</totfact>
</mgrwt>
</event>
<event>
 4    1  0.3876841E+000  0.2016795E+03  0.7546771E-02  0.1148330E+00
         21   -1    0    0  503  502  0.00000000000E+00  0.00000000000E+00  0.17162532646E+03  0.17162532646E+03  0.00000000000E+00 0. -1.
         21   -1    0    0  501  503 -0.00000000000E+00 -0.00000000000E+00 -0.88960944735E+03  0.88960944735E+03  0.00000000000E+00 0. -1.
          6    1    1    2  501    0 -0.78946698718E+02 -0.67179018203E+02 -0.81346667094E+03  0.83809464051E+03  0.17300000000E+03 0. -1.
         -6    1    1    2    0  502  0.78946698718E+02  0.67179018203E+02  0.95482550044E+02  0.22314013330E+03  0.17300000000E+03 0. -1.
<mgrwt>
<rscale>  2 0.20167945E+03</rscale>
<asrwt>0</asrwt>
<pdfrwt beam="1">  1       21 0.26403896E-01 0.20167945E+03</pdfrwt>
<pdfrwt beam="2">  1       21 0.13686299E+00 0.20167945E+03</pdfrwt>
<totfact> 0.51370250E+03</totfact>
</mgrwt>
</event>
<event>
 4    1  0.3876841E+000  0.2215096E+03  0.7546771E-02  0.1132763E+00
         21   -1    0    0  503  502  0.00000000000E+00  0.00000000000E+00  0.14023649229E+04  0.14023649229E+04  0.00000000000E+00 0. -1.
         21   -1    0    0  501  503 -0.00000000000E+00 -0.00000000000E+00 -0.65551772183E+02  0.65551772183E+02  0.00000000000E+00 0. -1.
          6    1    1    2  501    0  0.88416988537E+02 -0.10639517319E+03  0.16724256969E+03  0.27755463220E+03  0.17300000000E+03 0. -1.
         -6    1    1    2    0  502 -0.88416988537E+02  0.10639517319E+03  0.11695705810E+04  0.11903620629E+04  0.17300000000E+03 0. -1.
<mgrwt>
<rscale>  2 0.22150959E+03</rscale>
<asrwt>0</asrwt>
<pdfrwt beam="1">  1       21 0.21574843E+00 0.22150959E+03</pdfrwt>
<pdfrwt beam="2">  1       21 0.10084889E-01 0.22150959E+03</pdfrwt>
<totfact> 0.83335133E+03</totfact>
</mgrwt>
</event>
<event>
 4    1  0.3876841E+000  0.2960645E+03  0.7546771E-02  0.1087225E+00
         21   -1    0    0  503  502  0.00000000000E+00  0.00000000000E+00  0.25120755962E+04  0.25120755962E+04  0.00000000000E+00 0.  1.
         21   -1    0    0  501  503 -0.00000000000E+00 -0.00000000000E+00 -0.11215535089E+03  0.11215535089E+03  0.00000000000E+00 0.  1.
          6    1    1    2  501    0 -0.88530614421E+02  0.22335510752E+03  0.11091553976E+03  0.31615886941E+03  0.17300000000E+03 0.  1.
         -6    1    1    2    0  502  0.88530614421E+02 -0.22335510752E+03  0.22890047056E+04  0.23080720777E+04  0.17300000000E+03 0.  1.
<mgrwt>
<rscale>  2 0.29606448E+03</rscale>
<asrwt>0</asrwt>
<pdfrwt beam="1">  1       21 0.38647313E+00 0.29606448E+03</pdfrwt>
<pdfrwt beam="2">  1       21 0.17254671E-01 0.29606448E+03</pdfrwt>
<totfact> 0.27945573E+02</totfact>
</mgrwt>
</event>
<event>
 4    1  0.3876841E+000  0.2471338E+03  0.7546771E-02  0.1115130E+00
         21   -1    0    0  501  502  0.00000000000E+00  0.00000000000E+00  0.32717189553E+03  0.32717189553E+03  0.00000000000E+00 0. -1.
         21   -1    0    0  502  503 -0.00000000000E+00 -0.00000000000E+00 -0.29094912959E+03  0.29094912959E+03  0.00000000000E+00 0.  1.
          6    1    1    2  501    0 -0.95342253265E+02  0.14851249922E+03 -0.16690977904E+03  0.29821801089E+03  0.17300000000E+03 0.  1.
         -6    1    1    2    0  503  0.95342253265E+02 -0.14851249922E+03  0.20313254497E+03  0.31990301422E+03  0.17300000000E+03 0. -1.
<mgrwt>
<rscale>  2 0.24713378E+03</rscale>
<asrwt>0</asrwt>
<pdfrwt beam="1">  1       21 0.50334138E-01 0.24713378E+03</pdfrwt>
<pdfrwt beam="2">  1       21 0.44761404E-01 0.24713378E+03</pdfrwt>
<totfact> 0.17458200E+04</totfact>
</mgrwt>
</event>
<event>
 4    1  0.3876841E+000  0.1928180E+03  0.7546771E-02  0.1155944E+00
         21   -1    0    0  503  502  0.00000000000E+00  0.00000000000E+00  0.13045478838E+03  0.13045478838E+03  0.00000000000E+00 0. -1.
         21   -1    0    0  501  503 -0.00000000000E+00 -0.00000000000E+00 -0.79414945023E+03  0.79414945023E+03  0.00000000000E+00 0.  1.
          6    1    1    2  501    0  0.12784640218E+02 -0.84180350734E+02 -0.70201640952E+03  0.72801498454E+03  0.17300000000E+03 0.  1.
         -6    1    1    2    0  502 -0.12784640218E+02  0.84180350734E+02  0.38321747662E+02  0.19658925408E+03  0.17300000000E+03 0. -1.
<mgrwt>
<rscale>  2 0.19281799E+03</rscale>
<asrwt>0</asrwt>
<pdfrwt beam="1">  1       21 0.20069968E-01 0.19281799E+03</pdfrwt>
<pdfrwt beam="2">  1       21 0.12217684E+00 0.19281799E+03</pdfrwt>
<totfact> 0.11580977E+04</totfact>
</mgrwt>
</event>
<event>
 4    1  0.3876841E+000  0.2079883E+03  0.7546771E-02  0.1143169E+00
         21   -1    0    0  501  502  0.00000000000E+00  0.00000000000E+00  0.15983231829E+03  0.15983231829E+03  0.00000000000E+00 0.  1.
         21   -1    0    0  502  503 -0.00000000000E+00 -0.00000000000E+00 -0.65046477306E+03  0.65046477306E+03  0.00000000000E+00 0.  1.
          6    1    1    2  501    0 -0.10963504230E+03 -0.36197968217E+02  0.64273445533E+02  0.21769292869E+03  0.17300000000E+03 0.  1.
         -6    1    1    2    0  503  0.10963504230E+03  0.36197968217E+02 -0.55490590031E+03  0.59260416266E+03  0.17300000000E+03 0.  1.
<mgrwt>
<rscale>  2 0.20798831E+03</rscale>
<asrwt>0</asrwt>
<pdfrwt beam="1">  1       21 0.24589588E-01 0.20798831E+03</pdfrwt>
<pdfrwt beam="2">  1       21 0.10007150E+00 0.20798831E+03</pdfrwt>
<totfact> 0.12681027E+04</totfact>
</mgrwt>
</event>
<event>
 4    1  0.3876841E+000  0.1998779E+03  0.7546771E-02  0.1149842E+00
         21   -1    0    0  501  502  0.00000000000E+00  0.00000000000E+00  0.32154334938E+03  0.32154334938E+03  0.00000000000E+00 0. -1.
         21   -1    0    0  502  503 -0.00000000000E+00 -0.00000000000E+00 -0.16254243482E+03  0.16254243482E+03  0.00000000000E+00 0. -1.
          6    1    1    2  501    0 -0.38643386388E+02 -0.92351760521E+02  0.19698373746E+03  0.28063098868E+03  0.17300000000E+03 0. -1.
         -6    1    1    2    0  503  0.38643386388E+02  0.92351760521E+02 -0.37982822899E+02  0.20345479552E+03  0.17300000000E+03 0. -1.
<mgrwt>
<rscale>  2 0.19987786E+03</rscale>
<asrwt>0</asrwt>
<pdfrwt beam="1">  1       21 0.49468207E-01 0.19987786E+03</pdfrwt>
<pdfrwt beam="2">  1       21 0.25006529E-01 0.19987786E+03</pdfrwt>
<totfact> 0.58786767E+04</totfact>
</mgrwt>
</event>
<event>
 4    1  0.3876841E+000  0.1916197E+03  0.7546771E-02  0.1157009E+00
         21   -1    0    0  503  502  0.00000000000E+00  0.00000000000E+00  0.99443561091E+02  0.99443561091E+02  0.00000000000E+00 0.  1.
         21   -1    0    0  501  503 -0.00000000000E+00 -0.00000000000E+00 -0.37850430456E+03  0.37850430456E+03  0.00000000000E+00 0. -1.
          6    1    1    2  501    0  0.68912535701E+01  0.82107300496E+02 -0.10213431897E+03  0.21713939597E+03  0.17300000000E+03 0.  1.
         -6    1    1    2    0  502 -0.68912535701E+01 -0.82107300496E+02 -0.17692642450E+03  0.26080846968E+03  0.17300000000E+03 0.  1.
<mgrwt>
<rscale>  2 0.19161967E+03</rscale>
<asrwt>0</asrwt>
<pdfrwt beam="1">  1       21 0.15299010E-01 0.19161967E+03</pdfrwt>
<pdfrwt beam="2">  1       21 0.58231431E-01 0.19161967E+03</pdfrwt>
<totfact> 0.10459242E+05</totfact>
</mgrwt>
</event>
<event>
 4    1  0.3876841E+000  0.2139800E+03  0.7546771E-02  0.1138452E+00
         21   -1    0    0  503  502  0.00000000000E+00  0.00000000000E+00  0.32462953623E+03  0.32462953623E+03  0.00000000000E+00 0.  1.
         21   -1    0    0  501  503 -0.00000000000E+00 -0.00000000000E+00 -0.16118440098E+03  0.16118440098E+03  0.00000000000E+00 0.  1.
          6    1    1    2  501    0  0.53485679160E+02  0.11400749316E+03  0.16758436373E+03  0.27179393912E+03  0.17300000000E+03 0.  1.
         -6    1    1    2    0  502 -0.53485679160E+02 -0.11400749316E+03 -0.41392284799E+01  0.21401999809E+03  0.17300000000E+03 0.  1.
<mgrwt>
<rscale>  2 0.21397997E+03</rscale>
<asrwt>0</asrwt>
<pdfrwt beam="1">  1       21 0.49943005E-01 0.21397997E+03</pdfrwt>
<pdfrwt beam="2">  1       21 0.24797600E-01 0.21397997E+03</pdfrwt>
<totfact> 0.58180721E+04</totfact>
</mgrwt>
</event>
<event>
 4    1  0.3876841E+000  0.2236432E+03  0.7546771E-02  0.1131196E+00
         21   -1    0    0  503  502  0.00000000000E+00  0.00000000000E+00  0.12832761697E+03  0.12832761697E+03  0.00000000000E+00 0.  1.
         21   -1    0    0  501  503 -0.00000000000E+00 -0.00000000000E+00 -0.74121189923E+03  0.74121189923E+03  0.00000000000E+00 0. -1.
          6    1    1    2  501    0 -0.13397005697E+03 -0.46252405023E+02 -0.60582332819E+03  0.64578492248E+03  0.17300000000E+03 0. -1.
         -6    1    1    2    0  502  0.13397005697E+03  0.46252405023E+02 -0.70609540726E+01  0.22375459371E+03  0.17300000000E+03 0.  1.
<mgrwt>
<rscale>  2 0.22364316E+03</rscale>
<asrwt>0</asrwt>
<pdfrwt beam="1">  1       21 0.19742711E-01 0.22364316E+03</pdfrwt>
<pdfrwt beam="2">  1       21 0.11403260E+00 0.22364316E+03</pdfrwt>
<totfact> 0.13869709E+04</totfact>
</mgrwt>
</event>
<event>
 4    1  0.3876841E+000  0.1929665E+03  0.7546771E-02  0.1155813E+00
         21   -1    0    0  501  502  0.00000000000E+00  0.00000000000E+00  0.63137534803E+03  0.63137534803E+03  0.00000000000E+00 0. -1.
         21   -1    0    0  502  503 -0.00000000000E+00 -0.00000000000E+00 -0.61896929650E+02  0.61896929650E+02  0.00000000000E+00 0. -1.
          6    1    1    2  501    0 -0.65438026828E+02 -0.54999344528E+02  0.36003860745E+03  0.40848973318E+03  0.17300000000E+03 0. -1.
         -6    1    1    2    0  503  0.65438026828E+02  0.54999344528E+02  0.20943981093E+03  0.28478254451E+03  0.17300000000E+03 0. -1.
<mgrwt>
<rscale>  2 0.19296648E+03</rscale>
<asrwt>0</asrwt>
<pdfrwt beam="1">  1       21 0.97134665E-01 0.19296648E+03</pdfrwt>
<pdfrwt beam="2">  1       21 0.95226050E-02 0.19296648E+03</pdfrwt>
<totfact> 0.77772080E+04</totfact>
</mgrwt>
</event>
<event>
 4    1  0.3876841E+000  0.2092756E+03  0.7546771E-02  0.1142141E+00
         21   -1    0    0  501  502  0.00000000000E+00  0.00000000000E+00  0.24663646853E+02  0.24663646853E+02  0.00000000000E+00 0.  1.
         21   -1    0    0  502  503 -0.00000000000E+00 -0.00000000000E+00 -0.18223316418E+04  0.18223316418E+04  0.00000000000E+00 0.  1.
          6    1    1    2  501    0 -0.26585637632E+02  0.11471914749E+03 -0.75117301269E+03  0.77978020873E+03  0.17300000000E+03 0.  1.
         -6    1    1    2    0  503  0.26585637632E+02 -0.11471914749E+03 -0.10464949823E+04  0.10672150799E+04  0.17300000000E+03 0.  1.
<mgrwt>
<rscale>  2 0.20927561E+03</rscale>
<asrwt>0</asrwt>
<pdfrwt beam="1">  1       21 0.37944064E-02 0.20927561E+03</pdfrwt>
<pdfrwt beam="2">  1       21 0.28035877E+00 0.20927561E+03</pdfrwt>
<totfact> 0.18667562E+04</totfact>
</mgrwt>
</event>
<event>
 4    1  0.3876841E+000  0.2199896E+03  0.7546771E-02  0.1133891E+00
         21   -1    0    0  501  502  0.00000000000E+00  0.00000000000E+00  0.39492948861E+03  0.39492948861E+03  0.00000000000E+00 0.  1.
         21   -1    0    0  502  503 -0.00000000000E+00 -0.00000000000E+00 -0.12958659508E+03  0.12958659508E+03  0.00000000000E+00 0.  1.
          6    1    1    2  501    0  0.45130905470E+02  0.12817807015E+03  0.19381904107E+03  0.29319146812E+03  0.17300000000E+03 0.  1.
         -6    1    1    2    0  503 -0.45130905470E+02 -0.12817807015E+03  0.71523852458E+02  0.23132461557E+03  0.17300000000E+03 0.  1.
<mgrwt>
<rscale>  2 0.21998958E+03</rscale>
<asrwt>0</asrwt>
<pdfrwt beam="1">  1       21 0.60758382E-01 0.21998958E+03</pdfrwt>
<pdfrwt beam="2">  1       21 0.19936399E-01 0.21998958E+03</pdfrwt>
<totfact> 0.57834375E+04</totfact>
</mgrwt>
</event>
<event>
 4    1  0.3876841E+000  0.2151473E+03  0.7546771E-02  0.1137553E+00
         21   -1    0    0  503  502  0.00000000000E+00  0.00000000000E+00  0.18817454344E+03  0.18817454344E+03  0.00000000000E+00 0. -1.
         21   -1    0    0  501  503 -0.00000000000E+00 -0.00000000000E+00 -0.26363828026E+03  0.26363828026E+03  0.00000000000E+00 0.  1.
          6    1    1    2  501    0  0.11329077122E+03  0.59368191203E+02 -0.96186596963E+02  0.23566977406E+03  0.17300000000E+03 0.  1.
         -6    1    1    2    0  502 -0.11329077122E+03 -0.59368191203E+02  0.20722860143E+02  0.21614304963E+03  0.17300000000E+03 0. -1.
<mgrwt>
<rscale>  2 0.21514735E+03</rscale>
<asrwt>0</asrwt>
<pdfrwt beam="1">  1       21 0.28949930E-01 0.21514735E+03</pdfrwt>
<pdfrwt beam="2">  1       21 0.40559736E-01 0.21514735E+03</pdfrwt>
<totfact> 0.66221854E+04</totfact>
</mgrwt>
</event>
<event>
 4    1  0.3876841E+000  0.1852949E+03  0.7546771E-02  0.1162775E+00
         21   -1    0    0  503  502  0.00000000000E+00  0.00000000000E+00  0.21819081532E+02  0.21819081532E+02  0.00000000000E+00 0. -1.
         21   -1    0    0  501  503 -0.00000000000E+00 -0.00000000000E+00 -0.15932089328E+04  0.15932089328E+04  0.00000000000E+00 0. -1.
          6    1    1    2  501    0 -0.63479538652E+02 -0.19379241190E+02 -0.87531242548E+03  0.89471003628E+03  0.17300000000E+03 0. -1.
         -6    1    1    2    0  502  0.63479538652E+02  0.19379241190E+02 -0.69607742578E+03  0.72031797805E+03  0.17300000000E+03 0. -1.
<mgrwt>
<rscale>  2 0.18529492E+03</rscale>
<asrwt>0</asrwt>
<pdfrwt beam="1">  1       21 0.33567814E-02 0.18529492E+03</pdfrwt>
<pdfrwt beam="2">  1       21 0.24510910E+00 0.18529492E+03</pdfrwt>
<totfact> 0.37533417E+04</totfact>
</mgrwt>
</event>
<event>
 4    1  0.3876841E+000  0.2350254E+03  0.7546771E-02  0.1123152E+00
         21   -1    0    0  501  502  0.00000000000E+00  0.00000000000E+00  0.63342820370E+03  0.63342820370E+03  0.00000000000E+00 0.  1.
         21   -1    0    0  502  503 -0.00000000000E+00 -0.00000000000E+00 -0.94856109518E+02  0.94856109518E+02  0.00000000000E+00 0.  1.
          6    1    1    2  501    0  0.82062538727E+02 -0.13628523612E+03  0.16585440760E+03  0.28765362916E+03  0.17300000000E+03 0.  1.
         -6    1    1    2    0  503 -0.82062538727E+02  0.13628523612E+03  0.37271768658E+03  0.44063068406E+03  0.17300000000E+03 0.  1.
<mgrwt>
<rscale>  2 0.23502537E+03</rscale>
<asrwt>0</asrwt>
<pdfrwt beam="1">  1       21 0.97450490E-01 0.23502537E+03</pdfrwt>
<pdfrwt beam="2">  1       21 0.14593248E-01 0.23502537E+03</pdfrwt>
<totfact> 0.35201460E+04</totfact>
</mgrwt>
</event>
<event>
 4    1  0.3876841E+000  0.1986053E+03  0.7546771E-02  0.1150921E+00
         21   -1    0    0  503  502  0.00000000000E+00  0.00000000000E+00  0.13801593697E+04  0.13801593697E+04  0.00000000000E+00 0. -1.
         21   -1    0    0  501  503 -0.00000000000E+00 -0.00000000000E+00 -0.29402786138E+02  0.29402786138E+02  0.00000000000E+00 0. -1.
          6    1    1    2  501    0 -0.15407736177E+02 -0.96320547799E+02  0.55743394302E+03  0.59175725352E+03  0.17300000000E+03 0. -1.
         -6    1    1    2    0  502  0.15407736177E+02  0.96320547799E+02  0.79332264058E+03  0.81780490236E+03  0.17300000000E+03 0. -1.
<mgrwt>
<rscale>  2 0.19860525E+03</rscale>
<asrwt>0</asrwt>
<pdfrwt beam="1">  1       21 0.21233216E+00 0.19860525E+03</pdfrwt>
<pdfrwt beam="2">  1       21 0.45235066E-02 0.19860525E+03</pdfrwt>
<totfact> 0.35600666E+04</totfact>
</mgrwt>
</event>
<event>
 4    1  0.3876841E+000  0.2650812E+03  0.7546771E-02  0.1104128E+00
         21   -1    0    0  501  502  0.00000000000E+00  0.00000000000E+00  0.76506038328E+03  0.76506038328E+03  0.00000000000E+00 0.  1.
         21   -1    0    0  502  503 -0.00000000000E+00 -0.00000000000E+00 -0.14004535176E+03  0.14004535176E+03  0.00000000000E+00 0.  1.
          6    1    1    2  501    0  0.20030108761E+03  0.14782643252E+02  0.57800090272E+03  0.63588764400E+03  0.17300000000E+03 0.  1.
         -6    1    1    2    0  503 -0.20030108761E+03 -0.14782643252E+02  0.47014128793E+02  0.26921809104E+03  0.17300000000E+03 0.  1.
<mgrwt>
<rscale>  2 0.26508122E+03</rscale>
<asrwt>0</asrwt>
<pdfrwt beam="1">  1       21 0.11770160E+00 0.26508122E+03</pdfrwt>
<pdfrwt beam="2">  1       21 0.21545439E-01 0.26508122E+03</pdfrwt>
<totfact> 0.10630053E+04</totfact>
</mgrwt>
</event>
<event>
 4    1  0.3876841E+000  0.3375794E+03  0.7546771E-02  0.1067832E+00
         21   -1    0    0  503  502  0.00000000000E+00  0.00000000000E+00  0.86510310918E+03  0.86510310918E+03  0.00000000000E+00 0. -1.
         21   -1    0    0  501  503 -0.00000000000E+00 -0.00000000000E+00 -0.15779400770E+03  0.15779400770E+03  0.00000000000E+00 0.  1.
          6    1    1    2  501    0 -0.28770085181E+03 -0.35483722382E+02  0.14579076932E+03  0.36771568243E+03  0.17300000000E+03 0.  1.
         -6    1    1    2    0  502  0.28770085181E+03  0.35483722382E+02  0.56151833217E+03  0.65518143445E+03  0.17300000000E+03 0. -1.
<mgrwt>
<rscale>  2 0.33757943E+03</rscale>
<asrwt>0</asrwt>
<pdfrwt beam="1">  1       21 0.13309278E+00 0.33757943E+03</pdfrwt>
<pdfrwt beam="2">  1       21 0.24276002E-01 0.33757943E+03</pdfrwt>
<totfact> 0.59755332E+03</totfact>
</mgrwt>
</event>
<event>
 4    1  0.3876841E+000  0.1782355E+03  0.7546771E-02  0.1169522E+00
         21   -1    0    0  501  502  0.00000000000E+00  0.00000000000E+00  0.76529331305E+02  0.76529331305E+02  0.00000000000E+00 0.  1.
         21   -1    0    0  502  503 -0.00000000000E+00 -0.00000000000E+00 -0.91643866882E+03  0.91643866882E+03  0.00000000000E+00 0.  1.
          6    1    1    2  501    0  0.16021065550E+02  0.39777164936E+02 -0.52743468633E+02  0.18587568662E+03  0.17300000000E+03 0.  1.
         -6    1    1    2    0  503 -0.16021065550E+02 -0.39777164936E+02 -0.78716586888E+03  0.80709231351E+03  0.17300000000E+03 0.  1.
<mgrwt>
<rscale>  2 0.17823551E+03</rscale>
<asrwt>0</asrwt>
<pdfrwt beam="1">  1       21 0.11773742E-01 0.17823551E+03</pdfrwt>
<pdfrwt beam="2">  1       21 0.14099058E+00 0.17823551E+03</pdfrwt>
<totfact> 0.21535518E+04</totfact>
</mgrwt>
</event>
<event>
 4    1  0.3876841E+000  0.2493710E+03  0.7546771E-02  0.1113703E+00
         21   -1    0    0  503  502  0.00000000000E+00  0.00000000000E+00  0.30916087110E+03  0.30916087110E+03  0.00000000000E+00 0. -1.
         21   -1    0    0  501  503 -0.00000000000E+00 -0.00000000000E+00 -0.32624971916E+03  0.32624971916E+03  0.00000000000E+00 0.  1.
          6    1    1    2  501    0 -0.16054821305E+03 -0.80505619005E+02 -0.20528221838E+03  0.32299639718E+03  0.17300000000E+03 0.  1.
         -6    1    1    2    0  502  0.16054821305E+03  0.80505619005E+02  0.18819337032E+03  0.31241419308E+03  0.17300000000E+03 0. -1.
<mgrwt>
<rscale>  2 0.24937098E+03</rscale>
<asrwt>0</asrwt>
<pdfrwt beam="1">  1       21 0.47563211E-01 0.24937098E+03</pdfrwt>
<pdfrwt beam="2">  1       21 0.50192264E-01 0.24937098E+03</pdfrwt>
<totfact> 0.15466899E+04</totfact>
</mgrwt>
</event>
<event>
 4    1  0.3876841E+000  0.2750710E+03  0.7546771E-02  0.1098412E+00
         21   -1    0    0  501  502  0.00000000000E+00  0.00000000000E+00  0.68266019503E+03  0.68266019503E+03  0.00000000000E+00 0.  1.
         21   -1    0    0  502  503 -0.00000000000E+00 -0.00000000000E+00 -0.12987341476E+03  0.12987341476E+03  0.00000000000E+00 0. -1.
          6    1    1    2  501    0 -0.63126002659E+02  0.20432849940E+03  0.43193387789E+03  0.51208485894E+03  0.17300000000E+03 0.  1.
         -6    1    1    2    0  503  0.63126002659E+02 -0.20432849940E+03  0.12085290237E+03  0.30044875086E+03  0.17300000000E+03 0. -1.
<mgrwt>
<rscale>  2 0.27507095E+03</rscale>
<asrwt>0</asrwt>
<pdfrwt beam="1">  1       21 0.10502464E+00 0.27507095E+03</pdfrwt>
<pdfrwt beam="2">  1       21 0.19980526E-01 0.27507095E+03</pdfrwt>
<totfact> 0.16123602E+04</totfact>
</mgrwt>
</event>
<event>
 4    1  0.3876841E+000  0.1844989E+03  0.7546771E-02  0.1163519E+00
         21   -1    0    0  501  502  0.00000000000E+00  0.00000000000E+00  0.29597667346E+03  0.29597667346E+03  0.00000000000E+00 0.  1.
         21   -1    0    0  502  503 -0.00000000000E+00 -0.00000000000E+00 -0.38456501233E+03  0.38456501233E+03  0.00000000000E+00 0.  1.
          6    1    1    2  501    0 -0.47370439872E+02  0.43207662075E+02  0.24058762211E+03  0.30318684758E+03  0.17300000000E+03 0.  1.
         -6    1    1    2    0  503  0.47370439872E+02 -0.43207662075E+02 -0.32917596097E+03  0.37735483821E+03  0.17300000000E+03 0.  1.
<mgrwt>
<rscale>  2 0.18449894E+03</rscale>
<asrwt>0</asrwt>
<pdfrwt beam="1">  1       21 0.45534873E-01 0.18449894E+03</pdfrwt>
<pdfrwt beam="2">  1       21 0.59163848E-01 0.18449894E+03</pdfrwt>
<totfact> 0.12416851E+04</totfact>
</mgrwt>
</event>
<event>
 4    1  0.3876841E+000  0.2094177E+03  0.7546771E-02  0.1142028E+00
         21   -1    0    0  501  502  0.00000000000E+00  0.00000000000E+00  0.12109702969E+03  0.12109702969E+03  0.00000000000E+00 0.  1.
         21   -1    0    0  502  503 -0.00000000000E+00 -0.00000000000E+00 -0.44643037088E+03  0.44643037088E+03  0.00000000000E+00 0.  1.
          6    1    1    2  501    0  0.10006567677E+03  0.62559035703E+02 -0.39375235335E+02  0.21308726328E+03  0.17300000000E+03 0.  1.
         -6    1    1    2    0  503 -0.10006567677E+03 -0.62559035703E+02 -0.28595810585E+03  0.35444013729E+03  0.17300000000E+03 0.  1.
<mgrwt>
<rscale>  2 0.20941770E+03</rscale>
<asrwt>0</asrwt>
<pdfrwt beam="1">  1       21 0.18630312E-01 0.20941770E+03</pdfrwt>
<pdfrwt beam="2">  1       21 0.68681595E-01 0.20941770E+03</pdfrwt>
<totfact> 0.50480405E+04</totfact>
</mgrwt>
</event>
<event>
 4    1  0.3876841E+000  0.1787397E+03  0.7546771E-02  0.1169028E+00
         21   -1    0    0  501  502  0.00000000000E+00  0.00000000000E+00  0.13208705289E+02  0.13208705289E+02  0.00000000000E+00 0.  1.
         21   -1    0    0  502  503 -0.00000000000E+00 -0.00000000000E+00 -0.25372114338E+04  0.25372114338E+04  0.00000000000E+00 0.  1.
          6    1    1    2  501    0 -0.24134756163E+02  0.37899679360E+02 -0.98639657107E+03  0.10024600080E+04  0.17300000000E+03 0.  1.
         -6    1    1    2    0  503  0.24134756163E+02 -0.37899679360E+02 -0.15376061575E+04  0.15479601312E+04  0.17300000000E+03 0.  1.
<mgrwt>
<rscale>  2 0.17873968E+03</rscale>
<asrwt>0</asrwt>
<pdfrwt beam="1">  1       21 0.20321087E-02 0.17873968E+03</pdfrwt>
<pdfrwt beam="2">  1       21 0.39034019E+00 0.17873968E+03</pdfrwt>
<totfact> 0.12210244E+04</totfact>
</mgrwt>
</event>
<event>
 4    1  0.3876841E+000  0.2009161E+03  0.7546771E-02  0.1148968E+00
         21   -1    0    0  503  502  0.00000000000E+00  0.00000000000E+00  0.48752151435E+03  0.48752151435E+03  0.00000000000E+00 0.  1.
         21   -1    0    0  501  503 -0.00000000000E+00 -0.00000000000E+00 -0.11884838102E+03  0.11884838102E+03  0.00000000000E+00 0.  1.
          6    1    1    2  501    0 -0.48881409381E+02  0.89715619439E+02  0.17363022287E+02  0.20166496745E+03  0.17300000000E+03 0.  1.
         -6    1    1    2    0  502  0.48881409381E+02 -0.89715619439E+02  0.35131011105E+03  0.40470492792E+03  0.17300000000E+03 0.  1.
<mgrwt>
<rscale>  2 0.20091611E+03</rscale>
<asrwt>0</asrwt>
<pdfrwt beam="1">  1       21 0.75003308E-01 0.20091611E+03</pdfrwt>
<pdfrwt beam="2">  1       21 0.18284367E-01 0.20091611E+03</pdfrwt>
<totfact> 0.43173747E+04</totfact>
</mgrwt>
</event>
<event>
 4    1  0.3876841E+000  0.2212933E+03  0.7546771E-02  0.1132923E+00
         21   -1    0    0  501  502  0.00000000000E+00  0.00000000000E+00  0.36401233252E+03  0.36401233252E+03  0.00000000000E+00 0.  1.
         21   -1    0    0  502  503 -0.00000000000E+00 -0.00000000000E+00 -0.35942896655E+03  0.35942896655E+03  0.00000000000E+00 0. -1.
          6    1    1    2  501    0 -0.42920670415E+02  0.13114699736E+03  0.28841952808E+03  0.36353341393E+03  0.17300000000E+03 0.  1.
         -6    1    1    2    0  503  0.42920670415E+02 -0.13114699736E+03 -0.28383616211E+03  0.35990788514E+03  0.17300000000E+03 0. -1.
<mgrwt>
<rscale>  2 0.22129329E+03</rscale>
<asrwt>0</asrwt>
<pdfrwt beam="1">  1       21 0.56001897E-01 0.22129329E+03</pdfrwt>
<pdfrwt beam="2">  1       21 0.55296764E-01 0.22129329E+03</pdfrwt>
<totfact> 0.90806261E+03</totfact>
</mgrwt>
</event>
<event>
 4    1  0.3876841E+000  0.2038065E+03  0.7546771E-02  0.1146567E+00
         21   -1    0    0  501  502  0.00000000000E+00  0.00000000000E+00  0.12996589167E+04  0.12996589167E+04  0.00000000000E+00 0.  1.
         21   -1    0    0  502  503 -0.00000000000E+00 -0.00000000000E+00 -0.51014372071E+02  0.51014372071E+02  0.00000000000E+00 0.  1.
          6    1    1    2  501    0  0.19949315260E+02  0.10587776870E+03  0.10370575164E+04  0.10568942092E+04  0.17300000000E+03 0.  1.
         -6    1    1    2    0  503 -0.19949315260E+02 -0.10587776870E+03  0.21158702821E+03  0.29377907956E+03  0.17300000000E+03 0.  1.
<mgrwt>
<rscale>  2 0.20380647E+03</rscale>
<asrwt>0</asrwt>
<pdfrwt beam="1">  1       21 0.19994750E+00 0.20380647E+03</pdfrwt>
<pdfrwt beam="2">  1       21 0.78483659E-02 0.20380647E+03</pdfrwt>
<totfact> 0.16527063E+04</totfact>
</mgrwt>
</event>
<event>
 4    1  0.3876841E+000  0.3205933E+03  0.7546771E-02  0.1075377E+00
         21   -1    0    0  501  502  0.00000000000E+00  0.00000000000E+00  0.44256181039E+03  0.44256181039E+03  0.00000000000E+00 0. -1.
         21   -1    0    0  502  503 -0.00000000000E+00 -0.00000000000E+00 -0.23263059753E+03  0.23263059753E+03  0.00000000000E+00 0.  1.
          6    1    1    2  501    0  0.58149122010E+02 -0.26357108470E+03  0.11881970633E+03  0.34190372869E+03  0.17300000000E+03 0.  1.
         -6    1    1    2    0  503 -0.58149122010E+02  0.26357108470E+03  0.91111506530E+02  0.33328867923E+03  0.17300000000E+03 0. -1.
<mgrwt>
<rscale>  2 0.32059326E+03</rscale>
<asrwt>0</asrwt>
<pdfrwt beam="1">  1       21 0.68086432E-01 0.32059326E+03</pdfrwt>
<pdfrwt beam="2">  1       21 0.35789323E-01 0.32059326E+03</pdfrwt>
<totfact> 0.13886864E+04</totfact>
</mgrwt>
</event>
<event>
 4    1  0.3876841E+000  0.2049285E+03  0.7546771E-02  0.1145646E+00
         21   -1    0    0  501  502  0.00000000000E+00  0.00000000000E+00  0.17720345306E+03  0.17720345306E+03  0.00000000000E+00 0. -1.
         21   -1    0    0  502  503 -0.00000000000E+00 -0.00000000000E+00 -0.24275325602E+03  0.24275325602E+03  0.00000000000E+00 0. -1.
          6    1    1    2  501    0 -0.10444762958E+03  0.34020608621E+02 -0.42521554103E+00  0.20492898756E+03  0.17300000000E+03 0. -1.
         -6    1    1    2    0  503  0.10444762958E+03 -0.34020608621E+02 -0.65124587422E+02  0.21502772152E+03  0.17300000000E+03 0. -1.
<mgrwt>
<rscale>  2 0.20492855E+03</rscale>
<asrwt>0</asrwt>
<pdfrwt beam="1">  1       21 0.27262070E-01 0.20492855E+03</pdfrwt>
<pdfrwt beam="2">  1       21 0.37346655E-01 0.20492855E+03</pdfrwt>
<totfact> 0.88251113E+04</totfact>
</mgrwt>
</event>
<event>
 4    1  0.3876841E+000  0.2166982E+03  0.7546771E-02  0.1136369E+00
         21   -1    0    0  501  502  0.00000000000E+00  0.00000000000E+00  0.28676478788E+03  0.28676478788E+03  0.00000000000E+00 0. -1.
         21   -1    0    0  502  503 -0.00000000000E+00 -0.00000000000E+00 -0.17711454850E+03  0.17711454850E+03  0.00000000000E+00 0. -1.
          6    1    1    2  501    0  0.12812728713E+03 -0.24748903482E+02  0.11853455545E+03  0.24699909062E+03  0.17300000000E+03 0. -1.
         -6    1    1    2    0  503 -0.12812728713E+03  0.24748903482E+02 -0.88843160756E+01  0.21688024576E+03  0.17300000000E+03 0. -1.
<mgrwt>
<rscale>  2 0.21669820E+03</rscale>
<asrwt>0</asrwt>
<pdfrwt beam="1">  1       21 0.44117659E-01 0.21669820E+03</pdfrwt>
<pdfrwt beam="2">  1       21 0.27248392E-01 0.21669820E+03</pdfrwt>
<totfact> 0.62687785E+04</totfact>
</mgrwt>
</event>
<event>
 4    1  0.3876841E+000  0.1784271E+03  0.7546771E-02  0.1169334E+00
         21   -1    0    0  503  502  0.00000000000E+00  0.00000000000E+00  0.16839460640E+03  0.16839460640E+03  0.00000000000E+00 0. -1.
         21   -1    0    0  501  503 -0.00000000000E+00 -0.00000000000E+00 -0.26958918621E+03  0.26958918621E+03  0.00000000000E+00 0. -1.
          6    1    1    2  501    0 -0.43326042766E+02  0.54860571083E+01 -0.17028802518E+03  0.24664601016E+03  0.17300000000E+03 0.  1.
         -6    1    1    2    0  502  0.43326042766E+02 -0.54860571083E+01  0.69093445373E+02  0.19133778246E+03  0.17300000000E+03 0.  1.
<mgrwt>
<rscale>  2 0.17842714E+03</rscale>
<asrwt>0</asrwt>
<pdfrwt beam="1">  1       21 0.25906863E-01 0.17842714E+03</pdfrwt>
<pdfrwt beam="2">  1       21 0.41475259E-01 0.17842714E+03</pdfrwt>
<totfact> 0.79658523E+04</totfact>
</mgrwt>
</event>
<event>
 4    1  0.3876841E+000  0.2163366E+03  0.7546771E-02  0.1136644E+00
         21   -1    0    0  501  502  0.00000000000E+00  0.00000000000E+00  0.29890576858E+03  0.29890576858E+03  0.00000000000E+00 0.  1.
         21   -1    0    0  502  503 -0.00000000000E+00 -0.00000000000E+00 -0.20617440342E+03  0.20617440342E+03  0.00000000000E+00 0.  1.
          6    1    1    2  501    0 -0.95898511628E+02  0.87612891867E+02  0.17022985893E+03  0.27528121662E+03  0.17300000000E+03 0.  1.
         -6    1    1    2    0  503  0.95898511628E+02 -0.87612891867E+02 -0.77498493768E+02  0.22979895537E+03  0.17300000000E+03 0.  1.
<mgrwt>
<rscale>  2 0.21633664E+03</rscale>
<asrwt>0</asrwt>
<pdfrwt beam="1">  1       21 0.45985503E-01 0.21633664E+03</pdfrwt>
<pdfrwt beam="2">  1       21 0.31719139E-01 0.21633664E+03</pdfrwt>
<totfact> 0.42804558E+04</totfact>
</mgrwt>
</event>
<event>
 4    1  0.3876841E+000  0.2339671E+03  0.7546771E-02  0.1123878E+00
         21   -1    0    0  503  502  0.00000000000E+00  0.00000000000E+00  0.84002020583E+03  0.84002020583E+03  0.00000000000E+00 0. -1.
         21   -1    0    0  501  503 -0.00000000000E+00 -0.00000000000E+00 -0.10435851038E+03  0.10435851038E+03  0.00000000000E+00 0. -1.
          6    1    1    2  501    0  0.11298306790E+03 -0.10975628082E+03  0.78460026756E+02  0.24677234572E+03  0.17300000000E+03 0. -1.
         -6    1    1    2    0  502 -0.11298306790E+03  0.10975628082E+03  0.65720166869E+03  0.69760637049E+03  0.17300000000E+03 0. -1.
<mgrwt>
<rscale>  2 0.23396712E+03</rscale>
<asrwt>0</asrwt>
<pdfrwt beam="1">  1       21 0.12923387E+00 0.23396712E+03</pdfrwt>
<pdfrwt beam="2">  1       21 0.16055156E-01 0.23396712E+03</pdfrwt>
<totfact> 0.14803369E+04</totfact>
</mgrwt>
</event>
<event>
 4    1  0.3876841E+000  0.2503542E+03  0.7546771E-02  0.1113081E+00
         21   -1    0    0  503  502  0.00000000000E+00  0.00000000000E+00  0.73313141980E+03  0.73313141980E+03  0.00000000000E+00 0.  1.
         21   -1    0    0  501  503 -0.00000000000E+00 -0.00000000000E+00 -0.86017066204E+02  0.86017066204E+02  0.00000000000E+00 0.  1.
          6    1    1    2  501    0  0.96267484905E+02 -0.15323438515E+03  0.35554309401E+03  0.43484261191E+03  0.17300000000E+03 0.  1.
         -6    1    1    2    0  502 -0.96267484905E+02  0.15323438515E+03  0.29157125959E+03  0.38430587409E+03  0.17300000000E+03 0.  1.
<mgrwt>
<rscale>  2 0.25035416E+03</rscale>
<asrwt>0</asrwt>
<pdfrwt beam="1">  1       21 0.11278945E+00 0.25035416E+03</pdfrwt>
<pdfrwt beam="2">  1       21 0.13233395E-01 0.25035416E+03</pdfrwt>
<totfact> 0.29340215E+04</totfact>
</mgrwt>
</event>
<event>
 4    1  0.3876841E+000  0.2314934E+03  0.7546771E-02  0.1125593E+00
         21   -1    0    0  501  502  0.00000000000E+00  0.00000000000E+00  0.35065864021E+03  0.35065864021E+03  0.00000000000E+00 0.  1.
         21   -1    0    0  502  503 -0.00000000000E+00 -0.00000000000E+00 -0.45385911826E+03  0.45385911826E+03  0.00000000000E+00 0.  1.
          6    1    1    2  501    0  0.11217405575E+03 -0.10524815757E+03  0.27600693640E+03  0.36023467684E+03  0.17300000000E+03 0.  1.
         -6    1    1    2    0  503 -0.11217405575E+03  0.10524815757E+03 -0.37920741444E+03  0.44428308163E+03  0.17300000000E+03 0.  1.
<mgrwt>
<rscale>  2 0.23149340E+03</rscale>
<asrwt>0</asrwt>
<pdfrwt beam="1">  1       21 0.53947483E-01 0.23149340E+03</pdfrwt>
<pdfrwt beam="2">  1       21 0.69824480E-01 0.23149340E+03</pdfrwt>
<totfact> 0.58880467E+03</totfact>
</mgrwt>
</event>
<event>
 4    1  0.3876841E+000  0.1747613E+03  0.7546771E-02  0.1172972E+00
         21   -1    0    0  503  502  0.00000000000E+00  0.00000000000E+00  0.10706646833E+03  0.10706646833E+03  0.00000000000E+00 0. -1.
         21   -1    0    0  501  503 -0.00000000000E+00 -0.00000000000E+00 -0.51195017917E+03  0.51195017917E+03  0.00000000000E+00 0. -1.
          6    1    1    2  501    0  0.13772094859E+02  0.20562764229E+02 -0.40839923960E+03  0.44422003194E+03  0.17300000000E+03 0. -1.
         -6    1    1    2    0  502 -0.13772094859E+02 -0.20562764229E+02  0.35155287613E+01  0.17479661556E+03  0.17300000000E+03 0. -1.
<mgrwt>
<rscale>  2 0.17476126E+03</rscale>
<asrwt>0</asrwt>
<pdfrwt beam="1">  1       21 0.16471764E-01 0.17476126E+03</pdfrwt>
<pdfrwt beam="2">  1       21 0.78761566E-01 0.17476126E+03</pdfrwt>
<totfact> 0.47517758E+04</totfact>
</mgrwt>
</event>
<event>
 4    1  0.3876841E+000  0.1902938E+03  0.7546771E-02  0.1158197E+00
         21   -1    0    0  503  502  0.00000000000E+00  0.00000000000E+00  0.13048390444E+04  0.13048390444E+04  0.00000000000E+00 0.  1.
         21   -1    0    0  501  503 -0.00000000000E+00 -0.00000000000E+00 -0.27814387066E+02  0.27814387066E+02  0.00000000000E+00 0.  1.
          6    1    1    2  501    0 -0.79262749381E+02 -0.40180342164E+00  0.60692630743E+03  0.63605918556E+03  0.17300000000E+03 0.  1.
         -6    1    1    2    0  502  0.79262749381E+02  0.40180342164E+00  0.67009834990E+03  0.69659424591E+03  0.17300000000E+03 0.  1.
<mgrwt>
<rscale>  2 0.19029384E+03</rscale>
<asrwt>0</asrwt>
<pdfrwt beam="1">  1       21 0.20074442E+00 0.19029384E+03</pdfrwt>
<pdfrwt beam="2">  1       21 0.42791375E-02 0.19029384E+03</pdfrwt>
<totfact> 0.46538276E+04</totfact>
</mgrwt>
</event>
<event>
 4    1  0.3876841E+000  0.2771006E+03  0.7546771E-02  0.1097283E+00
         21   -1    0    0  501  502  0.00000000000E+00  0.00000000000E+00  0.80769244031E+02  0.80769244031E+02  0.00000000000E+00 0.  1.
         21   -1    0    0  502  503 -0.00000000000E+00 -0.00000000000E+00 -0.11196542247E+04  0.11196542247E+04  0.00000000000E+00 0.  1.
          6    1    1    2  501    0  0.11353839507E+03 -0.18429536692E+03 -0.28626428604E+03  0.39841183577E+03  0.17300000000E+03 0.  1.
         -6    1    1    2    0  503 -0.11353839507E+03  0.18429536692E+03 -0.75262069466E+03  0.80201163299E+03  0.17300000000E+03 0.  1.
<mgrwt>
<rscale>  2 0.27710061E+03</rscale>
<asrwt>0</asrwt>
<pdfrwt beam="1">  1       21 0.12426038E-01 0.27710061E+03</pdfrwt>
<pdfrwt beam="2">  1       21 0.17225449E+00 0.27710061E+03</pdfrwt>
<totfact> 0.10721500E+04</totfact>
</mgrwt>
</event>
<event>
 4    1  0.3876841E+000  0.2585387E+03  0.7546771E-02  0.1108024E+00
         21   -1    0    0  503  502  0.00000000000E+00  0.00000000000E+00  0.29227229539E+03  0.29227229539E+03  0.00000000000E+00 0. -1.
         21   -1    0    0  501  503 -0.00000000000E+00 -0.00000000000E+00 -0.35312445538E+03  0.35312445538E+03  0.00000000000E+00 0. -1.
          6    1    1    2  501    0 -0.10708968028E+03 -0.15951514131E+03 -0.22197870520E+03  0.34075918989E+03  0.17300000000E+03 0. -1.
         -6    1    1    2    0  502  0.10708968028E+03  0.15951514131E+03  0.16112654521E+03  0.30463756088E+03  0.17300000000E+03 0. -1.
<mgrwt>
<rscale>  2 0.25853874E+03</rscale>
<asrwt>0</asrwt>
<pdfrwt beam="1">  1       21 0.44964969E-01 0.25853874E+03</pdfrwt>
<pdfrwt beam="2">  1       21 0.54326839E-01 0.25853874E+03</pdfrwt>
<totfact> 0.14635454E+04</totfact>
</mgrwt>
</event>
<event>
 4    1  0.3876841E+000  0.2056012E+03  0.7546771E-02  0.1145098E+00
         21   -1    0    0  503  502  0.00000000000E+00  0.00000000000E+00  0.17352162757E+03  0.17352162757E+03  0.00000000000E+00 0.  1.
         21   -1    0    0  501  503 -0.00000000000E+00 -0.00000000000E+00 -0.26234225910E+03  0.26234225910E+03  0.00000000000E+00 0.  1.
          6    1    1    2  501    0 -0.44273351190E+02 -0.10189556195E+03  0.13822310631E+02  0.20606526015E+03  0.17300000000E+03 0.  1.
         -6    1    1    2    0  502  0.44273351190E+02  0.10189556195E+03 -0.10264294217E+03  0.22979862651E+03  0.17300000000E+03 0.  1.
<mgrwt>
<rscale>  2 0.20560116E+03</rscale>
<asrwt>0</asrwt>
<pdfrwt beam="1">  1       21 0.26695635E-01 0.20560116E+03</pdfrwt>
<pdfrwt beam="2">  1       21 0.40360347E-01 0.20560116E+03</pdfrwt>
<totfact> 0.78572793E+04</totfact>
</mgrwt>
</event>
<event>
 4    1  0.3876841E+000  0.1870146E+03  0.7546771E-02  0.1161182E+00
         21   -1    0    0  501  502  0.00000000000E+00  0.00000000000E+00  0.23556613419E+02  0.23556613419E+02  0.00000000000E+00 0.  1.
         21   -1    0    0  502  503 -0.00000000000E+00 -0.00000000000E+00 -0.17634059801E+04  0.17634059801E+04  0.00000000000E+00 0. -1.
          6    1    1    2  501    0 -0.55309126217E+02 -0.44568461232E+02 -0.51471537966E+03  0.54763707803E+03  0.17300000000E+03 0.  1.
         -6    1    1    2    0  503  0.55309126217E+02  0.44568461232E+02 -0.12251339870E+04  0.12393255155E+04  0.17300000000E+03 0. -1.
<mgrwt>
<rscale>  2 0.18701456E+03</rscale>
<asrwt>0</asrwt>
<pdfrwt beam="1">  1       21 0.36240930E-02 0.18701456E+03</pdfrwt>
<pdfrwt beam="2">  1       21 0.27129333E+00 0.18701456E+03</pdfrwt>
<totfact> 0.23213144E+04</totfact>
</mgrwt>
</event>
<event>
 4    1  0.3876841E+000  0.1774643E+03  0.7546771E-02  0.1170280E+00
         21   -1    0    0  501  502  0.00000000000E+00  0.00000000000E+00  0.59452679306E+02  0.59452679306E+02  0.00000000000E+00 0.  1.
         21   -1    0    0  502  503 -0.00000000000E+00 -0.00000000000E+00 -0.57494673445E+03  0.57494673445E+03  0.00000000000E+00 0.  1.
          6    1    1    2  501    0  0.58108906225E+01  0.39125746846E+02 -0.16878780760E+03  0.24491409618E+03  0.17300000000E+03 0. -1.
         -6    1    1    2    0  503 -0.58108906225E+01 -0.39125746846E+02 -0.34670624754E+03  0.38948531757E+03  0.17300000000E+03 0. -1.
<mgrwt>
<rscale>  2 0.17746434E+03</rscale>
<asrwt>0</asrwt>
<pdfrwt beam="1">  1       21 0.91465662E-02 0.17746434E+03</pdfrwt>
<pdfrwt beam="2">  1       21 0.88453342E-01 0.17746434E+03</pdfrwt>
<totfact> 0.10445864E+05</totfact>
</mgrwt>
</event>
<event>
 4    1  0.3876841E+000  0.1746845E+03  0.7546771E-02  0.1173049E+00
         21   -1    0    0  503  502  0.00000000000E+00  0.00000000000E+00  0.11317065564E+03  0.11317065564E+03  0.00000000000E+00 0. -1.
         21   -1    0    0  501  503 -0.00000000000E+00 -0.00000000000E+00 -0.30552259224E+03  0.30552259224E+03  0.00000000000E+00 0. -1.
          6    1    1    2  501    0 -0.15317085362E+02  0.18736570796E+02 -0.16792592984E+03  0.24230928604E+03  0.17300000000E+03 0. -1.
         -6    1    1    2    0  502  0.15317085362E+02 -0.18736570796E+02 -0.24426006761E+02  0.17638396184E+03  0.17300000000E+03 0. -1.
<mgrwt>
<rscale>  2 0.17468449E+03</rscale>
<asrwt>0</asrwt>
<pdfrwt beam="1">  1       21 0.17410870E-01 0.17468449E+03</pdfrwt>
<pdfrwt beam="2">  1       21 0.47003476E-01 0.17468449E+03</pdfrwt>
<totfact> 0.13013754E+05</totfact>
</mgrwt>
</event>
<event>
 4    1  0.3876841E+000  0.2939188E+03  0.7546771E-02  0.1088321E+00
         21   -1    0    0  503  502  0.00000000000E+00  0.00000000000E+00  0.24031589196E+03  0.24031589196E+03  0.00000000000E+00 0.  1.
         21   -1    0    0  501  503 -0.00000000000E+00 -0.00000000000E+00 -0.73069841349E+03  0.73069841349E+03  0.00000000000E+00 0. -1.
          6    1    1    2  501    0  0.21362936341E+03 -0.10402754068E+03 -0.59124422830E+03  0.66027113493E+03  0.17300000000E+03 0. -1.
         -6    1    1    2    0  502 -0.21362936341E+03  0.10402754068E+03  0.10086170677E+03  0.31074317052E+03  0.17300000000E+03 0.  1.
<mgrwt>
<rscale>  2 0.29391875E+03</rscale>
<asrwt>0</asrwt>
<pdfrwt beam="1">  1       21 0.36971676E-01 0.29391875E+03</pdfrwt>
<pdfrwt beam="2">  1       21 0.11241514E+00 0.29391875E+03</pdfrwt>
<totfact> 0.40814133E+03</totfact>
</mgrwt>
</event>
<event>
 4    1  0.3876841E+000  0.2226592E+03  0.7546771E-02  0.1131916E+00
         21   -1    0    0  503  502  0.00000000000E+00  0.00000000000E+00  0.36660308432E+03  0.36660308432E+03  0.00000000000E+00 0.  1.
         21   -1    0    0  501  503 -0.00000000000E+00 -0.00000000000E+00 -0.38462745950E+03  0.38462745950E+03  0.00000000000E+00 0. -1.
          6    1    1    2  501    0  0.13944670892E+03 -0.14238428738E+02 -0.31147071117E+03  0.38287219982E+03  0.17300000000E+03 0. -1.
         -6    1    1    2    0  502 -0.13944670892E+03  0.14238428738E+02  0.29344633599E+03  0.36835834399E+03  0.17300000000E+03 0.  1.
<mgrwt>
<rscale>  2 0.22265920E+03</rscale>
<asrwt>0</asrwt>
<pdfrwt beam="1">  1       21 0.56400475E-01 0.22265920E+03</pdfrwt>
<pdfrwt beam="2">  1       21 0.59173455E-01 0.22265920E+03</pdfrwt>
<totfact> 0.77316804E+03</totfact>
</mgrwt>
</event>
<event>
 4    1  0.3876841E+000  0.2149006E+03  0.7546771E-02  0.1137743E+00
         21   -1    0    0  503  502  0.00000000000E+00  0.00000000000E+00  0.16908992088E+04  0.16908992088E+04  0.00000000000E+00 0. -1.
         21   -1    0    0  501  503 -0.00000000000E+00 -0.00000000000E+00 -0.29070739567E+02  0.29070739567E+02  0.00000000000E+00 0. -1.
          6    1    1    2  501    0  0.99728718043E+02  0.79419494233E+02  0.61940375403E+03  0.65562434654E+03  0.17300000000E+03 0. -1.
         -6    1    1    2    0  502 -0.99728718043E+02 -0.79419494233E+02  0.10424247152E+04  0.10643456018E+04  0.17300000000E+03 0. -1.
<mgrwt>
<rscale>  2 0.21490061E+03</rscale>
<asrwt>0</asrwt>
<pdfrwt beam="1">  1       21 0.26013826E+00 0.21490061E+03</pdfrwt>
<pdfrwt beam="2">  1       21 0.44724228E-02 0.21490061E+03</pdfrwt>
<totfact> 0.18475175E+04</totfact>
</mgrwt>
</event>
<event>
 4    1  0.3876841E+000  0.2121433E+03  0.7546771E-02  0.1139880E+00
         21   -1    0    0  503  502  0.00000000000E+00  0.00000000000E+00  0.72727598140E+03  0.72727598140E+03  0.00000000000E+00 0.  1.
         21   -1    0    0  501  503 -0.00000000000E+00 -0.00000000000E+00 -0.61885646690E+02  0.61885646690E+02  0.00000000000E+00 0.  1.
          6    1    1    2  501    0  0.19199617271E+02 -0.12127308272E+03  0.32938968954E+03  0.39179376395E+03  0.17300000000E+03 0.  1.
         -6    1    1    2    0  502 -0.19199617271E+02  0.12127308272E+03  0.33600064517E+03  0.39736786414E+03  0.17300000000E+03 0.  1.
<mgrwt>
<rscale>  2 0.21214331E+03</rscale>
<asrwt>0</asrwt>
<pdfrwt beam="1">  1       21 0.11188861E+00 0.21214331E+03</pdfrwt>
<pdfrwt beam="2">  1       21 0.95208692E-02 0.21214331E+03</pdfrwt>
<totfact> 0.54910439E+04</totfact>
</mgrwt>
</event>
<event>
 4    1  0.3876841E+000  0.1977502E+03  0.7546771E-02  0.1151651E+00
         21   -1    0    0  501  502  0.00000000000E+00  0.00000000000E+00  0.92457067648E+02  0.92457067648E+02  0.00000000000E+00 0. -1.
         21   -1    0    0  502  503 -0.00000000000E+00 -0.00000000000E+00 -0.55704511921E+03  0.55704511921E+03  0.00000000000E+00 0.  1.
          6    1    1    2  501    0 -0.89399052224E+02 -0.34408663861E+02 -0.72961518406E+02  0.21078076254E+03  0.17300000000E+03 0. -1.
         -6    1    1    2    0  503  0.89399052224E+02  0.34408663861E+02 -0.39162653316E+03  0.43872142432E+03  0.17300000000E+03 0.  1.
<mgrwt>
<rscale>  2 0.19775021E+03</rscale>
<asrwt>0</asrwt>
<pdfrwt beam="1">  1       21 0.14224164E-01 0.19775021E+03</pdfrwt>
<pdfrwt beam="2">  1       21 0.85699248E-01 0.19775021E+03</pdfrwt>
<totfact> 0.50676286E+04</totfact>
</mgrwt>
</event>
<event>
 4    1  0.3876841E+000  0.1836484E+03  0.7546771E-02  0.1164318E+00
         21   -1    0    0  501  502  0.00000000000E+00  0.00000000000E+00  0.36655796962E+03  0.36655796962E+03  0.00000000000E+00 0.  1.
         21   -1    0    0  502  503 -0.00000000000E+00 -0.00000000000E+00 -0.15907815051E+03  0.15907815051E+03  0.00000000000E+00 0.  1.
          6    1    1    2  501    0  0.54047176623E+02 -0.29608333750E+02  0.27439148221E+03  0.33017788575E+03  0.17300000000E+03 0.  1.
         -6    1    1    2    0  503 -0.54047176623E+02  0.29608333750E+02 -0.66911663105E+02  0.19545823438E+03  0.17300000000E+03 0.  1.
<mgrwt>
<rscale>  2 0.18364844E+03</rscale>
<asrwt>0</asrwt>
<pdfrwt beam="1">  1       21 0.56393534E-01 0.18364844E+03</pdfrwt>
<pdfrwt beam="2">  1       21 0.24473562E-01 0.18364844E+03</pdfrwt>
<totfact> 0.46862465E+04</totfact>
</mgrwt>
</event>
<event>
 4    1  0.3876841E+000  0.2450949E+03  0.7546771E-02  0.1116445E+00
         21   -1    0    0  501  502  0.00000000000E+00  0.00000000000E+00  0.99733915937E+02  0.99733915937E+02  0.00000000000E+00 0.  1.
         21   -1    0    0  502  503 -0.00000000000E+00 -0.00000000000E+00 -0.88653147275E+03  0.88653147275E+03  0.00000000000E+00 0.  1.
          6    1    1    2  501    0  0.16046249216E+03 -0.66289550583E+02 -0.67261405611E+03  0.71587791165E+03  0.17300000000E+03 0.  1.
         -6    1    1    2    0  503 -0.16046249216E+03  0.66289550583E+02 -0.11418350070E+03  0.27038747704E+03  0.17300000000E+03 0.  1.
<mgrwt>
<rscale>  2 0.24509491E+03</rscale>
<asrwt>0</asrwt>
<pdfrwt beam="1">  1       21 0.15343679E-01 0.24509491E+03</pdfrwt>
<pdfrwt beam="2">  1       21 0.13638946E+00 0.24509491E+03</pdfrwt>
<totfact> 0.13930791E+04</totfact>
</mgrwt>
</event>
<event>
 4    1  0.3876841E+000  0.1825326E+03  0.7546771E-02  0.1165374E+00
         21   -1    0    0  501  502  0.00000000000E+00  0.00000000000E+00  0.90448229431E+03  0.90448229431E+03  0.00000000000E+00 0.  1.
         21   -1    0    0  502  503 -0.00000000000E+00 -0.00000000000E+00 -0.40921966342E+02  0.40921966342E+02  0.00000000000E+00 0.  1.
          6    1    1    2  501    0 -0.44508141378E+01 -0.58046025919E+02  0.28242541580E+03  0.33627706785E+03  0.17300000000E+03 0.  1.
         -6    1    1    2    0  503  0.44508141378E+01  0.58046025919E+02  0.58113491217E+03  0.60912719281E+03  0.17300000000E+03 0.  1.
<mgrwt>
<rscale>  2 0.18253260E+03</rscale>
<asrwt>0</asrwt>
<pdfrwt beam="1">  1       21 0.13915111E+00 0.18253260E+03</pdfrwt>
<pdfrwt beam="2">  1       21 0.62956878E-02 0.18253260E+03</pdfrwt>
<totfact> 0.66340163E+04</totfact>
</mgrwt>
</event>
<event>
 4    1  0.3876841E+000  0.2158205E+03  0.7546771E-02  0.1137038E+00
         21   -1    0    0  501  502  0.00000000000E+00  0.00000000000E+00  0.71709589897E+03  0.71709589897E+03  0.00000000000E+00 0. -1.
         21   -1    0    0  502  503 -0.00000000000E+00 -0.00000000000E+00 -0.84004687467E+02  0.84004687467E+02  0.00000000000E+00 0. -1.
          6    1    1    2  501    0 -0.12889058772E+03 -0.60590160068E+01  0.50729214792E+03  0.55129286102E+03  0.17300000000E+03 0. -1.
         -6    1    1    2    0  503  0.12889058772E+03  0.60590160068E+01  0.12579906358E+03  0.24980772541E+03  0.17300000000E+03 0. -1.
<mgrwt>
<rscale>  2 0.21582052E+03</rscale>
<asrwt>0</asrwt>
<pdfrwt beam="1">  1       21 0.11032244E+00 0.21582052E+03</pdfrwt>
<pdfrwt beam="2">  1       21 0.12923799E-01 0.21582052E+03</pdfrwt>
<totfact> 0.32885840E+04</totfact>
</mgrwt>
</event>
<event>
 4    1  0.3876841E+000  0.2220360E+03  0.7546771E-02  0.1132374E+00
         21   -1    0    0  503  502  0.00000000000E+00  0.00000000000E+00  0.68002863819E+03  0.68002863819E+03  0.00000000000E+00 0. -1.
         21   -1    0    0  501  503 -0.00000000000E+00 -0.00000000000E+00 -0.12995753200E+03  0.12995753200E+03  0.00000000000E+00 0.  1.
          6    1    1    2  501    0  0.13195838184E+03  0.44249170487E+02  0.54433278090E+03  0.58787599032E+03  0.17300000000E+03 0. -1.
         -6    1    1    2    0  502 -0.13195838184E+03 -0.44249170487E+02  0.57383252835E+01  0.22211017987E+03  0.17300000000E+03 0.  1.
<mgrwt>
<rscale>  2 0.22203604E+03</rscale>
<asrwt>0</asrwt>
<pdfrwt beam="1">  1       21 0.10461979E+00 0.22203604E+03</pdfrwt>
<pdfrwt beam="2">  1       21 0.19993467E-01 0.22203604E+03</pdfrwt>
<totfact> 0.16713486E+04</totfact>
</mgrwt>
</event>
<event>
 4    1  0.3876841E+000  0.1943971E+03  0.7546771E-02  0.1154554E+00
         21   -1    0    0  503  502  0.00000000000E+00  0.00000000000E+00  0.14792916880E+04  0.14792916880E+04  0.00000000000E+00 0.  1.
         21   -1    0    0  501  503 -0.00000000000E+00 -0.00000000000E+00 -0.28249525087E+02  0.28249525087E+02  0.00000000000E+00 0.  1.
          6    1    1    2  501    0 -0.12584702059E+01  0.88654756145E+02  0.49234473904E+03  0.52933315747E+03  0.17300000000E+03 0.  1.
         -6    1    1    2    0  502  0.12584702059E+01 -0.88654756145E+02  0.95869742383E+03  0.97820805557E+03  0.17300000000E+03 0.  1.
<mgrwt>
<rscale>  2 0.19439714E+03</rscale>
<asrwt>0</asrwt>
<pdfrwt beam="1">  1       21 0.22758328E+00 0.19439714E+03</pdfrwt>
<pdfrwt beam="2">  1       21 0.43460819E-02 0.19439714E+03</pdfrwt>
<totfact> 0.30788426E+04</totfact>
</mgrwt>
</event>
<event>
 4    1  0.3876841E+000  0.1993571E+03  0.7546771E-02  0.1150283E+00
         21   -1    0    0  501  502  0.00000000000E+00  0.00000000000E+00  0.43287609781E+02  0.43287609781E+02  0.00000000000E+00 0. -1.
         21   -1    0    0  502  503 -0.00000000000E+00 -0.00000000000E+00 -0.13313365896E+04  0.13313365896E+04  0.00000000000E+00 0.  1.
          6    1    1    2  501    0 -0.29253988561E+02 -0.94649111243E+02 -0.26111285036E+03  0.32851662169E+03  0.17300000000E+03 0. -1.
         -6    1    1    2    0  503  0.29253988561E+02  0.94649111243E+02 -0.10269361294E+04  0.10461075777E+04  0.17300000000E+03 0.  1.
<mgrwt>
<rscale>  2 0.19935709E+03</rscale>
<asrwt>0</asrwt>
<pdfrwt beam="1">  1       21 0.66596325E-02 0.19935709E+03</pdfrwt>
<pdfrwt beam="2">  1       21 0.20482101E+00 0.19935709E+03</pdfrwt>
<totfact> 0.20514973E+04</totfact>
</mgrwt>
</event>
<event>
 4    1  0.3876841E+000  0.2192941E+03  0.7546771E-02  0.1134410E+00
         21   -1    0    0  501  502  0.00000000000E+00  0.00000000000E+00  0.12883194043E+03  0.12883194043E+03  0.00000000000E+00 0.  1.
         21   -1    0    0  502  503 -0.00000000000E+00 -0.00000000000E+00 -0.37731746174E+03  0.37731746174E+03  0.00000000000E+00 0.  1.
          6    1    1    2  501    0 -0.12620845115E+03  0.47247547263E+02 -0.98051827306E+02  0.24021670363E+03  0.17300000000E+03 0.  1.
         -6    1    1    2    0  503  0.12620845115E+03 -0.47247547263E+02 -0.15043369400E+03  0.26593269854E+03  0.17300000000E+03 0.  1.
<mgrwt>
<rscale>  2 0.21929410E+03</rscale>
<asrwt>0</asrwt>
<pdfrwt beam="1">  1       21 0.19820298E-01 0.21929410E+03</pdfrwt>
<pdfrwt beam="2">  1       21 0.58048841E-01 0.21929410E+03</pdfrwt>
<totfact> 0.64517857E+04</totfact>
</mgrwt>
</event>
<event>
 4    1  0.3876841E+000  0.1774469E+03  0.7546771E-02  0.1170297E+00
         21   -1    0    0  501  502  0.00000000000E+00  0.00000000000E+00  0.21178181431E+03  0.21178181431E+03  0.00000000000E+00 0.  1.
         21   -1    0    0  502  503 -0.00000000000E+00 -0.00000000000E+00 -0.26290502050E+03  0.26290502050E+03  0.00000000000E+00 0.  1.
          6    1    1    2  501    0 -0.58820709214E+01 -0.39036129367E+02  0.13088317972E+03  0.22049450081E+03  0.17300000000E+03 0.  1.
         -6    1    1    2    0  503  0.58820709214E+01  0.39036129367E+02 -0.18200638590E+03  0.25419233400E+03  0.17300000000E+03 0.  1.
<mgrwt>
<rscale>  2 0.17744694E+03</rscale>
<asrwt>0</asrwt>
<pdfrwt beam="1">  1       21 0.32581818E-01 0.17744694E+03</pdfrwt>
<pdfrwt beam="2">  1       21 0.40446926E-01 0.17744694E+03</pdfrwt>
<totfact> 0.53769201E+04</totfact>
</mgrwt>
</event>
<event>
 4    1  0.3876841E+000  0.2389381E+03  0.7546771E-02  0.1120502E+00
         21   -1    0    0  503  502  0.00000000000E+00  0.00000000000E+00  0.35707152585E+03  0.35707152585E+03  0.00000000000E+00 0. -1.
         21   -1    0    0  501  503 -0.00000000000E+00 -0.00000000000E+00 -0.15991508313E+03  0.15991508313E+03  0.00000000000E+00 0. -1.
          6    1    1    2  501    0 -0.13849769781E+03  0.89335221602E+02  0.10195228017E+03  0.25978002531E+03  0.17300000000E+03 0. -1.
         -6    1    1    2    0  502  0.13849769781E+03 -0.89335221602E+02  0.95204162546E+02  0.25720658367E+03  0.17300000000E+03 0. -1.
<mgrwt>
<rscale>  2 0.23893805E+03</rscale>
<asrwt>0</asrwt>
<pdfrwt beam="1">  1       21 0.54934081E-01 0.23893805E+03</pdfrwt>
<pdfrwt beam="2">  1       21 0.24602321E-01 0.23893805E+03</pdfrwt>
<totfact> 0.47804062E+04</totfact>
</mgrwt>
</event>
<event>
 4    1  0.3876841E+000  0.1970562E+03  0.7546771E-02  0.1152247E+00
         21   -1    0    0  503  502  0.00000000000E+00  0.00000000000E+00  0.60771375030E+03  0.60771375030E+03  0.00000000000E+00 0.  1.
         21   -1    0    0  501  503 -0.00000000000E+00 -0.00000000000E+00 -0.15752888012E+03  0.15752888012E+03  0.00000000000E+00 0.  1.
          6    1    1    2  501    0  0.27073798839E+02 -0.90383439412E+02 -0.69893064191E+02  0.20908418669E+03  0.17300000000E+03 0.  1.
         -6    1    1    2    0  502 -0.27073798839E+02  0.90383439412E+02  0.52007793437E+03  0.55615844372E+03  0.17300000000E+03 0.  1.
<mgrwt>
<rscale>  2 0.19705623E+03</rscale>
<asrwt>0</asrwt>
<pdfrwt beam="1">  1       21 0.93494422E-01 0.19705623E+03</pdfrwt>
<pdfrwt beam="2">  1       21 0.24235213E-01 0.19705623E+03</pdfrwt>
<totfact> 0.15409531E+04</totfact>
</mgrwt>
</event>
<event>
 4    1  0.3876841E+000  0.2107259E+03  0.7546771E-02  0.1140992E+00
         21   -1    0    0  503  502  0.00000000000E+00  0.00000000000E+00  0.10317137685E+03  0.10317137685E+03  0.00000000000E+00 0. -1.
         21   -1    0    0  501  503 -0.00000000000E+00 -0.00000000000E+00 -0.43174831675E+03  0.43174831675E+03  0.00000000000E+00 0. -1.
          6    1    1    2  501    0 -0.11743665766E+03  0.26173590636E+02 -0.17920996851E+03  0.27662544753E+03  0.17300000000E+03 0. -1.
         -6    1    1    2    0  502  0.11743665766E+03 -0.26173590636E+02 -0.14936697139E+03  0.25829424607E+03  0.17300000000E+03 0. -1.
<mgrwt>
<rscale>  2 0.21072595E+03</rscale>
<asrwt>0</asrwt>
<pdfrwt beam="1">  1       21 0.15872520E-01 0.21072595E+03</pdfrwt>
<pdfrwt beam="2">  1       21 0.66422818E-01 0.21072595E+03</pdfrwt>
<totfact> 0.72971219E+04</totfact>
</mgrwt>
</event>
<event>
 4    1  0.3876841E+000  0.1779277E+03  0.7546771E-02  0.1169824E+00
         21   -1    0    0  501  502  0.00000000000E+00  0.00000000000E+00  0.14414213601E+04  0.14414213601E+04  0.00000000000E+00 0.  1.
         21   -1    0    0  502  503 -0.00000000000E+00 -0.00000000000E+00 -0.22125408079E+02  0.22125408079E+02  0.00000000000E+00 0.  1.
          6    1    1    2  501    0  0.19978447846E+02 -0.36470968625E+02  0.77229869300E+03  0.79252983612E+03  0.17300000000E+03 0. -1.
         -6    1    1    2    0  503 -0.19978447846E+02  0.36470968625E+02  0.64699725907E+03  0.67101693211E+03  0.17300000000E+03 0. -1.
<mgrwt>
<rscale>  2 0.17792771E+03</rscale>
<asrwt>0</asrwt>
<pdfrwt beam="1">  1       21 0.22175706E+00 0.17792771E+03</pdfrwt>
<pdfrwt beam="2">  1       21 0.34039101E-02 0.17792771E+03</pdfrwt>
<totfact> 0.50881502E+04</totfact>
</mgrwt>
</event>
<event>
 4    1  0.3876841E+000  0.2435750E+03  0.7546771E-02  0.1117434E+00
         21   -1    0    0  501  502  0.00000000000E+00  0.00000000000E+00  0.24347319970E+03  0.24347319970E+03  0.00000000000E+00 0. -1.
         21   -1    0    0  502  503 -0.00000000000E+00 -0.00000000000E+00 -0.25735966049E+03  0.25735966049E+03  0.00000000000E+00 0.  1.
          6    1    1    2  501    0  0.15176410868E+03  0.79796172679E+02  0.50797303183E+02  0.24881547353E+03  0.17300000000E+03 0.  1.
         -6    1    1    2    0  503 -0.15176410868E+03 -0.79796172679E+02 -0.64683763975E+02  0.25201738666E+03  0.17300000000E+03 0. -1.
<mgrwt>
<rscale>  2 0.24357499E+03</rscale>
<asrwt>0</asrwt>
<pdfrwt beam="1">  1       21 0.37457416E-01 0.24357499E+03</pdfrwt>
<pdfrwt beam="2">  1       21 0.39593794E-01 0.24357499E+03</pdfrwt>
<totfact> 0.41265372E+04</totfact>
</mgrwt>
</event>
<event>
 4    1  0.3876841E+000  0.1867888E+03  0.7546771E-02  0.1161390E+00
         21   -1    0    0  501  502  0.00000000000E+00  0.00000000000E+00  0.72639500410E+02  0.72639500410E+02  0.00000000000E+00 0.  1.
         21   -1    0    0  502  503 -0.00000000000E+00 -0.00000000000E+00 -0.48575278948E+03  0.48575278948E+03  0.00000000000E+00 0.  1.
          6    1    1    2  501    0  0.58004726440E+02  0.39956367632E+02 -0.23608866112E+03  0.30104470684E+03  0.17300000000E+03 0.  1.
         -6    1    1    2    0  503 -0.58004726440E+02 -0.39956367632E+02 -0.17702462795E+03  0.25734758305E+03  0.17300000000E+03 0.  1.
<mgrwt>
<rscale>  2 0.18678881E+03</rscale>
<asrwt>0</asrwt>
<pdfrwt beam="1">  1       21 0.11175308E-01 0.18678881E+03</pdfrwt>
<pdfrwt beam="2">  1       21 0.74731200E-01 0.18678881E+03</pdfrwt>
<totfact> 0.10703148E+05</totfact>
</mgrwt>
</event>
<event>
 4    1  0.3876841E+000  0.2325539E+03  0.7546771E-02  0.1124855E+00
         21   -1    0    0  503  502  0.00000000000E+00  0.00000000000E+00  0.65004491621E+02  0.65004491621E+02  0.00000000000E+00 0. -1.
         21   -1    0    0  501  503 -0.00000000000E+00 -0.00000000000E+00 -0.12580352192E+04  0.12580352192E+04  0.00000000000E+00 0. -1.
          6    1    1    2  501    0 -0.51730428957E+02  0.14654795080E+03 -0.98149524672E+03  0.10086695487E+04  0.17300000000E+03 0. -1.
         -6    1    1    2    0  502  0.51730428957E+02 -0.14654795080E+03 -0.21153548086E+03  0.31437016211E+03  0.17300000000E+03 0. -1.
<mgrwt>
<rscale>  2 0.23255395E+03</rscale>
<asrwt>0</asrwt>
<pdfrwt beam="1">  1       21 0.10000692E-01 0.23255395E+03</pdfrwt>
<pdfrwt beam="2">  1       21 0.19354387E+00 0.23255395E+03</pdfrwt>
<totfact> 0.11635570E+04</totfact>
</mgrwt>
</event>
<event>
 4    1  0.3876841E+000  0.1882910E+03  0.7546771E-02  0.1160012E+00
         21   -1    0    0  501  502  0.00000000000E+00  0.00000000000E+00  0.73283004914E+02  0.73283004914E+02  0.00000000000E+00 0.  1.
         21   -1    0    0  502  503 -0.00000000000E+00 -0.00000000000E+00 -0.70589002892E+03  0.70589002892E+03  0.00000000000E+00 0.  1.
          6    1    1    2  501    0 -0.18808966623E+01  0.74303063295E+02 -0.97773513741E+02  0.21216301039E+03  0.17300000000E+03 0.  1.
         -6    1    1    2    0  503  0.18808966623E+01 -0.74303063295E+02 -0.53483351027E+03  0.56701002345E+03  0.17300000000E+03 0.  1.
<mgrwt>
<rscale>  2 0.18829095E+03</rscale>
<asrwt>0</asrwt>
<pdfrwt beam="1">  1       21 0.11274308E-01 0.18829095E+03</pdfrwt>
<pdfrwt beam="2">  1       21 0.10859847E+00 0.18829095E+03</pdfrwt>
<totfact> 0.44289195E+04</totfact>
</mgrwt>
</event>
<event>
 4    1  0.3876841E+000  0.1769272E+03  0.7546771E-02  0.1170811E+00
         21   -1    0    0  501  502  0.00000000000E+00  0.00000000000E+00  0.79595976706E+02  0.79595976706E+02  0.00000000000E+00 0. -1.
         21   -1    0    0  502  503 -0.00000000000E+00 -0.00000000000E+00 -0.52704351503E+03  0.52704351503E+03  0.00000000000E+00 0. -1.
          6    1    1    2  501    0  0.12811906616E+02 -0.34786088606E+02 -0.70913629396E+02  0.19060944296E+03  0.17300000000E+03 0. -1.
         -6    1    1    2    0  503 -0.12811906616E+02  0.34786088606E+02 -0.37653390893E+03  0.41603004878E+03  0.17300000000E+03 0. -1.
<mgrwt>
<rscale>  2 0.17692715E+03</rscale>
<asrwt>0</asrwt>
<pdfrwt beam="1">  1       21 0.12245535E-01 0.17692715E+03</pdfrwt>
<pdfrwt beam="2">  1       21 0.81083619E-01 0.17692715E+03</pdfrwt>
<totfact> 0.76015576E+04</totfact>
</mgrwt>
</event>
<event>
 4    1  0.3876841E+000  0.1817001E+03  0.7546771E-02  0.1166168E+00
         21   -1    0    0  501  502  0.00000000000E+00  0.00000000000E+00  0.42536774841E+03  0.42536774841E+03  0.00000000000E+00 0.  1.
         21   -1    0    0  502  503 -0.00000000000E+00 -0.00000000000E+00 -0.85053909165E+02  0.85053909165E+02  0.00000000000E+00 0.  1.
          6    1    1    2  501    0 -0.21675328711E+02  0.51147773016E+02  0.24563256029E+03  0.30553276294E+03  0.17300000000E+03 0.  1.
         -6    1    1    2    0  503  0.21675328711E+02 -0.51147773016E+02  0.94681278962E+02  0.20488889464E+03  0.17300000000E+03 0.  1.
<mgrwt>
<rscale>  2 0.18170007E+03</rscale>
<asrwt>0</asrwt>
<pdfrwt beam="1">  1       21 0.65441191E-01 0.18170007E+03</pdfrwt>
<pdfrwt beam="2">  1       21 0.13085217E-01 0.18170007E+03</pdfrwt>
<totfact> 0.10833156E+05</totfact>
</mgrwt>
</event>
<event>
 4    1  0.3876841E+000  0.2758013E+03  0.7546771E-02  0.1098005E+00
         21   -1    0    0  503  502  0.00000000000E+00  0.00000000000E+00  0.46044442487E+03  0.46044442487E+03  0.00000000000E+00 0. -1.
         21   -1    0    0  501  503 -0.00000000000E+00 -0.00000000000E+00 -0.17710596563E+03  0.17710596563E+03  0.00000000000E+00 0. -1.
          6    1    1    2  501    0  0.21134603018E+03  0.38343527031E+02  0.59024998646E+02  0.28204666459E+03  0.17300000000E+03 0. -1.
         -6    1    1    2    0  502 -0.21134603018E+03 -0.38343527031E+02  0.22431346059E+03  0.35550372592E+03  0.17300000000E+03 0. -1.
<mgrwt>
<rscale>  2 0.27580132E+03</rscale>
<asrwt>0</asrwt>
<pdfrwt beam="1">  1       21 0.70837603E-01 0.27580132E+03</pdfrwt>
<pdfrwt beam="2">  1       21 0.27247072E-01 0.27580132E+03</pdfrwt>
<totfact> 0.22216014E+04</totfact>
</mgrwt>
</event>
<event>
 4    1  0.3876841E+000  0.2639441E+03  0.7546771E-02  0.1104796E+00
         21   -1    0    0  503  502  0.00000000000E+00  0.00000000000E+00  0.66111241143E+03  0.66111241143E+03  0.00000000000E+00 0. -1.
         21   -1    0    0  501  503 -0.00000000000E+00 -0.00000000000E+00 -0.18473654842E+03  0.18473654842E+03  0.00000000000E+00 0. -1.
          6    1    1    2  501    0  0.82734423469E+02 -0.18136288397E+03 -0.39006302901E+02  0.26681074224E+03  0.17300000000E+03 0. -1.
         -6    1    1    2    0  502 -0.82734423469E+02  0.18136288397E+03  0.51538216591E+03  0.57903821761E+03  0.17300000000E+03 0. -1.
<mgrwt>
<rscale>  2 0.26394409E+03</rscale>
<asrwt>0</asrwt>
<pdfrwt beam="1">  1       21 0.10170960E+00 0.26394409E+03</pdfrwt>
<pdfrwt beam="2">  1       21 0.28421008E-01 0.26394409E+03</pdfrwt>
<totfact> 0.89216421E+03</totfact>
</mgrwt>
</event>
<event>
 4    1  0.3876841E+000  0.1737379E+03  0.7546771E-02  0.1174005E+00
         21   -1    0    0  503  502  0.00000000000E+00  0.00000000000E+00  0.17752311040E+03  0.17752311040E+03  0.00000000000E+00 0.  1.
         21   -1    0    0  501  503 -0.00000000000E+00 -0.00000000000E+00 -0.28103359635E+03  0.28103359635E+03  0.00000000000E+00 0.  1.
          6    1    1    2  501    0  0.11039676015E+01  0.15957204097E+02  0.92338752394E+02  0.19675186480E+03  0.17300000000E+03 0.  1.
         -6    1    1    2    0  502 -0.11039676015E+01 -0.15957204097E+02 -0.19584923834E+03  0.26180484195E+03  0.17300000000E+03 0.  1.
<mgrwt>
<rscale>  2 0.17373788E+03</rscale>
<asrwt>0</asrwt>
<pdfrwt beam="1">  1       21 0.27311248E-01 0.17373788E+03</pdfrwt>
<pdfrwt beam="2">  1       21 0.43235938E-01 0.17373788E+03</pdfrwt>
<totfact> 0.66294765E+04</totfact>
</mgrwt>
</event>
<event>
 4    1  0.3876841E+000  0.1771346E+03  0.7546771E-02  0.1170605E+00
         21   -1    0    0  503  502  0.00000000000E+00  0.00000000000E+00  0.58802251575E+02  0.58802251575E+02  0.00000000000E+00 0.  1.
         21   -1    0    0  501  503 -0.00000000000E+00 -0.00000000000E+00 -0.71144315120E+03  0.71144315120E+03  0.00000000000E+00 0.  1.
          6    1    1    2  501    0  0.14143433405E+02 -0.35321626798E+02 -0.51887434674E+03  0.54827661060E+03  0.17300000000E+03 0.  1.
         -6    1    1    2    0  502 -0.14143433405E+02  0.35321626798E+02 -0.13376655289E+03  0.22196879217E+03  0.17300000000E+03 0.  1.
<mgrwt>
<rscale>  2 0.17713456E+03</rscale>
<asrwt>0</asrwt>
<pdfrwt beam="1">  1       21 0.90465002E-02 0.17713456E+03</pdfrwt>
<pdfrwt beam="2">  1       21 0.10945279E+00 0.17713456E+03</pdfrwt>
<totfact> 0.64467369E+04</totfact>
</mgrwt>
</event>
<event>
 4    1  0.3876841E+000  0.1959035E+03  0.7546771E-02  0.1153242E+00
         21   -1    0    0  503  502  0.00000000000E+00  0.00000000000E+00  0.22062126567E+03  0.22062126567E+03  0.00000000000E+00 0.  1.
         21   -1    0    0  501  503 -0.00000000000E+00 -0.00000000000E+00 -0.23589578050E+03  0.23589578050E+03  0.00000000000E+00 0.  1.
          6    1    1    2  501    0  0.88019289067E+02 -0.26490913958E+02  0.10932759801E+03  0.22434501879E+03  0.17300000000E+03 0.  1.
         -6    1    1    2    0  502 -0.88019289067E+02  0.26490913958E+02 -0.12460211284E+03  0.23217202737E+03  0.17300000000E+03 0.  1.
<mgrwt>
<rscale>  2 0.19590346E+03</rscale>
<asrwt>0</asrwt>
<pdfrwt beam="1">  1       21 0.33941733E-01 0.19590346E+03</pdfrwt>
<pdfrwt beam="2">  1       21 0.36291659E-01 0.19590346E+03</pdfrwt>
<totfact> 0.61143619E+04</totfact>
</mgrwt>
</event>
<event>
 4    1  0.3876841E+000  0.1785533E+03  0.7546771E-02  0.1169211E+00
         21   -1    0    0  503  502  0.00000000000E+00  0.00000000000E+00  0.36945131800E+03  0.36945131800E+03  0.00000000000E+00 0.  1.
         21   -1    0    0  501  503 -0.00000000000E+00 -0.00000000000E+00 -0.14580240650E+03  0.14580240650E+03  0.00000000000E+00 0.  1.
          6    1    1    2  501    0 -0.14009328956E+02  0.41904972826E+02 -0.52764003856E+02  0.18618627272E+03  0.17300000000E+03 0.  1.
         -6    1    1    2    0  502  0.14009328956E+02 -0.41904972826E+02  0.27641291536E+03  0.32906745178E+03  0.17300000000E+03 0.  1.
<mgrwt>
<rscale>  2 0.17855332E+03</rscale>
<asrwt>0</asrwt>
<pdfrwt beam="1">  1       21 0.56838664E-01 0.17855332E+03</pdfrwt>
<pdfrwt beam="2">  1       21 0.22431140E-01 0.17855332E+03</pdfrwt>
<totfact> 0.54489070E+04</totfact>
</mgrwt>
</event>
<event>
 4    1  0.3876841E+000  0.1871262E+03  0.7546771E-02  0.1161079E+00
         21   -1    0    0  501  502  0.00000000000E+00  0.00000000000E+00  0.67799972520E+03  0.67799972520E+03  0.00000000000E+00 0.  1.
         21   -1    0    0  502  503 -0.00000000000E+00 -0.00000000000E+00 -0.16871148447E+03  0.16871148447E+03  0.00000000000E+00 0.  1.
          6    1    1    2  501    0 -0.46702570055E+02  0.53908093742E+02  0.60729646080E+03  0.63547242577E+03  0.17300000000E+03 0.  1.
         -6    1    1    2    0  503  0.46702570055E+02 -0.53908093742E+02 -0.98008220072E+02  0.21123878390E+03  0.17300000000E+03 0.  1.
<mgrwt>
<rscale>  2 0.18712619E+03</rscale>
<asrwt>0</asrwt>
<pdfrwt beam="1">  1       21 0.10430765E+00 0.18712619E+03</pdfrwt>
<pdfrwt beam="2">  1       21 0.25955613E-01 0.18712619E+03</pdfrwt>
<totfact> 0.10505654E+04</totfact>
</mgrwt>
</event>
<event>
 4    1  0.3876841E+000  0.1945453E+03  0.7546771E-02  0.1154424E+00
         21   -1    0    0  503  502  0.00000000000E+00  0.00000000000E+00  0.32522044903E+02  0.32522044903E+02  0.00000000000E+00 0.  1.
         21   -1    0    0  501  503 -0.00000000000E+00 -0.00000000000E+00 -0.11640406750E+04  0.11640406750E+04  0.00000000000E+00 0.  1.
          6    1    1    2  501    0 -0.70882582525E+02  0.53800967646E+02 -0.57503437763E+03  0.60705223835E+03  0.17300000000E+03 0.  1.
         -6    1    1    2    0  502  0.70882582525E+02 -0.53800967646E+02 -0.55648425250E+03  0.58951048159E+03  0.17300000000E+03 0.  1.
<mgrwt>
<rscale>  2 0.19454533E+03</rscale>
<asrwt>0</asrwt>
<pdfrwt beam="1">  1       21 0.50033917E-02 0.19454533E+03</pdfrwt>
<pdfrwt beam="2">  1       21 0.17908318E+00 0.19454533E+03</pdfrwt>
<totfact> 0.49540862E+04</totfact>
</mgrwt>
</event>
<event>
 4    1  0.3876841E+000  0.2023677E+03  0.7546771E-02  0.1147757E+00
         21   -1    0    0  503  502  0.00000000000E+00  0.00000000000E+00  0.29645036947E+03  0.29645036947E+03  0.00000000000E+00 0.  1.
         21   -1    0    0  501  503 -0.00000000000E+00 -0.00000000000E+00 -0.14464970856E+03  0.14464970856E+03  0.00000000000E+00 0. -1.
          6    1    1    2  501    0  0.92764518639E+02 -0.49177727451E+02  0.12267501464E+03  0.23664712974E+03  0.17300000000E+03 0.  1.
         -6    1    1    2    0  502 -0.92764518639E+02  0.49177727451E+02  0.29125646266E+02  0.20445294829E+03  0.17300000000E+03 0. -1.
<mgrwt>
<rscale>  2 0.20236775E+03</rscale>
<asrwt>0</asrwt>
<pdfrwt beam="1">  1       21 0.45607749E-01 0.20236775E+03</pdfrwt>
<pdfrwt beam="2">  1       21 0.22253801E-01 0.20236775E+03</pdfrwt>
<totfact> 0.86722655E+04</totfact>
</mgrwt>
</event>
<event>
 4    1  0.3876841E+000  0.2492144E+03  0.7546771E-02  0.1113802E+00
         21   -1    0    0  503  502  0.00000000000E+00  0.00000000000E+00  0.48989279939E+03  0.48989279939E+03  0.00000000000E+00 0. -1.
         21   -1    0    0  501  503 -0.00000000000E+00 -0.00000000000E+00 -0.25749965103E+03  0.25749965103E+03  0.00000000000E+00 0.  1.
          6    1    1    2  501    0  0.14799571711E+03  0.10137109383E+03 -0.15006191728E+03  0.29090618756E+03  0.17300000000E+03 0.  1.
         -6    1    1    2    0  502 -0.14799571711E+03 -0.10137109383E+03  0.38245506564E+03  0.45648626286E+03  0.17300000000E+03 0. -1.
<mgrwt>
<rscale>  2 0.24921443E+03</rscale>
<asrwt>0</asrwt>
<pdfrwt beam="1">  1       21 0.75368123E-01 0.24921443E+03</pdfrwt>
<pdfrwt beam="2">  1       21 0.39615331E-01 0.24921443E+03</pdfrwt>
<totfact> 0.93187170E+03</totfact>
</mgrwt>
</event>
<event>
 4    1  0.3876841E+000  0.1947600E+03  0.7546771E-02  0.1154237E+00
         21   -1    0    0  503  502  0.00000000000E+00  0.00000000000E+00  0.58874705959E+02  0.58874705959E+02  0.00000000000E+00 0. -1.
         21   -1    0    0  501  503 -0.00000000000E+00 -0.00000000000E+00 -0.12487090477E+04  0.12487090477E+04  0.00000000000E+00 0. -1.
          6    1    1    2  501    0 -0.79329885008E+02  0.41342683540E+02 -0.10497833794E+04  0.10676968632E+04  0.17300000000E+03 0. -1.
         -6    1    1    2    0  502  0.79329885008E+02 -0.41342683540E+02 -0.14005096235E+03  0.23988689042E+03  0.17300000000E+03 0. -1.
<mgrwt>
<rscale>  2 0.19475998E+03</rscale>
<asrwt>0</asrwt>
<pdfrwt beam="1">  1       21 0.90576468E-02 0.19475998E+03</pdfrwt>
<pdfrwt beam="2">  1       21 0.19210909E+00 0.19475998E+03</pdfrwt>
<totfact> 0.14568955E+04</totfact>
</mgrwt>
</event>
<event>
 4    1  0.3876841E+000  0.1733140E+03  0.7546771E-02  0.1174435E+00
         21   -1    0    0  501  502  0.00000000000E+00  0.00000000000E+00  0.22749184263E+04  0.22749184263E+04  0.00000000000E+00 0. -1.
         21   -1    0    0  502  503 -0.00000000000E+00 -0.00000000000E+00 -0.13270169540E+02  0.13270169540E+02  0.00000000000E+00 0. -1.
          6    1    1    2  501    0 -0.64051512502E+00  0.10407702590E+02  0.12116916232E+04  0.12240238234E+04  0.17300000000E+03 0.  1.
         -6    1    1    2    0  503  0.64051512502E+00 -0.10407702590E+02  0.10499566336E+04  0.10641647725E+04  0.17300000000E+03 0.  1.
<mgrwt>
<rscale>  2 0.17331397E+03</rscale>
<asrwt>0</asrwt>
<pdfrwt beam="1">  1       21 0.34998714E+00 0.17331397E+03</pdfrwt>
<pdfrwt beam="2">  1       21 0.20415663E-02 0.17331397E+03</pdfrwt>
<totfact> 0.21293708E+04</totfact>
</mgrwt>
</event>
<event>
 4    1  0.3876841E+000  0.5079619E+03  0.7546771E-02  0.1011721E+00
         21   -1    0    0  503  502  0.00000000000E+00  0.00000000000E+00  0.12660819104E+04  0.12660819104E+04  0.00000000000E+00 0.  1.
         21   -1    0    0  501  503 -0.00000000000E+00 -0.00000000000E+00 -0.20730603501E+03  0.20730603501E+03  0.00000000000E+00 0. -1.
          6    1    1    2  501    0 -0.18020078404E+03 -0.44229395222E+03  0.43355862807E+03  0.66783107648E+03  0.17300000000E+03 0.  1.
         -6    1    1    2    0  502  0.18020078404E+03  0.44229395222E+03  0.62521724730E+03  0.80555686892E+03  0.17300000000E+03 0. -1.
<mgrwt>
<rscale>  2 0.50796187E+03</rscale>
<asrwt>0</asrwt>
<pdfrwt beam="1">  1       21 0.19478183E+00 0.50796187E+03</pdfrwt>
<pdfrwt beam="2">  1       21 0.31893237E-01 0.50796187E+03</pdfrwt>
<totfact> 0.11217952E+03</totfact>
</mgrwt>
</event>
<event>
 4    1  0.3876841E+000  0.1741795E+03  0.7546771E-02  0.1173558E+00
         21   -1    0    0  503  502  0.00000000000E+00  0.00000000000E+00  0.10655679664E+03  0.10655679664E+03  0.00000000000E+00 0. -1.
         21   -1    0    0  501  503 -0.00000000000E+00 -0.00000000000E+00 -0.74187604076E+03  0.74187604076E+03  0.00000000000E+00 0. -1.
          6    1    1    2  501    0  0.11419097920E+01 -0.20203811659E+02 -0.65066834233E+03  0.67357834709E+03  0.17300000000E+03 0. -1.
         -6    1    1    2    0  502 -0.11419097920E+01  0.20203811659E+02  0.15349098209E+02  0.17485449030E+03  0.17300000000E+03 0. -1.
<mgrwt>
<rscale>  2 0.17417950E+03</rscale>
<asrwt>0</asrwt>
<pdfrwt beam="1">  1       21 0.16393353E-01 0.17417950E+03</pdfrwt>
<pdfrwt beam="2">  1       21 0.11413478E+00 0.17417950E+03</pdfrwt>
<totfact> 0.20151804E+04</totfact>
</mgrwt>
</event>
<event>
 4    1  0.3876841E+000  0.1945077E+03  0.7546771E-02  0.1154457E+00
         21   -1    0    0  503  502  0.00000000000E+00  0.00000000000E+00  0.17423244455E+03  0.17423244455E+03  0.00000000000E+00 0. -1.
         21   -1    0    0  501  503 -0.00000000000E+00 -0.00000000000E+00 -0.23101070467E+03  0.23101070467E+03  0.00000000000E+00 0.  1.
          6    1    1    2  501    0  0.86650805026E+02 -0.19896918531E+02 -0.78034812088E+02  0.20957738732E+03  0.17300000000E+03 0.  1.
         -6    1    1    2    0  502 -0.86650805026E+02  0.19896918531E+02  0.21256551971E+02  0.19566576190E+03  0.17300000000E+03 0.  1.
<mgrwt>
<rscale>  2 0.19450771E+03</rscale>
<asrwt>0</asrwt>
<pdfrwt beam="1">  1       21 0.26804991E-01 0.19450771E+03</pdfrwt>
<pdfrwt beam="2">  1       21 0.35540109E-01 0.19450771E+03</pdfrwt>
<totfact> 0.10109698E+05</totfact>
</mgrwt>
</event>
<event>
 4    1  0.3876841E+000  0.1800802E+03  0.7546771E-02  0.1167725E+00
         21   -1    0    0  503  502  0.00000000000E+00  0.00000000000E+00  0.12432269977E+03  0.12432269977E+03  0.00000000000E+00 0.  1.
         21   -1    0    0  501  503 -0.00000000000E+00 -0.00000000000E+00 -0.36185288613E+03  0.36185288613E+03  0.00000000000E+00 0.  1.
          6    1    1    2  501    0 -0.38301822900E+01  0.49851682322E+02 -0.24719802553E+03  0.30583610702E+03  0.17300000000E+03 0.  1.
         -6    1    1    2    0  502  0.38301822900E+01 -0.49851682322E+02  0.96678391750E+01  0.18033947888E+03  0.17300000000E+03 0.  1.
<mgrwt>
<rscale>  2 0.18008015E+03</rscale>
<asrwt>0</asrwt>
<pdfrwt beam="1">  1       21 0.19126569E-01 0.18008015E+03</pdfrwt>
<pdfrwt beam="2">  1       21 0.55669676E-01 0.18008015E+03</pdfrwt>
<totfact> 0.76669673E+04</totfact>
</mgrwt>
</event>
<event>
 4    1  0.3876841E+000  0.1822410E+03  0.7546771E-02  0.1165652E+00
         21   -1    0    0  501  502  0.00000000000E+00  0.00000000000E+00  0.61112698054E+02  0.61112698054E+02  0.00000000000E+00 0. -1.
         21   -1    0    0  502  503 -0.00000000000E+00 -0.00000000000E+00 -0.60956244458E+03  0.60956244458E+03  0.00000000000E+00 0. -1.
          6    1    1    2  501    0 -0.54502653580E+02 -0.17670161741E+02 -0.16378890996E+03  0.24502771454E+03  0.17300000000E+03 0. -1.
         -6    1    1    2    0  503  0.54502653580E+02  0.17670161741E+02 -0.38466083657E+03  0.42564742810E+03  0.17300000000E+03 0. -1.
<mgrwt>
<rscale>  2 0.18224098E+03</rscale>
<asrwt>0</asrwt>
<pdfrwt beam="1">  1       21 0.94019536E-02 0.18224098E+03</pdfrwt>
<pdfrwt beam="2">  1       21 0.93778838E-01 0.18224098E+03</pdfrwt>
<totfact> 0.86755366E+04</totfact>
</mgrwt>
</event>
<event>
 4    1  0.3876841E+000  0.2702168E+03  0.7546771E-02  0.1101156E+00
         21   -1    0    0  503  502  0.00000000000E+00  0.00000000000E+00  0.13936915695E+03  0.13936915695E+03  0.00000000000E+00 0.  1.
         21   -1    0    0  501  503 -0.00000000000E+00 -0.00000000000E+00 -0.10845871208E+04  0.10845871208E+04  0.00000000000E+00 0.  1.
          6    1    1    2  501    0  0.39333761031E+02 -0.20381602211E+03 -0.91261588629E+03  0.95177984405E+03  0.17300000000E+03 0.  1.
         -6    1    1    2    0  502 -0.39333761031E+02  0.20381602211E+03 -0.32602077601E+02  0.27217643375E+03  0.17300000000E+03 0.  1.
<mgrwt>
<rscale>  2 0.27021679E+03</rscale>
<asrwt>0</asrwt>
<pdfrwt beam="1">  1       21 0.21441408E-01 0.27021679E+03</pdfrwt>
<pdfrwt beam="2">  1       21 0.16685956E+00 0.27021679E+03</pdfrwt>
<totfact> 0.42891948E+03</totfact>
</mgrwt>
</event>
<event>
 4    1  0.3876841E+000  0.1792668E+03  0.7546771E-02  0.1168515E+00
         21   -1    0    0  501  502  0.00000000000E+00  0.00000000000E+00  0.42351089560E+02  0.42351089560E+02  0.00000000000E+00 0. -1.
         21   -1    0    0  502  503 -0.00000000000E+00 -0.00000000000E+00 -0.76822453984E+03  0.76822453984E+03  0.00000000000E+00 0. -1.
          6    1    1    2  501    0 -0.38823031490E+01  0.46824255155E+02 -0.31807915647E+03  0.36511769737E+03  0.17300000000E+03 0. -1.
         -6    1    1    2    0  503  0.38823031490E+01 -0.46824255155E+02 -0.40779429381E+03  0.44545793204E+03  0.17300000000E+03 0. -1.
<mgrwt>
<rscale>  2 0.17926679E+03</rscale>
<asrwt>0</asrwt>
<pdfrwt beam="1">  1       21 0.65155524E-02 0.17926679E+03</pdfrwt>
<pdfrwt beam="2">  1       21 0.11818839E+00 0.17926679E+03</pdfrwt>
<totfact> 0.94414030E+04</totfact>
</mgrwt>
</event>
<event>
 4    1  0.3876841E+000  0.2143632E+03  0.7546771E-02  0.1138157E+00
         21   -1    0    0  503  502  0.00000000000E+00  0.00000000000E+00  0.61699848923E+02  0.61699848923E+02  0.00000000000E+00 0. -1.
         21   -1    0    0  501  503 -0.00000000000E+00 -0.00000000000E+00 -0.91495990258E+03  0.91495990258E+03  0.00000000000E+00 0. -1.
          6    1    1    2  501    0  0.63210997403E+02 -0.10966751769E+03 -0.63724614518E+03  0.67233491965E+03  0.17300000000E+03 0. -1.
         -6    1    1    2    0  502 -0.63210997403E+02  0.10966751769E+03 -0.21601390848E+03  0.30432483186E+03  0.17300000000E+03 0. -1.
<mgrwt>
<rscale>  2 0.21436323E+03</rscale>
<asrwt>0</asrwt>
<pdfrwt beam="1">  1       21 0.94922848E-02 0.21436323E+03</pdfrwt>
<pdfrwt beam="2">  1       21 0.14076306E+00 0.21436323E+03</pdfrwt>
<totfact> 0.30980900E+04</totfact>
</mgrwt>
</event>
<event>
 4    1  0.3876841E+000  0.1887367E+03  0.7546771E-02  0.1159606E+00
         21   -1    0    0  501  502  0.00000000000E+00  0.00000000000E+00  0.49317233556E+03  0.49317233556E+03  0.00000000000E+00 0.  1.
         21   -1    0    0  502  503 -0.00000000000E+00 -0.00000000000E+00 -0.98695505476E+02  0.98695505476E+02  0.00000000000E+00 0.  1.
          6    1    1    2  501    0 -0.36293365219E+02 -0.66146419793E+02  0.35048500682E+03  0.39807197492E+03  0.17300000000E+03 0.  1.
         -6    1    1    2    0  503  0.36293365219E+02  0.66146419793E+02  0.43991823264E+02  0.19379586612E+03  0.17300000000E+03 0.  1.
<mgrwt>
<rscale>  2 0.18873674E+03</rscale>
<asrwt>0</asrwt>
<pdfrwt beam="1">  1       21 0.75872666E-01 0.18873674E+03</pdfrwt>
<pdfrwt beam="2">  1       21 0.15183924E-01 0.18873674E+03</pdfrwt>
<totfact> 0.59550443E+04</totfact>
</mgrwt>
</event>
<event>
 4    1  0.3876841E+000  0.2579416E+03  0.7546771E-02  0.1108386E+00
         21   -1    0    0  503  502  0.00000000000E+00  0.00000000000E+00  0.16865303373E+03  0.16865303373E+03  0.00000000000E+00 0. -1.
         21   -1    0    0  501  503 -0.00000000000E+00 -0.00000000000E+00 -0.44884820947E+03  0.44884820947E+03  0.00000000000E+00 0.  1.
          6    1    1    2  501    0  0.12464138558E+03 -0.14515305996E+03 -0.24753225877E+03  0.35749979713E+03  0.17300000000E+03 0.  1.
         -6    1    1    2    0  502 -0.12464138558E+03  0.14515305996E+03 -0.32662916973E+02  0.26000144608E+03  0.17300000000E+03 0. -1.
<mgrwt>
<rscale>  2 0.25794163E+03</rscale>
<asrwt>0</asrwt>
<pdfrwt beam="1">  1       21 0.25946620E-01 0.25794163E+03</pdfrwt>
<pdfrwt beam="2">  1       21 0.69053571E-01 0.25794163E+03</pdfrwt>
<totfact> 0.26050691E+04</totfact>
</mgrwt>
</event>
<event>
 4    1  0.3876841E+000  0.1779969E+03  0.7546771E-02  0.1169756E+00
         21   -1    0    0  503  502  0.00000000000E+00  0.00000000000E+00  0.50645527651E+02  0.50645527651E+02  0.00000000000E+00 0. -1.
         21   -1    0    0  501  503 -0.00000000000E+00 -0.00000000000E+00 -0.16639859683E+04  0.16639859683E+04  0.00000000000E+00 0. -1.
          6    1    1    2  501    0  0.74283632484E+01  0.41215592440E+02 -0.14839205788E+04  0.14945578576E+04  0.17300000000E+03 0. -1.
         -6    1    1    2    0  502 -0.74283632484E+01 -0.41215592440E+02 -0.12941986186E+03  0.22007363832E+03  0.17300000000E+03 0. -1.
<mgrwt>
<rscale>  2 0.17799693E+03</rscale>
<asrwt>0</asrwt>
<pdfrwt beam="1">  1       21 0.77916189E-02 0.17799693E+03</pdfrwt>
<pdfrwt beam="2">  1       21 0.25599786E+00 0.17799693E+03</pdfrwt>
<totfact> 0.78215671E+03</totfact>
</mgrwt>
</event>
<event>
 4    1  0.3876841E+000  0.1834138E+03  0.7546771E-02  0.1164539E+00
         21   -1    0    0  503  502  0.00000000000E+00  0.00000000000E+00  0.60964213611E+02  0.60964213611E+02  0.00000000000E+00 0.  1.
         21   -1    0    0  501  503 -0.00000000000E+00 -0.00000000000E+00 -0.87822290230E+03  0.87822290230E+03  0.00000000000E+00 0.  1.
          6    1    1    2  501    0  0.89039724875E+01 -0.60269048247E+02 -0.69491769042E+03  0.71871498897E+03  0.17300000000E+03 0.  1.
         -6    1    1    2    0  502 -0.89039724875E+01  0.60269048247E+02 -0.12234099827E+03  0.22047212694E+03  0.17300000000E+03 0.  1.
<mgrwt>
<rscale>  2 0.18341385E+03</rscale>
<asrwt>0</asrwt>
<pdfrwt beam="1">  1       21 0.93791102E-02 0.18341385E+03</pdfrwt>
<pdfrwt beam="2">  1       21 0.13511121E+00 0.18341385E+03</pdfrwt>
<totfact> 0.35806259E+04</totfact>
</mgrwt>
</event>
<event>
 4    1  0.3876841E+000  0.1960021E+03  0.7546771E-02  0.1153157E+00
         21   -1    0    0  503  502  0.00000000000E+00  0.00000000000E+00  0.60951473166E+02  0.60951473166E+02  0.00000000000E+00 0.  1.
         21   -1    0    0  501  503 -0.00000000000E+00 -0.00000000000E+00 -0.64795715161E+03  0.64795715161E+03  0.00000000000E+00 0.  1.
          6    1    1    2  501    0  0.75329542434E+02 -0.53040478958E+02 -0.35203912477E+03  0.40292477926E+03  0.17300000000E+03 0.  1.
         -6    1    1    2    0  502 -0.75329542434E+02  0.53040478958E+02 -0.23496655367E+03  0.30598384551E+03  0.17300000000E+03 0.  1.
<mgrwt>
<rscale>  2 0.19600212E+03</rscale>
<asrwt>0</asrwt>
<pdfrwt beam="1">  1       21 0.93771494E-02 0.19600212E+03</pdfrwt>
<pdfrwt beam="2">  1       21 0.99685719E-01 0.19600212E+03</pdfrwt>
<totfact> 0.75057607E+04</totfact>
</mgrwt>
</event>
<event>
 4    1  0.3876841E+000  0.2548130E+03  0.7546771E-02  0.1110300E+00
         21   -1    0    0  503  502  0.00000000000E+00  0.00000000000E+00  0.88076943495E+03  0.88076943495E+03  0.00000000000E+00 0. -1.
         21   -1    0    0  501  503 -0.00000000000E+00 -0.00000000000E+00 -0.22508942770E+03  0.22508942770E+03  0.00000000000E+00 0.  1.
          6    1    1    2  501    0 -0.11863990925E+03  0.14465563635E+03 -0.12559212355E+03  0.28408284477E+03  0.17300000000E+03 0.  1.
         -6    1    1    2    0  502  0.11863990925E+03 -0.14465563635E+03  0.78127213080E+03  0.82177601788E+03  0.17300000000E+03 0. -1.
<mgrwt>
<rscale>  2 0.25481303E+03</rscale>
<asrwt>0</asrwt>
<pdfrwt beam="1">  1       21 0.13550299E+00 0.25481303E+03</pdfrwt>
<pdfrwt beam="2">  1       21 0.34629143E-01 0.25481303E+03</pdfrwt>
<totfact> 0.29780306E+03</totfact>
</mgrwt>
</event>
<event>
 4    1  0.3876841E+000  0.1810943E+03  0.7546771E-02  0.1166748E+00
         21   -1    0    0  501  502  0.00000000000E+00  0.00000000000E+00  0.22597901651E+03  0.22597901651E+03  0.00000000000E+00 0. -1.
         21   -1    0    0  502  503 -0.00000000000E+00 -0.00000000000E+00 -0.15392315983E+03  0.15392315983E+03  0.00000000000E+00 0. -1.
          6    1    1    2  501    0  0.39102533582E+02  0.36567064334E+02 -0.93861805558E+01  0.18133741675E+03  0.17300000000E+03 0. -1.
         -6    1    1    2    0  503 -0.39102533582E+02 -0.36567064334E+02  0.81442037231E+02  0.19856475960E+03  0.17300000000E+03 0. -1.
<mgrwt>
<rscale>  2 0.18109434E+03</rscale>
<asrwt>0</asrwt>
<pdfrwt beam="1">  1       21 0.34766002E-01 0.18109434E+03</pdfrwt>
<pdfrwt beam="2">  1       21 0.23680486E-01 0.18109434E+03</pdfrwt>
<totfact> 0.13444904E+05</totfact>
</mgrwt>
</event>
<event>
 4    1  0.3876841E+000  0.1776189E+03  0.7546771E-02  0.1170128E+00
         21   -1    0    0  503  502  0.00000000000E+00  0.00000000000E+00  0.50792043963E+03  0.50792043963E+03  0.00000000000E+00 0. -1.
         21   -1    0    0  501  503 -0.00000000000E+00 -0.00000000000E+00 -0.25241216196E+03  0.25241216196E+03  0.00000000000E+00 0.  1.
          6    1    1    2  501    0  0.38294712216E+02  0.12368924566E+02 -0.20233929632E+03  0.26923905013E+03  0.17300000000E+03 0.  1.
         -6    1    1    2    0  502 -0.38294712216E+02 -0.12368924566E+02  0.45784757399E+03  0.49109355146E+03  0.17300000000E+03 0. -1.
<mgrwt>
<rscale>  2 0.17761890E+03</rscale>
<asrwt>0</asrwt>
<pdfrwt beam="1">  1       21 0.78141606E-01 0.17761890E+03</pdfrwt>
<pdfrwt beam="2">  1       21 0.38832640E-01 0.17761890E+03</pdfrwt>
<totfact> 0.93725416E+03</totfact>
</mgrwt>
</event>
<event>
 4    1  0.3876841E+000  0.2589020E+03  0.7546771E-02  0.1107805E+00
         21   -1    0    0  503  502  0.00000000000E+00  0.00000000000E+00  0.25494199945E+03  0.25494199945E+03  0.00000000000E+00 0.  1.
         21   -1    0    0  501  503 -0.00000000000E+00 -0.00000000000E+00 -0.53253921855E+03  0.53253921855E+03  0.00000000000E+00 0.  1.
          6    1    1    2  501    0 -0.33966923423E+02 -0.18959828518E+03 -0.41895914243E+03  0.49250078645E+03  0.17300000000E+03 0.  1.
         -6    1    1    2    0  502  0.33966923423E+02  0.18959828518E+03  0.14136192333E+03  0.29498043155E+03  0.17300000000E+03 0.  1.
<mgrwt>
<rscale>  2 0.25890203E+03</rscale>
<asrwt>0</asrwt>
<pdfrwt beam="1">  1       21 0.39221846E-01 0.25890203E+03</pdfrwt>
<pdfrwt beam="2">  1       21 0.81929110E-01 0.25890203E+03</pdfrwt>
<totfact> 0.78261631E+03</totfact>
</mgrwt>
</event>
<event>
 4    1  0.3876841E+000  0.2870453E+03  0.7546771E-02  0.1091902E+00
         21   -1    0    0  503  502  0.00000000000E+00  0.00000000000E+00  0.65422404539E+03  0.65422404539E+03  0.00000000000E+00 0.  1.
         21   -1    0    0  501  503 -0.00000000000E+00 -0.00000000000E+00 -0.19724932974E+03  0.19724932974E+03  0.00000000000E+00 0.  1.
          6    1    1    2  501    0  0.17264105653E+03 -0.15053600835E+03 -0.27487289573E+02  0.28835841465E+03  0.17300000000E+03 0.  1.
         -6    1    1    2    0  502 -0.17264105653E+03  0.15053600835E+03  0.48446200522E+03  0.56311496048E+03  0.17300000000E+03 0.  1.
<mgrwt>
<rscale>  2 0.28704533E+03</rscale>
<asrwt>0</asrwt>
<pdfrwt beam="1">  1       21 0.10064985E+00 0.28704533E+03</pdfrwt>
<pdfrwt beam="2">  1       21 0.30346051E-01 0.28704533E+03</pdfrwt>
<totfact> 0.79495253E+03</totfact>
</mgrwt>
</event>
<event>
 4    1  0.3876841E+000  0.2635777E+03  0.7546771E-02  0.1105013E+00
         21   -1    0    0  503  502  0.00000000000E+00  0.00000000000E+00  0.13047590535E+04  0.13047590535E+04  0.00000000000E+00 0.  1.
         21   -1    0    0  501  503 -0.00000000000E+00 -0.00000000000E+00 -0.10469830472E+03  0.10469830472E+03  0.00000000000E+00 0. -1.
          6    1    1    2  501    0 -0.15391768278E+03 -0.12591094051E+03  0.10599905649E+03  0.28409332620E+03  0.17300000000E+03 0. -1.
         -6    1    1    2    0  502  0.15391768278E+03  0.12591094051E+03  0.10940616923E+04  0.11253640320E+04  0.17300000000E+03 0.  1.
<mgrwt>
<rscale>  2 0.26357773E+03</rscale>
<asrwt>0</asrwt>
<pdfrwt beam="1">  1       21 0.20073215E+00 0.26357773E+03</pdfrwt>
<pdfrwt beam="2">  1       21 0.16107432E-01 0.26357773E+03</pdfrwt>
<totfact> 0.43163066E+03</totfact>
</mgrwt>
</event>
<event>
 4    1  0.3876841E+000  0.2081778E+03  0.7546771E-02  0.1143017E+00
         21   -1    0    0  501  502  0.00000000000E+00  0.00000000000E+00  0.43097093458E+03  0.43097093458E+03  0.00000000000E+00 0. -1.
         21   -1    0    0  502  503 -0.00000000000E+00 -0.00000000000E+00 -0.15923440540E+03  0.15923440540E+03  0.00000000000E+00 0. -1.
          6    1    1    2  501    0  0.54955962201E+02  0.10192560625E+03 -0.43267745996E+02  0.21262663247E+03  0.17300000000E+03 0. -1.
         -6    1    1    2    0  503 -0.54955962201E+02 -0.10192560625E+03  0.31500427517E+03  0.37757870752E+03  0.17300000000E+03 0. -1.
<mgrwt>
<rscale>  2 0.20817778E+03</rscale>
<asrwt>0</asrwt>
<pdfrwt beam="1">  1       21 0.66303220E-01 0.20817778E+03</pdfrwt>
<pdfrwt beam="2">  1       21 0.24497601E-01 0.20817778E+03</pdfrwt>
<totfact> 0.32587137E+04</totfact>
</mgrwt>
</event>
<event>
 4    1  0.3876841E+000  0.2284340E+03  0.7546771E-02  0.1127747E+00
         21   -1    0    0  501  502  0.00000000000E+00  0.00000000000E+00  0.35132291767E+02  0.35132291767E+02  0.00000000000E+00 0. -1.
         21   -1    0    0  502  503 -0.00000000000E+00 -0.00000000000E+00 -0.15592314183E+04  0.15592314183E+04  0.00000000000E+00 0.  1.
          6    1    1    2  501    0 -0.40524980921E+02  0.14356460888E+03 -0.58846539575E+03  0.63124764792E+03  0.17300000000E+03 0. -1.
         -6    1    1    2    0  503  0.40524980921E+02 -0.14356460888E+03 -0.93563373078E+03  0.96311606215E+03  0.17300000000E+03 0.  1.
<mgrwt>
<rscale>  2 0.22843395E+03</rscale>
<asrwt>0</asrwt>
<pdfrwt beam="1">  1       21 0.54049683E-02 0.22843395E+03</pdfrwt>
<pdfrwt beam="2">  1       21 0.23988174E+00 0.22843395E+03</pdfrwt>
<totfact> 0.17465496E+04</totfact>
</mgrwt>
</event>
<event>
 4    1  0.3876841E+000  0.1983092E+03  0.7546771E-02  0.1151173E+00
         21   -1    0    0  501  502  0.00000000000E+00  0.00000000000E+00  0.18457582771E+04  0.18457582771E+04  0.00000000000E+00 0. -1.
         21   -1    0    0  502  503 -0.00000000000E+00 -0.00000000000E+00 -0.28605679254E+02  0.28605679254E+02  0.00000000000E+00 0. -1.
          6    1    1    2  501    0  0.40225914995E+02  0.88201090174E+02  0.13819850663E+04  0.13961408525E+04  0.17300000000E+03 0. -1.
         -6    1    1    2    0  503 -0.40225914995E+02 -0.88201090174E+02  0.43516753150E+03  0.47822310381E+03  0.17300000000E+03 0. -1.
<mgrwt>
<rscale>  2 0.19830924E+03</rscale>
<asrwt>0</asrwt>
<pdfrwt beam="1">  1       21 0.28396272E+00 0.19830924E+03</pdfrwt>
<pdfrwt beam="2">  1       21 0.44008752E-02 0.19830924E+03</pdfrwt>
<totfact> 0.14012654E+04</totfact>
</mgrwt>
</event>
<event>
 4    1  0.3876841E+000  0.1837608E+03  0.7546771E-02  0.1164212E+00
         21   -1    0    0  503  502  0.00000000000E+00  0.00000000000E+00  0.64433858868E+02  0.64433858868E+02  0.00000000000E+00 0.  1.
         21   -1    0    0  501  503 -0.00000000000E+00 -0.00000000000E+00 -0.56291188819E+03  0.56291188819E+03  0.00000000000E+00 0.  1.
          6    1    1    2  501    0 -0.61959746417E+02  0.76061770985E-01 -0.33163247238E+03  0.37914128330E+03  0.17300000000E+03 0.  1.
         -6    1    1    2    0  502  0.61959746417E+02 -0.76061770985E-01 -0.16684555694E+03  0.24820446377E+03  0.17300000000E+03 0.  1.
<mgrwt>
<rscale>  2 0.18376076E+03</rscale>
<asrwt>0</asrwt>
<pdfrwt beam="1">  1       21 0.99129016E-02 0.18376076E+03</pdfrwt>
<pdfrwt beam="2">  1       21 0.86601827E-01 0.18376076E+03</pdfrwt>
<totfact> 0.94950449E+04</totfact>
</mgrwt>
</event>
<event>
 4    1  0.3876841E+000  0.1906321E+03  0.7546771E-02  0.1157892E+00
         21   -1    0    0  501  502  0.00000000000E+00  0.00000000000E+00  0.63782588011E+03  0.63782588011E+03  0.00000000000E+00 0. -1.
         21   -1    0    0  502  503 -0.00000000000E+00 -0.00000000000E+00 -0.57369905663E+02  0.57369905663E+02  0.00000000000E+00 0.  1.
          6    1    1    2  501    0 -0.12857698843E+02  0.79033377101E+02  0.31904042370E+03  0.37165493010E+03  0.17300000000E+03 0. -1.
         -6    1    1    2    0  503  0.12857698843E+02 -0.79033377101E+02  0.26141555075E+03  0.32354085568E+03  0.17300000000E+03 0. -1.
<mgrwt>
<rscale>  2 0.19063209E+03</rscale>
<asrwt>0</asrwt>
<pdfrwt beam="1">  1       21 0.98127054E-01 0.19063209E+03</pdfrwt>
<pdfrwt beam="2">  1       21 0.88261398E-02 0.19063209E+03</pdfrwt>
<totfact> 0.86852466E+04</totfact>
</mgrwt>
</event>
<event>
 4    1  0.3876841E+000  0.1837451E+03  0.7546771E-02  0.1164227E+00
         21   -1    0    0  503  502  0.00000000000E+00  0.00000000000E+00  0.11137201950E+03  0.11137201950E+03  0.00000000000E+00 0.  1.
         21   -1    0    0  501  503 -0.00000000000E+00 -0.00000000000E+00 -0.69077350267E+03  0.69077350267E+03  0.00000000000E+00 0.  1.
          6    1    1    2  501    0 -0.16717834808E+02  0.59613446770E+02 -0.59014318291E+03  0.61808674583E+03  0.17300000000E+03 0.  1.
         -6    1    1    2    0  502  0.16717834808E+02 -0.59613446770E+02  0.10741699737E+02  0.18405877635E+03  0.17300000000E+03 0.  1.
<mgrwt>
<rscale>  2 0.18374507E+03</rscale>
<asrwt>0</asrwt>
<pdfrwt beam="1">  1       21 0.17134157E-01 0.18374507E+03</pdfrwt>
<pdfrwt beam="2">  1       21 0.10627285E+00 0.18374507E+03</pdfrwt>
<totfact> 0.21942888E+04</totfact>
</mgrwt>
</event>
<event>
 4    1  0.3876841E+000  0.1757238E+03  0.7546771E-02  0.1172007E+00
         21   -1    0    0  501  502  0.00000000000E+00  0.00000000000E+00  0.65647410432E+03  0.65647410432E+03  0.00000000000E+00 0.  1.
         21   -1    0    0  502  503 -0.00000000000E+00 -0.00000000000E+00 -0.88137196251E+02  0.88137196251E+02  0.00000000000E+00 0.  1.
          6    1    1    2  501    0  0.26426197650E+02  0.15859173019E+02  0.53840598789E+03  0.56635665891E+03  0.17300000000E+03 0.  1.
         -6    1    1    2    0  503 -0.26426197650E+02 -0.15859173019E+02  0.29930920175E+02  0.17825464166E+03  0.17300000000E+03 0.  1.
<mgrwt>
<rscale>  2 0.17572381E+03</rscale>
<asrwt>0</asrwt>
<pdfrwt beam="1">  1       21 0.10099601E+00 0.17572381E+03</pdfrwt>
<pdfrwt beam="2">  1       21 0.13559569E-01 0.17572381E+03</pdfrwt>
<totfact> 0.38121721E+04</totfact>
</mgrwt>
</event>
<event>
 4    1  0.3876841E+000  0.1994868E+03  0.7546771E-02  0.1150173E+00
         21   -1    0    0  503  502  0.00000000000E+00  0.00000000000E+00  0.54922005128E+02  0.54922005128E+02  0.00000000000E+00 0. -1.
         21   -1    0    0  501  503 -0.00000000000E+00 -0.00000000000E+00 -0.72459314602E+03  0.72459314602E+03  0.00000000000E+00 0.  1.
          6    1    1    2  501    0 -0.97161658004E+02  0.20630033818E+02 -0.33690546426E+03  0.39153579393E+03  0.17300000000E+03 0.  1.
         -6    1    1    2    0  502  0.97161658004E+02 -0.20630033818E+02 -0.33276567663E+03  0.38797935722E+03  0.17300000000E+03 0. -1.
<mgrwt>
<rscale>  2 0.19948681E+03</rscale>
<asrwt>0</asrwt>
<pdfrwt beam="1">  1       21 0.84495401E-02 0.19948681E+03</pdfrwt>
<pdfrwt beam="2">  1       21 0.11147586E+00 0.19948681E+03</pdfrwt>
<totfact> 0.68754874E+04</totfact>
</mgrwt>
</event>
<event>
 4    1  0.3876841E+000  0.2099490E+03  0.7546771E-02  0.1141606E+00
         21   -1    0    0  501  502  0.00000000000E+00  0.00000000000E+00  0.83111943611E+03  0.83111943611E+03  0.00000000000E+00 0. -1.
         21   -1    0    0  502  503 -0.00000000000E+00 -0.00000000000E+00 -0.57225714058E+02  0.57225714058E+02  0.00000000000E+00 0. -1.
          6    1    1    2  501    0  0.21605209305E+02 -0.11697353895E+03  0.50714265182E+03  0.54888274083E+03  0.17300000000E+03 0. -1.
         -6    1    1    2    0  503 -0.21605209305E+02  0.11697353895E+03  0.26675107023E+03  0.33946240934E+03  0.17300000000E+03 0. -1.
<mgrwt>
<rscale>  2 0.20994903E+03</rscale>
<asrwt>0</asrwt>
<pdfrwt beam="1">  1       21 0.12786452E+00 0.20994903E+03</pdfrwt>
<pdfrwt beam="2">  1       21 0.88039566E-02 0.20994903E+03</pdfrwt>
<totfact> 0.45325222E+04</totfact>
</mgrwt>
</event>
<event>
 4    1  0.3876841E+000  0.2295272E+03  0.7546771E-02  0.1126973E+00
         21   -1    0    0  503  502  0.00000000000E+00  0.00000000000E+00  0.10922412133E+03  0.10922412133E+03  0.00000000000E+00 0.  1.
         21   -1    0    0  501  503 -0.00000000000E+00 -0.00000000000E+00 -0.17646386268E+04  0.17646386268E+04  0.00000000000E+00 0.  1.
          6    1    1    2  501    0 -0.10935656756E+03 -0.10389841835E+03 -0.16263915296E+04  0.16425078836E+04  0.17300000000E+03 0.  1.
         -6    1    1    2    0  502  0.10935656756E+03  0.10389841835E+03 -0.29022975875E+02  0.23135486451E+03  0.17300000000E+03 0.  1.
<mgrwt>
<rscale>  2 0.22952721E+03</rscale>
<asrwt>0</asrwt>
<pdfrwt beam="1">  1       21 0.16803711E-01 0.22952721E+03</pdfrwt>
<pdfrwt beam="2">  1       21 0.27148286E+00 0.22952721E+03</pdfrwt>
<totfact> 0.15226622E+03</totfact>
</mgrwt>
</event>
<event>
 4    1  0.3876841E+000  0.1988620E+03  0.7546771E-02  0.1150703E+00
         21   -1    0    0  501  502  0.00000000000E+00  0.00000000000E+00  0.97375141272E+03  0.97375141272E+03  0.00000000000E+00 0. -1.
         21   -1    0    0  502  503 -0.00000000000E+00 -0.00000000000E+00 -0.42693328096E+02  0.42693328096E+02  0.00000000000E+00 0. -1.
          6    1    1    2  501    0 -0.92357696604E+02  0.32971762969E+02  0.57773980646E+03  0.61100684550E+03  0.17300000000E+03 0. -1.
         -6    1    1    2    0  503  0.92357696604E+02 -0.32971762969E+02  0.35331827816E+03  0.40543789531E+03  0.17300000000E+03 0. -1.
<mgrwt>
<rscale>  2 0.19886197E+03</rscale>
<asrwt>0</asrwt>
<pdfrwt beam="1">  1       21 0.14980789E+00 0.19886197E+03</pdfrwt>
<pdfrwt beam="2">  1       21 0.65682050E-02 0.19886197E+03</pdfrwt>
<totfact> 0.50451397E+04</totfact>
</mgrwt>
</event>
<event>
 4    1  0.3876841E+000  0.2327268E+03  0.7546771E-02  0.1124735E+00
         21   -1    0    0  501  502  0.00000000000E+00  0.00000000000E+00  0.27862306905E+03  0.27862306905E+03  0.00000000000E+00 0. -1.
         21   -1    0    0  502  503 -0.00000000000E+00 -0.00000000000E+00 -0.25363068891E+03  0.25363068891E+03  0.00000000000E+00 0. -1.
          6    1    1    2  501    0 -0.14213452252E+03 -0.63486719671E+02 -0.11611970128E+03  0.26008762195E+03  0.17300000000E+03 0. -1.
         -6    1    1    2    0  503  0.14213452252E+03  0.63486719671E+02  0.14111208141E+03  0.27216613601E+03  0.17300000000E+03 0. -1.
<mgrwt>
<rscale>  2 0.23272685E+03</rscale>
<asrwt>0</asrwt>
<pdfrwt beam="1">  1       21 0.42865088E-01 0.23272685E+03</pdfrwt>
<pdfrwt beam="2">  1       21 0.39020106E-01 0.23272685E+03</pdfrwt>
<totfact> 0.32475040E+04</totfact>
</mgrwt>
</event>
<event>
 4    1  0.3876841E+000  0.3241013E+03  0.7546771E-02  0.1073777E+00
         21   -1    0    0  501  502  0.00000000000E+00  0.00000000000E+00  0.77261037521E+02  0.77261037521E+02  0.00000000000E+00 0.  1.
         21   -1    0    0  502  503 -0.00000000000E+00 -0.00000000000E+00 -0.14900246084E+04  0.14900246084E+04  0.00000000000E+00 0. -1.
          6    1    1    2  501    0  0.19558042668E+03 -0.19199197674E+03 -0.93825721761E+03  0.99265715573E+03  0.17300000000E+03 0.  1.
         -6    1    1    2    0  503 -0.19558042668E+03  0.19199197674E+03 -0.47450635323E+03  0.57462849015E+03  0.17300000000E+03 0. -1.
<mgrwt>
<rscale>  2 0.32410125E+03</rscale>
<asrwt>0</asrwt>
<pdfrwt beam="1">  1       21 0.11886315E-01 0.32410125E+03</pdfrwt>
<pdfrwt beam="2">  1       21 0.22923453E+00 0.32410125E+03</pdfrwt>
<totfact> 0.47725307E+03</totfact>
</mgrwt>
</event>
<event>
 4    1  0.3876841E+000  0.2866528E+03  0.7546771E-02  0.1092110E+00
         21   -1    0    0  501  502  0.00000000000E+00  0.00000000000E+00  0.19983154436E+04  0.19983154436E+04  0.00000000000E+00 0. -1.
         21   -1    0    0  502  503 -0.00000000000E+00 -0.00000000000E+00 -0.16952224004E+03  0.16952224004E+03  0.00000000000E+00 0.  1.
          6    1    1    2  501    0 -0.17055589596E+03 -0.15215619280E+03  0.18577414784E+04  0.18797269007E+04  0.17300000000E+03 0. -1.
         -6    1    1    2    0  503  0.17055589596E+03  0.15215619280E+03 -0.28948274792E+02  0.28811078298E+03  0.17300000000E+03 0.  1.
<mgrwt>
<rscale>  2 0.28665279E+03</rscale>
<asrwt>0</asrwt>
<pdfrwt beam="1">  1       21 0.30743313E+00 0.28665279E+03</pdfrwt>
<pdfrwt beam="2">  1       21 0.26080346E-01 0.28665279E+03</pdfrwt>
<totfact> 0.38580306E+02</totfact>
</mgrwt>
</event>
<event>
 4    1  0.3876841E+000  0.1917924E+03  0.7546771E-02  0.1156855E+00
         21   -1    0    0  503  502  0.00000000000E+00  0.00000000000E+00  0.29243857947E+03  0.29243857947E+03  0.00000000000E+00 0.  1.
         21   -1    0    0  501  503 -0.00000000000E+00 -0.00000000000E+00 -0.27386670586E+03  0.27386670586E+03  0.00000000000E+00 0.  1.
          6    1    1    2  501    0  0.56564454108E+02  0.60463180105E+02 -0.19892424860E+03  0.27632442942E+03  0.17300000000E+03 0.  1.
         -6    1    1    2    0  502 -0.56564454108E+02 -0.60463180105E+02  0.21749612221E+03  0.28998085591E+03  0.17300000000E+03 0.  1.
<mgrwt>
<rscale>  2 0.19179242E+03</rscale>
<asrwt>0</asrwt>
<pdfrwt beam="1">  1       21 0.44990551E-01 0.19179242E+03</pdfrwt>
<pdfrwt beam="2">  1       21 0.42133339E-01 0.19179242E+03</pdfrwt>
<totfact> 0.25713670E+04</totfact>
</mgrwt>
</event>
<event>
 4    1  0.3876841E+000  0.1882032E+03  0.7546771E-02  0.1160092E+00
         21   -1    0    0  503  502  0.00000000000E+00  0.00000000000E+00  0.85061170681E+02  0.85061170681E+02  0.00000000000E+00 0. -1.
         21   -1    0    0  501  503 -0.00000000000E+00 -0.00000000000E+00 -0.11368124230E+04  0.11368124230E+04  0.00000000000E+00 0.  1.
          6    1    1    2  501    0  0.67203223237E+02  0.31227790235E+02 -0.10122145327E+04  0.10295623868E+04  0.17300000000E+03 0.  1.
         -6    1    1    2    0  502 -0.67203223237E+02 -0.31227790235E+02 -0.39536719624E+02  0.19231120689E+03  0.17300000000E+03 0. -1.
<mgrwt>
<rscale>  2 0.18820321E+03</rscale>
<asrwt>0</asrwt>
<pdfrwt beam="1">  1       21 0.13086334E-01 0.18820321E+03</pdfrwt>
<pdfrwt beam="2">  1       21 0.17489422E+00 0.18820321E+03</pdfrwt>
<totfact> 0.99432769E+03</totfact>
</mgrwt>
</event>
<event>
 4    1  0.3876841E+000  0.2553014E+03  0.7546771E-02  0.1110000E+00
         21   -1    0    0  503  502  0.00000000000E+00  0.00000000000E+00  0.19598298968E+03  0.19598298968E+03  0.00000000000E+00 0. -1.
         21   -1    0    0  501  503 -0.00000000000E+00 -0.00000000000E+00 -0.33285212440E+03  0.33285212440E+03  0.00000000000E+00 0.  1.
          6    1    1    2  501    0 -0.64034336010E+02 -0.17649198223E+03 -0.76080086078E+02  0.26639631281E+03  0.17300000000E+03 0.  1.
         -6    1    1    2    0  502  0.64034336010E+02  0.17649198223E+03 -0.60789048639E+02  0.26243880128E+03  0.17300000000E+03 0.  1.
<mgrwt>
<rscale>  2 0.25530142E+03</rscale>
<asrwt>0</asrwt>
<pdfrwt beam="1">  1       21 0.30151230E-01 0.25530142E+03</pdfrwt>
<pdfrwt beam="2">  1       21 0.51208018E-01 0.25530142E+03</pdfrwt>
<totfact> 0.37137969E+04</totfact>
</mgrwt>
</event>
<event>
 4    1  0.3876841E+000  0.3059299E+03  0.7546771E-02  0.1082313E+00
         21   -1    0    0  503  502  0.00000000000E+00  0.00000000000E+00  0.15496460101E+03  0.15496460101E+03  0.00000000000E+00 0.  1.
         21   -1    0    0  501  503 -0.00000000000E+00 -0.00000000000E+00 -0.19112969338E+04  0.19112969338E+04  0.00000000000E+00 0. -1.
          6    1    1    2  501    0  0.11058871817E+03 -0.22679120208E+03 -0.17326114086E+04  0.17594133701E+04  0.17300000000E+03 0. -1.
         -6    1    1    2    0  502 -0.11058871817E+03  0.22679120208E+03 -0.23720924257E+02  0.30684816470E+03  0.17300000000E+03 0.  1.
<mgrwt>
<rscale>  2 0.30592992E+03</rscale>
<asrwt>0</asrwt>
<pdfrwt beam="1">  1       21 0.23840709E-01 0.30592992E+03</pdfrwt>
<pdfrwt beam="2">  1       21 0.29404567E+00 0.30592992E+03</pdfrwt>
<totfact> 0.54055633E+02</totfact>
</mgrwt>
</event>
<event>
 4    1  0.3876841E+000  0.1852085E+03  0.7546771E-02  0.1162855E+00
         21   -1    0    0  503  502  0.00000000000E+00  0.00000000000E+00  0.62644001368E+03  0.62644001368E+03  0.00000000000E+00 0. -1.
         21   -1    0    0  501  503 -0.00000000000E+00 -0.00000000000E+00 -0.69371331788E+02  0.69371331788E+02  0.00000000000E+00 0. -1.
          6    1    1    2  501    0 -0.65963971597E+02 -0.46827373453E+01  0.11885222271E+03  0.22006368265E+03  0.17300000000E+03 0. -1.
         -6    1    1    2    0  502  0.65963971597E+02  0.46827373453E+01  0.43821645918E+03  0.47574766282E+03  0.17300000000E+03 0. -1.
<mgrwt>
<rscale>  2 0.18520846E+03</rscale>
<asrwt>0</asrwt>
<pdfrwt beam="1">  1       21 0.96375383E-01 0.18520846E+03</pdfrwt>
<pdfrwt beam="2">  1       21 0.10672513E-01 0.18520846E+03</pdfrwt>
<totfact> 0.64988903E+04</totfact>
</mgrwt>
</event>
<event>
 4    1  0.3876841E+000  0.2774157E+03  0.7546771E-02  0.1097109E+00
         21   -1    0    0  501  502  0.00000000000E+00  0.00000000000E+00  0.14634246904E+03  0.14634246904E+03  0.00000000000E+00 0. -1.
         21   -1    0    0  502  503 -0.00000000000E+00 -0.00000000000E+00 -0.55500912679E+03  0.55500912679E+03  0.00000000000E+00 0.  1.
          6    1    1    2  501    0  0.11538049998E+03 -0.18362403782E+03 -0.12400380891E+03  0.30386903703E+03  0.17300000000E+03 0. -1.
         -6    1    1    2    0  503 -0.11538049998E+03  0.18362403782E+03 -0.28466284884E+03  0.39748255880E+03  0.17300000000E+03 0.  1.
<mgrwt>
<rscale>  2 0.27741566E+03</rscale>
<asrwt>0</asrwt>
<pdfrwt beam="1">  1       21 0.22514226E-01 0.27741566E+03</pdfrwt>
<pdfrwt beam="2">  1       21 0.85386018E-01 0.27741566E+03</pdfrwt>
<totfact> 0.20969650E+04</totfact>
</mgrwt>
</event>
<event>
 4    1  0.3876841E+000  0.2098040E+03  0.7546771E-02  0.1141721E+00
         21   -1    0    0  503  502  0.00000000000E+00  0.00000000000E+00  0.65221010181E+02  0.65221010181E+02  0.00000000000E+00 0. -1.
         21   -1    0    0  501  503 -0.00000000000E+00 -0.00000000000E+00 -0.80928685458E+03  0.80928685458E+03  0.00000000000E+00 0.  1.
          6    1    1    2  501    0 -0.11791203143E+03  0.13618557499E+02 -0.55021317671E+03  0.58885673308E+03  0.17300000000E+03 0.  1.
         -6    1    1    2    0  502  0.11791203143E+03 -0.13618557499E+02 -0.19385266769E+03  0.28565113169E+03  0.17300000000E+03 0. -1.
<mgrwt>
<rscale>  2 0.20980399E+03</rscale>
<asrwt>0</asrwt>
<pdfrwt beam="1">  1       21 0.10034001E-01 0.20980399E+03</pdfrwt>
<pdfrwt beam="2">  1       21 0.12450568E+00 0.20980399E+03</pdfrwt>
<totfact> 0.38488205E+04</totfact>
</mgrwt>
</event>
<event>
 4    1  0.3876841E+000  0.2076017E+03  0.7546771E-02  0.1143479E+00
         21   -1    0    0  503  502  0.00000000000E+00  0.00000000000E+00  0.96775509559E+02  0.96775509559E+02  0.00000000000E+00 0. -1.
         21   -1    0    0  501  503 -0.00000000000E+00 -0.00000000000E+00 -0.46119454422E+03  0.46119454422E+03  0.00000000000E+00 0. -1.
          6    1    1    2  501    0  0.53608325480E+02  0.10146730108E+03 -0.23392856729E+03  0.31276355341E+03  0.17300000000E+03 0. -1.
         -6    1    1    2    0  502 -0.53608325480E+02 -0.10146730108E+03 -0.13049046737E+03  0.24520650037E+03  0.17300000000E+03 0. -1.
<mgrwt>
<rscale>  2 0.20760170E+03</rscale>
<asrwt>0</asrwt>
<pdfrwt beam="1">  1       21 0.14888540E-01 0.20760170E+03</pdfrwt>
<pdfrwt beam="2">  1       21 0.70953006E-01 0.20760170E+03</pdfrwt>
<totfact> 0.71032203E+04</totfact>
</mgrwt>
</event>
<event>
 4    1  0.3876841E+000  0.2531482E+03  0.7546771E-02  0.1111331E+00
         21   -1    0    0  503  502  0.00000000000E+00  0.00000000000E+00  0.15293427864E+03  0.15293427864E+03  0.00000000000E+00 0.  1.
         21   -1    0    0  501  503 -0.00000000000E+00 -0.00000000000E+00 -0.43437729000E+03  0.43437729000E+03  0.00000000000E+00 0.  1.
          6    1    1    2  501    0  0.16423970099E+03 -0.84736875267E+02 -0.19591958177E+03  0.32010701325E+03  0.17300000000E+03 0.  1.
         -6    1    1    2    0  502 -0.16423970099E+03  0.84736875267E+02 -0.85523429594E+02  0.26720455539E+03  0.17300000000E+03 0.  1.
<mgrwt>
<rscale>  2 0.25314821E+03</rscale>
<asrwt>0</asrwt>
<pdfrwt beam="1">  1       21 0.23528351E-01 0.25314821E+03</pdfrwt>
<pdfrwt beam="2">  1       21 0.66827275E-01 0.25314821E+03</pdfrwt>
<totfact> 0.33863745E+04</totfact>
</mgrwt>
</event>
<event>
 4    1  0.3876841E+000  0.2037327E+03  0.7546771E-02  0.1146627E+00
         21   -1    0    0  503  502  0.00000000000E+00  0.00000000000E+00  0.84665999921E+02  0.84665999921E+02  0.00000000000E+00 0. -1.
         21   -1    0    0  501  503 -0.00000000000E+00 -0.00000000000E+00 -0.55307116344E+03  0.55307116344E+03  0.00000000000E+00 0. -1.
          6    1    1    2  501    0 -0.10758032002E+03 -0.21211268505E+01 -0.34167422478E+03  0.39780434929E+03  0.17300000000E+03 0. -1.
         -6    1    1    2    0  502  0.10758032002E+03  0.21211268505E+01 -0.12673093875E+03  0.23993281408E+03  0.17300000000E+03 0. -1.
<mgrwt>
<rscale>  2 0.20373273E+03</rscale>
<asrwt>0</asrwt>
<pdfrwt beam="1">  1       21 0.13025539E-01 0.20373273E+03</pdfrwt>
<pdfrwt beam="2">  1       21 0.85087870E-01 0.20373273E+03</pdfrwt>
<totfact> 0.60228700E+04</totfact>
</mgrwt>
</event>
<event>
 4    1  0.3876841E+000  0.1735914E+03  0.7546771E-02  0.1174154E+00
         21   -1    0    0  503  502  0.00000000000E+00  0.00000000000E+00  0.43621509636E+03  0.43621509636E+03  0.00000000000E+00 0.  1.
         21   -1    0    0  501  503 -0.00000000000E+00 -0.00000000000E+00 -0.13319350307E+03  0.13319350307E+03  0.00000000000E+00 0.  1.
          6    1    1    2  501    0 -0.15202603008E+01 -0.14235710589E+02 -0.46015758711E+02  0.17958679433E+03  0.17300000000E+03 0.  1.
         -6    1    1    2    0  502  0.15202603008E+01  0.14235710589E+02  0.34903735200E+03  0.38982180511E+03  0.17300000000E+03 0.  1.
<mgrwt>
<rscale>  2 0.17359138E+03</rscale>
<asrwt>0</asrwt>
<pdfrwt beam="1">  1       21 0.67110014E-01 0.17359138E+03</pdfrwt>
<pdfrwt beam="2">  1       21 0.20491308E-01 0.17359138E+03</pdfrwt>
<totfact> 0.45266586E+04</totfact>
</mgrwt>
</event>
<event>
 4    1  0.3876841E+000  0.1742512E+03  0.7546771E-02  0.1173486E+00
         21   -1    0    0  501  502  0.00000000000E+00  0.00000000000E+00  0.99604595899E+02  0.99604595899E+02  0.00000000000E+00 0. -1.
         21   -1    0    0  502  503 -0.00000000000E+00 -0.00000000000E+00 -0.12798394960E+04  0.12798394960E+04  0.00000000000E+00 0. -1.
          6    1    1    2  501    0  0.20840027725E+02 -0.41513470710E+00  0.11885358930E+02  0.17465606445E+03  0.17300000000E+03 0. -1.
         -6    1    1    2    0  503 -0.20840027725E+02  0.41513470710E+00 -0.11921202590E+04  0.12047880274E+04  0.17300000000E+03 0. -1.
<mgrwt>
<rscale>  2 0.17425120E+03</rscale>
<asrwt>0</asrwt>
<pdfrwt beam="1">  1       21 0.15323784E-01 0.17425120E+03</pdfrwt>
<pdfrwt beam="2">  1       21 0.19689838E+00 0.17425120E+03</pdfrwt>
<totfact> 0.53978865E+03</totfact>
</mgrwt>
</event>
<event>
 4    1  0.3876841E+000  0.1730074E+03  0.7546771E-02  0.1174747E+00
         21   -1    0    0  503  502  0.00000000000E+00  0.00000000000E+00  0.27399329941E+03  0.27399329941E+03  0.00000000000E+00 0. -1.
         21   -1    0    0  501  503 -0.00000000000E+00 -0.00000000000E+00 -0.12253201800E+03  0.12253201800E+03  0.00000000000E+00 0. -1.
          6    1    1    2  501    0  0.15828235639E+01  0.26722413656E+00  0.10435798894E+02  0.17332190467E+03  0.17300000000E+03 0.  1.
         -6    1    1    2    0  502 -0.15828235639E+01 -0.26722413656E+00  0.14102548252E+03  0.22320341274E+03  0.17300000000E+03 0.  1.
<mgrwt>
<rscale>  2 0.17300745E+03</rscale>
<asrwt>0</asrwt>
<pdfrwt beam="1">  1       21 0.42152815E-01 0.17300745E+03</pdfrwt>
<pdfrwt beam="2">  1       21 0.18851080E-01 0.17300745E+03</pdfrwt>
<totfact> 0.14050994E+05</totfact>
</mgrwt>
</event>
<event>
 4    1  0.3876841E+000  0.1989574E+03  0.7546771E-02  0.1150622E+00
         21   -1    0    0  501  502  0.00000000000E+00  0.00000000000E+00  0.28581528663E+03  0.28581528663E+03  0.00000000000E+00 0.  1.
         21   -1    0    0  502  503 -0.00000000000E+00 -0.00000000000E+00 -0.13858807948E+03  0.13858807948E+03  0.00000000000E+00 0.  1.
          6    1    1    2  501    0  0.86969462691E+02  0.45731198428E+02  0.79108647477E+02  0.21410793553E+03  0.17300000000E+03 0.  1.
         -6    1    1    2    0  503 -0.86969462691E+02 -0.45731198428E+02  0.68118559671E+02  0.21029543058E+03  0.17300000000E+03 0.  1.
<mgrwt>
<rscale>  2 0.19895736E+03</rscale>
<asrwt>0</asrwt>
<pdfrwt beam="1">  1       21 0.43971583E-01 0.19895736E+03</pdfrwt>
<pdfrwt beam="2">  1       21 0.21321243E-01 0.19895736E+03</pdfrwt>
<totfact> 0.10148119E+05</totfact>
</mgrwt>
</event>
<event>
 4    1  0.3876841E+000  0.1876211E+03  0.7546771E-02  0.1160625E+00
         21   -1    0    0  501  502  0.00000000000E+00  0.00000000000E+00  0.14528521813E+03  0.14528521813E+03  0.00000000000E+00 0. -1.
         21   -1    0    0  502  503 -0.00000000000E+00 -0.00000000000E+00 -0.28992598488E+03  0.28992598488E+03  0.00000000000E+00 0.  1.
          6    1    1    2  501    0 -0.56699204932E+02  0.45363652016E+02 -0.16052234026E+03  0.24691918209E+03  0.17300000000E+03 0. -1.
         -6    1    1    2    0  503  0.56699204932E+02 -0.45363652016E+02  0.15881573513E+02  0.18829202092E+03  0.17300000000E+03 0. -1.
<mgrwt>
<rscale>  2 0.18762106E+03</rscale>
<asrwt>0</asrwt>
<pdfrwt beam="1">  1       21 0.22351572E-01 0.18762106E+03</pdfrwt>
<pdfrwt beam="2">  1       21 0.44603997E-01 0.18762106E+03</pdfrwt>
<totfact> 0.90578574E+04</totfact>
</mgrwt>
</event>
<event>
 4    1  0.3876841E+000  0.2029738E+03  0.7546771E-02  0.1147254E+00
         21   -1    0    0  503  502  0.00000000000E+00  0.00000000000E+00  0.47316735165E+03  0.47316735165E+03  0.00000000000E+00 0.  1.
         21   -1    0    0  501  503 -0.00000000000E+00 -0.00000000000E+00 -0.12205862214E+03  0.12205862214E+03  0.00000000000E+00 0.  1.
          6    1    1    2  501    0 -0.24949653186E+02 -0.10318379916E+03  0.16210627807E+02  0.20362015140E+03  0.17300000000E+03 0.  1.
         -6    1    1    2    0  502  0.24949653186E+02  0.10318379916E+03  0.33489810170E+03  0.39160582238E+03  0.17300000000E+03 0.  1.
<mgrwt>
<rscale>  2 0.20297384E+03</rscale>
<asrwt>0</asrwt>
<pdfrwt beam="1">  1       21 0.72794976E-01 0.20297384E+03</pdfrwt>
<pdfrwt beam="2">  1       21 0.18778250E-01 0.20297384E+03</pdfrwt>
<totfact> 0.43874916E+04</totfact>
</mgrwt>
</event>
<event>
 4    1  0.3876841E+000  0.2867448E+03  0.7546771E-02  0.1092061E+00
         21   -1    0    0  501  502  0.00000000000E+00  0.00000000000E+00  0.17984622316E+03  0.17984622316E+03  0.00000000000E+00 0.  1.
         21   -1    0    0  502  503 -0.00000000000E+00 -0.00000000000E+00 -0.91904147919E+03  0.91904147919E+03  0.00000000000E+00 0. -1.
          6    1    1    2  501    0  0.20271618257E+03  0.10582864813E+03  0.19905040243E+02  0.28743479968E+03  0.17300000000E+03 0.  1.
         -6    1    1    2    0  503 -0.20271618257E+03 -0.10582864813E+03 -0.75910029628E+03  0.81145290267E+03  0.17300000000E+03 0. -1.
<mgrwt>
<rscale>  2 0.28674475E+03</rscale>
<asrwt>0</asrwt>
<pdfrwt beam="1">  1       21 0.27668650E-01 0.28674475E+03</pdfrwt>
<pdfrwt beam="2">  1       21 0.14139099E+00 0.28674475E+03</pdfrwt>
<totfact> 0.40663526E+03</totfact>
</mgrwt>
</event>
<event>
 4    1  0.3876841E+000  0.2282950E+03  0.7546771E-02  0.1127846E+00
         21   -1    0    0  501  502  0.00000000000E+00  0.00000000000E+00  0.50409018379E+03  0.50409018379E+03  0.00000000000E+00 0. -1.
         21   -1    0    0  502  503 -0.00000000000E+00 -0.00000000000E+00 -0.11510281745E+03  0.11510281745E+03  0.00000000000E+00 0. -1.
          6    1    1    2  501    0 -0.61853546621E+02  0.13551288578E+03  0.29324827447E+03  0.37163578128E+03  0.17300000000E+03 0. -1.
         -6    1    1    2    0  503  0.61853546621E+02 -0.13551288578E+03  0.95739091874E+02  0.24755721996E+03  0.17300000000E+03 0. -1.
<mgrwt>
<rscale>  2 0.22829499E+03</rscale>
<asrwt>0</asrwt>
<pdfrwt beam="1">  1       21 0.77552334E-01 0.22829499E+03</pdfrwt>
<pdfrwt beam="2">  1       21 0.17708126E-01 0.22829499E+03</pdfrwt>
<totfact> 0.41937490E+04</totfact>
</mgrwt>
</event>
<event>
 4    1  0.3876841E+000  0.1741180E+03  0.7546771E-02  0.1173620E+00
         21   -1    0    0  501  502  0.00000000000E+00  0.00000000000E+00  0.95182462039E+02  0.95182462039E+02  0.00000000000E+00 0.  1.
         21   -1    0    0  502  503 -0.00000000000E+00 -0.00000000000E+00 -0.86861575586E+03  0.86861575586E+03  0.00000000000E+00 0.  1.
          6    1    1    2  501    0  0.11245410876E+02  0.16174171658E+02 -0.32184690379E+01  0.17414770064E+03  0.17300000000E+03 0.  1.
         -6    1    1    2    0  503 -0.11245410876E+02 -0.16174171658E+02 -0.77021482479E+03  0.78965051727E+03  0.17300000000E+03 0.  1.
<mgrwt>
<rscale>  2 0.17411796E+03</rscale>
<asrwt>0</asrwt>
<pdfrwt beam="1">  1       21 0.14643456E-01 0.17411796E+03</pdfrwt>
<pdfrwt beam="2">  1       21 0.13363319E+00 0.17411796E+03</pdfrwt>
<totfact> 0.16733055E+04</totfact>
</mgrwt>
</event>
<event>
 4    1  0.3876841E+000  0.2366056E+03  0.7546771E-02  0.1122075E+00
         21   -1    0    0  503  502  0.00000000000E+00  0.00000000000E+00  0.11703395041E+04  0.11703395041E+04  0.00000000000E+00 0.  1.
         21   -1    0    0  501  503 -0.00000000000E+00 -0.00000000000E+00 -0.26826844610E+03  0.26826844610E+03  0.00000000000E+00 0.  1.
          6    1    1    2  501    0  0.10666630915E+03 -0.12114253363E+03 -0.20099394746E+03  0.31045254368E+03  0.17300000000E+03 0.  1.
         -6    1    1    2    0  502 -0.10666630915E+03  0.12114253363E+03  0.11030650054E+04  0.11281554065E+04  0.17300000000E+03 0.  1.
<mgrwt>
<rscale>  2 0.23660561E+03</rscale>
<asrwt>0</asrwt>
<pdfrwt beam="1">  1       21 0.18005223E+00 0.23660561E+03</pdfrwt>
<pdfrwt beam="2">  1       21 0.41272069E-01 0.23660561E+03</pdfrwt>
<totfact> 0.98343201E+02</totfact>
</mgrwt>
</event>
<event>
 4    1  0.3876841E+000  0.3444142E+03  0.7546771E-02  0.1064931E+00
         21   -1    0    0  501  502  0.00000000000E+00  0.00000000000E+00  0.60825252350E+03  0.60825252350E+03  0.00000000000E+00 0. -1.
         21   -1    0    0  502  503 -0.00000000000E+00 -0.00000000000E+00 -0.34676277645E+03  0.34676277645E+03  0.00000000000E+00 0. -1.
          6    1    1    2  501    0 -0.97298967589E+02  0.28146944149E+03  0.44662241544E+03  0.56399709003E+03  0.17300000000E+03 0. -1.
         -6    1    1    2    0  503  0.97298967589E+02 -0.28146944149E+03 -0.18513266839E+03  0.39101820992E+03  0.17300000000E+03 0. -1.
<mgrwt>
<rscale>  2 0.34441419E+03</rscale>
<asrwt>0</asrwt>
<pdfrwt beam="1">  1       21 0.93577311E-01 0.34441419E+03</pdfrwt>
<pdfrwt beam="2">  1       21 0.53348120E-01 0.34441419E+03</pdfrwt>
<totfact> 0.28964371E+03</totfact>
</mgrwt>
</event>
<event>
 4    1  0.3876841E+000  0.1768367E+03  0.7546771E-02  0.1170900E+00
         21   -1    0    0  503  502  0.00000000000E+00  0.00000000000E+00  0.99740273803E+03  0.99740273803E+03  0.00000000000E+00 0. -1.
         21   -1    0    0  501  503 -0.00000000000E+00 -0.00000000000E+00 -0.41981454383E+02  0.41981454383E+02  0.00000000000E+00 0. -1.
          6    1    1    2  501    0 -0.36375826284E+02  0.43600811774E+01  0.21621783848E+03  0.27932304725E+03  0.17300000000E+03 0. -1.
         -6    1    1    2    0  502  0.36375826284E+02 -0.43600811774E+01  0.73920344516E+03  0.76006114516E+03  0.17300000000E+03 0. -1.
<mgrwt>
<rscale>  2 0.17683668E+03</rscale>
<asrwt>0</asrwt>
<pdfrwt beam="1">  1       21 0.15344656E+00 0.17683668E+03</pdfrwt>
<pdfrwt beam="2">  1       21 0.64586860E-02 0.17683668E+03</pdfrwt>
<totfact> 0.49361431E+04</totfact>
</mgrwt>
</event>
<event>
 4    1  0.3876841E+000  0.1874613E+03  0.7546771E-02  0.1160771E+00
         21   -1    0    0  503  502  0.00000000000E+00  0.00000000000E+00  0.57716093442E+03  0.57716093442E+03  0.00000000000E+00 0. -1.
         21   -1    0    0  501  503 -0.00000000000E+00 -0.00000000000E+00 -0.10595571221E+03  0.10595571221E+03  0.00000000000E+00 0. -1.
          6    1    1    2  501    0 -0.67124221740E+02 -0.26590765939E+02  0.12841612284E+02  0.18790060400E+03  0.17300000000E+03 0. -1.
         -6    1    1    2    0  502  0.67124221740E+02  0.26590765939E+02  0.45836360993E+03  0.49521604264E+03  0.17300000000E+03 0. -1.
<mgrwt>
<rscale>  2 0.18746128E+03</rscale>
<asrwt>0</asrwt>
<pdfrwt beam="1">  1       21 0.88793988E-01 0.18746128E+03</pdfrwt>
<pdfrwt beam="2">  1       21 0.16300879E-01 0.18746128E+03</pdfrwt>
<totfact> 0.36624273E+04</totfact>
</mgrwt>
</event>
<event>
 4    1  0.3876841E+000  0.2027485E+03  0.7546771E-02  0.1147441E+00
         21   -1    0    0  503  502  0.00000000000E+00  0.00000000000E+00  0.18663124043E+03  0.18663124043E+03  0.00000000000E+00 0. -1.
         21   -1    0    0  501  503 -0.00000000000E+00 -0.00000000000E+00 -0.24183564171E+03  0.24183564171E+03  0.00000000000E+00 0. -1.
          6    1    1    2  501    0  0.10404702105E+03  0.18766188002E+02 -0.91595270731E+02  0.22247841698E+03  0.17300000000E+03 0. -1.
         -6    1    1    2    0  502 -0.10404702105E+03 -0.18766188002E+02  0.36390869451E+02  0.20598846516E+03  0.17300000000E+03 0. -1.
<mgrwt>
<rscale>  2 0.20274850E+03</rscale>
<asrwt>0</asrwt>
<pdfrwt beam="1">  1       21 0.28712499E-01 0.20274850E+03</pdfrwt>
<pdfrwt beam="2">  1       21 0.37205483E-01 0.20274850E+03</pdfrwt>
<totfact> 0.80504695E+04</totfact>
</mgrwt>
</event>
<event>
 4    1  0.3876841E+000  0.1782561E+03  0.7546771E-02  0.1169502E+00
         21   -1    0    0  501  502  0.00000000000E+00  0.00000000000E+00  0.32249520701E+03  0.32249520701E+03  0.00000000000E+00 0.  1.
         21   -1    0    0  502  503 -0.00000000000E+00 -0.00000000000E+00 -0.25217240266E+03  0.25217240266E+03  0.00000000000E+00 0.  1.
          6    1    1    2  501    0  0.31516870561E+02 -0.29205075579E+02  0.25944338194E+03  0.31477947520E+03  0.17300000000E+03 0.  1.
         -6    1    1    2    0  503 -0.31516870561E+02  0.29205075579E+02 -0.18912057759E+03  0.25988813447E+03  0.17300000000E+03 0.  1.
<mgrwt>
<rscale>  2 0.17825613E+03</rscale>
<asrwt>0</asrwt>
<pdfrwt beam="1">  1       21 0.49614647E-01 0.17825613E+03</pdfrwt>
<pdfrwt beam="2">  1       21 0.38795754E-01 0.17825613E+03</pdfrwt>
<totfact> 0.25011131E+04</totfact>
</mgrwt>
</event>
<event>
 4    1  0.3876841E+000  0.1901286E+03  0.7546771E-02  0.1158345E+00
         21   -1    0    0  501  502  0.00000000000E+00  0.00000000000E+00  0.32286322639E+03  0.32286322639E+03  0.00000000000E+00 0. -1.
         21   -1    0    0  502  503 -0.00000000000E+00 -0.00000000000E+00 -0.15694052585E+03  0.15694052585E+03  0.00000000000E+00 0. -1.
          6    1    1    2  501    0  0.40926176532E+02 -0.67416160246E+02  0.21138989255E+03  0.28431422275E+03  0.17300000000E+03 0. -1.
         -6    1    1    2    0  503 -0.40926176532E+02  0.67416160246E+02 -0.45467192011E+02  0.19548952948E+03  0.17300000000E+03 0. -1.
<mgrwt>
<rscale>  2 0.19012862E+03</rscale>
<asrwt>0</asrwt>
<pdfrwt beam="1">  1       21 0.49671265E-01 0.19012862E+03</pdfrwt>
<pdfrwt beam="2">  1       21 0.24144696E-01 0.19012862E+03</pdfrwt>
<totfact> 0.62599039E+04</totfact>
</mgrwt>
</event>
<event>
 4    1  0.3876841E+000  0.1933516E+03  0.7546771E-02  0.1155473E+00
         21   -1    0    0  503  502  0.00000000000E+00  0.00000000000E+00  0.79364962202E+02  0.79364962202E+02  0.00000000000E+00 0.  1.
         21   -1    0    0  501  503 -0.00000000000E+00 -0.00000000000E+00 -0.47105382795E+03  0.47105382795E+03  0.00000000000E+00 0.  1.
          6    1    1    2  501    0  0.83582752171E+02  0.21673944094E+02 -0.19666571983E+03  0.27579383907E+03  0.17300000000E+03 0.  1.
         -6    1    1    2    0  502 -0.83582752171E+02 -0.21673944094E+02 -0.19502314592E+03  0.27462495108E+03  0.17300000000E+03 0.  1.
<mgrwt>
<rscale>  2 0.19335159E+03</rscale>
<asrwt>0</asrwt>
<pdfrwt beam="1">  1       21 0.12209994E-01 0.19335159E+03</pdfrwt>
<pdfrwt beam="2">  1       21 0.72469820E-01 0.19335159E+03</pdfrwt>
<totfact> 0.97604430E+04</totfact>
</mgrwt>
</event>
<event>
 4    1  0.3876841E+000  0.1894495E+03  0.7546771E-02  0.1158959E+00
         21   -1    0    0  503  502  0.00000000000E+00  0.00000000000E+00  0.14323387782E+03  0.14323387782E+03  0.00000000000E+00 0. -1.
         21   -1    0    0  501  503 -0.00000000000E+00 -0.00000000000E+00 -0.58819085107E+03  0.58819085107E+03  0.00000000000E+00 0. -1.
          6    1    1    2  501    0  0.30318113827E+02 -0.71013565286E+02 -0.49954921300E+03  0.53426634808E+03  0.17300000000E+03 0. -1.
         -6    1    1    2    0  502 -0.30318113827E+02  0.71013565286E+02  0.54592239757E+02  0.19715838081E+03  0.17300000000E+03 0. -1.
<mgrwt>
<rscale>  2 0.18944950E+03</rscale>
<asrwt>0</asrwt>
<pdfrwt beam="1">  1       21 0.22035981E-01 0.18944950E+03</pdfrwt>
<pdfrwt beam="2">  1       21 0.90490900E-01 0.18944950E+03</pdfrwt>
<totfact> 0.20003253E+04</totfact>
</mgrwt>
</event>
<event>
 4    1  0.3876841E+000  0.2135521E+03  0.7546771E-02  0.1138784E+00
         21   -1    0    0  501  502  0.00000000000E+00  0.00000000000E+00  0.54677537665E+03  0.54677537665E+03  0.00000000000E+00 0.  1.
         21   -1    0    0  502  503 -0.00000000000E+00 -0.00000000000E+00 -0.13305210203E+03  0.13305210203E+03  0.00000000000E+00 0. -1.
          6    1    1    2  501    0  0.78168087099E+02 -0.97802196683E+02  0.41449591304E+03  0.46627393391E+03  0.17300000000E+03 0.  1.
         -6    1    1    2    0  503 -0.78168087099E+02  0.97802196683E+02 -0.77263842316E+00  0.21355354478E+03  0.17300000000E+03 0. -1.
<mgrwt>
<rscale>  2 0.21355215E+03</rscale>
<asrwt>0</asrwt>
<pdfrwt beam="1">  1       21 0.84119288E-01 0.21355215E+03</pdfrwt>
<pdfrwt beam="2">  1       21 0.20469554E-01 0.21355215E+03</pdfrwt>
<totfact> 0.26803813E+04</totfact>
</mgrwt>
</event>
<event>
 4    1  0.3876841E+000  0.3756003E+03  0.7546771E-02  0.1052572E+00
         21   -1    0    0  501  502  0.00000000000E+00  0.00000000000E+00  0.50195184937E+03  0.50195184937E+03  0.00000000000E+00 0. -1.
         21   -1    0    0  502  503 -0.00000000000E+00 -0.00000000000E+00 -0.37648777902E+03  0.37648777902E+03  0.00000000000E+00 0.  1.
          6    1    1    2  501    0  0.22246273925E+03  0.24830805621E+03  0.28386709651E+03  0.47080366355E+03  0.17300000000E+03 0. -1.
         -6    1    1    2    0  503 -0.22246273925E+03 -0.24830805621E+03 -0.15840302615E+03  0.40763596484E+03  0.17300000000E+03 0.  1.
<mgrwt>
<rscale>  2 0.37560027E+03</rscale>
<asrwt>0</asrwt>
<pdfrwt beam="1">  1       21 0.77223361E-01 0.37560027E+03</pdfrwt>
<pdfrwt beam="2">  1       21 0.57921197E-01 0.37560027E+03</pdfrwt>
<totfact> 0.37421155E+03</totfact>
</mgrwt>
</event>
<event>
 4    1  0.3876841E+000  0.2434194E+03  0.7546771E-02  0.1117536E+00
         21   -1    0    0  503  502  0.00000000000E+00  0.00000000000E+00  0.14403264280E+04  0.14403264280E+04  0.00000000000E+00 0.  1.
         21   -1    0    0  501  503 -0.00000000000E+00 -0.00000000000E+00 -0.83229375855E+02  0.83229375855E+02  0.00000000000E+00 0. -1.
          6    1    1    2  501    0  0.65213929753E+02  0.15833866309E+03  0.13681763303E+03  0.27923476426E+03  0.17300000000E+03 0. -1.
         -6    1    1    2    0  502 -0.65213929753E+02 -0.15833866309E+03  0.12202794191E+04  0.12443210396E+04  0.17300000000E+03 0.  1.
<mgrwt>
<rscale>  2 0.24341937E+03</rscale>
<asrwt>0</asrwt>
<pdfrwt beam="1">  1       21 0.22158866E+00 0.24341937E+03</pdfrwt>
<pdfrwt beam="2">  1       21 0.12804520E-01 0.24341937E+03</pdfrwt>
<totfact> 0.49132546E+03</totfact>
</mgrwt>
</event>
<event>
 4    1  0.3876841E+000  0.1930167E+03  0.7546771E-02  0.1155768E+00
         21   -1    0    0  503  502  0.00000000000E+00  0.00000000000E+00  0.97548437501E+03  0.97548437501E+03  0.00000000000E+00 0. -1.
         21   -1    0    0  501  503 -0.00000000000E+00 -0.00000000000E+00 -0.53256782992E+02  0.53256782992E+02  0.00000000000E+00 0. -1.
          6    1    1    2  501    0 -0.78397288625E+02  0.34355855266E+02  0.18754054231E+03  0.26912249008E+03  0.17300000000E+03 0. -1.
         -6    1    1    2    0  502  0.78397288625E+02 -0.34355855266E+02  0.73468704971E+03  0.75961866793E+03  0.17300000000E+03 0. -1.
<mgrwt>
<rscale>  2 0.19301673E+03</rscale>
<asrwt>0</asrwt>
<pdfrwt beam="1">  1       21 0.15007451E+00 0.19301673E+03</pdfrwt>
<pdfrwt beam="2">  1       21 0.81933520E-02 0.19301673E+03</pdfrwt>
<totfact> 0.34356458E+04</totfact>
</mgrwt>
</event>
<event>
 4    1  0.3876841E+000  0.2737205E+03  0.7546771E-02  0.1099169E+00
         21   -1    0    0  503  502  0.00000000000E+00  0.00000000000E+00  0.12484971900E+03  0.12484971900E+03  0.00000000000E+00 0.  1.
         21   -1    0    0  501  503 -0.00000000000E+00 -0.00000000000E+00 -0.10443314900E+04  0.10443314900E+04  0.00000000000E+00 0. -1.
          6    1    1    2  501    0  0.18682324245E+03 -0.10045377850E+03 -0.84101303810E+03  0.88443530899E+03  0.17300000000E+03 0. -1.
         -6    1    1    2    0  502 -0.18682324245E+03  0.10045377850E+03 -0.78468732916E+02  0.28474590002E+03  0.17300000000E+03 0.  1.
<mgrwt>
<rscale>  2 0.27372045E+03</rscale>
<asrwt>0</asrwt>
<pdfrwt beam="1">  1       21 0.19207650E-01 0.27372045E+03</pdfrwt>
<pdfrwt beam="2">  1       21 0.16066638E+00 0.27372045E+03</pdfrwt>
<totfact> 0.58449906E+03</totfact>
</mgrwt>
</event>
<event>
 4    1  0.3876841E+000  0.2148065E+03  0.7546771E-02  0.1137815E+00
         21   -1    0    0  503  502  0.00000000000E+00  0.00000000000E+00  0.11872298947E+04  0.11872298947E+04  0.00000000000E+00 0.  1.
         21   -1    0    0  501  503 -0.00000000000E+00 -0.00000000000E+00 -0.53342067782E+02  0.53342067782E+02  0.00000000000E+00 0.  1.
          6    1    1    2  501    0  0.11077145002E+03  0.62789310210E+02  0.24380012804E+03  0.32493124511E+03  0.17300000000E+03 0.  1.
         -6    1    1    2    0  502 -0.11077145002E+03 -0.62789310210E+02  0.89008769883E+03  0.91564071733E+03  0.17300000000E+03 0.  1.
<mgrwt>
<rscale>  2 0.21480645E+03</rscale>
<asrwt>0</asrwt>
<pdfrwt beam="1">  1       21 0.18265073E+00 0.21480645E+03</pdfrwt>
<pdfrwt beam="2">  1       21 0.82064729E-02 0.21480645E+03</pdfrwt>
<totfact> 0.19728190E+04</totfact>
</mgrwt>
</event>
<event>
 4    1  0.3876841E+000  0.2111576E+03  0.7546771E-02  0.1140653E+00
         21   -1    0    0  501  502  0.00000000000E+00  0.00000000000E+00  0.35366357857E+03  0.35366357857E+03  0.00000000000E+00 0. -1.
         21   -1    0    0  502  503 -0.00000000000E+00 -0.00000000000E+00 -0.34929696835E+03  0.34929696835E+03  0.00000000000E+00 0. -1.
          6    1    1    2  501    0 -0.14963975392E+02  0.12014415237E+03  0.28316217303E+03  0.35322564197E+03  0.17300000000E+03 0. -1.
         -6    1    1    2    0  503  0.14963975392E+02 -0.12014415237E+03 -0.27879556281E+03  0.34973490496E+03  0.17300000000E+03 0. -1.
<mgrwt>
<rscale>  2 0.21115761E+03</rscale>
<asrwt>0</asrwt>
<pdfrwt beam="1">  1       21 0.54409781E-01 0.21115761E+03</pdfrwt>
<pdfrwt beam="2">  1       21 0.53737996E-01 0.21115761E+03</pdfrwt>
<totfact> 0.10324146E+04</totfact>
</mgrwt>
</event>
<event>
 4    1  0.3876841E+000  0.3214622E+03  0.7546771E-02  0.1074978E+00
         21   -1    0    0  503  502  0.00000000000E+00  0.00000000000E+00  0.18751302980E+03  0.18751302980E+03  0.00000000000E+00 0. -1.
         21   -1    0    0  501  503 -0.00000000000E+00 -0.00000000000E+00 -0.12528914566E+04  0.12528914566E+04  0.00000000000E+00 0.  1.
          6    1    1    2  501    0  0.13378049764E+03  0.23560921349E+03 -0.10717064113E+04  0.11188800450E+04  0.17300000000E+03 0.  1.
         -6    1    1    2    0  502 -0.13378049764E+03 -0.23560921349E+03  0.63279845155E+01  0.32152444140E+03  0.17300000000E+03 0. -1.
<mgrwt>
<rscale>  2 0.32146216E+03</rscale>
<asrwt>0</asrwt>
<pdfrwt beam="1">  1       21 0.28848159E-01 0.32146216E+03</pdfrwt>
<pdfrwt beam="2">  1       21 0.19275253E+00 0.32146216E+03</pdfrwt>
<totfact> 0.15492072E+03</totfact>
</mgrwt>
</event>
<event>
 4    1  0.3876841E+000  0.1984576E+03  0.7546771E-02  0.1151047E+00
         21   -1    0    0  501  502  0.00000000000E+00  0.00000000000E+00  0.17956133236E+03  0.17956133236E+03  0.00000000000E+00 0.  1.
         21   -1    0    0  502  503 -0.00000000000E+00 -0.00000000000E+00 -0.26082119788E+03  0.26082119788E+03  0.00000000000E+00 0.  1.
          6    1    1    2  501    0  0.85180525000E+02 -0.46911446096E+02 -0.12843952437E+03  0.23639398688E+03  0.17300000000E+03 0.  1.
         -6    1    1    2    0  503 -0.85180525000E+02  0.46911446096E+02  0.47179658850E+02  0.20398854336E+03  0.17300000000E+03 0.  1.
<mgrwt>
<rscale>  2 0.19845757E+03</rscale>
<asrwt>0</asrwt>
<pdfrwt beam="1">  1       21 0.27624820E-01 0.19845757E+03</pdfrwt>
<pdfrwt beam="2">  1       21 0.40126338E-01 0.19845757E+03</pdfrwt>
<totfact> 0.74657893E+04</totfact>
</mgrwt>
</event>
<event>
 4    1  0.3876841E+000  0.1842473E+03  0.7546771E-02  0.1163755E+00
         21   -1    0    0  501  502  0.00000000000E+00  0.00000000000E+00  0.46713627641E+02  0.46713627641E+02  0.00000000000E+00 0.  1.
         21   -1    0    0  502  503 -0.00000000000E+00 -0.00000000000E+00 -0.13264137321E+04  0.13264137321E+04  0.00000000000E+00 0. -1.
          6    1    1    2  501    0 -0.25771893406E+02 -0.57912796205E+02 -0.17820192840E+03  0.25632598335E+03  0.17300000000E+03 0.  1.
         -6    1    1    2    0  503  0.25771893406E+02  0.57912796205E+02 -0.11014981761E+04  0.11168013764E+04  0.17300000000E+03 0. -1.
<mgrwt>
<rscale>  2 0.18424734E+03</rscale>
<asrwt>0</asrwt>
<pdfrwt beam="1">  1       21 0.71867126E-02 0.18424734E+03</pdfrwt>
<pdfrwt beam="2">  1       21 0.20406363E+00 0.18424734E+03</pdfrwt>
<totfact> 0.18402616E+04</totfact>
</mgrwt>
</event>
<event>
 4    1  0.3876841E+000  0.2009764E+03  0.7546771E-02  0.1148918E+00
         21   -1    0    0  501  502  0.00000000000E+00  0.00000000000E+00  0.55180787229E+03  0.55180787229E+03  0.00000000000E+00 0.  1.
         21   -1    0    0  502  503 -0.00000000000E+00 -0.00000000000E+00 -0.10197891123E+03  0.10197891123E+03  0.00000000000E+00 0.  1.
          6    1    1    2  501    0  0.10142109524E+03  0.13277200508E+02  0.39857426630E+03  0.44637760738E+03  0.17300000000E+03 0.  1.
         -6    1    1    2    0  503 -0.10142109524E+03 -0.13277200508E+02  0.51254694757E+02  0.20740917614E+03  0.17300000000E+03 0.  1.
<mgrwt>
<rscale>  2 0.20097642E+03</rscale>
<asrwt>0</asrwt>
<pdfrwt beam="1">  1       21 0.84893517E-01 0.20097642E+03</pdfrwt>
<pdfrwt beam="2">  1       21 0.15689064E-01 0.20097642E+03</pdfrwt>
<totfact> 0.43244448E+04</totfact>
</mgrwt>
</event>
<event>
 4    1  0.3876841E+000  0.1863822E+03  0.7546771E-02  0.1161765E+00
         21   -1    0    0  501  502  0.00000000000E+00  0.00000000000E+00  0.13571156448E+04  0.13571156448E+04  0.00000000000E+00 0.  1.
         21   -1    0    0  502  503 -0.00000000000E+00 -0.00000000000E+00 -0.25632168905E+02  0.25632168905E+02  0.00000000000E+00 0. -1.
          6    1    1    2  501    0  0.68080017325E+02 -0.13207834906E+02  0.64019853702E+03  0.66677770093E+03  0.17300000000E+03 0. -1.
         -6    1    1    2    0  503 -0.68080017325E+02  0.13207834906E+02  0.69128493883E+03  0.71597011272E+03  0.17300000000E+03 0. -1.
<mgrwt>
<rscale>  2 0.18638223E+03</rscale>
<asrwt>0</asrwt>
<pdfrwt beam="1">  1       21 0.20878697E+00 0.18638223E+03</pdfrwt>
<pdfrwt beam="2">  1       21 0.39434116E-02 0.18638223E+03</pdfrwt>
<totfact> 0.47594377E+04</totfact>
</mgrwt>
</event>
<event>
 4    1  0.3876841E+000  0.2011221E+03  0.7546771E-02  0.1148796E+00
         21   -1    0    0  501  502  0.00000000000E+00  0.00000000000E+00  0.14926051997E+03  0.14926051997E+03  0.00000000000E+00 0.  1.
         21   -1    0    0  502  503 -0.00000000000E+00 -0.00000000000E+00 -0.50434617338E+03  0.50434617338E+03  0.00000000000E+00 0.  1.
          6    1    1    2  501    0  0.98272836210E+02 -0.29386392713E+02  0.44746850616E+02  0.20603978027E+03  0.17300000000E+03 0.  1.
         -6    1    1    2    0  503 -0.98272836210E+02  0.29386392713E+02 -0.39983250402E+03  0.44756691308E+03  0.17300000000E+03 0.  1.
<mgrwt>
<rscale>  2 0.20112213E+03</rscale>
<asrwt>0</asrwt>
<pdfrwt beam="1">  1       21 0.22963157E-01 0.20112213E+03</pdfrwt>
<pdfrwt beam="2">  1       21 0.77591720E-01 0.20112213E+03</pdfrwt>
<totfact> 0.26102712E+04</totfact>
</mgrwt>
</event>
<event>
 4    1  0.3876841E+000  0.1754074E+03  0.7546771E-02  0.1172323E+00
         21   -1    0    0  501  502  0.00000000000E+00  0.00000000000E+00  0.20625468400E+03  0.20625468400E+03  0.00000000000E+00 0.  1.
         21   -1    0    0  502  503 -0.00000000000E+00 -0.00000000000E+00 -0.14995083739E+03  0.14995083739E+03  0.00000000000E+00 0. -1.
          6    1    1    2  501    0  0.24256197611E+02  0.15823570938E+02  0.15329205000E+02  0.17607592977E+03  0.17300000000E+03 0. -1.
         -6    1    1    2    0  503 -0.24256197611E+02 -0.15823570938E+02  0.40974641613E+02  0.18012959161E+03  0.17300000000E+03 0.  1.
<mgrwt>
<rscale>  2 0.17540738E+03</rscale>
<asrwt>0</asrwt>
<pdfrwt beam="1">  1       21 0.31731490E-01 0.17540738E+03</pdfrwt>
<pdfrwt beam="2">  1       21 0.23069360E-01 0.17540738E+03</pdfrwt>
<totfact> 0.16940931E+05</totfact>
</mgrwt>
</event>
<event>
 4    1  0.3876841E+000  0.3871504E+03  0.7546771E-02  0.1048322E+00
         21   -1    0    0  503  502  0.00000000000E+00  0.00000000000E+00  0.28139999731E+03  0.28139999731E+03  0.00000000000E+00 0.  1.
         21   -1    0    0  501  503 -0.00000000000E+00 -0.00000000000E+00 -0.57582852238E+03  0.57582852238E+03  0.00000000000E+00 0.  1.
          6    1    1    2  501    0 -0.91999224382E+02 -0.33390503810E+03 -0.26459439730E+03  0.46893030062E+03  0.17300000000E+03 0.  1.
         -6    1    1    2    0  502  0.91999224382E+02  0.33390503810E+03 -0.29834127771E+02  0.38829821907E+03  0.17300000000E+03 0.  1.
<mgrwt>
<rscale>  2 0.38715040E+03</rscale>
<asrwt>0</asrwt>
<pdfrwt beam="1">  1       21 0.43292307E-01 0.38715040E+03</pdfrwt>
<pdfrwt beam="2">  1       21 0.88589003E-01 0.38715040E+03</pdfrwt>
<totfact> 0.50239659E+03</totfact>
</mgrwt>
</event>
<event>
 4    1  0.3876841E+000  0.2747200E+03  0.7546771E-02  0.1098608E+00
         21   -1    0    0  501  502  0.00000000000E+00  0.00000000000E+00  0.65493787765E+02  0.65493787765E+02  0.00000000000E+00 0.  1.
         21   -1    0    0  502  503 -0.00000000000E+00 -0.00000000000E+00 -0.14025887461E+04  0.14025887461E+04  0.00000000000E+00 0.  1.
          6    1    1    2  501    0  0.18253552586E+03  0.11055695633E+03 -0.35849018472E+03  0.45164839348E+03  0.17300000000E+03 0.  1.
         -6    1    1    2    0  503 -0.18253552586E+03 -0.11055695633E+03 -0.97860477366E+03  0.10164341404E+04  0.17300000000E+03 0.  1.
<mgrwt>
<rscale>  2 0.27471996E+03</rscale>
<asrwt>0</asrwt>
<pdfrwt beam="1">  1       21 0.10075967E-01 0.27471996E+03</pdfrwt>
<pdfrwt beam="2">  1       21 0.21578288E+00 0.27471996E+03</pdfrwt>
<totfact> 0.80299774E+03</totfact>
</mgrwt>
</event>
<event>
 4    1  0.3876841E+000  0.2696209E+03  0.7546771E-02  0.1101497E+00
         21   -1    0    0  503  502  0.00000000000E+00  0.00000000000E+00  0.18315723114E+03  0.18315723114E+03  0.00000000000E+00 0. -1.
         21   -1    0    0  501  503 -0.00000000000E+00 -0.00000000000E+00 -0.49640919731E+03  0.49640919731E+03  0.00000000000E+00 0. -1.
          6    1    1    2  501    0 -0.20303504762E+03 -0.39283678998E+02 -0.30875415802E+03  0.40990799955E+03  0.17300000000E+03 0. -1.
         -6    1    1    2    0  502  0.20303504762E+03  0.39283678998E+02 -0.44978081471E+01  0.26965842890E+03  0.17300000000E+03 0. -1.
<mgrwt>
<rscale>  2 0.26962092E+03</rscale>
<asrwt>0</asrwt>
<pdfrwt beam="1">  1       21 0.28178036E-01 0.26962092E+03</pdfrwt>
<pdfrwt beam="2">  1       21 0.76370645E-01 0.26962092E+03</pdfrwt>
<totfact> 0.17624405E+04</totfact>
</mgrwt>
</event>
<event>
 4    1  0.3876841E+000  0.1731080E+03  0.7546771E-02  0.1174645E+00
         21   -1    0    0  503  502  0.00000000000E+00  0.00000000000E+00  0.37134429194E+02  0.37134429194E+02  0.00000000000E+00 0.  1.
         21   -1    0    0  501  503 -0.00000000000E+00 -0.00000000000E+00 -0.81978001934E+03  0.81978001934E+03  0.00000000000E+00 0.  1.
          6    1    1    2  501    0 -0.48550913853E+01  0.37142244553E+01 -0.44488211394E+03  0.47737455177E+03  0.17300000000E+03 0.  1.
         -6    1    1    2    0  502  0.48550913853E+01 -0.37142244553E+01 -0.33776347621E+03  0.37953989677E+03  0.17300000000E+03 0.  1.
<mgrwt>
<rscale>  2 0.17310796E+03</rscale>
<asrwt>0</asrwt>
<pdfrwt beam="1">  1       21 0.57129894E-02 0.17310796E+03</pdfrwt>
<pdfrwt beam="2">  1       21 0.12612000E+00 0.17310796E+03</pdfrwt>
<totfact> 0.10089463E+05</totfact>
</mgrwt>
</event>
<event>
 4    1  0.3876841E+000  0.2805997E+03  0.7546771E-02  0.1095362E+00
         21   -1    0    0  501  502  0.00000000000E+00  0.00000000000E+00  0.78742622193E+03  0.78742622193E+03  0.00000000000E+00 0. -1.
         21   -1    0    0  502  503 -0.00000000000E+00 -0.00000000000E+00 -0.10019879097E+03  0.10019879097E+03  0.00000000000E+00 0.  1.
          6    1    1    2  501    0 -0.14453382736E+03 -0.16708426502E+03  0.36378464520E+03  0.45942947985E+03  0.17300000000E+03 0. -1.
         -6    1    1    2    0  503  0.14453382736E+03  0.16708426502E+03  0.32344278575E+03  0.42819553305E+03  0.17300000000E+03 0.  1.
<mgrwt>
<rscale>  2 0.28059968E+03</rscale>
<asrwt>0</asrwt>
<pdfrwt beam="1">  1       21 0.12114249E+00 0.28059968E+03</pdfrwt>
<pdfrwt beam="2">  1       21 0.15415199E-01 0.28059968E+03</pdfrwt>
<totfact> 0.18336793E+04</totfact>
</mgrwt>
</event>
<event>
 4    1  0.3876841E+000  0.1781802E+03  0.7546771E-02  0.1169576E+00
         21   -1    0    0  503  502  0.00000000000E+00  0.00000000000E+00  0.84359429842E+02  0.84359429842E+02  0.00000000000E+00 0. -1.
         21   -1    0    0  501  503 -0.00000000000E+00 -0.00000000000E+00 -0.83763808878E+03  0.83763808878E+03  0.00000000000E+00 0. -1.
          6    1    1    2  501    0  0.41482442512E+02 -0.99188396578E+01 -0.71874512415E+03  0.74050167448E+03  0.17300000000E+03 0. -1.
         -6    1    1    2    0  502 -0.41482442512E+02  0.99188396578E+01 -0.34533534792E+02  0.18149584415E+03  0.17300000000E+03 0. -1.
<mgrwt>
<rscale>  2 0.17818018E+03</rscale>
<asrwt>0</asrwt>
<pdfrwt beam="1">  1       21 0.12978374E-01 0.17818018E+03</pdfrwt>
<pdfrwt beam="2">  1       21 0.12886739E+00 0.17818018E+03</pdfrwt>
<totfact> 0.22737049E+04</totfact>
</mgrwt>
</event>
<event>
 4    1  0.3876841E+000  0.2072218E+03  0.7546771E-02  0.1143785E+00
         21   -1    0    0  503  502  0.00000000000E+00  0.00000000000E+00  0.11537272880E+04  0.11537272880E+04  0.00000000000E+00 0.  1.
         21   -1    0    0  501  503 -0.00000000000E+00 -0.00000000000E+00 -0.71520673476E+02  0.71520673476E+02  0.00000000000E+00 0. -1.
          6    1    1    2  501    0  0.50092901401E+02  0.10248204220E+03  0.11684119647E+03  0.23789227171E+03  0.17300000000E+03 0. -1.
         -6    1    1    2    0  502 -0.50092901401E+02 -0.10248204220E+03  0.96536541806E+03  0.98735568977E+03  0.17300000000E+03 0.  1.
<mgrwt>
<rscale>  2 0.20722178E+03</rscale>
<asrwt>0</asrwt>
<pdfrwt beam="1">  1       21 0.17749649E+00 0.20722178E+03</pdfrwt>
<pdfrwt beam="2">  1       21 0.11003181E-01 0.20722178E+03</pdfrwt>
<totfact> 0.12821679E+04</totfact>
</mgrwt>
</event>
<event>
 4    1  0.3876841E+000  0.1757415E+03  0.7546771E-02  0.1171989E+00
         21   -1    0    0  503  502  0.00000000000E+00  0.00000000000E+00  0.68883195419E+02  0.68883195419E+02  0.00000000000E+00 0.  1.
         21   -1    0    0  501  503 -0.00000000000E+00 -0.00000000000E+00 -0.54366897552E+03  0.54366897552E+03  0.00000000000E+00 0.  1.
          6    1    1    2  501    0  0.20599966486E+02 -0.23059250198E+02 -0.10916211515E+03  0.20688512519E+03  0.17300000000E+03 0. -1.
         -6    1    1    2    0  502 -0.20599966486E+02  0.23059250198E+02 -0.36562366494E+03  0.40566704575E+03  0.17300000000E+03 0. -1.
<mgrwt>
<rscale>  2 0.17574154E+03</rscale>
<asrwt>0</asrwt>
<pdfrwt beam="1">  1       21 0.10597414E-01 0.17574154E+03</pdfrwt>
<pdfrwt beam="2">  1       21 0.83641382E-01 0.17574154E+03</pdfrwt>
<totfact> 0.91666251E+04</totfact>
</mgrwt>
</event>
<event>
 4    1  0.3876841E+000  0.1744315E+03  0.7546771E-02  0.1173304E+00
         21   -1    0    0  501  502  0.00000000000E+00  0.00000000000E+00  0.90451740204E+02  0.90451740204E+02  0.00000000000E+00 0.  1.
         21   -1    0    0  502  503 -0.00000000000E+00 -0.00000000000E+00 -0.69487629759E+03  0.69487629759E+03  0.00000000000E+00 0.  1.
          6    1    1    2  501    0 -0.12237017823E+02 -0.18643979116E+02 -0.20173744579E+02  0.17559419846E+03  0.17300000000E+03 0.  1.
         -6    1    1    2    0  503  0.12237017823E+02  0.18643979116E+02 -0.58425081280E+03  0.60973383933E+03  0.17300000000E+03 0.  1.
<mgrwt>
<rscale>  2 0.17443148E+03</rscale>
<asrwt>0</asrwt>
<pdfrwt beam="1">  1       21 0.13915652E-01 0.17443148E+03</pdfrwt>
<pdfrwt beam="2">  1       21 0.10690405E+00 0.17443148E+03</pdfrwt>
<totfact> 0.31783525E+04</totfact>
</mgrwt>
</event>
<event>
 4    1  0.3876841E+000  0.2210414E+03  0.7546771E-02  0.1133109E+00
         21   -1    0    0  501  502  0.00000000000E+00  0.00000000000E+00  0.11069009612E+04  0.11069009612E+04  0.00000000000E+00 0. -1.
         21   -1    0    0  502  503 -0.00000000000E+00 -0.00000000000E+00 -0.53875875083E+02  0.53875875083E+02  0.00000000000E+00 0. -1.
          6    1    1    2  501    0 -0.85632639192E+01  0.13732069370E+03  0.77322727393E+03  0.80420129294E+03  0.17300000000E+03 0. -1.
         -6    1    1    2    0  503  0.85632639192E+01 -0.13732069370E+03  0.27979781216E+03  0.35657554332E+03  0.17300000000E+03 0. -1.
<mgrwt>
<rscale>  2 0.22104140E+03</rscale>
<asrwt>0</asrwt>
<pdfrwt beam="1">  1       21 0.17029244E+00 0.22104140E+03</pdfrwt>
<pdfrwt beam="2">  1       21 0.82885970E-02 0.22104140E+03</pdfrwt>
<totfact> 0.23512050E+04</totfact>
</mgrwt>
</event>
<event>
 4    1  0.3876841E+000  0.2327162E+03  0.7546771E-02  0.1124742E+00
         21   -1    0    0  503  502  0.00000000000E+00  0.00000000000E+00  0.30883260586E+03  0.30883260586E+03  0.00000000000E+00 0. -1.
         21   -1    0    0  501  503 -0.00000000000E+00 -0.00000000000E+00 -0.17648838838E+03  0.17648838838E+03  0.00000000000E+00 0. -1.
          6    1    1    2  501    0 -0.11389558428E+03 -0.10609262483E+03  0.85576191733E+02  0.24795187790E+03  0.17300000000E+03 0. -1.
         -6    1    1    2    0  502  0.11389558428E+03  0.10609262483E+03  0.46768025739E+02  0.23736911634E+03  0.17300000000E+03 0. -1.
<mgrwt>
<rscale>  2 0.23271624E+03</rscale>
<asrwt>0</asrwt>
<pdfrwt beam="1">  1       21 0.47512709E-01 0.23271624E+03</pdfrwt>
<pdfrwt beam="2">  1       21 0.27152060E-01 0.23271624E+03</pdfrwt>
<totfact> 0.53786950E+04</totfact>
</mgrwt>
</event>
<event>
 4    1  0.3876841E+000  0.2374682E+03  0.7546771E-02  0.1121491E+00
         21   -1    0    0  501  502  0.00000000000E+00  0.00000000000E+00  0.96164853547E+03  0.96164853547E+03  0.00000000000E+00 0.  1.
         21   -1    0    0  502  503 -0.00000000000E+00 -0.00000000000E+00 -0.89545958606E+02  0.89545958606E+02  0.00000000000E+00 0.  1.
          6    1    1    2  501    0  0.67538750910E+02  0.14798870928E+03  0.74483236611E+03  0.78177131858E+03  0.17300000000E+03 0.  1.
         -6    1    1    2    0  503 -0.67538750910E+02 -0.14798870928E+03  0.12727021075E+03  0.26942317550E+03  0.17300000000E+03 0.  1.
<mgrwt>
<rscale>  2 0.23746819E+03</rscale>
<asrwt>0</asrwt>
<pdfrwt beam="1">  1       21 0.14794592E+00 0.23746819E+03</pdfrwt>
<pdfrwt beam="2">  1       21 0.13776302E-01 0.23746819E+03</pdfrwt>
<totfact> 0.13770625E+04</totfact>
</mgrwt>
</event>
<event>
 4    1  0.3876841E+000  0.1900196E+03  0.7546771E-02  0.1158444E+00
         21   -1    0    0  501  502  0.00000000000E+00  0.00000000000E+00  0.22326791413E+02  0.22326791413E+02  0.00000000000E+00 0.  1.
         21   -1    0    0  502  503 -0.00000000000E+00 -0.00000000000E+00 -0.16959017406E+04  0.16959017406E+04  0.00000000000E+00 0.  1.
          6    1    1    2  501    0  0.58496548364E+02  0.52503328599E+02 -0.65174402621E+03  0.67887975473E+03  0.17300000000E+03 0.  1.
         -6    1    1    2    0  503 -0.58496548364E+02 -0.52503328599E+02 -0.10218309230E+04  0.10393487773E+04  0.17300000000E+03 0.  1.
<mgrwt>
<rscale>  2 0.19001959E+03</rscale>
<asrwt>0</asrwt>
<pdfrwt beam="1">  1       21 0.34348898E-02 0.19001959E+03</pdfrwt>
<pdfrwt beam="2">  1       21 0.26090805E+00 0.19001959E+03</pdfrwt>
<totfact> 0.29078175E+04</totfact>
</mgrwt>
</event>
<event>
 4    1  0.3876841E+000  0.2611173E+03  0.7546771E-02  0.1106474E+00
         21   -1    0    0  503  502  0.00000000000E+00  0.00000000000E+00  0.43624888605E+03  0.43624888605E+03  0.00000000000E+00 0.  1.
         21   -1    0    0  501  503 -0.00000000000E+00 -0.00000000000E+00 -0.21484730503E+03  0.21484730503E+03  0.00000000000E+00 0. -1.
          6    1    1    2  501    0  0.13431278973E+03 -0.14217350924E+03 -0.59253896668E+02  0.26775596443E+03  0.17300000000E+03 0. -1.
         -6    1    1    2    0  502 -0.13431278973E+03  0.14217350924E+03  0.28065547769E+03  0.38334022665E+03  0.17300000000E+03 0.  1.
<mgrwt>
<rscale>  2 0.26111728E+03</rscale>
<asrwt>0</asrwt>
<pdfrwt beam="1">  1       21 0.67115213E-01 0.26111728E+03</pdfrwt>
<pdfrwt beam="2">  1       21 0.33053432E-01 0.26111728E+03</pdfrwt>
<totfact> 0.17247214E+04</totfact>
</mgrwt>
</event>
<event>
 4    1  0.3876841E+000  0.2572442E+03  0.7546771E-02  0.1108810E+00
         21   -1    0    0  503  502  0.00000000000E+00  0.00000000000E+00  0.25878107904E+03  0.25878107904E+03  0.00000000000E+00 0.  1.
         21   -1    0    0  501  503 -0.00000000000E+00 -0.00000000000E+00 -0.33750012929E+03  0.33750012929E+03  0.00000000000E+00 0.  1.
          6    1    1    2  501    0 -0.18683960480E+03  0.36558469652E+02 -0.18612289499E+03  0.31751581326E+03  0.17300000000E+03 0.  1.
         -6    1    1    2    0  502  0.18683960480E+03 -0.36558469652E+02  0.10740384474E+03  0.27876539508E+03  0.17300000000E+03 0.  1.
<mgrwt>
<rscale>  2 0.25724416E+03</rscale>
<asrwt>0</asrwt>
<pdfrwt beam="1">  1       21 0.39812474E-01 0.25724416E+03</pdfrwt>
<pdfrwt beam="2">  1       21 0.51923096E-01 0.25724416E+03</pdfrwt>
<totfact> 0.20688307E+04</totfact>
</mgrwt>
</event>
<event>
 4    1  0.3876841E+000  0.1970995E+03  0.7546771E-02  0.1152209E+00
         21   -1    0    0  503  502  0.00000000000E+00  0.00000000000E+00  0.20670015123E+02  0.20670015123E+02  0.00000000000E+00 0. -1.
         21   -1    0    0  501  503 -0.00000000000E+00 -0.00000000000E+00 -0.22698609851E+04  0.22698609851E+04  0.00000000000E+00 0. -1.
          6    1    1    2  501    0  0.59489925286E+02  0.73349647053E+02 -0.15995681156E+04  0.16116657155E+04  0.17300000000E+03 0. -1.
         -6    1    1    2    0  502 -0.59489925286E+02 -0.73349647053E+02 -0.64962285440E+03  0.67886528479E+03  0.17300000000E+03 0. -1.
<mgrwt>
<rscale>  2 0.19709952E+03</rscale>
<asrwt>0</asrwt>
<pdfrwt beam="1">  1       21 0.31800025E-02 0.19709952E+03</pdfrwt>
<pdfrwt beam="2">  1       21 0.34920936E+00 0.19709952E+03</pdfrwt>
<totfact> 0.10101358E+04</totfact>
</mgrwt>
</event>
<event>
 4    1  0.3876841E+000  0.1874991E+03  0.7546771E-02  0.1160737E+00
         21   -1    0    0  503  502  0.00000000000E+00  0.00000000000E+00  0.38791689424E+02  0.38791689424E+02  0.00000000000E+00 0. -1.
         21   -1    0    0  501  503 -0.00000000000E+00 -0.00000000000E+00 -0.13144058191E+04  0.13144058191E+04  0.00000000000E+00 0.  1.
          6    1    1    2  501    0 -0.72248660573E+02 -0.26531373776E+01 -0.10148289559E+04  0.10320047082E+04  0.17300000000E+03 0.  1.
         -6    1    1    2    0  502  0.72248660573E+02  0.26531373776E+01 -0.26078517376E+03  0.32119280027E+03  0.17300000000E+03 0. -1.
<mgrwt>
<rscale>  2 0.18749909E+03</rscale>
<asrwt>0</asrwt>
<pdfrwt beam="1">  1       21 0.59679527E-02 0.18749909E+03</pdfrwt>
<pdfrwt beam="2">  1       21 0.20221626E+00 0.18749909E+03</pdfrwt>
<totfact> 0.25958438E+04</totfact>
</mgrwt>
</event>
<event>
 4    1  0.3876841E+000  0.2352214E+03  0.7546771E-02  0.1123018E+00
         21   -1    0    0  503  502  0.00000000000E+00  0.00000000000E+00  0.17836447310E+04  0.17836447310E+04  0.00000000000E+00 0. -1.
         21   -1    0    0  501  503 -0.00000000000E+00 -0.00000000000E+00 -0.10307350669E+03  0.10307350669E+03  0.00000000000E+00 0. -1.
          6    1    1    2  501    0 -0.15731932290E+03 -0.25509370775E+02  0.51552002793E+02  0.24080429055E+03  0.17300000000E+03 0. -1.
         -6    1    1    2    0  502  0.15731932290E+03  0.25509370775E+02  0.16290192215E+04  0.16459139471E+04  0.17300000000E+03 0. -1.
<mgrwt>
<rscale>  2 0.23522138E+03</rscale>
<asrwt>0</asrwt>
<pdfrwt beam="1">  1       21 0.27440686E+00 0.23522138E+03</pdfrwt>
<pdfrwt beam="2">  1       21 0.15857464E-01 0.23522138E+03</pdfrwt>
<totfact> 0.16191953E+03</totfact>
</mgrwt>
</event>
<event>
 4    1  0.3876841E+000  0.1937803E+03  0.7546771E-02  0.1155095E+00
         21   -1    0    0  503  502  0.00000000000E+00  0.00000000000E+00  0.18300378777E+03  0.18300378777E+03  0.00000000000E+00 0. -1.
         21   -1    0    0  501  503 -0.00000000000E+00 -0.00000000000E+00 -0.56115223959E+03  0.56115223959E+03  0.00000000000E+00 0. -1.
          6    1    1    2  501    0 -0.87255597278E+02 -0.28771506933E+01  0.10726880806E+03  0.22148908423E+03  0.17300000000E+03 0. -1.
         -6    1    1    2    0  502  0.87255597278E+02  0.28771506933E+01 -0.48541725987E+03  0.52266694313E+03  0.17300000000E+03 0. -1.
<mgrwt>
<rscale>  2 0.19378033E+03</rscale>
<asrwt>0</asrwt>
<pdfrwt beam="1">  1       21 0.28154429E-01 0.19378033E+03</pdfrwt>
<pdfrwt beam="2">  1       21 0.86331113E-01 0.19378033E+03</pdfrwt>
<totfact> 0.13929710E+04</totfact>
</mgrwt>
</event>
<event>
 4    1  0.3876841E+000  0.1759885E+03  0.7546771E-02  0.1171743E+00
         21   -1    0    0  503  502  0.00000000000E+00  0.00000000000E+00  0.14437226573E+03  0.14437226573E+03  0.00000000000E+00 0. -1.
         21   -1    0    0  501  503 -0.00000000000E+00 -0.00000000000E+00 -0.48560633197E+03  0.48560633197E+03  0.00000000000E+00 0. -1.
          6    1    1    2  501    0 -0.28275948436E+02  0.15601497385E+02 -0.40595976767E+03  0.44246499177E+03  0.17300000000E+03 0. -1.
         -6    1    1    2    0  502  0.28275948436E+02 -0.15601497385E+02  0.64725701423E+02  0.18751360592E+03  0.17300000000E+03 0. -1.
<mgrwt>
<rscale>  2 0.17598845E+03</rscale>
<asrwt>0</asrwt>
<pdfrwt beam="1">  1       21 0.22211118E-01 0.17598845E+03</pdfrwt>
<pdfrwt beam="2">  1       21 0.74708667E-01 0.17598845E+03</pdfrwt>
<totfact> 0.30685830E+04</totfact>
</mgrwt>
</event>
<event>
 4    1  0.3876841E+000  0.1900735E+03  0.7546771E-02  0.1158395E+00
         21   -1    0    0  501  502  0.00000000000E+00  0.00000000000E+00  0.97748007469E+02  0.97748007469E+02  0.00000000000E+00 0. -1.
         21   -1    0    0  502  503 -0.00000000000E+00 -0.00000000000E+00 -0.37040280942E+03  0.37040280942E+03  0.00000000000E+00 0. -1.
          6    1    1    2  501    0  0.69377438331E+02 -0.37225111877E+02 -0.12544901649E+03  0.22773974981E+03  0.17300000000E+03 0. -1.
         -6    1    1    2    0  503 -0.69377438331E+02  0.37225111877E+02 -0.14720578546E+03  0.24041106709E+03  0.17300000000E+03 0. -1.
<mgrwt>
<rscale>  2 0.19007351E+03</rscale>
<asrwt>0</asrwt>
<pdfrwt beam="1">  1       21 0.15038155E-01 0.19007351E+03</pdfrwt>
<pdfrwt beam="2">  1       21 0.56985048E-01 0.19007351E+03</pdfrwt>
<totfact> 0.11307929E+05</totfact>
</mgrwt>
</event>
<event>
 4    1  0.3876841E+000  0.2134122E+03  0.7546771E-02  0.1138892E+00
         21   -1    0    0  501  502  0.00000000000E+00  0.00000000000E+00  0.42388710305E+02  0.42388710305E+02  0.00000000000E+00 0.  1.
         21   -1    0    0  502  503 -0.00000000000E+00 -0.00000000000E+00 -0.12051572445E+04  0.12051572445E+04  0.00000000000E+00 0. -1.
          6    1    1    2  501    0 -0.67539051521E+02  0.10513906891E+03 -0.78680618869E+03  0.81523538065E+03  0.17300000000E+03 0.  1.
         -6    1    1    2    0  503  0.67539051521E+02 -0.10513906891E+03 -0.37596234547E+03  0.43231057413E+03  0.17300000000E+03 0. -1.
<mgrwt>
<rscale>  2 0.21341215E+03</rscale>
<asrwt>0</asrwt>
<pdfrwt beam="1">  1       21 0.65213397E-02 0.21341215E+03</pdfrwt>
<pdfrwt beam="2">  1       21 0.18540882E+00 0.21341215E+03</pdfrwt>
<totfact> 0.28193708E+04</totfact>
</mgrwt>
</event>
<event>
 4    1  0.3876841E+000  0.1993936E+03  0.7546771E-02  0.1150252E+00
         21   -1    0    0  501  502  0.00000000000E+00  0.00000000000E+00  0.29674044781E+04  0.29674044781E+04  0.00000000000E+00 0.  1.
         21   -1    0    0  502  503 -0.00000000000E+00 -0.00000000000E+00 -0.13417380036E+02  0.13417380036E+02  0.00000000000E+00 0. -1.
          6    1    1    2  501    0  0.12744370819E+02 -0.98317746420E+02  0.15333837344E+04  0.15462934635E+04  0.17300000000E+03 0.  1.
         -6    1    1    2    0  503 -0.12744370819E+02  0.98317746420E+02  0.14206033637E+04  0.14345283947E+04  0.17300000000E+03 0.  1.
<mgrwt>
<rscale>  2 0.19939358E+03</rscale>
<asrwt>0</asrwt>
<pdfrwt beam="1">  1       21 0.45652324E+00 0.19939358E+03</pdfrwt>
<pdfrwt beam="2">  1       21 0.20642147E-02 0.19939358E+03</pdfrwt>
<totfact> 0.43601259E+03</totfact>
</mgrwt>
</event>
<event>
 4    1  0.3876841E+000  0.2427999E+03  0.7546771E-02  0.1117942E+00
         21   -1    0    0  501  502  0.00000000000E+00  0.00000000000E+00  0.43212108214E+03  0.43212108214E+03  0.00000000000E+00 0.  1.
         21   -1    0    0  502  503 -0.00000000000E+00 -0.00000000000E+00 -0.18729511703E+03  0.18729511703E+03  0.00000000000E+00 0. -1.
          6    1    1    2  501    0  0.27226151850E+02 -0.16817114539E+03  0.28382054411E+03  0.37350488450E+03  0.17300000000E+03 0.  1.
         -6    1    1    2    0  503 -0.27226151850E+02  0.16817114539E+03 -0.38994579005E+02  0.24591131466E+03  0.17300000000E+03 0. -1.
<mgrwt>
<rscale>  2 0.24279991E+03</rscale>
<asrwt>0</asrwt>
<pdfrwt beam="1">  1       21 0.66480166E-01 0.24279991E+03</pdfrwt>
<pdfrwt beam="2">  1       21 0.28814633E-01 0.24279991E+03</pdfrwt>
<totfact> 0.23276637E+04</totfact>
</mgrwt>
</event>
<event>
 4    1  0.3876841E+000  0.2495251E+03  0.7546771E-02  0.1113605E+00
         21   -1    0    0  501  502  0.00000000000E+00  0.00000000000E+00  0.10300774579E+04  0.10300774579E+04  0.00000000000E+00 0. -1.
         21   -1    0    0  502  503 -0.00000000000E+00 -0.00000000000E+00 -0.11114308728E+03  0.11114308728E+03  0.00000000000E+00 0. -1.
          6    1    1    2  501    0  0.13726768972E+03  0.11615229870E+03  0.84485254562E+03  0.88093053017E+03  0.17300000000E+03 0. -1.
         -6    1    1    2    0  503 -0.13726768972E+03 -0.11615229870E+03  0.74081825047E+02  0.26029001505E+03  0.17300000000E+03 0. -1.
<mgrwt>
<rscale>  2 0.24952510E+03</rscale>
<asrwt>0</asrwt>
<pdfrwt beam="1">  1       21 0.15847345E+00 0.24952510E+03</pdfrwt>
<pdfrwt beam="2">  1       21 0.17098937E-01 0.24952510E+03</pdfrwt>
<totfact> 0.76507611E+03</totfact>
</mgrwt>
</event>
<event>
 4    1  0.3876841E+000  0.3086318E+03  0.7546771E-02  0.1081004E+00
         21   -1    0    0  501  502  0.00000000000E+00  0.00000000000E+00  0.42088531935E+03  0.42088531935E+03  0.00000000000E+00 0.  1.
         21   -1    0    0  502  503 -0.00000000000E+00 -0.00000000000E+00 -0.23202993290E+03  0.23202993290E+03  0.00000000000E+00 0. -1.
          6    1    1    2  501    0  0.25165480380E+03  0.44659255070E+02  0.14565205536E+03  0.34127424539E+03  0.17300000000E+03 0. -1.
         -6    1    1    2    0  503 -0.25165480380E+03 -0.44659255070E+02  0.43203331076E+02  0.31164100686E+03  0.17300000000E+03 0.  1.
<mgrwt>
<rscale>  2 0.30863180E+03</rscale>
<asrwt>0</asrwt>
<pdfrwt beam="1">  1       21 0.64751588E-01 0.30863180E+03</pdfrwt>
<pdfrwt beam="2">  1       21 0.35696913E-01 0.30863180E+03</pdfrwt>
<totfact> 0.15674605E+04</totfact>
</mgrwt>
</event>
<event>
 4    1  0.3876841E+000  0.1781596E+03  0.7546771E-02  0.1169596E+00
         21   -1    0    0  503  502  0.00000000000E+00  0.00000000000E+00  0.34695034736E+03  0.34695034736E+03  0.00000000000E+00 0.  1.
         21   -1    0    0  501  503 -0.00000000000E+00 -0.00000000000E+00 -0.91601166629E+02  0.91601166629E+02  0.00000000000E+00 0.  1.
          6    1    1    2  501    0  0.17464843100E+02 -0.38817891579E+02  0.13547393280E+03  0.22381696968E+03  0.17300000000E+03 0. -1.
         -6    1    1    2    0  502 -0.17464843100E+02  0.38817891579E+02  0.11987524794E+03  0.21473454431E+03  0.17300000000E+03 0. -1.
<mgrwt>
<rscale>  2 0.17815962E+03</rscale>
<asrwt>0</asrwt>
<pdfrwt beam="1">  1       21 0.53376976E-01 0.17815962E+03</pdfrwt>
<pdfrwt beam="2">  1       21 0.14092487E-01 0.17815962E+03</pdfrwt>
<totfact> 0.14669334E+05</totfact>
</mgrwt>
</event>
<event>
 4    1  0.3876841E+000  0.2010110E+03  0.7546771E-02  0.1148889E+00
         21   -1    0    0  501  502  0.00000000000E+00  0.00000000000E+00  0.27348294139E+03  0.27348294139E+03  0.00000000000E+00 0.  1.
         21   -1    0    0  502  503 -0.00000000000E+00 -0.00000000000E+00 -0.14986624311E+03  0.14986624311E+03  0.00000000000E+00 0.  1.
          6    1    1    2  501    0 -0.10214153146E+03 -0.65986537447E+01  0.86998179450E+02  0.21902994751E+03  0.17300000000E+03 0.  1.
         -6    1    1    2    0  503  0.10214153146E+03  0.65986537447E+01  0.36618518839E+02  0.20431923699E+03  0.17300000000E+03 0.  1.
<mgrwt>
<rscale>  2 0.20101103E+03</rscale>
<asrwt>0</asrwt>
<pdfrwt beam="1">  1       21 0.42074299E-01 0.20101103E+03</pdfrwt>
<pdfrwt beam="2">  1       21 0.23056345E-01 0.20101103E+03</pdfrwt>
<totfact> 0.95718487E+04</totfact>
</mgrwt>
</event>
<event>
 4    1  0.3876841E+000  0.3085288E+03  0.7546771E-02  0.1081053E+00
         21   -1    0    0  501  502  0.00000000000E+00  0.00000000000E+00  0.50666905930E+02  0.50666905930E+02  0.00000000000E+00 0.  1.
         21   -1    0    0  502  503 -0.00000000000E+00 -0.00000000000E+00 -0.21301103020E+04  0.21301103020E+04  0.00000000000E+00 0.  1.
          6    1    1    2  501    0  0.21090139079E+03  0.14415823638E+03 -0.66514878110E+03  0.73322090447E+03  0.17300000000E+03 0.  1.
         -6    1    1    2    0  503 -0.21090139079E+03 -0.14415823638E+03 -0.14142946150E+04  0.14475563035E+04  0.17300000000E+03 0.  1.
<mgrwt>
<rscale>  2 0.30852876E+03</rscale>
<asrwt>0</asrwt>
<pdfrwt beam="1">  1       21 0.77949084E-02 0.30852876E+03</pdfrwt>
<pdfrwt beam="2">  1       21 0.32770928E+00 0.30852876E+03</pdfrwt>
<totfact> 0.26379142E+03</totfact>
</mgrwt>
</event>
<event>
 4    1  0.3876841E+000  0.1905305E+03  0.7546771E-02  0.1157984E+00
         21   -1    0    0  501  502  0.00000000000E+00  0.00000000000E+00  0.51586041994E+03  0.51586041994E+03  0.00000000000E+00 0. -1.
         21   -1    0    0  502  503 -0.00000000000E+00 -0.00000000000E+00 -0.90446941325E+02  0.90446941325E+02  0.00000000000E+00 0. -1.
          6    1    1    2  501    0 -0.77713146732E+02 -0.18263177649E+02  0.35552980231E+03  0.40336499249E+03  0.17300000000E+03 0.  1.
         -6    1    1    2    0  503  0.77713146732E+02  0.18263177649E+02  0.69883676309E+02  0.20294236878E+03  0.17300000000E+03 0.  1.
<mgrwt>
<rscale>  2 0.19053051E+03</rscale>
<asrwt>0</asrwt>
<pdfrwt beam="1">  1       21 0.79363140E-01 0.19053051E+03</pdfrwt>
<pdfrwt beam="2">  1       21 0.13914914E-01 0.19053051E+03</pdfrwt>
<totfact> 0.63021055E+04</totfact>
</mgrwt>
</event>
<event>
 4    1  0.3876841E+000  0.2939653E+03  0.7546771E-02  0.1088297E+00
         21   -1    0    0  501  502  0.00000000000E+00  0.00000000000E+00  0.13563297582E+03  0.13563297582E+03  0.00000000000E+00 0. -1.
         21   -1    0    0  502  503 -0.00000000000E+00 -0.00000000000E+00 -0.80662460230E+03  0.80662460230E+03  0.00000000000E+00 0. -1.
          6    1    1    2  501    0 -0.10272715562E+03  0.21432157462E+03 -0.11953048229E+03  0.31733758372E+03  0.17300000000E+03 0. -1.
         -6    1    1    2    0  503  0.10272715562E+03 -0.21432157462E+03 -0.55146114419E+03  0.62491999440E+03  0.17300000000E+03 0. -1.
<mgrwt>
<rscale>  2 0.29396531E+03</rscale>
<asrwt>0</asrwt>
<pdfrwt beam="1">  1       21 0.20866612E-01 0.29396531E+03</pdfrwt>
<pdfrwt beam="2">  1       21 0.12409609E+00 0.29396531E+03</pdfrwt>
<totfact> 0.97442651E+03</totfact>
</mgrwt>
</event>
<event>
 4    1  0.3876841E+000  0.2542707E+03  0.7546771E-02  0.1110635E+00
         21   -1    0    0  501  502  0.00000000000E+00  0.00000000000E+00  0.70800104960E+02  0.70800104960E+02  0.00000000000E+00 0.  1.
         21   -1    0    0  502  503 -0.00000000000E+00 -0.00000000000E+00 -0.10209664809E+04  0.10209664809E+04  0.00000000000E+00 0.  1.
          6    1    1    2  501    0 -0.18554816361E+03  0.17218449422E+02 -0.29771894398E+03  0.39152288008E+03  0.17300000000E+03 0.  1.
         -6    1    1    2    0  503  0.18554816361E+03 -0.17218449422E+02 -0.65244743194E+03  0.70024370576E+03  0.17300000000E+03 0.  1.
<mgrwt>
<rscale>  2 0.25427071E+03</rscale>
<asrwt>0</asrwt>
<pdfrwt beam="1">  1       21 0.10892324E-01 0.25427071E+03</pdfrwt>
<pdfrwt beam="2">  1       21 0.15707176E+00 0.25427071E+03</pdfrwt>
<totfact> 0.17748873E+04</totfact>
</mgrwt>
</event>
<event>
 4    1  0.3876841E+000  0.2104620E+03  0.7546771E-02  0.1141201E+00
         21   -1    0    0  501  502  0.00000000000E+00  0.00000000000E+00  0.20567693709E+03  0.20567693709E+03  0.00000000000E+00 0.  1.
         21   -1    0    0  502  503 -0.00000000000E+00 -0.00000000000E+00 -0.42680610269E+03  0.42680610269E+03  0.00000000000E+00 0.  1.
          6    1    1    2  501    0  0.61322178682E+02 -0.10297982921E+03  0.11202512029E+03  0.23841955121E+03  0.17300000000E+03 0.  1.
         -6    1    1    2    0  503 -0.61322178682E+02  0.10297982921E+03 -0.33315428589E+03  0.39406348858E+03  0.17300000000E+03 0.  1.
<mgrwt>
<rscale>  2 0.21046200E+03</rscale>
<asrwt>0</asrwt>
<pdfrwt beam="1">  1       21 0.31642606E-01 0.21046200E+03</pdfrwt>
<pdfrwt beam="2">  1       21 0.65662477E-01 0.21046200E+03</pdfrwt>
<totfact> 0.20253568E+04</totfact>
</mgrwt>
</event>
<event>
 4    1  0.3876841E+000  0.3046126E+03  0.7546771E-02  0.1082957E+00
         21   -1    0    0  503  502  0.00000000000E+00  0.00000000000E+00  0.70298407457E+03  0.70298407457E+03  0.00000000000E+00 0.  1.
         21   -1    0    0  501  503 -0.00000000000E+00 -0.00000000000E+00 -0.13215697264E+03  0.13215697264E+03  0.00000000000E+00 0. -1.
          6    1    1    2  501    0  0.24766921226E+03 -0.38984564021E+02  0.30013118059E+03  0.42763016790E+03  0.17300000000E+03 0. -1.
         -6    1    1    2    0  502 -0.24766921226E+03  0.38984564021E+02  0.27069592134E+03  0.40751087931E+03  0.17300000000E+03 0.  1.
<mgrwt>
<rscale>  2 0.30461260E+03</rscale>
<asrwt>0</asrwt>
<pdfrwt beam="1">  1       21 0.10815139E+00 0.30461260E+03</pdfrwt>
<pdfrwt beam="2">  1       21 0.20331842E-01 0.30461260E+03</pdfrwt>
<totfact> 0.14333413E+04</totfact>
</mgrwt>
</event>
<event>
 4    1  0.3876841E+000  0.3302633E+03  0.7546771E-02  0.1071020E+00
         21   -1    0    0  503  502  0.00000000000E+00  0.00000000000E+00  0.17513715924E+03  0.17513715924E+03  0.00000000000E+00 0.  1.
         21   -1    0    0  501  503 -0.00000000000E+00 -0.00000000000E+00 -0.90117335679E+03  0.90117335679E+03  0.00000000000E+00 0. -1.
          6    1    1    2  501    0  0.10464532465E+03  0.26114021270E+03 -0.63912712631E+02  0.33639067986E+03  0.17300000000E+03 0.  1.
         -6    1    1    2    0  502 -0.10464532465E+03 -0.26114021270E+03 -0.66212348492E+03  0.73991983616E+03  0.17300000000E+03 0. -1.
<mgrwt>
<rscale>  2 0.33026331E+03</rscale>
<asrwt>0</asrwt>
<pdfrwt beam="1">  1       21 0.26944178E-01 0.33026331E+03</pdfrwt>
<pdfrwt beam="2">  1       21 0.13864206E+00 0.33026331E+03</pdfrwt>
<totfact> 0.44050832E+03</totfact>
</mgrwt>
</event>
<event>
 4    1  0.3876841E+000  0.1871311E+03  0.7546771E-02  0.1161075E+00
         21   -1    0    0  503  502  0.00000000000E+00  0.00000000000E+00  0.54933182068E+02  0.54933182068E+02  0.00000000000E+00 0.  1.
         21   -1    0    0  501  503 -0.00000000000E+00 -0.00000000000E+00 -0.94881985089E+03  0.94881985089E+03  0.00000000000E+00 0.  1.
          6    1    1    2  501    0  0.69274978316E+02 -0.17030667650E+02 -0.73443928256E+03  0.75790443067E+03  0.17300000000E+03 0.  1.
         -6    1    1    2    0  502 -0.69274978316E+02  0.17030667650E+02 -0.15944738626E+03  0.24584860229E+03  0.17300000000E+03 0.  1.
<mgrwt>
<rscale>  2 0.18713115E+03</rscale>
<asrwt>0</asrwt>
<pdfrwt beam="1">  1       21 0.84512589E-02 0.18713115E+03</pdfrwt>
<pdfrwt beam="2">  1       21 0.14597228E+00 0.18713115E+03</pdfrwt>
<totfact> 0.35122790E+04</totfact>
</mgrwt>
</event>
<event>
 4    1  0.3876841E+000  0.1772699E+03  0.7546771E-02  0.1170472E+00
         21   -1    0    0  503  502  0.00000000000E+00  0.00000000000E+00  0.81290352921E+03  0.81290352921E+03  0.00000000000E+00 0.  1.
         21   -1    0    0  501  503 -0.00000000000E+00 -0.00000000000E+00 -0.41609023368E+02  0.41609023368E+02  0.00000000000E+00 0.  1.
          6    1    1    2  501    0  0.38579129667E+02 -0.26939824215E+01  0.27184864902E+03  0.32454012812E+03  0.17300000000E+03 0.  1.
         -6    1    1    2    0  502 -0.38579129667E+02  0.26939824215E+01  0.49944585683E+03  0.52997242446E+03  0.17300000000E+03 0.  1.
<mgrwt>
<rscale>  2 0.17726987E+03</rscale>
<asrwt>0</asrwt>
<pdfrwt beam="1">  1       21 0.12506207E+00 0.17726987E+03</pdfrwt>
<pdfrwt beam="2">  1       21 0.64013888E-02 0.17726987E+03</pdfrwt>
<totfact> 0.84667627E+04</totfact>
</mgrwt>
</event>
<event>
 4    1  0.3876841E+000  0.1958879E+03  0.7546771E-02  0.1153256E+00
         21   -1    0    0  501  502  0.00000000000E+00  0.00000000000E+00  0.14391817767E+03  0.14391817767E+03  0.00000000000E+00 0. -1.
         21   -1    0    0  502  503 -0.00000000000E+00 -0.00000000000E+00 -0.40224923110E+03  0.40224923110E+03  0.00000000000E+00 0. -1.
          6    1    1    2  501    0 -0.81393199713E+02 -0.42640414459E+02  0.29403449703E+02  0.19808235853E+03  0.17300000000E+03 0. -1.
         -6    1    1    2    0  503  0.81393199713E+02  0.42640414459E+02 -0.28773450313E+03  0.34808505024E+03  0.17300000000E+03 0. -1.
<mgrwt>
<rscale>  2 0.19588787E+03</rscale>
<asrwt>0</asrwt>
<pdfrwt beam="1">  1       21 0.22141258E-01 0.19588787E+03</pdfrwt>
<pdfrwt beam="2">  1       21 0.61884497E-01 0.19588787E+03</pdfrwt>
<totfact> 0.46161887E+04</totfact>
</mgrwt>
</event>
<event>
 4    1  0.3876841E+000  0.1823535E+03  0.7546771E-02  0.1165545E+00
         21   -1    0    0  503  502  0.00000000000E+00  0.00000000000E+00  0.45833463992E+03  0.45833463992E+03  0.00000000000E+00 0.  1.
         21   -1    0    0  501  503 -0.00000000000E+00 -0.00000000000E+00 -0.13070308998E+03  0.13070308998E+03  0.00000000000E+00 0. -1.
          6    1    1    2  501    0 -0.49956495262E+02  0.28777693747E+02 -0.32633967800E+02  0.18525059495E+03  0.17300000000E+03 0. -1.
         -6    1    1    2    0  502  0.49956495262E+02 -0.28777693747E+02  0.36026551774E+03  0.40378713495E+03  0.17300000000E+03 0.  1.
<mgrwt>
<rscale>  2 0.18235352E+03</rscale>
<asrwt>0</asrwt>
<pdfrwt beam="1">  1       21 0.70513021E-01 0.18235352E+03</pdfrwt>
<pdfrwt beam="2">  1       21 0.20108168E-01 0.18235352E+03</pdfrwt>
<totfact> 0.41880546E+04</totfact>
</mgrwt>
</event>
<event>
 4    1  0.3876841E+000  0.2191020E+03  0.7546771E-02  0.1134554E+00
         21   -1    0    0  501  502  0.00000000000E+00  0.00000000000E+00  0.11049746920E+03  0.11049746920E+03  0.00000000000E+00 0.  1.
         21   -1    0    0  502  503 -0.00000000000E+00 -0.00000000000E+00 -0.73679354912E+03  0.73679354912E+03  0.00000000000E+00 0.  1.
          6    1    1    2  501    0  0.10530988420E+02  0.13403649435E+03 -0.41766891647E+02  0.22304743167E+03  0.17300000000E+03 0.  1.
         -6    1    1    2    0  503 -0.10530988420E+02 -0.13403649435E+03 -0.58452918827E+03  0.62424358665E+03  0.17300000000E+03 0.  1.
<mgrwt>
<rscale>  2 0.21910199E+03</rscale>
<asrwt>0</asrwt>
<pdfrwt beam="1">  1       21 0.16999610E-01 0.21910199E+03</pdfrwt>
<pdfrwt beam="2">  1       21 0.11335285E+00 0.21910199E+03</pdfrwt>
<totfact> 0.18635160E+04</totfact>
</mgrwt>
</event>
<event>
 4    1  0.3876841E+000  0.1829105E+03  0.7546771E-02  0.1165016E+00
         21   -1    0    0  503  502  0.00000000000E+00  0.00000000000E+00  0.14077357911E+04  0.14077357911E+04  0.00000000000E+00 0. -1.
         21   -1    0    0  501  503 -0.00000000000E+00 -0.00000000000E+00 -0.24653902451E+02  0.24653902451E+02  0.00000000000E+00 0. -1.
          6    1    1    2  501    0  0.46877372363E+02 -0.36465826229E+02  0.55562458669E+03  0.58495720002E+03  0.17300000000E+03 0. -1.
         -6    1    1    2    0  502 -0.46877372363E+02  0.36465826229E+02  0.82745730192E+03  0.84743249349E+03  0.17300000000E+03 0. -1.
<mgrwt>
<rscale>  2 0.18291048E+03</rscale>
<asrwt>0</asrwt>
<pdfrwt beam="1">  1       21 0.21657467E+00 0.18291048E+03</pdfrwt>
<pdfrwt beam="2">  1       21 0.37929092E-02 0.18291048E+03</pdfrwt>
<totfact> 0.45546151E+04</totfact>
</mgrwt>
</event>
<event>
 4    1  0.3876841E+000  0.1738335E+03  0.7546771E-02  0.1173908E+00
         21   -1    0    0  501  502  0.00000000000E+00  0.00000000000E+00  0.34233323727E+03  0.34233323727E+03  0.00000000000E+00 0.  1.
         21   -1    0    0  502  503 -0.00000000000E+00 -0.00000000000E+00 -0.98965527357E+02  0.98965527357E+02  0.00000000000E+00 0.  1.
          6    1    1    2  501    0  0.12905001693E+02  0.11069397942E+02  0.19421810363E+03  0.26065061369E+03  0.17300000000E+03 0.  1.
         -6    1    1    2    0  503 -0.12905001693E+02 -0.11069397942E+02  0.49149606286E+02  0.18064815094E+03  0.17300000000E+03 0.  1.
<mgrwt>
<rscale>  2 0.17383346E+03</rscale>
<asrwt>0</asrwt>
<pdfrwt beam="1">  1       21 0.52666651E-01 0.17383346E+03</pdfrwt>
<pdfrwt beam="2">  1       21 0.15225466E-01 0.17383346E+03</pdfrwt>
<totfact> 0.13133427E+05</totfact>
</mgrwt>
</event>
<event>
 4    1  0.3876841E+000  0.1912315E+03  0.7546771E-02  0.1157355E+00
         21   -1    0    0  501  502  0.00000000000E+00  0.00000000000E+00  0.39332858300E+03  0.39332858300E+03  0.00000000000E+00 0.  1.
         21   -1    0    0  502  503 -0.00000000000E+00 -0.00000000000E+00 -0.16963443913E+03  0.16963443913E+03  0.00000000000E+00 0.  1.
          6    1    1    2  501    0  0.35915572798E+02  0.73147563831E+02  0.30107156009E+03  0.35667012597E+03  0.17300000000E+03 0.  1.
         -6    1    1    2    0  503 -0.35915572798E+02 -0.73147563831E+02 -0.77377416223E+02  0.20629289616E+03  0.17300000000E+03 0.  1.
<mgrwt>
<rscale>  2 0.19123152E+03</rscale>
<asrwt>0</asrwt>
<pdfrwt beam="1">  1       21 0.60512090E-01 0.19123152E+03</pdfrwt>
<pdfrwt beam="2">  1       21 0.26097606E-01 0.19123152E+03</pdfrwt>
<totfact> 0.35523937E+04</totfact>
</mgrwt>
</event>
<event>
 4    1  0.3876841E+000  0.1798996E+03  0.7546771E-02  0.1167900E+00
         21   -1    0    0  501  502  0.00000000000E+00  0.00000000000E+00  0.62139822302E+02  0.62139822302E+02  0.00000000000E+00 0. -1.
         21   -1    0    0  502  503 -0.00000000000E+00 -0.00000000000E+00 -0.76641677224E+03  0.76641677224E+03  0.00000000000E+00 0. -1.
          6    1    1    2  501    0  0.40292184654E+02  0.28485061127E+02 -0.11762477835E+03  0.21494056698E+03  0.17300000000E+03 0. -1.
         -6    1    1    2    0  503 -0.40292184654E+02 -0.28485061127E+02 -0.58665217159E+03  0.61361602757E+03  0.17300000000E+03 0. -1.
<mgrwt>
<rscale>  2 0.17989958E+03</rscale>
<asrwt>0</asrwt>
<pdfrwt beam="1">  1       21 0.95599723E-02 0.17989958E+03</pdfrwt>
<pdfrwt beam="2">  1       21 0.11791028E+00 0.17989958E+03</pdfrwt>
<totfact> 0.48773862E+04</totfact>
</mgrwt>
</event>
<event>
 4    1  0.3876841E+000  0.2327293E+03  0.7546771E-02  0.1124733E+00
         21   -1    0    0  501  502  0.00000000000E+00  0.00000000000E+00  0.32711302758E+02  0.32711302758E+02  0.00000000000E+00 0. -1.
         21   -1    0    0  502  503 -0.00000000000E+00 -0.00000000000E+00 -0.17058817086E+04  0.17058817086E+04  0.00000000000E+00 0. -1.
          6    1    1    2  501    0 -0.50414256467E+02 -0.14728313424E+03 -0.68761702376E+03  0.72593394345E+03  0.17300000000E+03 0. -1.
         -6    1    1    2    0  503  0.50414256467E+02  0.14728313424E+03 -0.98555338204E+03  0.10126590679E+04  0.17300000000E+03 0. -1.
<mgrwt>
<rscale>  2 0.23272928E+03</rscale>
<asrwt>0</asrwt>
<pdfrwt beam="1">  1       21 0.50325084E-02 0.23272928E+03</pdfrwt>
<pdfrwt beam="2">  1       21 0.26244332E+00 0.23272928E+03</pdfrwt>
<totfact> 0.14443953E+04</totfact>
</mgrwt>
</event>
<event>
 4    1  0.3876841E+000  0.2021194E+03  0.7546771E-02  0.1147963E+00
         21   -1    0    0  503  502  0.00000000000E+00  0.00000000000E+00  0.10705489656E+04  0.10705489656E+04  0.00000000000E+00 0. -1.
         21   -1    0    0  501  503 -0.00000000000E+00 -0.00000000000E+00 -0.38910525796E+02  0.38910525796E+02  0.00000000000E+00 0. -1.
          6    1    1    2  501    0 -0.68693523198E+02  0.78768373008E+02  0.43878184506E+03  0.48309601972E+03  0.17300000000E+03 0. -1.
         -6    1    1    2    0  502  0.68693523198E+02 -0.78768373008E+02  0.59285659473E+03  0.62636347166E+03  0.17300000000E+03 0. -1.
<mgrwt>
<rscale>  2 0.20211941E+03</rscale>
<asrwt>0</asrwt>
<pdfrwt beam="1">  1       21 0.16469982E+00 0.20211941E+03</pdfrwt>
<pdfrwt beam="2">  1       21 0.59862355E-02 0.20211941E+03</pdfrwt>
<totfact> 0.45803358E+04</totfact>
</mgrwt>
</event>
<event>
 4    1  0.3876841E+000  0.1751802E+03  0.7546771E-02  0.1172551E+00
         21   -1    0    0  503  502  0.00000000000E+00  0.00000000000E+00  0.19236805483E+03  0.19236805483E+03  0.00000000000E+00 0. -1.
         21   -1    0    0  501  503 -0.00000000000E+00 -0.00000000000E+00 -0.12464857231E+04  0.12464857231E+04  0.00000000000E+00 0. -1.
          6    1    1    2  501    0  0.21684363751E+02  0.16997171006E+02 -0.11988732403E+04  0.12116043751E+04  0.17300000000E+03 0. -1.
         -6    1    1    2    0  502 -0.21684363751E+02 -0.16997171006E+02  0.14475557203E+03  0.22724940283E+03  0.17300000000E+03 0. -1.
<mgrwt>
<rscale>  2 0.17518024E+03</rscale>
<asrwt>0</asrwt>
<pdfrwt beam="1">  1       21 0.29595086E-01 0.17518024E+03</pdfrwt>
<pdfrwt beam="2">  1       21 0.19176703E+00 0.17518024E+03</pdfrwt>
<totfact> 0.16935308E+03</totfact>
</mgrwt>
</event>
<event>
 4    1  0.3876841E+000  0.3126710E+03  0.7546771E-02  0.1079073E+00
         21   -1    0    0  503  502  0.00000000000E+00  0.00000000000E+00  0.11167528567E+03  0.11167528567E+03  0.00000000000E+00 0.  1.
         21   -1    0    0  501  503 -0.00000000000E+00 -0.00000000000E+00 -0.88981326611E+03  0.88981326611E+03  0.00000000000E+00 0.  1.
          6    1    1    2  501    0  0.29480057164E+02 -0.25877610845E+03 -0.32538997912E+03  0.45126686848E+03  0.17300000000E+03 0.  1.
         -6    1    1    2    0  502 -0.29480057164E+02  0.25877610845E+03 -0.45274800131E+03  0.55022168329E+03  0.17300000000E+03 0.  1.
<mgrwt>
<rscale>  2 0.31267099E+03</rscale>
<asrwt>0</asrwt>
<pdfrwt beam="1">  1       21 0.17180813E-01 0.31267099E+03</pdfrwt>
<pdfrwt beam="2">  1       21 0.13689435E+00 0.31267099E+03</pdfrwt>
<totfact> 0.10816530E+04</totfact>
</mgrwt>
</event>
<event>
 4    1  0.3876841E+000  0.1730489E+03  0.7546771E-02  0.1174705E+00
         21   -1    0    0  503  502  0.00000000000E+00  0.00000000000E+00  0.40651124721E+02  0.40651124721E+02  0.00000000000E+00 0. -1.
         21   -1    0    0  501  503 -0.00000000000E+00 -0.00000000000E+00 -0.75780384384E+03  0.75780384384E+03  0.00000000000E+00 0. -1.
          6    1    1    2  501    0  0.31746509046E+01  0.26172927114E+01 -0.42526725766E+03  0.45912761740E+03  0.17300000000E+03 0.  1.
         -6    1    1    2    0  502 -0.31746509046E+01 -0.26172927114E+01 -0.29188546146E+03  0.33932735116E+03  0.17300000000E+03 0.  1.
<mgrwt>
<rscale>  2 0.17304892E+03</rscale>
<asrwt>0</asrwt>
<pdfrwt beam="1">  1       21 0.62540189E-02 0.17304892E+03</pdfrwt>
<pdfrwt beam="2">  1       21 0.11658521E+00 0.17304892E+03</pdfrwt>
<totfact> 0.10500800E+05</totfact>
</mgrwt>
</event>
<event>
 4    1  0.3876841E+000  0.2476317E+03  0.7546771E-02  0.1114811E+00
         21   -1    0    0  501  502  0.00000000000E+00  0.00000000000E+00  0.15228044992E+03  0.15228044992E+03  0.00000000000E+00 0.  1.
         21   -1    0    0  502  503 -0.00000000000E+00 -0.00000000000E+00 -0.40640711990E+03  0.40640711990E+03  0.00000000000E+00 0.  1.
          6    1    1    2  501    0 -0.15726999272E+03 -0.81600424653E+02 -0.15378662435E+03  0.29149923798E+03  0.17300000000E+03 0.  1.
         -6    1    1    2    0  503  0.15726999272E+03  0.81600424653E+02 -0.10034004563E+03  0.26718833183E+03  0.17300000000E+03 0.  1.
<mgrwt>
<rscale>  2 0.24763174E+03</rscale>
<asrwt>0</asrwt>
<pdfrwt beam="1">  1       21 0.23427762E-01 0.24763174E+03</pdfrwt>
<pdfrwt beam="2">  1       21 0.62524172E-01 0.24763174E+03</pdfrwt>
<totfact> 0.39589763E+04</totfact>
</mgrwt>
</event>
<event>
 4    1  0.3876841E+000  0.1751937E+03  0.7546771E-02  0.1172537E+00
         21   -1    0    0  503  502  0.00000000000E+00  0.00000000000E+00  0.28072867966E+03  0.28072867966E+03  0.00000000000E+00 0. -1.
         21   -1    0    0  501  503 -0.00000000000E+00 -0.00000000000E+00 -0.11828833251E+03  0.11828833251E+03  0.00000000000E+00 0. -1.
          6    1    1    2  501    0  0.25094302872E+02 -0.11580375177E+02  0.26324490220E+02  0.17716040165E+03  0.17300000000E+03 0. -1.
         -6    1    1    2    0  502 -0.25094302872E+02  0.11580375177E+02  0.13611585693E+03  0.22185661052E+03  0.17300000000E+03 0. -1.
<mgrwt>
<rscale>  2 0.17519369E+03</rscale>
<asrwt>0</asrwt>
<pdfrwt beam="1">  1       21 0.43189028E-01 0.17519369E+03</pdfrwt>
<pdfrwt beam="2">  1       21 0.18198205E-01 0.17519369E+03</pdfrwt>
<totfact> 0.14263972E+05</totfact>
</mgrwt>
</event>
<event>
 4    1  0.3876841E+000  0.2707646E+03  0.7546771E-02  0.1100843E+00
         21   -1    0    0  501  502  0.00000000000E+00  0.00000000000E+00  0.14378039312E+04  0.14378039312E+04  0.00000000000E+00 0. -1.
         21   -1    0    0  502  503 -0.00000000000E+00 -0.00000000000E+00 -0.64098471505E+02  0.64098471505E+02  0.00000000000E+00 0.  1.
          6    1    1    2  501    0 -0.15949397465E+03 -0.13396330194E+03  0.34725452622E+03  0.44033986896E+03  0.17300000000E+03 0.  1.
         -6    1    1    2    0  503  0.15949397465E+03  0.13396330194E+03  0.10264509335E+04  0.10615625338E+04  0.17300000000E+03 0. -1.
<mgrwt>
<rscale>  2 0.27076465E+03</rscale>
<asrwt>0</asrwt>
<pdfrwt beam="1">  1       21 0.22120058E+00 0.27076465E+03</pdfrwt>
<pdfrwt beam="2">  1       21 0.98613044E-02 0.27076465E+03</pdfrwt>
<totfact> 0.77365697E+03</totfact>
</mgrwt>
</event>
<event>
 4    1  0.3876841E+000  0.2845052E+03  0.7546771E-02  0.1093253E+00
         21   -1    0    0  501  502  0.00000000000E+00  0.00000000000E+00  0.15994476781E+03  0.15994476781E+03  0.00000000000E+00 0.  1.
         21   -1    0    0  502  503 -0.00000000000E+00 -0.00000000000E+00 -0.11408532250E+04  0.11408532250E+04  0.00000000000E+00 0. -1.
          6    1    1    2  501    0  0.21443486695E+03  0.70936055784E+02 -0.97560611305E+03  0.10162433390E+04  0.17300000000E+03 0. -1.
         -6    1    1    2    0  503 -0.21443486695E+03 -0.70936055784E+02 -0.53023441455E+01  0.28455465385E+03  0.17300000000E+03 0.  1.
<mgrwt>
<rscale>  2 0.28450525E+03</rscale>
<asrwt>0</asrwt>
<pdfrwt beam="1">  1       21 0.24606887E-01 0.28450525E+03</pdfrwt>
<pdfrwt beam="2">  1       21 0.17551588E+00 0.28450525E+03</pdfrwt>
<totfact> 0.28352574E+03</totfact>
</mgrwt>
</event>
<event>
 4    1  0.3876841E+000  0.2524348E+03  0.7546771E-02  0.1111776E+00
         21   -1    0    0  503  502  0.00000000000E+00  0.00000000000E+00  0.12324901072E+03  0.12324901072E+03  0.00000000000E+00 0. -1.
         21   -1    0    0  501  503 -0.00000000000E+00 -0.00000000000E+00 -0.57034136137E+03  0.57034136137E+03  0.00000000000E+00 0.  1.
          6    1    1    2  501    0 -0.17459252808E+02 -0.18300135266E+03 -0.32957387212E+03  0.41514125038E+03  0.17300000000E+03 0. -1.
         -6    1    1    2    0  502  0.17459252808E+02  0.18300135266E+03 -0.11751847853E+03  0.27844912171E+03  0.17300000000E+03 0. -1.
<mgrwt>
<rscale>  2 0.25243478E+03</rscale>
<asrwt>0</asrwt>
<pdfrwt beam="1">  1       21 0.18961387E-01 0.25243478E+03</pdfrwt>
<pdfrwt beam="2">  1       21 0.87744824E-01 0.25243478E+03</pdfrwt>
<totfact> 0.27531470E+04</totfact>
</mgrwt>
</event>
<event>
 4    1  0.3876841E+000  0.2387103E+03  0.7546771E-02  0.1120655E+00
         21   -1    0    0  501  502  0.00000000000E+00  0.00000000000E+00  0.44241713892E+02  0.44241713892E+02  0.00000000000E+00 0. -1.
         21   -1    0    0  502  503 -0.00000000000E+00 -0.00000000000E+00 -0.12903500202E+04  0.12903500202E+04  0.00000000000E+00 0. -1.
          6    1    1    2  501    0 -0.15967434441E+03  0.39468084434E+02 -0.59448082920E+03  0.64061695438E+03  0.17300000000E+03 0. -1.
         -6    1    1    2    0  503  0.15967434441E+03 -0.39468084434E+02 -0.65162747706E+03  0.69397477966E+03  0.17300000000E+03 0. -1.
<mgrwt>
<rscale>  2 0.23871034E+03</rscale>
<asrwt>0</asrwt>
<pdfrwt beam="1">  1       21 0.68064188E-02 0.23871034E+03</pdfrwt>
<pdfrwt beam="2">  1       21 0.19851535E+00 0.23871034E+03</pdfrwt>
<totfact> 0.21103379E+04</totfact>
</mgrwt>
</event>
<event>
 4    1  0.3876841E+000  0.1823593E+03  0.7546771E-02  0.1165539E+00
         21   -1    0    0  501  502  0.00000000000E+00  0.00000000000E+00  0.48493080817E+02  0.48493080817E+02  0.00000000000E+00 0. -1.
         21   -1    0    0  502  503 -0.00000000000E+00 -0.00000000000E+00 -0.73492687124E+03  0.73492687124E+03  0.00000000000E+00 0. -1.
          6    1    1    2  501    0 -0.96602263683E+01  0.56855895395E+02 -0.24190702966E+03  0.30294211297E+03  0.17300000000E+03 0. -1.
         -6    1    1    2    0  503  0.96602263683E+01 -0.56855895395E+02 -0.44452676077E+03  0.48047783909E+03  0.17300000000E+03 0. -1.
<mgrwt>
<rscale>  2 0.18235930E+03</rscale>
<asrwt>0</asrwt>
<pdfrwt beam="1">  1       21 0.74604747E-02 0.18235930E+03</pdfrwt>
<pdfrwt beam="2">  1       21 0.11306566E+00 0.18235930E+03</pdfrwt>
<totfact> 0.83154930E+04</totfact>
</mgrwt>
</event>
<event>
 4    1  0.3876841E+000  0.2039702E+03  0.7546771E-02  0.1146432E+00
         21   -1    0    0  501  502  0.00000000000E+00  0.00000000000E+00  0.31943014014E+03  0.31943014014E+03  0.00000000000E+00 0.  1.
         21   -1    0    0  502  503 -0.00000000000E+00 -0.00000000000E+00 -0.26600108908E+03  0.26600108908E+03  0.00000000000E+00 0.  1.
          6    1    1    2  501    0 -0.62776855970E+02 -0.87942608070E+02  0.23582970429E+03  0.31180039350E+03  0.17300000000E+03 0.  1.
         -6    1    1    2    0  503  0.62776855970E+02  0.87942608070E+02 -0.18240065323E+03  0.27363083572E+03  0.17300000000E+03 0.  1.
<mgrwt>
<rscale>  2 0.20397018E+03</rscale>
<asrwt>0</asrwt>
<pdfrwt beam="1">  1       21 0.49143099E-01 0.20397018E+03</pdfrwt>
<pdfrwt beam="2">  1       21 0.40923244E-01 0.20397018E+03</pdfrwt>
<totfact> 0.22569658E+04</totfact>
</mgrwt>
</event>
<event>
 4    1  0.3876841E+000  0.2479542E+03  0.7546771E-02  0.1114605E+00
         21   -1    0    0  503  502  0.00000000000E+00  0.00000000000E+00  0.21687013574E+04  0.21687013574E+04  0.00000000000E+00 0. -1.
         21   -1    0    0  501  503 -0.00000000000E+00 -0.00000000000E+00 -0.36273402689E+02  0.36273402689E+02  0.00000000000E+00 0. -1.
          6    1    1    2  501    0 -0.17169850454E+03 -0.45518064094E+02  0.55092221932E+03  0.60414945366E+03  0.17300000000E+03 0. -1.
         -6    1    1    2    0  502  0.17169850454E+03  0.45518064094E+02  0.15815057354E+04  0.16008253064E+04  0.17300000000E+03 0. -1.
<mgrwt>
<rscale>  2 0.24795417E+03</rscale>
<asrwt>0</asrwt>
<pdfrwt beam="1">  1       21 0.33364626E+00 0.24795417E+03</pdfrwt>
<pdfrwt beam="2">  1       21 0.55805252E-02 0.24795417E+03</pdfrwt>
<totfact> 0.45791132E+03</totfact>
</mgrwt>
</event>
<event>
 4    1  0.3876841E+000  0.4268289E+03  0.7546771E-02  0.1034866E+00
         21   -1    0    0  501  502  0.00000000000E+00  0.00000000000E+00  0.67147259042E+03  0.67147259042E+03  0.00000000000E+00 0.  1.
         21   -1    0    0  502  503 -0.00000000000E+00 -0.00000000000E+00 -0.34762157385E+03  0.34762157385E+03  0.00000000000E+00 0. -1.
          6    1    1    2  501    0 -0.72236947996E+02  0.38345240987E+03  0.40065276756E+03  0.58541059731E+03  0.17300000000E+03 0.  1.
         -6    1    1    2    0  503  0.72236947996E+02 -0.38345240987E+03 -0.76801750993E+02  0.43368356695E+03  0.17300000000E+03 0. -1.
<mgrwt>
<rscale>  2 0.42682892E+03</rscale>
<asrwt>0</asrwt>
<pdfrwt beam="1">  1       21 0.10330348E+00 0.42682892E+03</pdfrwt>
<pdfrwt beam="2">  1       21 0.53480242E-01 0.42682892E+03</pdfrwt>
<totfact> 0.21906156E+03</totfact>
</mgrwt>
</event>
<event>
 4    1  0.3876841E+000  0.2116355E+03  0.7546771E-02  0.1140277E+00
         21   -1    0    0  501  502  0.00000000000E+00  0.00000000000E+00  0.73953106083E+03  0.73953106083E+03  0.00000000000E+00 0. -1.
         21   -1    0    0  502  503 -0.00000000000E+00 -0.00000000000E+00 -0.60591256108E+02  0.60591256108E+02  0.00000000000E+00 0.  1.
          6    1    1    2  501    0 -0.42927052687E+02 -0.11409577614E+03  0.34782366984E+03  0.40714970624E+03  0.17300000000E+03 0.  1.
         -6    1    1    2    0  503  0.42927052687E+02  0.11409577614E+03  0.33111613488E+03  0.39297261070E+03  0.17300000000E+03 0. -1.
<mgrwt>
<rscale>  2 0.21163548E+03</rscale>
<asrwt>0</asrwt>
<pdfrwt beam="1">  1       21 0.11377400E+00 0.21163548E+03</pdfrwt>
<pdfrwt beam="2">  1       21 0.93217322E-02 0.21163548E+03</pdfrwt>
<totfact> 0.54734707E+04</totfact>
</mgrwt>
</event>
<event>
 4    1  0.3876841E+000  0.1791210E+03  0.7546771E-02  0.1168656E+00
         21   -1    0    0  501  502  0.00000000000E+00  0.00000000000E+00  0.86989168040E+02  0.86989168040E+02  0.00000000000E+00 0.  1.
         21   -1    0    0  502  503 -0.00000000000E+00 -0.00000000000E+00 -0.38720813928E+03  0.38720813928E+03  0.00000000000E+00 0.  1.
          6    1    1    2  501    0 -0.16049536761E+02 -0.43563194133E+02 -0.98457064322E+02  0.20439699858E+03  0.17300000000E+03 0.  1.
         -6    1    1    2    0  503  0.16049536761E+02  0.43563194133E+02 -0.20176190692E+03  0.26980030874E+03  0.17300000000E+03 0.  1.
<mgrwt>
<rscale>  2 0.17912102E+03</rscale>
<asrwt>0</asrwt>
<pdfrwt beam="1">  1       21 0.13382949E-01 0.17912102E+03</pdfrwt>
<pdfrwt beam="2">  1       21 0.59570483E-01 0.17912102E+03</pdfrwt>
<totfact> 0.12754440E+05</totfact>
</mgrwt>
</event>
<event>
 4    1  0.3876841E+000  0.1903965E+03  0.7546771E-02  0.1158104E+00
         21   -1    0    0  503  502  0.00000000000E+00  0.00000000000E+00  0.52907628337E+03  0.52907628337E+03  0.00000000000E+00 0. -1.
         21   -1    0    0  501  503 -0.00000000000E+00 -0.00000000000E+00 -0.92220523973E+02  0.92220523973E+02  0.00000000000E+00 0. -1.
          6    1    1    2  501    0 -0.53451047206E+01  0.79329996607E+02  0.60935305617E+02  0.19990980460E+03  0.17300000000E+03 0. -1.
         -6    1    1    2    0  502  0.53451047206E+01 -0.79329996607E+02  0.37592045378E+03  0.42138700274E+03  0.17300000000E+03 0. -1.
<mgrwt>
<rscale>  2 0.19039648E+03</rscale>
<asrwt>0</asrwt>
<pdfrwt beam="1">  1       21 0.81396350E-01 0.19039648E+03</pdfrwt>
<pdfrwt beam="2">  1       21 0.14187773E-01 0.19039648E+03</pdfrwt>
<totfact> 0.57463714E+04</totfact>
</mgrwt>
</event>
<event>
 4    1  0.3876841E+000  0.2467243E+03  0.7546771E-02  0.1115393E+00
         21   -1    0    0  503  502  0.00000000000E+00  0.00000000000E+00  0.53047901352E+03  0.53047901352E+03  0.00000000000E+00 0.  1.
         21   -1    0    0  501  503 -0.00000000000E+00 -0.00000000000E+00 -0.14977673425E+03  0.14977673425E+03  0.00000000000E+00 0. -1.
          6    1    1    2  501    0  0.15298184627E+02  0.17524220537E+03  0.35483194205E+03  0.43217886585E+03  0.17300000000E+03 0.  1.
         -6    1    1    2    0  502 -0.15298184627E+02 -0.17524220537E+03  0.25870337221E+02  0.24807688192E+03  0.17300000000E+03 0. -1.
<mgrwt>
<rscale>  2 0.24672427E+03</rscale>
<asrwt>0</asrwt>
<pdfrwt beam="1">  1       21 0.81612155E-01 0.24672427E+03</pdfrwt>
<pdfrwt beam="2">  1       21 0.23042575E-01 0.24672427E+03</pdfrwt>
<totfact> 0.22576336E+04</totfact>
</mgrwt>
</event>
<event>
 4    1  0.3876841E+000  0.3048916E+03  0.7546771E-02  0.1082821E+00
         21   -1    0    0  501  502  0.00000000000E+00  0.00000000000E+00  0.11594586777E+04  0.11594586777E+04  0.00000000000E+00 0. -1.
         21   -1    0    0  502  503 -0.00000000000E+00 -0.00000000000E+00 -0.17284465481E+03  0.17284465481E+03  0.00000000000E+00 0.  1.
          6    1    1    2  501    0 -0.23505183940E+03 -0.88207098505E+02  0.98107737557E+03  0.10273615120E+04  0.17300000000E+03 0. -1.
         -6    1    1    2    0  503  0.23505183940E+03  0.88207098505E+02  0.55366472826E+01  0.30494182051E+03  0.17300000000E+03 0.  1.
<mgrwt>
<rscale>  2 0.30489155E+03</rscale>
<asrwt>0</asrwt>
<pdfrwt beam="1">  1       21 0.17837825E+00 0.30489155E+03</pdfrwt>
<pdfrwt beam="2">  1       21 0.26591486E-01 0.30489155E+03</pdfrwt>
<totfact> 0.23007539E+03</totfact>
</mgrwt>
</event>
<event>
 4    1  0.3876841E+000  0.1811494E+03  0.7546771E-02  0.1166695E+00
         21   -1    0    0  501  502  0.00000000000E+00  0.00000000000E+00  0.52658245305E+02  0.52658245305E+02  0.00000000000E+00 0.  1.
         21   -1    0    0  502  503 -0.00000000000E+00 -0.00000000000E+00 -0.10366089272E+04  0.10366089272E+04  0.00000000000E+00 0.  1.
          6    1    1    2  501    0  0.47826994243E+02  0.24468353473E+02 -0.14802020213E+03  0.23393396918E+03  0.17300000000E+03 0.  1.
         -6    1    1    2    0  503 -0.47826994243E+02 -0.24468353473E+02 -0.83593047976E+03  0.85533320332E+03  0.17300000000E+03 0.  1.
<mgrwt>
<rscale>  2 0.18114945E+03</rscale>
<asrwt>0</asrwt>
<pdfrwt beam="1">  1       21 0.81012684E-02 0.18114945E+03</pdfrwt>
<pdfrwt beam="2">  1       21 0.15947830E+00 0.18114945E+03</pdfrwt>
<totfact> 0.30031278E+04</totfact>
</mgrwt>
</event>
<event>
 4    1  0.3876841E+000  0.2480515E+03  0.7546771E-02  0.1114542E+00
         21   -1    0    0  501  502  0.00000000000E+00  0.00000000000E+00  0.19986399399E+03  0.19986399399E+03  0.00000000000E+00 0. -1.
         21   -1    0    0  502  503 -0.00000000000E+00 -0.00000000000E+00 -0.46437199968E+03  0.46437199968E+03  0.00000000000E+00 0.  1.
          6    1    1    2  501    0  0.91523969414E+02  0.15239386829E+03  0.60559475866E+02  0.25533698946E+03  0.17300000000E+03 0. -1.
         -6    1    1    2    0  503 -0.91523969414E+02 -0.15239386829E+03 -0.32506748156E+03  0.40889900420E+03  0.17300000000E+03 0.  1.
<mgrwt>
<rscale>  2 0.24805146E+03</rscale>
<asrwt>0</asrwt>
<pdfrwt beam="1">  1       21 0.30748307E-01 0.24805146E+03</pdfrwt>
<pdfrwt beam="2">  1       21 0.71441845E-01 0.24805146E+03</pdfrwt>
<totfact> 0.17433358E+04</totfact>
</mgrwt>
</event>
<event>
 4    1  0.3876841E+000  0.1953325E+03  0.7546771E-02  0.1153738E+00
         21   -1    0    0  501  502  0.00000000000E+00  0.00000000000E+00  0.15793612710E+04  0.15793612710E+04  0.00000000000E+00 0.  1.
         21   -1    0    0  502  503 -0.00000000000E+00 -0.00000000000E+00 -0.29090230890E+02  0.29090230890E+02  0.00000000000E+00 0.  1.
          6    1    1    2  501    0  0.46568089804E+02  0.77827997677E+02  0.11062743206E+04  0.11233866906E+04  0.17300000000E+03 0.  1.
         -6    1    1    2    0  503 -0.46568089804E+02 -0.77827997677E+02  0.44399671950E+03  0.48506481128E+03  0.17300000000E+03 0.  1.
<mgrwt>
<rscale>  2 0.19533250E+03</rscale>
<asrwt>0</asrwt>
<pdfrwt beam="1">  1       21 0.24297859E+00 0.19533250E+03</pdfrwt>
<pdfrwt beam="2">  1       21 0.44754214E-02 0.19533250E+03</pdfrwt>
<totfact> 0.23678697E+04</totfact>
</mgrwt>
</event>
<event>
 4    1  0.3876841E+000  0.2269541E+03  0.7546771E-02  0.1128802E+00
         21   -1    0    0  501  502  0.00000000000E+00  0.00000000000E+00  0.11322528624E+04  0.11322528624E+04  0.00000000000E+00 0. -1.
         21   -1    0    0  502  503 -0.00000000000E+00 -0.00000000000E+00 -0.42484503078E+03  0.42484503078E+03  0.00000000000E+00 0.  1.
          6    1    1    2  501    0 -0.13545656300E+03  0.56839048076E+02  0.10893900577E+04  0.11127797876E+04  0.17300000000E+03 0. -1.
         -6    1    1    2    0  503  0.13545656300E+03 -0.56839048076E+02 -0.38198222612E+03  0.44431810555E+03  0.17300000000E+03 0.  1.
<mgrwt>
<rscale>  2 0.22695409E+03</rscale>
<asrwt>0</asrwt>
<pdfrwt beam="1">  1       21 0.17419275E+00 0.22695409E+03</pdfrwt>
<pdfrwt beam="2">  1       21 0.65360774E-01 0.22695409E+03</pdfrwt>
<totfact> 0.41330746E+02</totfact>
</mgrwt>
</event>
<event>
 4    1  0.3876841E+000  0.1807984E+03  0.7546771E-02  0.1167033E+00
         21   -1    0    0  503  502  0.00000000000E+00  0.00000000000E+00  0.16086964012E+04  0.16086964012E+04  0.00000000000E+00 0.  1.
         21   -1    0    0  501  503 -0.00000000000E+00 -0.00000000000E+00 -0.29218361428E+02  0.29218361428E+02  0.00000000000E+00 0. -1.
          6    1    1    2  501    0 -0.27263474995E+02  0.44897392064E+02  0.33778102660E+03  0.38312412455E+03  0.17300000000E+03 0.  1.
         -6    1    1    2    0  502  0.27263474995E+02 -0.44897392064E+02  0.12416970131E+04  0.12547906380E+04  0.17300000000E+03 0.  1.
<mgrwt>
<rscale>  2 0.18079843E+03</rscale>
<asrwt>0</asrwt>
<pdfrwt beam="1">  1       21 0.24749169E+00 0.18079843E+03</pdfrwt>
<pdfrwt beam="2">  1       21 0.44951338E-02 0.18079843E+03</pdfrwt>
<totfact> 0.22384883E+04</totfact>
</mgrwt>
</event>
<event>
 4    1  0.3876841E+000  0.2616051E+03  0.7546771E-02  0.1106183E+00
         21   -1    0    0  501  502  0.00000000000E+00  0.00000000000E+00  0.14397927395E+03  0.14397927395E+03  0.00000000000E+00 0. -1.
         21   -1    0    0  502  503 -0.00000000000E+00 -0.00000000000E+00 -0.60721285300E+03  0.60721285300E+03  0.00000000000E+00 0. -1.
          6    1    1    2  501    0 -0.19622789523E+03  0.16816668743E+01 -0.56571710601E+02  0.26765196303E+03  0.17300000000E+03 0. -1.
         -6    1    1    2    0  503  0.19622789523E+03 -0.16816668743E+01 -0.40666186845E+03  0.48354016392E+03  0.17300000000E+03 0. -1.
<mgrwt>
<rscale>  2 0.26160507E+03</rscale>
<asrwt>0</asrwt>
<pdfrwt beam="1">  1       21 0.22150658E-01 0.26160507E+03</pdfrwt>
<pdfrwt beam="2">  1       21 0.93417360E-01 0.26160507E+03</pdfrwt>
<totfact> 0.17665492E+04</totfact>
</mgrwt>
</event>
<event>
 4    1  0.3876841E+000  0.1993085E+03  0.7546771E-02  0.1150324E+00
         21   -1    0    0  501  502  0.00000000000E+00  0.00000000000E+00  0.42538037556E+02  0.42538037556E+02  0.00000000000E+00 0. -1.
         21   -1    0    0  502  503 -0.00000000000E+00 -0.00000000000E+00 -0.14550733209E+04  0.14550733209E+04  0.00000000000E+00 0. -1.
          6    1    1    2  501    0 -0.32166485371E+02 -0.93595959361E+02 -0.25809931926E+03  0.32609683377E+03  0.17300000000E+03 0. -1.
         -6    1    1    2    0  503  0.32166485371E+02  0.93595959361E+02 -0.11544359641E+04  0.11715145247E+04  0.17300000000E+03 0. -1.
<mgrwt>
<rscale>  2 0.19930852E+03</rscale>
<asrwt>0</asrwt>
<pdfrwt beam="1">  1       21 0.65443144E-02 0.19930852E+03</pdfrwt>
<pdfrwt beam="2">  1       21 0.22385740E+00 0.19930852E+03</pdfrwt>
<totfact> 0.16096365E+04</totfact>
</mgrwt>
</event>
<event>
 4    1  0.3876841E+000  0.2153937E+03  0.7546771E-02  0.1137365E+00
         21   -1    0    0  503  502  0.00000000000E+00  0.00000000000E+00  0.43737994404E+03  0.43737994404E+03  0.00000000000E+00 0. -1.
         21   -1    0    0  501  503 -0.00000000000E+00 -0.00000000000E+00 -0.44625960801E+03  0.44625960801E+03  0.00000000000E+00 0.  1.
          6    1    1    2  501    0  0.20932955457E+02  0.12659872826E+03 -0.39019312413E+03  0.44569619781E+03  0.17300000000E+03 0.  1.
         -6    1    1    2    0  502 -0.20932955457E+02 -0.12659872826E+03  0.38131346016E+03  0.43794335424E+03  0.17300000000E+03 0. -1.
<mgrwt>
<rscale>  2 0.21539366E+03</rscale>
<asrwt>0</asrwt>
<pdfrwt beam="1">  1       21 0.67289222E-01 0.21539366E+03</pdfrwt>
<pdfrwt beam="2">  1       21 0.68655325E-01 0.21539366E+03</pdfrwt>
<totfact> 0.38380114E+03</totfact>
</mgrwt>
</event>
<event>
 4    1  0.3876841E+000  0.3485602E+03  0.7546771E-02  0.1063208E+00
         21   -1    0    0  501  502  0.00000000000E+00  0.00000000000E+00  0.26784542555E+03  0.26784542555E+03  0.00000000000E+00 0. -1.
         21   -1    0    0  502  503 -0.00000000000E+00 -0.00000000000E+00 -0.49865489939E+03  0.49865489939E+03  0.00000000000E+00 0.  1.
          6    1    1    2  501    0 -0.18646408155E+03 -0.23831984824E+03 -0.20221827799E+00  0.34856024539E+03  0.17300000000E+03 0. -1.
         -6    1    1    2    0  503  0.18646408155E+03  0.23831984824E+03 -0.23060725557E+03  0.41794007955E+03  0.17300000000E+03 0.  1.
<mgrwt>
<rscale>  2 0.34856019E+03</rscale>
<asrwt>0</asrwt>
<pdfrwt beam="1">  1       21 0.41206989E-01 0.34856019E+03</pdfrwt>
<pdfrwt beam="2">  1       21 0.76716137E-01 0.34856019E+03</pdfrwt>
<totfact> 0.78804616E+03</totfact>
</mgrwt>
</event>
<event>
 4    1  0.3876841E+000  0.1857666E+03  0.7546771E-02  0.1162336E+00
         21   -1    0    0  503  502  0.00000000000E+00  0.00000000000E+00  0.34906714876E+03  0.34906714876E+03  0.00000000000E+00 0. -1.
         21   -1    0    0  501  503 -0.00000000000E+00 -0.00000000000E+00 -0.42442372757E+03  0.42442372757E+03  0.00000000000E+00 0. -1.
          6    1    1    2  501    0 -0.58824544264E+02  0.33465131957E+02 -0.37639957742E+03  0.41974502254E+03  0.17300000000E+03 0. -1.
         -6    1    1    2    0  502  0.58824544264E+02 -0.33465131957E+02  0.30104299861E+03  0.35374585379E+03  0.17300000000E+03 0. -1.
<mgrwt>
<rscale>  2 0.18576663E+03</rscale>
<asrwt>0</asrwt>
<pdfrwt beam="1">  1       21 0.53702638E-01 0.18576663E+03</pdfrwt>
<pdfrwt beam="2">  1       21 0.65295958E-01 0.18576663E+03</pdfrwt>
<totfact> 0.71152654E+03</totfact>
</mgrwt>
</event>
<event>
 4    1  0.3876841E+000  0.2327577E+03  0.7546771E-02  0.1124714E+00
         21   -1    0    0  503  502  0.00000000000E+00  0.00000000000E+00  0.11148368362E+03  0.11148368362E+03  0.00000000000E+00 0. -1.
         21   -1    0    0  501  503 -0.00000000000E+00 -0.00000000000E+00 -0.50701936026E+03  0.50701936026E+03  0.00000000000E+00 0. -1.
          6    1    1    2  501    0 -0.15551538443E+03  0.78800807554E+01 -0.26080063716E+03  0.34956130051E+03  0.17300000000E+03 0. -1.
         -6    1    1    2    0  502  0.15551538443E+03 -0.78800807554E+01 -0.13473503948E+03  0.26894174338E+03  0.17300000000E+03 0. -1.
<mgrwt>
<rscale>  2 0.23275766E+03</rscale>
<asrwt>0</asrwt>
<pdfrwt beam="1">  1       21 0.17151336E-01 0.23275766E+03</pdfrwt>
<pdfrwt beam="2">  1       21 0.78002977E-01 0.23275766E+03</pdfrwt>
<totfact> 0.43825384E+04</totfact>
</mgrwt>
</event>
<event>
 4    1  0.3876841E+000  0.1782519E+03  0.7546771E-02  0.1169506E+00
         21   -1    0    0  503  502  0.00000000000E+00  0.00000000000E+00  0.67485564416E+02  0.67485564416E+02  0.00000000000E+00 0. -1.
         21   -1    0    0  501  503 -0.00000000000E+00 -0.00000000000E+00 -0.50538812145E+03  0.50538812145E+03  0.00000000000E+00 0. -1.
          6    1    1    2  501    0  0.11767946513E+02 -0.41306995161E+02 -0.29386057716E+03  0.34369723773E+03  0.17300000000E+03 0. -1.
         -6    1    1    2    0  502 -0.11767946513E+02  0.41306995161E+02 -0.14404197987E+03  0.22917644814E+03  0.17300000000E+03 0. -1.
<mgrwt>
<rscale>  2 0.17825194E+03</rscale>
<asrwt>0</asrwt>
<pdfrwt beam="1">  1       21 0.10382395E-01 0.17825194E+03</pdfrwt>
<pdfrwt beam="2">  1       21 0.77752016E-01 0.17825194E+03</pdfrwt>
<totfact> 0.11197529E+05</totfact>
</mgrwt>
</event>
<event>
 4    1  0.3876841E+000  0.2101240E+03  0.7546771E-02  0.1141468E+00
         21   -1    0    0  503  502  0.00000000000E+00  0.00000000000E+00  0.35524807582E+03  0.35524807582E+03  0.00000000000E+00 0. -1.
         21   -1    0    0  501  503 -0.00000000000E+00 -0.00000000000E+00 -0.12430174567E+03  0.12430174567E+03  0.00000000000E+00 0. -1.
          6    1    1    2  501    0 -0.11901089415E+03  0.77143762382E+01  0.11823330315E+03  0.24110416525E+03  0.17300000000E+03 0. -1.
         -6    1    1    2    0  502  0.11901089415E+03 -0.77143762382E+01  0.11271302700E+03  0.23844565625E+03  0.17300000000E+03 0. -1.
<mgrwt>
<rscale>  2 0.21012402E+03</rscale>
<asrwt>0</asrwt>
<pdfrwt beam="1">  1       21 0.54653550E-01 0.21012402E+03</pdfrwt>
<pdfrwt beam="2">  1       21 0.19123346E-01 0.21012402E+03</pdfrwt>
<totfact> 0.78731758E+04</totfact>
</mgrwt>
</event>
<event>
 4    1  0.3876841E+000  0.1827179E+03  0.7546771E-02  0.1165198E+00
         21   -1    0    0  503  502  0.00000000000E+00  0.00000000000E+00  0.36004265376E+02  0.36004265376E+02  0.00000000000E+00 0.  1.
         21   -1    0    0  501  503 -0.00000000000E+00 -0.00000000000E+00 -0.15802114660E+04  0.15802114660E+04  0.00000000000E+00 0.  1.
          6    1    1    2  501    0 -0.46646776991E+02  0.35789942502E+02 -0.12915578641E+04  0.13044184751E+04  0.17300000000E+03 0.  1.
         -6    1    1    2    0  502  0.46646776991E+02 -0.35789942502E+02 -0.25264933647E+03  0.31179725626E+03  0.17300000000E+03 0.  1.
<mgrwt>
<rscale>  2 0.18271793E+03</rscale>
<asrwt>0</asrwt>
<pdfrwt beam="1">  1       21 0.55391170E-02 0.18271793E+03</pdfrwt>
<pdfrwt beam="2">  1       21 0.24310949E+00 0.18271793E+03</pdfrwt>
<totfact> 0.16650961E+04</totfact>
</mgrwt>
</event>
<event>
 4    1  0.3876841E+000  0.2729678E+03  0.7546771E-02  0.1099593E+00
         21   -1    0    0  503  502  0.00000000000E+00  0.00000000000E+00  0.42897514702E+03  0.42897514702E+03  0.00000000000E+00 0. -1.
         21   -1    0    0  501  503 -0.00000000000E+00 -0.00000000000E+00 -0.17843612705E+03  0.17843612705E+03  0.00000000000E+00 0.  1.
          6    1    1    2  501    0 -0.73426663423E+02  0.19796699308E+03  0.75771048524E+02  0.28328899916E+03  0.17300000000E+03 0.  1.
         -6    1    1    2    0  502  0.73426663423E+02 -0.19796699308E+03  0.17476797144E+03  0.32412227491E+03  0.17300000000E+03 0. -1.
<mgrwt>
<rscale>  2 0.27296777E+03</rscale>
<asrwt>0</asrwt>
<pdfrwt beam="1">  1       21 0.65996176E-01 0.27296777E+03</pdfrwt>
<pdfrwt beam="2">  1       21 0.27451712E-01 0.27296777E+03</pdfrwt>
<totfact> 0.25644730E+04</totfact>
</mgrwt>
</event>
<event>
 4    1  0.3876841E+000  0.1809652E+03  0.7546771E-02  0.1166872E+00
         21   -1    0    0  503  502  0.00000000000E+00  0.00000000000E+00  0.32027566156E+03  0.32027566156E+03  0.00000000000E+00 0. -1.
         21   -1    0    0  501  503 -0.00000000000E+00 -0.00000000000E+00 -0.12488199032E+03  0.12488199032E+03  0.00000000000E+00 0. -1.
          6    1    1    2  501    0 -0.38691442448E+02  0.36364251688E+02  0.29446316867E+01  0.18098910844E+03  0.17300000000E+03 0.  1.
         -6    1    1    2    0  502  0.38691442448E+02 -0.36364251688E+02  0.19244903955E+03  0.26416854344E+03  0.17300000000E+03 0.  1.
<mgrwt>
<rscale>  2 0.18096515E+03</rscale>
<asrwt>0</asrwt>
<pdfrwt beam="1">  1       21 0.49273178E-01 0.18096515E+03</pdfrwt>
<pdfrwt beam="2">  1       21 0.19212614E-01 0.18096515E+03</pdfrwt>
<totfact> 0.98167164E+04</totfact>
</mgrwt>
</event>
<event>
 4    1  0.3876841E+000  0.1825002E+03  0.7546771E-02  0.1165405E+00
         21   -1    0    0  503  502  0.00000000000E+00  0.00000000000E+00  0.47886433417E+03  0.47886433417E+03  0.00000000000E+00 0.  1.
         21   -1    0    0  501  503 -0.00000000000E+00 -0.00000000000E+00 -0.69555943435E+02  0.69555943435E+02  0.00000000000E+00 0. -1.
          6    1    1    2  501    0  0.56203484793E+02 -0.14780940190E+02  0.20652636921E+03  0.27560741840E+03  0.17300000000E+03 0.  1.
         -6    1    1    2    0  502 -0.56203484793E+02  0.14780940190E+02  0.20278202152E+03  0.27281285921E+03  0.17300000000E+03 0. -1.
<mgrwt>
<rscale>  2 0.18250016E+03</rscale>
<asrwt>0</asrwt>
<pdfrwt beam="1">  1       21 0.73671434E-01 0.18250016E+03</pdfrwt>
<pdfrwt beam="2">  1       21 0.10700915E-01 0.18250016E+03</pdfrwt>
<totfact> 0.11952535E+05</totfact>
</mgrwt>
</event>
<event>
 4    1  0.3876841E+000  0.3160893E+03  0.7546771E-02  0.1077463E+00
         21   -1    0    0  503  502  0.00000000000E+00  0.00000000000E+00  0.13050766541E+04  0.13050766541E+04  0.00000000000E+00 0.  1.
         21   -1    0    0  501  503 -0.00000000000E+00 -0.00000000000E+00 -0.78169777171E+02  0.78169777171E+02  0.00000000000E+00 0. -1.
          6    1    1    2  501    0 -0.25872347639E+03 -0.55187105167E+02  0.51410335965E+03  0.60350204491E+03  0.17300000000E+03 0. -1.
         -6    1    1    2    0  502  0.25872347639E+03  0.55187105167E+02  0.71280351725E+03  0.77974438633E+03  0.17300000000E+03 0. -1.
<mgrwt>
<rscale>  2 0.31608931E+03</rscale>
<asrwt>0</asrwt>
<pdfrwt beam="1">  1       21 0.20078101E+00 0.31608931E+03</pdfrwt>
<pdfrwt beam="2">  1       21 0.12026121E-01 0.31608931E+03</pdfrwt>
<totfact> 0.71217541E+03</totfact>
</mgrwt>
</event>
<event>
 4    1  0.3876841E+000  0.2805337E+03  0.7546771E-02  0.1095398E+00
         21   -1    0    0  501  502  0.00000000000E+00  0.00000000000E+00  0.34027420910E+03  0.34027420910E+03  0.00000000000E+00 0.  1.
         21   -1    0    0  502  503 -0.00000000000E+00 -0.00000000000E+00 -0.25616182175E+03  0.25616182175E+03  0.00000000000E+00 0. -1.
          6    1    1    2  501    0  0.37359133321E+02 -0.21765674122E+03  0.13499644460E+03  0.31132491371E+03  0.17300000000E+03 0.  1.
         -6    1    1    2    0  503 -0.37359133321E+02  0.21765674122E+03 -0.50884057252E+02  0.28511111715E+03  0.17300000000E+03 0. -1.
<mgrwt>
<rscale>  2 0.28053371E+03</rscale>
<asrwt>0</asrwt>
<pdfrwt beam="1">  1       21 0.52349878E-01 0.28053371E+03</pdfrwt>
<pdfrwt beam="2">  1       21 0.39409511E-01 0.28053371E+03</pdfrwt>
<totfact> 0.20544333E+04</totfact>
</mgrwt>
</event>
<event>
 4    1  0.3876841E+000  0.3102843E+03  0.7546771E-02  0.1080210E+00
         21   -1    0    0  501  502  0.00000000000E+00  0.00000000000E+00  0.97369592029E+03  0.97369592029E+03  0.00000000000E+00 0.  1.
         21   -1    0    0  502  503 -0.00000000000E+00 -0.00000000000E+00 -0.11583087140E+03  0.11583087140E+03  0.00000000000E+00 0. -1.
          6    1    1    2  501    0  0.15031799829E+03 -0.20916949308E+03  0.63734656044E+03  0.70886318535E+03  0.17300000000E+03 0.  1.
         -6    1    1    2    0  503 -0.15031799829E+03  0.20916949308E+03  0.22051848845E+03  0.38066360635E+03  0.17300000000E+03 0. -1.
<mgrwt>
<rscale>  2 0.31028435E+03</rscale>
<asrwt>0</asrwt>
<pdfrwt beam="1">  1       21 0.14979937E+00 0.31028435E+03</pdfrwt>
<pdfrwt beam="2">  1       21 0.17820135E-01 0.31028435E+03</pdfrwt>
<totfact> 0.79702552E+03</totfact>
</mgrwt>
</event>
<event>
 4    1  0.3876841E+000  0.1767541E+03  0.7546771E-02  0.1170982E+00
         21   -1    0    0  501  502  0.00000000000E+00  0.00000000000E+00  0.10850675298E+03  0.10850675298E+03  0.00000000000E+00 0.  1.
         21   -1    0    0  502  503 -0.00000000000E+00 -0.00000000000E+00 -0.65010098185E+03  0.65010098185E+03  0.00000000000E+00 0.  1.
          6    1    1    2  501    0  0.36058038939E+02 -0.35799295227E+01  0.12313157135E+02  0.17718242550E+03  0.17300000000E+03 0.  1.
         -6    1    1    2    0  503 -0.36058038939E+02  0.35799295227E+01 -0.55390738600E+03  0.58142530933E+03  0.17300000000E+03 0.  1.
<mgrwt>
<rscale>  2 0.17675406E+03</rscale>
<asrwt>0</asrwt>
<pdfrwt beam="1">  1       21 0.16693347E-01 0.17675406E+03</pdfrwt>
<pdfrwt beam="2">  1       21 0.10001554E+00 0.17675406E+03</pdfrwt>
<totfact> 0.26721078E+04</totfact>
</mgrwt>
</event>
<event>
 4    1  0.3876841E+000  0.3010375E+03  0.7546771E-02  0.1084723E+00
         21   -1    0    0  503  502  0.00000000000E+00  0.00000000000E+00  0.55143217354E+03  0.55143217354E+03  0.00000000000E+00 0. -1.
         21   -1    0    0  501  503 -0.00000000000E+00 -0.00000000000E+00 -0.16668917844E+03  0.16668917844E+03  0.00000000000E+00 0.  1.
          6    1    1    2  501    0 -0.21236341659E+03  0.12488533243E+03  0.14976554296E+03  0.33623397333E+03  0.17300000000E+03 0. -1.
         -6    1    1    2    0  502  0.21236341659E+03 -0.12488533243E+03  0.23497745214E+03  0.38188737866E+03  0.17300000000E+03 0.  1.
<mgrwt>
<rscale>  2 0.30103748E+03</rscale>
<asrwt>0</asrwt>
<pdfrwt beam="1">  1       21 0.84835718E-01 0.30103748E+03</pdfrwt>
<pdfrwt beam="2">  1       21 0.25644489E-01 0.30103748E+03</pdfrwt>
<totfact> 0.16413445E+04</totfact>
</mgrwt>
</event>
<event>
 4    1  0.3876841E+000  0.1739599E+03  0.7546771E-02  0.1173780E+00
         21   -1    0    0  501  502  0.00000000000E+00  0.00000000000E+00  0.63408908061E+03  0.63408908061E+03  0.00000000000E+00 0. -1.
         21   -1    0    0  502  503 -0.00000000000E+00 -0.00000000000E+00 -0.50676045976E+02  0.50676045976E+02  0.00000000000E+00 0. -1.
          6    1    1    2  501    0 -0.57092002331E+01  0.17333099263E+02  0.20908689824E+03  0.27199147470E+03  0.17300000000E+03 0. -1.
         -6    1    1    2    0  503  0.57092002331E+01 -0.17333099263E+02  0.37432613640E+03  0.41277365188E+03  0.17300000000E+03 0. -1.
<mgrwt>
<rscale>  2 0.17395986E+03</rscale>
<asrwt>0</asrwt>
<pdfrwt beam="1">  1       21 0.97552160E-01 0.17395986E+03</pdfrwt>
<pdfrwt beam="2">  1       21 0.77963152E-02 0.17395986E+03</pdfrwt>
<totfact> 0.11007089E+05</totfact>
</mgrwt>
</event>
<event>
 4    1  0.3876841E+000  0.2356692E+03  0.7546771E-02  0.1122712E+00
         21   -1    0    0  503  502  0.00000000000E+00  0.00000000000E+00  0.21391511116E+03  0.21391511116E+03  0.00000000000E+00 0.  1.
         21   -1    0    0  501  503 -0.00000000000E+00 -0.00000000000E+00 -0.11435211851E+04  0.11435211851E+04  0.00000000000E+00 0. -1.
          6    1    1    2  501    0 -0.31207344101E+02 -0.15696207002E+03 -0.10615158547E+04  0.10873618991E+04  0.17300000000E+03 0. -1.
         -6    1    1    2    0  502  0.31207344101E+02  0.15696207002E+03  0.13190978077E+03  0.27007439718E+03  0.17300000000E+03 0.  1.
<mgrwt>
<rscale>  2 0.23566924E+03</rscale>
<asrwt>0</asrwt>
<pdfrwt beam="1">  1       21 0.32910017E-01 0.23566924E+03</pdfrwt>
<pdfrwt beam="2">  1       21 0.17592634E+00 0.23566924E+03</pdfrwt>
<totfact> 0.16561524E+03</totfact>
</mgrwt>
</event>
<event>
 4    1  0.3876841E+000  0.1778869E+03  0.7546771E-02  0.1169864E+00
         21   -1    0    0  503  502  0.00000000000E+00  0.00000000000E+00  0.20499658182E+03  0.20499658182E+03  0.00000000000E+00 0.  1.
         21   -1    0    0  501  503 -0.00000000000E+00 -0.00000000000E+00 -0.43022935946E+03  0.43022935946E+03  0.00000000000E+00 0.  1.
          6    1    1    2  501    0  0.41409414593E+02 -0.15406471337E+00 -0.36694666086E+03  0.40779114172E+03  0.17300000000E+03 0.  1.
         -6    1    1    2    0  502 -0.41409414593E+02  0.15406471337E+00  0.14171388322E+03  0.22743479956E+03  0.17300000000E+03 0.  1.
<mgrwt>
<rscale>  2 0.17788694E+03</rscale>
<asrwt>0</asrwt>
<pdfrwt beam="1">  1       21 0.31537936E-01 0.17788694E+03</pdfrwt>
<pdfrwt beam="2">  1       21 0.66189132E-01 0.17788694E+03</pdfrwt>
<totfact> 0.20426855E+04</totfact>
</mgrwt>
</event>
<event>
 4    1  0.3876841E+000  0.2262255E+03  0.7546771E-02  0.1129325E+00
         21   -1    0    0  503  502  0.00000000000E+00  0.00000000000E+00  0.90780004960E+02  0.90780004960E+02  0.00000000000E+00 0.  1.
         21   -1    0    0  501  503 -0.00000000000E+00 -0.00000000000E+00 -0.65141765676E+03  0.65141765676E+03  0.00000000000E+00 0.  1.
          6    1    1    2  501    0  0.32026147028E+02 -0.14220860754E+03 -0.41645059379E+03  0.47392938210E+03  0.17300000000E+03 0.  1.
         -6    1    1    2    0  502 -0.32026147028E+02  0.14220860754E+03 -0.14418705802E+03  0.26826827962E+03  0.17300000000E+03 0.  1.
<mgrwt>
<rscale>  2 0.22622547E+03</rscale>
<asrwt>0</asrwt>
<pdfrwt beam="1">  1       21 0.13966154E-01 0.22622547E+03</pdfrwt>
<pdfrwt beam="2">  1       21 0.10021810E+00 0.22622547E+03</pdfrwt>
<totfact> 0.35832019E+04</totfact>
</mgrwt>
</event>
<event>
 4    1  0.3876841E+000  0.1837854E+03  0.7546771E-02  0.1164189E+00
         21   -1    0    0  503  502  0.00000000000E+00  0.00000000000E+00  0.13273155518E+04  0.13273155518E+04  0.00000000000E+00 0. -1.
         21   -1    0    0  501  503 -0.00000000000E+00 -0.00000000000E+00 -0.56251949998E+02  0.56251949998E+02  0.00000000000E+00 0. -1.
          6    1    1    2  501    0 -0.32151350420E+02 -0.53050523244E+02  0.12360577727E+03  0.22148466205E+03  0.17300000000E+03 0. -1.
         -6    1    1    2    0  502  0.32151350420E+02  0.53050523244E+02  0.11474578245E+04  0.11620828397E+04  0.17300000000E+03 0. -1.
<mgrwt>
<rscale>  2 0.18378538E+03</rscale>
<asrwt>0</asrwt>
<pdfrwt beam="1">  1       21 0.20420237E+00 0.18378538E+03</pdfrwt>
<pdfrwt beam="2">  1       21 0.86541472E-02 0.18378538E+03</pdfrwt>
<totfact> 0.13303332E+04</totfact>
</mgrwt>
</event>
<event>
 4    1  0.3876841E+000  0.1797791E+03  0.7546771E-02  0.1168017E+00
         21   -1    0    0  503  502  0.00000000000E+00  0.00000000000E+00  0.73596135515E+02  0.73596135515E+02  0.00000000000E+00 0. -1.
         21   -1    0    0  501  503 -0.00000000000E+00 -0.00000000000E+00 -0.48069919930E+03  0.48069919930E+03  0.00000000000E+00 0.  1.
          6    1    1    2  501    0 -0.10157790617E+02  0.47836807128E+02 -0.28502180801E+03  0.33698363739E+03  0.17300000000E+03 0.  1.
         -6    1    1    2    0  502  0.10157790617E+02 -0.47836807128E+02 -0.12208125577E+03  0.21731169743E+03  0.17300000000E+03 0. -1.
<mgrwt>
<rscale>  2 0.17977914E+03</rscale>
<asrwt>0</asrwt>
<pdfrwt beam="1">  1       21 0.11322483E-01 0.17977914E+03</pdfrwt>
<pdfrwt beam="2">  1       21 0.73953718E-01 0.17977914E+03</pdfrwt>
<totfact> 0.10731952E+05</totfact>
</mgrwt>
</event>
<event>
 4    1  0.3876841E+000  0.1835878E+03  0.7546771E-02  0.1164375E+00
         21   -1    0    0  503  502  0.00000000000E+00  0.00000000000E+00  0.17745239564E+04  0.17745239564E+04  0.00000000000E+00 0. -1.
         21   -1    0    0  501  503 -0.00000000000E+00 -0.00000000000E+00 -0.52041892511E+02  0.52041892511E+02  0.00000000000E+00 0. -1.
          6    1    1    2  501    0 -0.41857654517E+02  0.44982378541E+02  0.13345493217E+03  0.22696849240E+03  0.17300000000E+03 0. -1.
         -6    1    1    2    0  502  0.41857654517E+02 -0.44982378541E+02  0.15890271318E+04  0.15995973566E+04  0.17300000000E+03 0. -1.
<mgrwt>
<rscale>  2 0.18358779E+03</rscale>
<asrwt>0</asrwt>
<pdfrwt beam="1">  1       21 0.27300364E+00 0.18358779E+03</pdfrwt>
<pdfrwt beam="2">  1       21 0.80064464E-02 0.18358779E+03</pdfrwt>
<totfact> 0.59111637E+03</totfact>
</mgrwt>
</event>
<event>
 4    1  0.3876841E+000  0.1894425E+03  0.7546771E-02  0.1158965E+00
         21   -1    0    0  501  502  0.00000000000E+00  0.00000000000E+00  0.40650190926E+03  0.40650190926E+03  0.00000000000E+00 0.  1.
         21   -1    0    0  502  503 -0.00000000000E+00 -0.00000000000E+00 -0.76660675438E+03  0.76660675438E+03  0.00000000000E+00 0.  1.
          6    1    1    2  501    0 -0.64833796158E+02 -0.41905284658E+02  0.37169389315E+03  0.41718679774E+03  0.17300000000E+03 0.  1.
         -6    1    1    2    0  503  0.64833796158E+02  0.41905284658E+02 -0.73179873827E+03  0.75592186590E+03  0.17300000000E+03 0.  1.
<mgrwt>
<rscale>  2 0.18944253E+03</rscale>
<asrwt>0</asrwt>
<pdfrwt beam="1">  1       21 0.62538756E-01 0.18944253E+03</pdfrwt>
<pdfrwt beam="2">  1       21 0.11793950E+00 0.18944253E+03</pdfrwt>
<totfact> 0.13104325E+03</totfact>
</mgrwt>
</event>
<event>
 4    1  0.3876841E+000  0.1762171E+03  0.7546771E-02  0.1171515E+00
         21   -1    0    0  501  502  0.00000000000E+00  0.00000000000E+00  0.11320504128E+03  0.11320504128E+03  0.00000000000E+00 0. -1.
         21   -1    0    0  502  503 -0.00000000000E+00 -0.00000000000E+00 -0.99384190813E+03  0.99384190813E+03  0.00000000000E+00 0. -1.
          6    1    1    2  501    0  0.32460720249E+02  0.83527161117E+01  0.30663854931E+02  0.17886513977E+03  0.17300000000E+03 0. -1.
         -6    1    1    2    0  503 -0.32460720249E+02 -0.83527161117E+01 -0.91130072178E+03  0.92818180964E+03  0.17300000000E+03 0. -1.
<mgrwt>
<rscale>  2 0.17621710E+03</rscale>
<asrwt>0</asrwt>
<pdfrwt beam="1">  1       21 0.17416160E-01 0.17621710E+03</pdfrwt>
<pdfrwt beam="2">  1       21 0.15289875E+00 0.17621710E+03</pdfrwt>
<totfact> 0.85913862E+03</totfact>
</mgrwt>
</event>
<event>
 4    1  0.3876841E+000  0.1903819E+03  0.7546771E-02  0.1158117E+00
         21   -1    0    0  501  502  0.00000000000E+00  0.00000000000E+00  0.10442159215E+03  0.10442159215E+03  0.00000000000E+00 0.  1.
         21   -1    0    0  502  503 -0.00000000000E+00 -0.00000000000E+00 -0.84492989482E+03  0.84492989482E+03  0.00000000000E+00 0.  1.
          6    1    1    2  501    0  0.49528083795E+02 -0.62155094568E+02 -0.58990280368E+01  0.19047331938E+03  0.17300000000E+03 0.  1.
         -6    1    1    2    0  503 -0.49528083795E+02  0.62155094568E+02 -0.73460927464E+03  0.75887816759E+03  0.17300000000E+03 0.  1.
<mgrwt>
<rscale>  2 0.19038195E+03</rscale>
<asrwt>0</asrwt>
<pdfrwt beam="1">  1       21 0.16064861E-01 0.19038195E+03</pdfrwt>
<pdfrwt beam="2">  1       21 0.12998921E+00 0.19038195E+03</pdfrwt>
<totfact> 0.14987204E+04</totfact>
</mgrwt>
</event>
<event>
 4    1  0.3876841E+000  0.1901739E+03  0.7546771E-02  0.1158305E+00
         21   -1    0    0  501  502  0.00000000000E+00  0.00000000000E+00  0.12275938344E+04  0.12275938344E+04  0.00000000000E+00 0. -1.
         21   -1    0    0  502  503 -0.00000000000E+00 -0.00000000000E+00 -0.56809901757E+03  0.56809901757E+03  0.00000000000E+00 0. -1.
          6    1    1    2  501    0  0.51610300931E+02  0.59778718817E+02  0.12040032611E+04  0.12189298467E+04  0.17300000000E+03 0. -1.
         -6    1    1    2    0  503 -0.51610300931E+02 -0.59778718817E+02 -0.54450844427E+03  0.57676300529E+03  0.17300000000E+03 0. -1.
<mgrwt>
<rscale>  2 0.19017392E+03</rscale>
<asrwt>0</asrwt>
<pdfrwt beam="1">  1       21 0.18886059E+00 0.19017392E+03</pdfrwt>
<pdfrwt beam="2">  1       21 0.87399850E-01 0.19017392E+03</pdfrwt>
<totfact> 0.17899616E+02</totfact>
</mgrwt>
</event>
<event>
 4    1  0.3876841E+000  0.2082768E+03  0.7546771E-02  0.1142938E+00
         21   -1    0    0  501  502  0.00000000000E+00  0.00000000000E+00  0.45425749450E+03  0.45425749450E+03  0.00000000000E+00 0. -1.
         21   -1    0    0  502  503 -0.00000000000E+00 -0.00000000000E+00 -0.12577660153E+03  0.12577660153E+03  0.00000000000E+00 0.  1.
          6    1    1    2  501    0 -0.98506359080E+02  0.61210326566E+02  0.30654368934E+03  0.37060523517E+03  0.17300000000E+03 0. -1.
         -6    1    1    2    0  503  0.98506359080E+02 -0.61210326566E+02  0.21937203627E+02  0.20942886086E+03  0.17300000000E+03 0.  1.
<mgrwt>
<rscale>  2 0.20827676E+03</rscale>
<asrwt>0</asrwt>
<pdfrwt beam="1">  1       21 0.69885768E-01 0.20827676E+03</pdfrwt>
<pdfrwt beam="2">  1       21 0.19350247E-01 0.20827676E+03</pdfrwt>
<totfact> 0.45294847E+04</totfact>
</mgrwt>
</event>
<event>
 4    1  0.3876841E+000  0.1767502E+03  0.7546771E-02  0.1170986E+00
         21   -1    0    0  503  502  0.00000000000E+00  0.00000000000E+00  0.97918766889E+03  0.97918766889E+03  0.00000000000E+00 0.  1.
         21   -1    0    0  501  503 -0.00000000000E+00 -0.00000000000E+00 -0.34120015278E+02  0.34120015278E+02  0.00000000000E+00 0.  1.
          6    1    1    2  501    0 -0.34559198739E+02 -0.10830956111E+02  0.60163452966E+03  0.62706040786E+03  0.17300000000E+03 0.  1.
         -6    1    1    2    0  502  0.34559198739E+02  0.10830956111E+02  0.34343312396E+03  0.38624727631E+03  0.17300000000E+03 0.  1.
<mgrwt>
<rscale>  2 0.17675024E+03</rscale>
<asrwt>0</asrwt>
<pdfrwt beam="1">  1       21 0.15064424E+00 0.17675024E+03</pdfrwt>
<pdfrwt beam="2">  1       21 0.52492339E-02 0.17675024E+03</pdfrwt>
<totfact> 0.73804123E+04</totfact>
</mgrwt>
</event>
<event>
 4    1  0.3876841E+000  0.1765586E+03  0.7546771E-02  0.1171176E+00
         21   -1    0    0  501  502  0.00000000000E+00  0.00000000000E+00  0.19224295334E+03  0.19224295334E+03  0.00000000000E+00 0.  1.
         21   -1    0    0  502  503 -0.00000000000E+00 -0.00000000000E+00 -0.23309364864E+03  0.23309364864E+03  0.00000000000E+00 0.  1.
          6    1    1    2  501    0 -0.33736772479E+02  0.10284746488E+02  0.96897432340E+02  0.20140024385E+03  0.17300000000E+03 0.  1.
         -6    1    1    2    0  503  0.33736772479E+02 -0.10284746488E+02 -0.13774812763E+03  0.22393635813E+03  0.17300000000E+03 0.  1.
<mgrwt>
<rscale>  2 0.17655862E+03</rscale>
<asrwt>0</asrwt>
<pdfrwt beam="1">  1       21 0.29575839E-01 0.17655862E+03</pdfrwt>
<pdfrwt beam="2">  1       21 0.35860561E-01 0.17655862E+03</pdfrwt>
<totfact> 0.82687458E+04</totfact>
</mgrwt>
</event>
<event>
 4    1  0.3876841E+000  0.1908278E+03  0.7546771E-02  0.1157717E+00
         21   -1    0    0  503  502  0.00000000000E+00  0.00000000000E+00  0.31422389377E+02  0.31422389377E+02  0.00000000000E+00 0. -1.
         21   -1    0    0  501  503 -0.00000000000E+00 -0.00000000000E+00 -0.12648468189E+04  0.12648468189E+04  0.00000000000E+00 0. -1.
          6    1    1    2  501    0 -0.65075109106E+02  0.47449854691E+02 -0.80429798479E+03  0.82662597762E+03  0.17300000000E+03 0. -1.
         -6    1    1    2    0  502  0.65075109106E+02 -0.47449854691E+02 -0.42912644473E+03  0.46964323066E+03  0.17300000000E+03 0. -1.
<mgrwt>
<rscale>  2 0.19082782E+03</rscale>
<asrwt>0</asrwt>
<pdfrwt beam="1">  1       21 0.48342139E-02 0.19082782E+03</pdfrwt>
<pdfrwt beam="2">  1       21 0.19459181E+00 0.19082782E+03</pdfrwt>
<totfact> 0.41497651E+04</totfact>
</mgrwt>
</event>
<event>
 4    1  0.3876841E+000  0.2035226E+03  0.7546771E-02  0.1146801E+00
         21   -1    0    0  501  502  0.00000000000E+00  0.00000000000E+00  0.11315249135E+03  0.11315249135E+03  0.00000000000E+00 0.  1.
         21   -1    0    0  502  503 -0.00000000000E+00 -0.00000000000E+00 -0.45846846074E+03  0.45846846074E+03  0.00000000000E+00 0. -1.
          6    1    1    2  501    0  0.66107636988E+02 -0.84393194828E+02 -0.44347530833E+02  0.20829818648E+03  0.17300000000E+03 0.  1.
         -6    1    1    2    0  503 -0.66107636988E+02  0.84393194828E+02 -0.30096843856E+03  0.36332276561E+03  0.17300000000E+03 0. -1.
<mgrwt>
<rscale>  2 0.20352256E+03</rscale>
<asrwt>0</asrwt>
<pdfrwt beam="1">  1       21 0.17408076E-01 0.20352256E+03</pdfrwt>
<pdfrwt beam="2">  1       21 0.70533609E-01 0.20352256E+03</pdfrwt>
<totfact> 0.54128446E+04</totfact>
</mgrwt>
</event>
<event>
 4    1  0.3876841E+000  0.1889799E+03  0.7546771E-02  0.1159385E+00
         21   -1    0    0  501  502  0.00000000000E+00  0.00000000000E+00  0.35456186553E+03  0.35456186553E+03  0.00000000000E+00 0. -1.
         21   -1    0    0  502  503 -0.00000000000E+00 -0.00000000000E+00 -0.10925938311E+03  0.10925938311E+03  0.00000000000E+00 0. -1.
          6    1    1    2  501    0 -0.68242836168E+02 -0.33575828053E+02  0.18746461628E+03  0.26618866105E+03  0.17300000000E+03 0. -1.
         -6    1    1    2    0  503  0.68242836168E+02  0.33575828053E+02  0.57837866144E+02  0.19763258759E+03  0.17300000000E+03 0. -1.
<mgrwt>
<rscale>  2 0.18897995E+03</rscale>
<asrwt>0</asrwt>
<pdfrwt beam="1">  1       21 0.54547979E-01 0.18897995E+03</pdfrwt>
<pdfrwt beam="2">  1       21 0.16809136E-01 0.18897995E+03</pdfrwt>
<totfact> 0.10124125E+05</totfact>
</mgrwt>
</event>
<event>
 4    1  0.3876841E+000  0.3109409E+03  0.7546771E-02  0.1079896E+00
         21   -1    0    0  501  502  0.00000000000E+00  0.00000000000E+00  0.10124784030E+04  0.10124784030E+04  0.00000000000E+00 0.  1.
         21   -1    0    0  502  503 -0.00000000000E+00 -0.00000000000E+00 -0.13048293936E+03  0.13048293936E+03  0.00000000000E+00 0. -1.
          6    1    1    2  501    0 -0.15093713922E+03 -0.20969790663E+03  0.73693423077E+03  0.79984766833E+03  0.17300000000E+03 0.  1.
         -6    1    1    2    0  503  0.15093713922E+03  0.20969790663E+03  0.14506123291E+03  0.34311367407E+03  0.17300000000E+03 0. -1.
<mgrwt>
<rscale>  2 0.31094088E+03</rscale>
<asrwt>0</asrwt>
<pdfrwt beam="1">  1       21 0.15576590E+00 0.31094088E+03</pdfrwt>
<pdfrwt beam="2">  1       21 0.20074299E-01 0.31094088E+03</pdfrwt>
<totfact> 0.57336821E+03</totfact>
</mgrwt>
</event>
<event>
 4    1  0.3876841E+000  0.1794201E+03  0.7546771E-02  0.1168365E+00
         21   -1    0    0  501  502  0.00000000000E+00  0.00000000000E+00  0.93814591869E+03  0.93814591869E+03  0.00000000000E+00 0. -1.
         21   -1    0    0  502  503 -0.00000000000E+00 -0.00000000000E+00 -0.66437699144E+02  0.66437699144E+02  0.00000000000E+00 0. -1.
          6    1    1    2  501    0  0.21632540597E+02 -0.42362721283E+02  0.78512418518E+03  0.80536423631E+03  0.17300000000E+03 0. -1.
         -6    1    1    2    0  503 -0.21632540597E+02  0.42362721283E+02  0.86584034359E+02  0.19921938152E+03  0.17300000000E+03 0. -1.
<mgrwt>
<rscale>  2 0.17942009E+03</rscale>
<asrwt>0</asrwt>
<pdfrwt beam="1">  1       21 0.14433013E+00 0.17942009E+03</pdfrwt>
<pdfrwt beam="2">  1       21 0.10221185E-01 0.17942009E+03</pdfrwt>
<totfact> 0.26029727E+04</totfact>
</mgrwt>
</event>
<event>
 4    1  0.3876841E+000  0.1860033E+03  0.7546771E-02  0.1162116E+00
         21   -1    0    0  503  502  0.00000000000E+00  0.00000000000E+00  0.39473386103E+03  0.39473386103E+03  0.00000000000E+00 0. -1.
         21   -1    0    0  501  503 -0.00000000000E+00 -0.00000000000E+00 -0.42649113002E+03  0.42649113002E+03  0.00000000000E+00 0. -1.
          6    1    1    2  501    0 -0.10520111462E+02 -0.67509715939E+02 -0.38187531788E+03  0.42476580948E+03  0.17300000000E+03 0. -1.
         -6    1    1    2    0  502  0.10520111462E+02  0.67509715939E+02  0.35011804889E+03  0.39645918157E+03  0.17300000000E+03 0. -1.
<mgrwt>
<rscale>  2 0.18600332E+03</rscale>
<asrwt>0</asrwt>
<pdfrwt beam="1">  1       21 0.60728286E-01 0.18600332E+03</pdfrwt>
<pdfrwt beam="2">  1       21 0.65614020E-01 0.18600332E+03</pdfrwt>
<totfact> 0.54191771E+03</totfact>
</mgrwt>
</event>
<event>
 4    1  0.3876841E+000  0.1887724E+03  0.7546771E-02  0.1159573E+00
         21   -1    0    0  501  502  0.00000000000E+00  0.00000000000E+00  0.69974231461E+02  0.69974231461E+02  0.00000000000E+00 0. -1.
         21   -1    0    0  502  503 -0.00000000000E+00 -0.00000000000E+00 -0.81741422314E+03  0.81741422314E+03  0.00000000000E+00 0. -1.
          6    1    1    2  501    0  0.11392519981E+02 -0.74674067473E+02 -0.10129468022E+03  0.21423262615E+03  0.17300000000E+03 0. -1.
         -6    1    1    2    0  503 -0.11392519981E+02  0.74674067473E+02 -0.64614531146E+03  0.67315582846E+03  0.17300000000E+03 0. -1.
<mgrwt>
<rscale>  2 0.18877237E+03</rscale>
<asrwt>0</asrwt>
<pdfrwt beam="1">  1       21 0.10765266E-01 0.18877237E+03</pdfrwt>
<pdfrwt beam="2">  1       21 0.12575603E+00 0.18877237E+03</pdfrwt>
<totfact> 0.33534949E+04</totfact>
</mgrwt>
</event>
<event>
 4    1  0.3876841E+000  0.2803998E+03  0.7546771E-02  0.1095471E+00
         21   -1    0    0  503  502  0.00000000000E+00  0.00000000000E+00  0.10531282517E+03  0.10531282517E+03  0.00000000000E+00 0. -1.
         21   -1    0    0  501  503 -0.00000000000E+00 -0.00000000000E+00 -0.13945836678E+04  0.13945836678E+04  0.00000000000E+00 0.  1.
          6    1    1    2  501    0  0.14183832791E+03 -0.16904716432E+03 -0.11558450112E+04  0.11893703145E+04  0.17300000000E+03 0.  1.
         -6    1    1    2    0  502 -0.14183832791E+03  0.16904716432E+03 -0.13342583140E+03  0.31052617847E+03  0.17300000000E+03 0. -1.
<mgrwt>
<rscale>  2 0.28039981E+03</rscale>
<asrwt>0</asrwt>
<pdfrwt beam="1">  1       21 0.16201975E-01 0.28039981E+03</pdfrwt>
<pdfrwt beam="2">  1       21 0.21455131E+00 0.28039981E+03</pdfrwt>
<totfact> 0.34412413E+03</totfact>
</mgrwt>
</event>
<event>
 4    1  0.3876841E+000  0.2135188E+03  0.7546771E-02  0.1138809E+00
         21   -1    0    0  503  502  0.00000000000E+00  0.00000000000E+00  0.26019928395E+03  0.26019928395E+03  0.00000000000E+00 0. -1.
         21   -1    0    0  501  503 -0.00000000000E+00 -0.00000000000E+00 -0.23985250959E+03  0.23985250959E+03  0.00000000000E+00 0.  1.
          6    1    1    2  501    0  0.78898725332E+02 -0.97140547229E+02 -0.11962279465E+03  0.24474457660E+03  0.17300000000E+03 0.  1.
         -6    1    1    2    0  502 -0.78898725332E+02  0.97140547229E+02  0.13996956901E+03  0.25530721694E+03  0.17300000000E+03 0. -1.
<mgrwt>
<rscale>  2 0.21351884E+03</rscale>
<asrwt>0</asrwt>
<pdfrwt beam="1">  1       21 0.40030659E-01 0.21351884E+03</pdfrwt>
<pdfrwt beam="2">  1       21 0.36900386E-01 0.21351884E+03</pdfrwt>
<totfact> 0.42156324E+04</totfact>
</mgrwt>
</event>
<event>
 4    1  0.3876841E+000  0.2317738E+03  0.7546771E-02  0.1125397E+00
         21   -1    0    0  503  502  0.00000000000E+00  0.00000000000E+00  0.21168206261E+03  0.21168206261E+03  0.00000000000E+00 0.  1.
         21   -1    0    0  501  503 -0.00000000000E+00 -0.00000000000E+00 -0.25592474169E+03  0.25592474169E+03  0.00000000000E+00 0.  1.
          6    1    1    2  501    0  0.63350324211E+02  0.14063007372E+03 -0.68045968266E+00  0.23177477050E+03  0.17300000000E+03 0.  1.
         -6    1    1    2    0  502 -0.63350324211E+02 -0.14063007372E+03 -0.43562219397E+02  0.23583203381E+03  0.17300000000E+03 0.  1.
<mgrwt>
<rscale>  2 0.23177377E+03</rscale>
<asrwt>0</asrwt>
<pdfrwt beam="1">  1       21 0.32566471E-01 0.23177377E+03</pdfrwt>
<pdfrwt beam="2">  1       21 0.39373037E-01 0.23177377E+03</pdfrwt>
<totfact> 0.55443618E+04</totfact>
</mgrwt>
</event>
<event>
 4    1  0.3876841E+000  0.2321450E+03  0.7546771E-02  0.1125139E+00
         21   -1    0    0  503  502  0.00000000000E+00  0.00000000000E+00  0.10541016432E+04  0.10541016432E+04  0.00000000000E+00 0. -1.
         21   -1    0    0  501  503 -0.00000000000E+00 -0.00000000000E+00 -0.63596744431E+02  0.63596744431E+02  0.00000000000E+00 0.  1.
          6    1    1    2  501    0 -0.12373720973E+03  0.93013014513E+02  0.24777555764E+03  0.33953504224E+03  0.17300000000E+03 0.  1.
         -6    1    1    2    0  502  0.12373720973E+03 -0.93013014513E+02  0.74272934109E+03  0.77816334536E+03  0.17300000000E+03 0. -1.
<mgrwt>
<rscale>  2 0.23214504E+03</rscale>
<asrwt>0</asrwt>
<pdfrwt beam="1">  1       21 0.16216947E+00 0.23214504E+03</pdfrwt>
<pdfrwt beam="2">  1       21 0.97841153E-02 0.23214504E+03</pdfrwt>
<totfact> 0.19944705E+04</totfact>
</mgrwt>
</event>
<event>
 4    1  0.3876841E+000  0.3293388E+03  0.7546771E-02  0.1071430E+00
         21   -1    0    0  501  502  0.00000000000E+00  0.00000000000E+00  0.13440082948E+03  0.13440082948E+03  0.00000000000E+00 0. -1.
         21   -1    0    0  502  503 -0.00000000000E+00 -0.00000000000E+00 -0.80805715741E+03  0.80805715741E+03  0.00000000000E+00 0.  1.
          6    1    1    2  501    0  0.21437705311E+03  0.18049239729E+03 -0.35371846206E+03  0.48330195197E+03  0.17300000000E+03 0. -1.
         -6    1    1    2    0  503 -0.21437705311E+03 -0.18049239729E+03 -0.31993786587E+03  0.45915603491E+03  0.17300000000E+03 0.  1.
<mgrwt>
<rscale>  2 0.32933877E+03</rscale>
<asrwt>0</asrwt>
<pdfrwt beam="1">  1       21 0.20677051E-01 0.32933877E+03</pdfrwt>
<pdfrwt beam="2">  1       21 0.12431648E+00 0.32933877E+03</pdfrwt>
<totfact> 0.97102641E+03</totfact>
</mgrwt>
</event>
<event>
 4    1  0.3876841E+000  0.2044749E+03  0.7546771E-02  0.1146018E+00
         21   -1    0    0  503  502  0.00000000000E+00  0.00000000000E+00  0.57832045400E+02  0.57832045400E+02  0.00000000000E+00 0.  1.
         21   -1    0    0  501  503 -0.00000000000E+00 -0.00000000000E+00 -0.11519860295E+04  0.11519860295E+04  0.00000000000E+00 0.  1.
          6    1    1    2  501    0 -0.68067046484E+02 -0.85134340143E+02 -0.91623365449E+03  0.93877264996E+03  0.17300000000E+03 0.  1.
         -6    1    1    2    0  502  0.68067046484E+02  0.85134340143E+02 -0.17792032958E+03  0.27104542491E+03  0.17300000000E+03 0.  1.
<mgrwt>
<rscale>  2 0.20447489E+03</rscale>
<asrwt>0</asrwt>
<pdfrwt beam="1">  1       21 0.88972388E-02 0.20447489E+03</pdfrwt>
<pdfrwt beam="2">  1       21 0.17722860E+00 0.20447489E+03</pdfrwt>
<totfact> 0.18783993E+04</totfact>
</mgrwt>
</event>
<event>
 4    1  0.3876841E+000  0.2506167E+03  0.7546771E-02  0.1112916E+00
         21   -1    0    0  501  502  0.00000000000E+00  0.00000000000E+00  0.37046114846E+03  0.37046114846E+03  0.00000000000E+00 0.  1.
         21   -1    0    0  502  503 -0.00000000000E+00 -0.00000000000E+00 -0.17632409442E+03  0.17632409442E+03  0.00000000000E+00 0.  1.
          6    1    1    2  501    0 -0.16838508700E+03  0.67277075082E+02  0.15068661098E+03  0.29242981566E+03  0.17300000000E+03 0.  1.
         -6    1    1    2    0  503  0.16838508700E+03 -0.67277075082E+02  0.43450443057E+02  0.25435542722E+03  0.17300000000E+03 0.  1.
<mgrwt>
<rscale>  2 0.25061672E+03</rscale>
<asrwt>0</asrwt>
<pdfrwt beam="1">  1       21 0.56994022E-01 0.25061672E+03</pdfrwt>
<pdfrwt beam="2">  1       21 0.27126784E-01 0.25061672E+03</pdfrwt>
<totfact> 0.36432014E+04</totfact>
</mgrwt>
</event>
<event>
 4    1  0.3876841E+000  0.1833900E+03  0.7546771E-02  0.1164562E+00
         21   -1    0    0  503  502  0.00000000000E+00  0.00000000000E+00  0.66456199165E+03  0.66456199165E+03  0.00000000000E+00 0.  1.
         21   -1    0    0  501  503 -0.00000000000E+00 -0.00000000000E+00 -0.54646635847E+02  0.54646635847E+02  0.00000000000E+00 0.  1.
          6    1    1    2  501    0  0.53501067997E+02 -0.28991660393E+02  0.20719286327E+03  0.27669615689E+03  0.17300000000E+03 0.  1.
         -6    1    1    2    0  502 -0.53501067997E+02  0.28991660393E+02  0.40272249253E+03  0.44251247060E+03  0.17300000000E+03 0.  1.
<mgrwt>
<rscale>  2 0.18338997E+03</rscale>
<asrwt>0</asrwt>
<pdfrwt beam="1">  1       21 0.10224030E+00 0.18338997E+03</pdfrwt>
<pdfrwt beam="2">  1       21 0.84071752E-02 0.18338997E+03</pdfrwt>
<totfact> 0.86044829E+04</totfact>
</mgrwt>
</event>
<event>
 4    1  0.3876841E+000  0.1821452E+03  0.7546771E-02  0.1165743E+00
         21   -1    0    0  503  502  0.00000000000E+00  0.00000000000E+00  0.12465557607E+04  0.12465557607E+04  0.00000000000E+00 0. -1.
         21   -1    0    0  501  503 -0.00000000000E+00 -0.00000000000E+00 -0.30836054690E+02  0.30836054690E+02  0.00000000000E+00 0.  1.
          6    1    1    2  501    0  0.54474540599E+02  0.16745209469E+02  0.84417068889E+03  0.86359772441E+03  0.17300000000E+03 0. -1.
         -6    1    1    2    0  502 -0.54474540599E+02 -0.16745209469E+02  0.37154901714E+03  0.41379409101E+03  0.17300000000E+03 0.  1.
<mgrwt>
<rscale>  2 0.18214521E+03</rscale>
<asrwt>0</asrwt>
<pdfrwt beam="1">  1       21 0.19177777E+00 0.18214521E+03</pdfrwt>
<pdfrwt beam="2">  1       21 0.47440094E-02 0.18214521E+03</pdfrwt>
<totfact> 0.44948826E+04</totfact>
</mgrwt>
</event>
<event>
 4    1  0.3876841E+000  0.2044802E+03  0.7546771E-02  0.1146013E+00
         21   -1    0    0  503  502  0.00000000000E+00  0.00000000000E+00  0.24268431640E+03  0.24268431640E+03  0.00000000000E+00 0. -1.
         21   -1    0    0  501  503 -0.00000000000E+00 -0.00000000000E+00 -0.17294195722E+03  0.17294195722E+03  0.00000000000E+00 0. -1.
          6    1    1    2  501    0  0.10588485197E+03 -0.25914346720E+02  0.22114716723E+02  0.20567259404E+03  0.17300000000E+03 0. -1.
         -6    1    1    2    0  502 -0.10588485197E+03  0.25914346720E+02  0.47627642456E+02  0.20995367958E+03  0.17300000000E+03 0. -1.
<mgrwt>
<rscale>  2 0.20448021E+03</rscale>
<asrwt>0</asrwt>
<pdfrwt beam="1">  1       21 0.37336049E-01 0.20448021E+03</pdfrwt>
<pdfrwt beam="2">  1       21 0.26606455E-01 0.20448021E+03</pdfrwt>
<totfact> 0.92559444E+04</totfact>
</mgrwt>
</event>
<event>
 4    1  0.3876841E+000  0.1894957E+03  0.7546771E-02  0.1158917E+00
         21   -1    0    0  501  502  0.00000000000E+00  0.00000000000E+00  0.59849506700E+02  0.59849506700E+02  0.00000000000E+00 0.  1.
         21   -1    0    0  502  503 -0.00000000000E+00 -0.00000000000E+00 -0.75235608906E+03  0.75235608906E+03  0.00000000000E+00 0.  1.
          6    1    1    2  501    0 -0.11665827575E+02  0.76443076415E+02 -0.16349393703E+03  0.25027765164E+03  0.17300000000E+03 0.  1.
         -6    1    1    2    0  503  0.11665827575E+02 -0.76443076415E+02 -0.52901264532E+03  0.56192794412E+03  0.17300000000E+03 0.  1.
<mgrwt>
<rscale>  2 0.18949574E+03</rscale>
<asrwt>0</asrwt>
<pdfrwt beam="1">  1       21 0.92076170E-02 0.18949574E+03</pdfrwt>
<pdfrwt beam="2">  1       21 0.11574708E+00 0.18949574E+03</pdfrwt>
<totfact> 0.54243853E+04</totfact>
</mgrwt>
</event>
<event>
 4    1  0.3876841E+000  0.1793864E+03  0.7546771E-02  0.1168398E+00
         21   -1    0    0  501  502  0.00000000000E+00  0.00000000000E+00  0.26812814313E+03  0.26812814313E+03  0.00000000000E+00 0. -1.
         21   -1    0    0  502  503 -0.00000000000E+00 -0.00000000000E+00 -0.19469983054E+03  0.19469983054E+03  0.00000000000E+00 0. -1.
          6    1    1    2  501    0 -0.29935544491E+02 -0.36801523359E+02 -0.10661087438E+03  0.20867526802E+03  0.17300000000E+03 0. -1.
         -6    1    1    2    0  503  0.29935544491E+02  0.36801523359E+02  0.18003918697E+03  0.25415270565E+03  0.17300000000E+03 0. -1.
<mgrwt>
<rscale>  2 0.17938642E+03</rscale>
<asrwt>0</asrwt>
<pdfrwt beam="1">  1       21 0.41250484E-01 0.17938642E+03</pdfrwt>
<pdfrwt beam="2">  1       21 0.29953820E-01 0.17938642E+03</pdfrwt>
<totfact> 0.60847471E+04</totfact>
</mgrwt>
</event>
<event>
 4    1  0.3876841E+000  0.1935831E+03  0.7546771E-02  0.1155269E+00
         21   -1    0    0  503  502  0.00000000000E+00  0.00000000000E+00  0.80215336229E+03  0.80215336229E+03  0.00000000000E+00 0.  1.
         21   -1    0    0  501  503 -0.00000000000E+00 -0.00000000000E+00 -0.46780710703E+02  0.46780710703E+02  0.00000000000E+00 0.  1.
          6    1    1    2  501    0  0.81502160829E+02 -0.30047001640E+02  0.36205647679E+03  0.41055976047E+03  0.17300000000E+03 0.  1.
         -6    1    1    2    0  502 -0.81502160829E+02  0.30047001640E+02  0.39331617479E+03  0.43837431252E+03  0.17300000000E+03 0.  1.
<mgrwt>
<rscale>  2 0.19358312E+03</rscale>
<asrwt>0</asrwt>
<pdfrwt beam="1">  1       21 0.12340820E+00 0.19358312E+03</pdfrwt>
<pdfrwt beam="2">  1       21 0.71970330E-02 0.19358312E+03</pdfrwt>
<totfact> 0.70986963E+04</totfact>
</mgrwt>
</event>
<event>
 4    1  0.3876841E+000  0.2525640E+03  0.7546771E-02  0.1111695E+00
         21   -1    0    0  503  502  0.00000000000E+00  0.00000000000E+00  0.53160506166E+03  0.53160506166E+03  0.00000000000E+00 0.  1.
         21   -1    0    0  501  503 -0.00000000000E+00 -0.00000000000E+00 -0.13280271374E+03  0.13280271374E+03  0.00000000000E+00 0. -1.
          6    1    1    2  501    0  0.18242044371E+03  0.24131779438E+02  0.96224549675E+02  0.27027342641E+03  0.17300000000E+03 0. -1.
         -6    1    1    2    0  502 -0.18242044371E+03 -0.24131779438E+02  0.30257779825E+03  0.39413434899E+03  0.17300000000E+03 0. -1.
<mgrwt>
<rscale>  2 0.25256397E+03</rscale>
<asrwt>0</asrwt>
<pdfrwt beam="1">  1       21 0.81785393E-01 0.25256397E+03</pdfrwt>
<pdfrwt beam="2">  1       21 0.20431187E-01 0.25256397E+03</pdfrwt>
<totfact> 0.28138516E+04</totfact>
</mgrwt>
</event>
<event>
 4    1  0.3876841E+000  0.1813060E+03  0.7546771E-02  0.1166545E+00
         21   -1    0    0  501  502  0.00000000000E+00  0.00000000000E+00  0.17391816833E+03  0.17391816833E+03  0.00000000000E+00 0. -1.
         21   -1    0    0  502  503 -0.00000000000E+00 -0.00000000000E+00 -0.19122824328E+03  0.19122824328E+03  0.00000000000E+00 0. -1.
          6    1    1    2  501    0 -0.44621191711E+02 -0.30851761838E+02  0.11018642325E+02  0.18164055835E+03  0.17300000000E+03 0. -1.
         -6    1    1    2    0  503  0.44621191711E+02  0.30851761838E+02 -0.28328717269E+02  0.18350585326E+03  0.17300000000E+03 0. -1.
<mgrwt>
<rscale>  2 0.18130605E+03</rscale>
<asrwt>0</asrwt>
<pdfrwt beam="1">  1       21 0.26756641E-01 0.18130605E+03</pdfrwt>
<pdfrwt beam="2">  1       21 0.29419730E-01 0.18130605E+03</pdfrwt>
<totfact> 0.14774698E+05</totfact>
</mgrwt>
</event>
<event>
 4    1  0.3876841E+000  0.1827002E+03  0.7546771E-02  0.1165215E+00
         21   -1    0    0  503  502  0.00000000000E+00  0.00000000000E+00  0.45929975805E+03  0.45929975805E+03  0.00000000000E+00 0. -1.
         21   -1    0    0  501  503 -0.00000000000E+00 -0.00000000000E+00 -0.14504741410E+03  0.14504741410E+03  0.00000000000E+00 0.  1.
          6    1    1    2  501    0 -0.56441337855E+02 -0.16270275444E+02 -0.56320679989E+02  0.19118411408E+03  0.17300000000E+03 0.  1.
         -6    1    1    2    0  502  0.56441337855E+02  0.16270275444E+02  0.37057302394E+03  0.41316305807E+03  0.17300000000E+03 0. -1.
<mgrwt>
<rscale>  2 0.18270015E+03</rscale>
<asrwt>0</asrwt>
<pdfrwt beam="1">  1       21 0.70661500E-01 0.18270015E+03</pdfrwt>
<pdfrwt beam="2">  1       21 0.22314987E-01 0.18270015E+03</pdfrwt>
<totfact> 0.34284576E+04</totfact>
</mgrwt>
</event>
<event>
 4    1  0.3876841E+000  0.2121072E+03  0.7546771E-02  0.1139908E+00
         21   -1    0    0  503  502  0.00000000000E+00  0.00000000000E+00  0.29193690124E+03  0.29193690124E+03  0.00000000000E+00 0. -1.
         21   -1    0    0  501  503 -0.00000000000E+00 -0.00000000000E+00 -0.34653433496E+03  0.34653433496E+03  0.00000000000E+00 0. -1.
          6    1    1    2  501    0 -0.99612564770E+02  0.71678397415E+02 -0.26518633418E+03  0.33957804339E+03  0.17300000000E+03 0. -1.
         -6    1    1    2    0  502  0.99612564770E+02 -0.71678397415E+02  0.21058890045E+03  0.29889319281E+03  0.17300000000E+03 0. -1.
<mgrwt>
<rscale>  2 0.21210718E+03</rscale>
<asrwt>0</asrwt>
<pdfrwt beam="1">  1       21 0.44913370E-01 0.21210718E+03</pdfrwt>
<pdfrwt beam="2">  1       21 0.53312974E-01 0.21210718E+03</pdfrwt>
<totfact> 0.15657160E+04</totfact>
</mgrwt>
</event>
<event>
 4    1  0.3876841E+000  0.1744114E+03  0.7546771E-02  0.1173324E+00
         21   -1    0    0  501  502  0.00000000000E+00  0.00000000000E+00  0.98163082056E+03  0.98163082056E+03  0.00000000000E+00 0. -1.
         21   -1    0    0  502  503 -0.00000000000E+00 -0.00000000000E+00 -0.70498719679E+02  0.70498719679E+02  0.00000000000E+00 0. -1.
          6    1    1    2  501    0  0.11869355461E+02 -0.18693312450E+02  0.84939081207E+03  0.86711249164E+03  0.17300000000E+03 0. -1.
         -6    1    1    2    0  503 -0.11869355461E+02  0.18693312450E+02  0.61741288816E+02  0.18501704860E+03  0.17300000000E+03 0. -1.
<mgrwt>
<rscale>  2 0.17441136E+03</rscale>
<asrwt>0</asrwt>
<pdfrwt beam="1">  1       21 0.15102012E+00 0.17441136E+03</pdfrwt>
<pdfrwt beam="2">  1       21 0.10845958E-01 0.17441136E+03</pdfrwt>
<totfact> 0.20891294E+04</totfact>
</mgrwt>
</event>
<event>
 4    1  0.3876841E+000  0.2193381E+03  0.7546771E-02  0.1134377E+00
         21   -1    0    0  501  502  0.00000000000E+00  0.00000000000E+00  0.21199896126E+03  0.21199896126E+03  0.00000000000E+00 0. -1.
         21   -1    0    0  502  503 -0.00000000000E+00 -0.00000000000E+00 -0.60574512293E+03  0.60574512293E+03  0.00000000000E+00 0.  1.
          6    1    1    2  501    0 -0.12857988944E+03  0.40588455974E+02  0.12646386513E+03  0.25318435953E+03  0.17300000000E+03 0. -1.
         -6    1    1    2    0  503  0.12857988944E+03 -0.40588455974E+02 -0.52021002680E+03  0.56455972466E+03  0.17300000000E+03 0.  1.
<mgrwt>
<rscale>  2 0.21933812E+03</rscale>
<asrwt>0</asrwt>
<pdfrwt beam="1">  1       21 0.32615226E-01 0.21933812E+03</pdfrwt>
<pdfrwt beam="2">  1       21 0.93191555E-01 0.21933812E+03</pdfrwt>
<totfact> 0.86042445E+03</totfact>
</mgrwt>
</event>
<event>
 4    1  0.3876841E+000  0.2684069E+03  0.7546771E-02  0.1102195E+00
         21   -1    0    0  501  502  0.00000000000E+00  0.00000000000E+00  0.17142404667E+03  0.17142404667E+03  0.00000000000E+00 0.  1.
         21   -1    0    0  502  503 -0.00000000000E+00 -0.00000000000E+00 -0.53169074946E+03  0.53169074946E+03  0.00000000000E+00 0. -1.
          6    1    1    2  501    0  0.11273976700E+03  0.17147305586E+03 -0.19189707729E+02  0.26909200812E+03  0.17300000000E+03 0. -1.
         -6    1    1    2    0  503 -0.11273976700E+03 -0.17147305586E+03 -0.34107699506E+03  0.43402278801E+03  0.17300000000E+03 0.  1.
<mgrwt>
<rscale>  2 0.26840690E+03</rscale>
<asrwt>0</asrwt>
<pdfrwt beam="1">  1       21 0.26372930E-01 0.26840690E+03</pdfrwt>
<pdfrwt beam="2">  1       21 0.81798578E-01 0.26840690E+03</pdfrwt>
<totfact> 0.17154392E+04</totfact>
</mgrwt>
</event>
<event>
 4    1  0.3876841E+000  0.1845773E+03  0.7546771E-02  0.1163445E+00
         21   -1    0    0  501  502  0.00000000000E+00  0.00000000000E+00  0.29264989787E+04  0.29264989787E+04  0.00000000000E+00 0. -1.
         21   -1    0    0  502  503 -0.00000000000E+00 -0.00000000000E+00 -0.11897575905E+02  0.11897575905E+02  0.00000000000E+00 0. -1.
          6    1    1    2  501    0 -0.63819196973E+02  0.81794116558E+01  0.12417504078E+04  0.12553935112E+04  0.17300000000E+03 0. -1.
         -6    1    1    2    0  503  0.63819196973E+02 -0.81794116558E+01  0.16728509950E+04  0.16830030434E+04  0.17300000000E+03 0. -1.
<mgrwt>
<rscale>  2 0.18457734E+03</rscale>
<asrwt>0</asrwt>
<pdfrwt beam="1">  1       21 0.45023004E+00 0.18457734E+03</pdfrwt>
<pdfrwt beam="2">  1       21 0.18303986E-02 0.18457734E+03</pdfrwt>
<totfact> 0.59632714E+03</totfact>
</mgrwt>
</event>
<event>
 4    1  0.3876841E+000  0.1884070E+03  0.7546771E-02  0.1159906E+00
         21   -1    0    0  501  502  0.00000000000E+00  0.00000000000E+00  0.59213739564E+03  0.59213739564E+03  0.00000000000E+00 0. -1.
         21   -1    0    0  502  503 -0.00000000000E+00 -0.00000000000E+00 -0.97810786987E+02  0.97810786987E+02  0.00000000000E+00 0. -1.
          6    1    1    2  501    0  0.10946796977E+02  0.73812942338E+02  0.46179902684E+03  0.49875397142E+03  0.17300000000E+03 0. -1.
         -6    1    1    2    0  503 -0.10946796977E+02 -0.73812942338E+02  0.32527581817E+02  0.19119421121E+03  0.17300000000E+03 0. -1.
<mgrwt>
<rscale>  2 0.18840696E+03</rscale>
<asrwt>0</asrwt>
<pdfrwt beam="1">  1       21 0.91098059E-01 0.18840696E+03</pdfrwt>
<pdfrwt beam="2">  1       21 0.15047814E-01 0.18840696E+03</pdfrwt>
<totfact> 0.39926962E+04</totfact>
</mgrwt>
</event>
<event>
 4    1  0.3876841E+000  0.1781366E+03  0.7546771E-02  0.1169619E+00
         21   -1    0    0  503  502  0.00000000000E+00  0.00000000000E+00  0.65429796595E+02  0.65429796595E+02  0.00000000000E+00 0. -1.
         21   -1    0    0  501  503 -0.00000000000E+00 -0.00000000000E+00 -0.54912533085E+03  0.54912533085E+03  0.00000000000E+00 0. -1.
          6    1    1    2  501    0  0.41928141677E+02  0.67587712291E+01 -0.34686277954E+03  0.38993132458E+03  0.17300000000E+03 0. -1.
         -6    1    1    2    0  502 -0.41928141677E+02 -0.67587712291E+01 -0.13683275471E+03  0.22462380287E+03  0.17300000000E+03 0. -1.
<mgrwt>
<rscale>  2 0.17813661E+03</rscale>
<asrwt>0</asrwt>
<pdfrwt beam="1">  1       21 0.10066123E-01 0.17813661E+03</pdfrwt>
<pdfrwt beam="2">  1       21 0.84480820E-01 0.17813661E+03</pdfrwt>
<totfact> 0.98031831E+04</totfact>
</mgrwt>
</event>
<event>
 4    1  0.3876841E+000  0.2387125E+03  0.7546771E-02  0.1120653E+00
         21   -1    0    0  501  502  0.00000000000E+00  0.00000000000E+00  0.17647712291E+03  0.17647712291E+03  0.00000000000E+00 0. -1.
         21   -1    0    0  502  503 -0.00000000000E+00 -0.00000000000E+00 -0.40159735286E+03  0.40159735286E+03  0.00000000000E+00 0.  1.
          6    1    1    2  501    0 -0.14877220714E+03  0.70153479033E+02 -0.24051317539E+03  0.33886615023E+03  0.17300000000E+03 0. -1.
         -6    1    1    2    0  503  0.14877220714E+03 -0.70153479033E+02  0.15392945436E+02  0.23920832554E+03  0.17300000000E+03 0.  1.
<mgrwt>
<rscale>  2 0.23871255E+03</rscale>
<asrwt>0</asrwt>
<pdfrwt beam="1">  1       21 0.27150327E-01 0.23871255E+03</pdfrwt>
<pdfrwt beam="2">  1       21 0.61784208E-01 0.23871255E+03</pdfrwt>
<totfact> 0.30722855E+04</totfact>
</mgrwt>
</event>
<event>
 4    1  0.3876841E+000  0.2346625E+03  0.7546771E-02  0.1123400E+00
         21   -1    0    0  503  502  0.00000000000E+00  0.00000000000E+00  0.68841195568E+02  0.68841195568E+02  0.00000000000E+00 0.  1.
         21   -1    0    0  501  503 -0.00000000000E+00 -0.00000000000E+00 -0.80020926788E+03  0.80020926788E+03  0.00000000000E+00 0.  1.
          6    1    1    2  501    0  0.10245101436E+03 -0.12100123027E+03 -0.35722948975E+03  0.42741012671E+03  0.17300000000E+03 0.  1.
         -6    1    1    2    0  502 -0.10245101436E+03  0.12100123027E+03 -0.37413858256E+03  0.44164033673E+03  0.17300000000E+03 0.  1.
<mgrwt>
<rscale>  2 0.23466254E+03</rscale>
<asrwt>0</asrwt>
<pdfrwt beam="1">  1       21 0.10590954E-01 0.23466254E+03</pdfrwt>
<pdfrwt beam="2">  1       21 0.12310911E+00 0.23466254E+03</pdfrwt>
<totfact> 0.35508985E+04</totfact>
</mgrwt>
</event>
<event>
 4    1  0.3876841E+000  0.2048474E+03  0.7546771E-02  0.1145712E+00
         21   -1    0    0  501  502  0.00000000000E+00  0.00000000000E+00  0.16400522711E+03  0.16400522711E+03  0.00000000000E+00 0.  1.
         21   -1    0    0  502  503 -0.00000000000E+00 -0.00000000000E+00 -0.37755488252E+03  0.37755488252E+03  0.00000000000E+00 0. -1.
          6    1    1    2  501    0  0.41063795265E+01 -0.10962026792E+03  0.46956304575E+02  0.21016031983E+03  0.17300000000E+03 0.  1.
         -6    1    1    2    0  503 -0.41063795265E+01  0.10962026792E+03 -0.26050595999E+03  0.33139978980E+03  0.17300000000E+03 0. -1.
<mgrwt>
<rscale>  2 0.20484742E+03</rscale>
<asrwt>0</asrwt>
<pdfrwt beam="1">  1       21 0.25231573E-01 0.20484742E+03</pdfrwt>
<pdfrwt beam="2">  1       21 0.58085367E-01 0.20484742E+03</pdfrwt>
<totfact> 0.41078604E+04</totfact>
</mgrwt>
</event>
<event>
 4    1  0.3876841E+000  0.2332160E+03  0.7546771E-02  0.1124396E+00
         21   -1    0    0  503  502  0.00000000000E+00  0.00000000000E+00  0.16438204600E+03  0.16438204600E+03  0.00000000000E+00 0.  1.
         21   -1    0    0  501  503 -0.00000000000E+00 -0.00000000000E+00 -0.33565027499E+03  0.33565027499E+03  0.00000000000E+00 0. -1.
          6    1    1    2  501    0  0.14847844759E+03  0.49141152629E+02 -0.11545915746E+03  0.26023166472E+03  0.17300000000E+03 0.  1.
         -6    1    1    2    0  502 -0.14847844759E+03 -0.49141152629E+02 -0.55809071535E+02  0.23980065627E+03  0.17300000000E+03 0. -1.
<mgrwt>
<rscale>  2 0.23321600E+03</rscale>
<asrwt>0</asrwt>
<pdfrwt beam="1">  1       21 0.25289546E-01 0.23321600E+03</pdfrwt>
<pdfrwt beam="2">  1       21 0.51638503E-01 0.23321600E+03</pdfrwt>
<totfact> 0.51808884E+04</totfact>
</mgrwt>
</event>
<event>
 4    1  0.3876841E+000  0.2614048E+03  0.7546771E-02  0.1106302E+00
         21   -1    0    0  503  502  0.00000000000E+00  0.00000000000E+00  0.25691661925E+03  0.25691661925E+03  0.00000000000E+00 0.  1.
         21   -1    0    0  501  503 -0.00000000000E+00 -0.00000000000E+00 -0.33700904578E+03  0.33700904578E+03  0.00000000000E+00 0. -1.
          6    1    1    2  501    0 -0.19528486332E+03 -0.16349611794E+02 -0.17638688290E+03  0.31534872777E+03  0.17300000000E+03 0.  1.
         -6    1    1    2    0  502  0.19528486332E+03  0.16349611794E+02  0.96294456372E+02  0.27857693726E+03  0.17300000000E+03 0.  1.
<mgrwt>
<rscale>  2 0.26140483E+03</rscale>
<asrwt>0</asrwt>
<pdfrwt beam="1">  1       21 0.39525634E-01 0.26140483E+03</pdfrwt>
<pdfrwt beam="2">  1       21 0.51847545E-01 0.26140483E+03</pdfrwt>
<totfact> 0.21019153E+04</totfact>
</mgrwt>
</event>
<event>
 4    1  0.3876841E+000  0.1797379E+03  0.7546771E-02  0.1168057E+00
         21   -1    0    0  501  502  0.00000000000E+00  0.00000000000E+00  0.59957060984E+03  0.59957060984E+03  0.00000000000E+00 0. -1.
         21   -1    0    0  502  503 -0.00000000000E+00 -0.00000000000E+00 -0.13942650342E+03  0.13942650342E+03  0.00000000000E+00 0. -1.
          6    1    1    2  501    0  0.22597319608E+02  0.43198131291E+02  0.51949809066E+03  0.54971263729E+03  0.17300000000E+03 0. -1.
         -6    1    1    2    0  503 -0.22597319608E+02 -0.43198131291E+02 -0.59353984232E+02  0.18928447597E+03  0.17300000000E+03 0. -1.
<mgrwt>
<rscale>  2 0.17973791E+03</rscale>
<asrwt>0</asrwt>
<pdfrwt beam="1">  1       21 0.92241631E-01 0.17973791E+03</pdfrwt>
<pdfrwt beam="2">  1       21 0.21450232E-01 0.17973791E+03</pdfrwt>
<totfact> 0.20248332E+04</totfact>
</mgrwt>
</event>
<event>
 4    1  0.3876841E+000  0.1753342E+03  0.7546771E-02  0.1172397E+00
         21   -1    0    0  503  502  0.00000000000E+00  0.00000000000E+00  0.78815496210E+02  0.78815496210E+02  0.00000000000E+00 0.  1.
         21   -1    0    0  501  503 -0.00000000000E+00 -0.00000000000E+00 -0.62820409255E+03  0.62820409255E+03  0.00000000000E+00 0.  1.
          6    1    1    2  501    0  0.81003742183E+01 -0.27339970478E+02 -0.49235442170E+03  0.52264229318E+03  0.17300000000E+03 0.  1.
         -6    1    1    2    0  502 -0.81003742183E+01  0.27339970478E+02 -0.57034174631E+02  0.18437729558E+03  0.17300000000E+03 0.  1.
<mgrwt>
<rscale>  2 0.17533422E+03</rscale>
<asrwt>0</asrwt>
<pdfrwt beam="1">  1       21 0.12125461E-01 0.17533422E+03</pdfrwt>
<pdfrwt beam="2">  1       21 0.96646787E-01 0.17533422E+03</pdfrwt>
<totfact> 0.51692344E+04</totfact>
</mgrwt>
</event>
<event>
 4    1  0.3876841E+000  0.1895728E+03  0.7546771E-02  0.1158847E+00
         21   -1    0    0  503  502  0.00000000000E+00  0.00000000000E+00  0.39514664357E+03  0.39514664357E+03  0.00000000000E+00 0. -1.
         21   -1    0    0  501  503 -0.00000000000E+00 -0.00000000000E+00 -0.15467246286E+03  0.15467246286E+03  0.00000000000E+00 0.  1.
          6    1    1    2  501    0 -0.77460134946E+02  0.29628313338E+01 -0.56218717859E+02  0.19773314116E+03  0.17300000000E+03 0.  1.
         -6    1    1    2    0  502  0.77460134946E+02 -0.29628313338E+01  0.29669289857E+03  0.35208596527E+03  0.17300000000E+03 0. -1.
<mgrwt>
<rscale>  2 0.18957281E+03</rscale>
<asrwt>0</asrwt>
<pdfrwt beam="1">  1       21 0.60791791E-01 0.18957281E+03</pdfrwt>
<pdfrwt beam="2">  1       21 0.23795764E-01 0.18957281E+03</pdfrwt>
<totfact> 0.41983746E+04</totfact>
</mgrwt>
</event>
<event>
 4    1  0.3876841E+000  0.1754886E+03  0.7546771E-02  0.1172242E+00
         21   -1    0    0  503  502  0.00000000000E+00  0.00000000000E+00  0.79794751911E+02  0.79794751911E+02  0.00000000000E+00 0.  1.
         21   -1    0    0  501  503 -0.00000000000E+00 -0.00000000000E+00 -0.58482750169E+03  0.58482750169E+03  0.00000000000E+00 0.  1.
          6    1    1    2  501    0 -0.57386305918E+01  0.28884632318E+02 -0.58726501923E+02  0.18505419718E+03  0.17300000000E+03 0.  1.
         -6    1    1    2    0  502  0.57386305918E+01 -0.28884632318E+02 -0.44630624786E+03  0.47956805642E+03  0.17300000000E+03 0.  1.
<mgrwt>
<rscale>  2 0.17548861E+03</rscale>
<asrwt>0</asrwt>
<pdfrwt beam="1">  1       21 0.12276116E-01 0.17548861E+03</pdfrwt>
<pdfrwt beam="2">  1       21 0.89973460E-01 0.17548861E+03</pdfrwt>
<totfact> 0.59712237E+04</totfact>
</mgrwt>
</event>
<event>
 4    1  0.3876841E+000  0.2217472E+03  0.7546771E-02  0.1132587E+00
         21   -1    0    0  503  502  0.00000000000E+00  0.00000000000E+00  0.19384300447E+03  0.19384300447E+03  0.00000000000E+00 0. -1.
         21   -1    0    0  501  503 -0.00000000000E+00 -0.00000000000E+00 -0.25399624037E+03  0.25399624037E+03  0.00000000000E+00 0.  1.
          6    1    1    2  501    0 -0.10005683794E+02 -0.13835713372E+03 -0.22029728393E+02  0.22283877376E+03  0.17300000000E+03 0. -1.
         -6    1    1    2    0  502  0.10005683794E+02  0.13835713372E+03 -0.38123507502E+02  0.22500047108E+03  0.17300000000E+03 0. -1.
<mgrwt>
<rscale>  2 0.22174718E+03</rscale>
<asrwt>0</asrwt>
<pdfrwt beam="1">  1       21 0.29822001E-01 0.22174718E+03</pdfrwt>
<pdfrwt beam="2">  1       21 0.39076344E-01 0.22174718E+03</pdfrwt>
<totfact> 0.67210053E+04</totfact>
</mgrwt>
</event>
<event>
 4    1  0.3876841E+000  0.1807672E+03  0.7546771E-02  0.1167063E+00
         21   -1    0    0  501  502  0.00000000000E+00  0.00000000000E+00  0.31515519040E+03  0.31515519040E+03  0.00000000000E+00 0.  1.
         21   -1    0    0  502  503 -0.00000000000E+00 -0.00000000000E+00 -0.20298169427E+03  0.20298169427E+03  0.00000000000E+00 0.  1.
          6    1    1    2  501    0 -0.52005186513E+02  0.65754955311E+01  0.23728503710E+03  0.29829677403E+03  0.17300000000E+03 0.  1.
         -6    1    1    2    0  503  0.52005186513E+02 -0.65754955311E+01 -0.12511154096E+03  0.21984011064E+03  0.17300000000E+03 0.  1.
<mgrwt>
<rscale>  2 0.18076719E+03</rscale>
<asrwt>0</asrwt>
<pdfrwt beam="1">  1       21 0.48485414E-01 0.18076719E+03</pdfrwt>
<pdfrwt beam="2">  1       21 0.31227953E-01 0.18076719E+03</pdfrwt>
<totfact> 0.40263558E+04</totfact>
</mgrwt>
</event>
<event>
 4    1  0.3876841E+000  0.2037821E+03  0.7546771E-02  0.1146587E+00
         21   -1    0    0  501  502  0.00000000000E+00  0.00000000000E+00  0.39205169903E+03  0.39205169903E+03  0.00000000000E+00 0. -1.
         21   -1    0    0  502  503 -0.00000000000E+00 -0.00000000000E+00 -0.10603373867E+03  0.10603373867E+03  0.00000000000E+00 0.  1.
          6    1    1    2  501    0 -0.87387521853E+01  0.10733951454E+03  0.15107157918E+03  0.25367254327E+03  0.17300000000E+03 0.  1.
         -6    1    1    2    0  503  0.87387521853E+01 -0.10733951454E+03  0.13494638119E+03  0.24441289444E+03  0.17300000000E+03 0. -1.
<mgrwt>
<rscale>  2 0.20378208E+03</rscale>
<asrwt>0</asrwt>
<pdfrwt beam="1">  1       21 0.60315645E-01 0.20378208E+03</pdfrwt>
<pdfrwt beam="2">  1       21 0.16312883E-01 0.20378208E+03</pdfrwt>
<totfact> 0.85815143E+04</totfact>
</mgrwt>
</event>
<event>
 4    1  0.3876841E+000  0.3411106E+03  0.7546771E-02  0.1066324E+00
         21   -1    0    0  501  502  0.00000000000E+00  0.00000000000E+00  0.12771202170E+03  0.12771202170E+03  0.00000000000E+00 0.  1.
         21   -1    0    0  502  503 -0.00000000000E+00 -0.00000000000E+00 -0.16014150041E+04  0.16014150041E+04  0.00000000000E+00 0.  1.
          6    1    1    2  501    0  0.47073334301E+02 -0.29019224156E+03 -0.16921081692E+03  0.38077386521E+03  0.17300000000E+03 0.  1.
         -6    1    1    2    0  503 -0.47073334301E+02  0.29019224156E+03 -0.13044921654E+04  0.13483531606E+04  0.17300000000E+03 0.  1.
<mgrwt>
<rscale>  2 0.34111059E+03</rscale>
<asrwt>0</asrwt>
<pdfrwt beam="1">  1       21 0.19648002E-01 0.34111059E+03</pdfrwt>
<pdfrwt beam="2">  1       21 0.24637155E+00 0.34111059E+03</pdfrwt>
<totfact> 0.14647323E+03</totfact>
</mgrwt>
</event>
<event>
 4    1  0.3876841E+000  0.3309247E+03  0.7546771E-02  0.1070728E+00
         21   -1    0    0  501  502  0.00000000000E+00  0.00000000000E+00  0.60339968677E+02  0.60339968677E+02  0.00000000000E+00 0.  1.
         21   -1    0    0  502  503 -0.00000000000E+00 -0.00000000000E+00 -0.18172118524E+04  0.18172118524E+04  0.00000000000E+00 0. -1.
          6    1    1    2  501    0 -0.27928825096E+03 -0.39752242294E+02 -0.91190102950E+03  0.97009002443E+03  0.17300000000E+03 0. -1.
         -6    1    1    2    0  503  0.27928825096E+03  0.39752242294E+02 -0.84497085424E+03  0.90746179667E+03  0.17300000000E+03 0.  1.
<mgrwt>
<rscale>  2 0.33092472E+03</rscale>
<asrwt>0</asrwt>
<pdfrwt beam="1">  1       21 0.92830725E-02 0.33092472E+03</pdfrwt>
<pdfrwt beam="2">  1       21 0.27957104E+00 0.33092472E+03</pdfrwt>
<totfact> 0.36761323E+03</totfact>
</mgrwt>
</event>
<event>
 4    1  0.3876841E+000  0.3077266E+03  0.7546771E-02  0.1081441E+00
         21   -1    0    0  503  502  0.00000000000E+00  0.00000000000E+00  0.19973244943E+03  0.19973244943E+03  0.00000000000E+00 0. -1.
         21   -1    0    0  501  503 -0.00000000000E+00 -0.00000000000E+00 -0.54741345308E+03  0.54741345308E+03  0.00000000000E+00 0. -1.
          6    1    1    2  501    0 -0.10328985420E+03  0.23258949700E+03 -0.31054167648E+03  0.43718623140E+03  0.17300000000E+03 0. -1.
         -6    1    1    2    0  502  0.10328985420E+03 -0.23258949700E+03 -0.37139327168E+02  0.30995967111E+03  0.17300000000E+03 0. -1.
<mgrwt>
<rscale>  2 0.30772661E+03</rscale>
<asrwt>0</asrwt>
<pdfrwt beam="1">  1       21 0.30728070E-01 0.30772661E+03</pdfrwt>
<pdfrwt beam="2">  1       21 0.84217453E-01 0.30772661E+03</pdfrwt>
<totfact> 0.11688749E+04</totfact>
</mgrwt>
</event>
<event>
 4    1  0.3876841E+000  0.1803515E+03  0.7546771E-02  0.1167463E+00
         21   -1    0    0  503  502  0.00000000000E+00  0.00000000000E+00  0.25705651191E+03  0.25705651191E+03  0.00000000000E+00 0.  1.
         21   -1    0    0  501  503 -0.00000000000E+00 -0.00000000000E+00 -0.32223735944E+03  0.32223735944E+03  0.00000000000E+00 0.  1.
          6    1    1    2  501    0 -0.42992331873E+02  0.27374067213E+02 -0.25831501511E+03  0.31504496058E+03  0.17300000000E+03 0.  1.
         -6    1    1    2    0  502  0.42992331873E+02 -0.27374067213E+02  0.19313416758E+03  0.26424891077E+03  0.17300000000E+03 0.  1.
<mgrwt>
<rscale>  2 0.18035155E+03</rscale>
<asrwt>0</asrwt>
<pdfrwt beam="1">  1       21 0.39547156E-01 0.18035155E+03</pdfrwt>
<pdfrwt beam="2">  1       21 0.49574978E-01 0.18035155E+03</pdfrwt>
<totfact> 0.24075726E+04</totfact>
</mgrwt>
</event>
<event>
 4    1  0.3876841E+000  0.1941177E+03  0.7546771E-02  0.1154799E+00
         21   -1    0    0  503  502  0.00000000000E+00  0.00000000000E+00  0.37912072984E+03  0.37912072984E+03  0.00000000000E+00 0.  1.
         21   -1    0    0  501  503 -0.00000000000E+00 -0.00000000000E+00 -0.10515709927E+03  0.10515709927E+03  0.00000000000E+00 0.  1.
          6    1    1    2  501    0 -0.84277137327E+02 -0.25496229619E+02  0.80287937049E+02  0.21006629058E+03  0.17300000000E+03 0.  1.
         -6    1    1    2    0  502  0.84277137327E+02  0.25496229619E+02  0.19367569353E+03  0.27421153853E+03  0.17300000000E+03 0.  1.
<mgrwt>
<rscale>  2 0.19411773E+03</rscale>
<asrwt>0</asrwt>
<pdfrwt beam="1">  1       21 0.58326266E-01 0.19411773E+03</pdfrwt>
<pdfrwt beam="2">  1       21 0.16178015E-01 0.19411773E+03</pdfrwt>
<totfact> 0.94018805E+04</totfact>
</mgrwt>
</event>
<event>
 4    1  0.3876841E+000  0.2014663E+03  0.7546771E-02  0.1148508E+00
         21   -1    0    0  503  502  0.00000000000E+00  0.00000000000E+00  0.11981611717E+03  0.11981611717E+03  0.00000000000E+00 0.  1.
         21   -1    0    0  501  503 -0.00000000000E+00 -0.00000000000E+00 -0.61942692032E+03  0.61942692032E+03  0.00000000000E+00 0.  1.
          6    1    1    2  501    0  0.65221727442E+02 -0.80036292207E+02 -0.49861050460E+03  0.53777422502E+03  0.17300000000E+03 0.  1.
         -6    1    1    2    0  502 -0.65221727442E+02  0.80036292207E+02 -0.10002985497E+01  0.20146881247E+03  0.17300000000E+03 0.  1.
<mgrwt>
<rscale>  2 0.20146633E+03</rscale>
<asrwt>0</asrwt>
<pdfrwt beam="1">  1       21 0.18433249E-01 0.20146633E+03</pdfrwt>
<pdfrwt beam="2">  1       21 0.95296449E-01 0.20146633E+03</pdfrwt>
<totfact> 0.24577758E+04</totfact>
</mgrwt>
</event>
<event>
 4    1  0.3876841E+000  0.1733747E+03  0.7546771E-02  0.1174374E+00
         21   -1    0    0  503  502  0.00000000000E+00  0.00000000000E+00  0.48363660942E+03  0.48363660942E+03  0.00000000000E+00 0.  1.
         21   -1    0    0  501  503 -0.00000000000E+00 -0.00000000000E+00 -0.11366662939E+03  0.11366662939E+03  0.00000000000E+00 0.  1.
          6    1    1    2  501    0 -0.26331766256E+01 -0.11083574376E+02 -0.16070272461E+02  0.17411787070E+03  0.17300000000E+03 0.  1.
         -6    1    1    2    0  502  0.26331766256E+01  0.11083574376E+02  0.38604025249E+03  0.42318536811E+03  0.17300000000E+03 0.  1.
<mgrwt>
<rscale>  2 0.17337468E+03</rscale>
<asrwt>0</asrwt>
<pdfrwt beam="1">  1       21 0.74405631E-01 0.17337468E+03</pdfrwt>
<pdfrwt beam="2">  1       21 0.17487174E-01 0.17337468E+03</pdfrwt>
<totfact> 0.48385623E+04</totfact>
</mgrwt>
</event>
<event>
 4    1  0.3876841E+000  0.1759681E+03  0.7546771E-02  0.1171763E+00
         21   -1    0    0  503  502  0.00000000000E+00  0.00000000000E+00  0.23780053581E+03  0.23780053581E+03  0.00000000000E+00 0.  1.
         21   -1    0    0  501  503 -0.00000000000E+00 -0.00000000000E+00 -0.22717841214E+03  0.22717841214E+03  0.00000000000E+00 0.  1.
          6    1    1    2  501    0 -0.22797850553E+02 -0.22716116545E+02 -0.14657844992E+03  0.22901966274E+03  0.17300000000E+03 0.  1.
         -6    1    1    2    0  502  0.22797850553E+02  0.22716116545E+02  0.15720057358E+03  0.23595928521E+03  0.17300000000E+03 0.  1.
<mgrwt>
<rscale>  2 0.17596808E+03</rscale>
<asrwt>0</asrwt>
<pdfrwt beam="1">  1       21 0.36584698E-01 0.17596808E+03</pdfrwt>
<pdfrwt beam="2">  1       21 0.34950525E-01 0.17596808E+03</pdfrwt>
<totfact> 0.57295443E+04</totfact>
</mgrwt>
</event>
<event>
 4    1  0.3876841E+000  0.2044813E+03  0.7546771E-02  0.1146012E+00
         21   -1    0    0  503  502  0.00000000000E+00  0.00000000000E+00  0.38484267863E+03  0.38484267863E+03  0.00000000000E+00 0. -1.
         21   -1    0    0  501  503 -0.00000000000E+00 -0.00000000000E+00 -0.20510988908E+03  0.20510988908E+03  0.00000000000E+00 0. -1.
          6    1    1    2  501    0  0.60147950969E+02 -0.90916557095E+02 -0.11242176280E+03  0.23334791431E+03  0.17300000000E+03 0. -1.
         -6    1    1    2    0  502 -0.60147950969E+02  0.90916557095E+02  0.29215455236E+03  0.35660465339E+03  0.17300000000E+03 0. -1.
<mgrwt>
<rscale>  2 0.20448129E+03</rscale>
<asrwt>0</asrwt>
<pdfrwt beam="1">  1       21 0.59206566E-01 0.20448129E+03</pdfrwt>
<pdfrwt beam="2">  1       21 0.31555368E-01 0.20448129E+03</pdfrwt>
<totfact> 0.25565846E+04</totfact>
</mgrwt>
</event>
<event>
 4    1  0.3876841E+000  0.2553224E+03  0.7546771E-02  0.1109987E+00
         21   -1    0    0  501  502  0.00000000000E+00  0.00000000000E+00  0.42446105460E+03  0.42446105460E+03  0.00000000000E+00 0.  1.
         21   -1    0    0  502  503 -0.00000000000E+00 -0.00000000000E+00 -0.15596274479E+03  0.15596274479E+03  0.00000000000E+00 0. -1.
          6    1    1    2  501    0  0.17787660910E+03 -0.60170100944E+02  0.98392345730E+02  0.27362489436E+03  0.17300000000E+03 0.  1.
         -6    1    1    2    0  503 -0.17787660910E+03  0.60170100944E+02  0.17010596408E+03  0.30679890503E+03  0.17300000000E+03 0. -1.
<mgrwt>
<rscale>  2 0.25532240E+03</rscale>
<asrwt>0</asrwt>
<pdfrwt beam="1">  1       21 0.65301700E-01 0.25532240E+03</pdfrwt>
<pdfrwt beam="2">  1       21 0.23994269E-01 0.25532240E+03</pdfrwt>
<totfact> 0.34284557E+04</totfact>
</mgrwt>
</event>
<event>
 4    1  0.3876841E+000  0.1801891E+03  0.7546771E-02  0.1167620E+00
         21   -1    0    0  503  502  0.00000000000E+00  0.00000000000E+00  0.34397259520E+03  0.34397259520E+03  0.00000000000E+00 0. -1.
         21   -1    0    0  501  503 -0.00000000000E+00 -0.00000000000E+00 -0.14624385831E+03  0.14624385831E+03  0.00000000000E+00 0. -1.
          6    1    1    2  501    0  0.48453452957E+02  0.13833594696E+02 -0.47085305476E+02  0.18623944651E+03  0.17300000000E+03 0. -1.
         -6    1    1    2    0  502 -0.48453452957E+02 -0.13833594696E+02  0.24481404236E+03  0.30397700700E+03  0.17300000000E+03 0. -1.
<mgrwt>
<rscale>  2 0.18018908E+03</rscale>
<asrwt>0</asrwt>
<pdfrwt beam="1">  1       21 0.52918861E-01 0.18018908E+03</pdfrwt>
<pdfrwt beam="2">  1       21 0.22499055E-01 0.18018908E+03</pdfrwt>
<totfact> 0.62951954E+04</totfact>
</mgrwt>
</event>
<event>
 4    1  0.3876841E+000  0.2372912E+03  0.7546771E-02  0.1121611E+00
         21   -1    0    0  501  502  0.00000000000E+00  0.00000000000E+00  0.12967432115E+03  0.12967432115E+03  0.00000000000E+00 0. -1.
         21   -1    0    0  502  503 -0.00000000000E+00 -0.00000000000E+00 -0.82034601956E+03  0.82034601956E+03  0.00000000000E+00 0. -1.
          6    1    1    2  501    0 -0.10179225258E+03 -0.12655608096E+03 -0.19447188703E+02  0.23808674356E+03  0.17300000000E+03 0. -1.
         -6    1    1    2    0  503  0.10179225258E+03  0.12655608096E+03 -0.67122450971E+03  0.71193359715E+03  0.17300000000E+03 0. -1.
<mgrwt>
<rscale>  2 0.23729118E+03</rscale>
<asrwt>0</asrwt>
<pdfrwt beam="1">  1       21 0.19949896E-01 0.23729118E+03</pdfrwt>
<pdfrwt beam="2">  1       21 0.12620708E+00 0.23729118E+03</pdfrwt>
<totfact> 0.10480243E+04</totfact>
</mgrwt>
</event>
<event>
 4    1  0.3876841E+000  0.1921368E+03  0.7546771E-02  0.1156548E+00
         21   -1    0    0  501  502  0.00000000000E+00  0.00000000000E+00  0.16010599878E+03  0.16010599878E+03  0.00000000000E+00 0.  1.
         21   -1    0    0  502  503 -0.00000000000E+00 -0.00000000000E+00 -0.28874952732E+03  0.28874952732E+03  0.00000000000E+00 0. -1.
          6    1    1    2  501    0 -0.70279488363E+02 -0.45258689650E+02  0.36413074297E+02  0.19555681388E+03  0.17300000000E+03 0.  1.
         -6    1    1    2    0  503  0.70279488363E+02  0.45258689650E+02 -0.16505660284E+03  0.25329871222E+03  0.17300000000E+03 0. -1.
<mgrwt>
<rscale>  2 0.19213681E+03</rscale>
<asrwt>0</asrwt>
<pdfrwt beam="1">  1       21 0.24631692E-01 0.19213681E+03</pdfrwt>
<pdfrwt beam="2">  1       21 0.44423004E-01 0.19213681E+03</pdfrwt>
<totfact> 0.75837995E+04</totfact>
</mgrwt>
</event>
<event>
 4    1  0.3876841E+000  0.1966955E+03  0.7546771E-02  0.1152557E+00
         21   -1    0    0  501  502  0.00000000000E+00  0.00000000000E+00  0.55218986248E+03  0.55218986248E+03  0.00000000000E+00 0. -1.
         21   -1    0    0  502  503 -0.00000000000E+00 -0.00000000000E+00 -0.12049705035E+03  0.12049705035E+03  0.00000000000E+00 0. -1.
          6    1    1    2  501    0 -0.25668367894E+02 -0.90006993047E+02  0.43344122283E+03  0.47598363160E+03  0.17300000000E+03 0. -1.
         -6    1    1    2    0  503  0.25668367894E+02  0.90006993047E+02 -0.17484106963E+01  0.19670328123E+03  0.17300000000E+03 0. -1.
<mgrwt>
<rscale>  2 0.19669551E+03</rscale>
<asrwt>0</asrwt>
<pdfrwt beam="1">  1       21 0.84952285E-01 0.19669551E+03</pdfrwt>
<pdfrwt beam="2">  1       21 0.18538008E-01 0.19669551E+03</pdfrwt>
<totfact> 0.31826493E+04</totfact>
</mgrwt>
</event>
<event>
 4    1  0.3876841E+000  0.1838599E+03  0.7546771E-02  0.1164119E+00
         21   -1    0    0  503  502  0.00000000000E+00  0.00000000000E+00  0.18618557775E+03  0.18618557775E+03  0.00000000000E+00 0. -1.
         21   -1    0    0  501  503 -0.00000000000E+00 -0.00000000000E+00 -0.37456861623E+03  0.37456861623E+03  0.00000000000E+00 0. -1.
          6    1    1    2  501    0 -0.54622819264E+02 -0.29862985773E+02 -0.29545342636E+03  0.34799019735E+03  0.17300000000E+03 0. -1.
         -6    1    1    2    0  502  0.54622819264E+02  0.29862985773E+02  0.10707038787E+03  0.21276399663E+03  0.17300000000E+03 0. -1.
<mgrwt>
<rscale>  2 0.18385987E+03</rscale>
<asrwt>0</asrwt>
<pdfrwt beam="1">  1       21 0.28643935E-01 0.18385987E+03</pdfrwt>
<pdfrwt beam="2">  1       21 0.57625941E-01 0.18385987E+03</pdfrwt>
<totfact> 0.33089006E+04</totfact>
</mgrwt>
</event>
<event>
 4    1  0.3876841E+000  0.2098146E+03  0.7546771E-02  0.1141713E+00
         21   -1    0    0  503  502  0.00000000000E+00  0.00000000000E+00  0.38373573956E+03  0.38373573956E+03  0.00000000000E+00 0.  1.
         21   -1    0    0  501  503 -0.00000000000E+00 -0.00000000000E+00 -0.12421477164E+03  0.12421477164E+03  0.00000000000E+00 0. -1.
          6    1    1    2  501    0  0.52074211394E+02 -0.10668380601E+03  0.19997831459E+03  0.28985079656E+03  0.17300000000E+03 0.  1.
         -6    1    1    2    0  502 -0.52074211394E+02  0.10668380601E+03  0.59542653325E+02  0.21809971463E+03  0.17300000000E+03 0. -1.
<mgrwt>
<rscale>  2 0.20981458E+03</rscale>
<asrwt>0</asrwt>
<pdfrwt beam="1">  1       21 0.59036267E-01 0.20981458E+03</pdfrwt>
<pdfrwt beam="2">  1       21 0.19109965E-01 0.20981458E+03</pdfrwt>
<totfact> 0.66889311E+04</totfact>
</mgrwt>
</event>
<event>
 4    1  0.3876841E+000  0.1804580E+03  0.7546771E-02  0.1167361E+00
         21   -1    0    0  501  502  0.00000000000E+00  0.00000000000E+00  0.83591965267E+03  0.83591965267E+03  0.00000000000E+00 0.  1.
         21   -1    0    0  502  503 -0.00000000000E+00 -0.00000000000E+00 -0.55398612672E+02  0.55398612672E+02  0.00000000000E+00 0. -1.
          6    1    1    2  501    0 -0.20540493490E+02  0.47055139148E+02  0.63304604520E+03  0.65826468334E+03  0.17300000000E+03 0.  1.
         -6    1    1    2    0  503  0.20540493490E+02 -0.47055139148E+02  0.14747499481E+03  0.23305358201E+03  0.17300000000E+03 0. -1.
<mgrwt>
<rscale>  2 0.18045802E+03</rscale>
<asrwt>0</asrwt>
<pdfrwt beam="1">  1       21 0.12860301E+00 0.18045802E+03</pdfrwt>
<pdfrwt beam="2">  1       21 0.85228641E-02 0.18045802E+03</pdfrwt>
<totfact> 0.48043187E+04</totfact>
</mgrwt>
</event>
<event>
 4    1  0.3876841E+000  0.1835591E+03  0.7546771E-02  0.1164402E+00
         21   -1    0    0  501  502  0.00000000000E+00  0.00000000000E+00  0.70491378712E+02  0.70491378712E+02  0.00000000000E+00 0.  1.
         21   -1    0    0  502  503 -0.00000000000E+00 -0.00000000000E+00 -0.59520098729E+03  0.59520098729E+03  0.00000000000E+00 0.  1.
          6    1    1    2  501    0 -0.52646063595E+02  0.31517472877E+02 -0.41006197249E+03  0.44927138835E+03  0.17300000000E+03 0.  1.
         -6    1    1    2    0  503  0.52646063595E+02 -0.31517472877E+02 -0.11464763610E+03  0.21642097766E+03  0.17300000000E+03 0.  1.
<mgrwt>
<rscale>  2 0.18355914E+03</rscale>
<asrwt>0</asrwt>
<pdfrwt beam="1">  1       21 0.10844828E-01 0.18355914E+03</pdfrwt>
<pdfrwt beam="2">  1       21 0.91569380E-01 0.18355914E+03</pdfrwt>
<totfact> 0.71227081E+04</totfact>
</mgrwt>
</event>
<event>
 4    1  0.3876841E+000  0.1731640E+03  0.7546771E-02  0.1174588E+00
         21   -1    0    0  501  502  0.00000000000E+00  0.00000000000E+00  0.18494204359E+04  0.18494204359E+04  0.00000000000E+00 0. -1.
         21   -1    0    0  502  503 -0.00000000000E+00 -0.00000000000E+00 -0.93911109846E+02  0.93911109846E+02  0.00000000000E+00 0. -1.
          6    1    1    2  501    0 -0.22543830643E+01 -0.71904658197E+01  0.17615708175E+04  0.17700614481E+04  0.17300000000E+03 0. -1.
         -6    1    1    2    0  503  0.22543830643E+01  0.71904658197E+01 -0.60614914798E+01  0.17327009760E+03  0.17300000000E+03 0. -1.
<mgrwt>
<rscale>  2 0.17316404E+03</rscale>
<asrwt>0</asrwt>
<pdfrwt beam="1">  1       21 0.28452619E+00 0.17316404E+03</pdfrwt>
<pdfrwt beam="2">  1       21 0.14447864E-01 0.17316404E+03</pdfrwt>
<totfact> 0.18054382E+03</totfact>
</mgrwt>
</event>
<event>
 4    1  0.3876841E+000  0.2325419E+03  0.7546771E-02  0.1124863E+00
         21   -1    0    0  501  502  0.00000000000E+00  0.00000000000E+00  0.56842908323E+03  0.56842908323E+03  0.00000000000E+00 0.  1.
         21   -1    0    0  502  503 -0.00000000000E+00 -0.00000000000E+00 -0.29222197620E+03  0.29222197620E+03  0.00000000000E+00 0. -1.
          6    1    1    2  501    0 -0.14259929100E+02  0.15473655071E+03  0.49150883898E+03  0.54374321559E+03  0.17300000000E+03 0.  1.
         -6    1    1    2    0  503  0.14259929100E+02 -0.15473655071E+03 -0.21530173195E+03  0.31690784384E+03  0.17300000000E+03 0. -1.
<mgrwt>
<rscale>  2 0.23254192E+03</rscale>
<asrwt>0</asrwt>
<pdfrwt beam="1">  1       21 0.87450628E-01 0.23254192E+03</pdfrwt>
<pdfrwt beam="2">  1       21 0.44957227E-01 0.23254192E+03</pdfrwt>
<totfact> 0.51763697E+03</totfact>
</mgrwt>
</event>
<event>
 4    1  0.3876841E+000  0.1756721E+03  0.7546771E-02  0.1172059E+00
         21   -1    0    0  503  502  0.00000000000E+00  0.00000000000E+00  0.30364862927E+02  0.30364862927E+02  0.00000000000E+00 0. -1.
         21   -1    0    0  501  503 -0.00000000000E+00 -0.00000000000E+00 -0.10219360646E+04  0.10219360646E+04  0.00000000000E+00 0. -1.
          6    1    1    2  501    0  0.96064631597E+01  0.28972331098E+02 -0.53476000470E+03  0.56287560147E+03  0.17300000000E+03 0.  1.
         -6    1    1    2    0  502 -0.96064631597E+01 -0.28972331098E+02 -0.45681119693E+03  0.48942532602E+03  0.17300000000E+03 0.  1.
<mgrwt>
<rscale>  2 0.17567208E+03</rscale>
<asrwt>0</asrwt>
<pdfrwt beam="1">  1       21 0.46715173E-02 0.17567208E+03</pdfrwt>
<pdfrwt beam="2">  1       21 0.15722094E+00 0.17567208E+03</pdfrwt>
<totfact> 0.80327653E+04</totfact>
</mgrwt>
</event>
<event>
 4    1  0.3876841E+000  0.3067847E+03  0.7546771E-02  0.1081897E+00
         21   -1    0    0  501  502  0.00000000000E+00  0.00000000000E+00  0.71280551810E+03  0.71280551810E+03  0.00000000000E+00 0. -1.
         21   -1    0    0  502  503 -0.00000000000E+00 -0.00000000000E+00 -0.13446053678E+03  0.13446053678E+03  0.00000000000E+00 0. -1.
          6    1    1    2  501    0 -0.23302770728E+03  0.99428000036E+02  0.23230030325E+03  0.38481199363E+03  0.17300000000E+03 0. -1.
         -6    1    1    2    0  503  0.23302770728E+03 -0.99428000036E+02  0.34604467807E+03  0.46245406126E+03  0.17300000000E+03 0. -1.
<mgrwt>
<rscale>  2 0.30678468E+03</rscale>
<asrwt>0</asrwt>
<pdfrwt beam="1">  1       21 0.10966239E+00 0.30678468E+03</pdfrwt>
<pdfrwt beam="2">  1       21 0.20686237E-01 0.30678468E+03</pdfrwt>
<totfact> 0.13395988E+04</totfact>
</mgrwt>
</event>
<event>
 4    1  0.3876841E+000  0.2146242E+03  0.7546771E-02  0.1137956E+00
         21   -1    0    0  503  502  0.00000000000E+00  0.00000000000E+00  0.17689207293E+03  0.17689207293E+03  0.00000000000E+00 0. -1.
         21   -1    0    0  501  503 -0.00000000000E+00 -0.00000000000E+00 -0.26242260673E+03  0.26242260673E+03  0.00000000000E+00 0. -1.
          6    1    1    2  501    0  0.69579451424E+01 -0.12683113768E+03 -0.62026383684E+02  0.22340730238E+03  0.17300000000E+03 0. -1.
         -6    1    1    2    0  502 -0.69579451424E+01  0.12683113768E+03 -0.23504150118E+02  0.21590737727E+03  0.17300000000E+03 0. -1.
<mgrwt>
<rscale>  2 0.21462421E+03</rscale>
<asrwt>0</asrwt>
<pdfrwt beam="1">  1       21 0.27214165E-01 0.21462421E+03</pdfrwt>
<pdfrwt beam="2">  1       21 0.40372709E-01 0.21462421E+03</pdfrwt>
<totfact> 0.75379110E+04</totfact>
</mgrwt>
</event>
<event>
 4    1  0.3876841E+000  0.2589467E+03  0.7546771E-02  0.1107778E+00
         21   -1    0    0  503  502  0.00000000000E+00  0.00000000000E+00  0.12755257560E+04  0.12755257560E+04  0.00000000000E+00 0.  1.
         21   -1    0    0  501  503 -0.00000000000E+00 -0.00000000000E+00 -0.69701166849E+02  0.69701166849E+02  0.00000000000E+00 0. -1.
          6    1    1    2  501    0 -0.18919487924E+03  0.36464789736E+02  0.26944826207E+03  0.37370543099E+03  0.17300000000E+03 0. -1.
         -6    1    1    2    0  502  0.18919487924E+03 -0.36464789736E+02  0.93637632704E+03  0.97152149181E+03  0.17300000000E+03 0.  1.
<mgrwt>
<rscale>  2 0.25894668E+03</rscale>
<asrwt>0</asrwt>
<pdfrwt beam="1">  1       21 0.19623471E+00 0.25894668E+03</pdfrwt>
<pdfrwt beam="2">  1       21 0.10723257E-01 0.25894668E+03</pdfrwt>
<totfact> 0.96952676E+03</totfact>
</mgrwt>
</event>
<event>
 4    1  0.3876841E+000  0.1850655E+03  0.7546771E-02  0.1162989E+00
         21   -1    0    0  501  502  0.00000000000E+00  0.00000000000E+00  0.23002460643E+03  0.23002460643E+03  0.00000000000E+00 0. -1.
         21   -1    0    0  502  503 -0.00000000000E+00 -0.00000000000E+00 -0.22127789022E+03  0.22127789022E+03  0.00000000000E+00 0.  1.
          6    1    1    2  501    0  0.38419318697E+02 -0.53330825694E+02 -0.12468629924E+03  0.22314993667E+03  0.17300000000E+03 0.  1.
         -6    1    1    2    0  503 -0.38419318697E+02  0.53330825694E+02  0.13343301544E+03  0.22815255998E+03  0.17300000000E+03 0. -1.
<mgrwt>
<rscale>  2 0.18506545E+03</rscale>
<asrwt>0</asrwt>
<pdfrwt beam="1">  1       21 0.35388401E-01 0.18506545E+03</pdfrwt>
<pdfrwt beam="2">  1       21 0.34042752E-01 0.18506545E+03</pdfrwt>
<totfact> 0.64217452E+04</totfact>
</mgrwt>
</event>
<event>
 4    1  0.3876841E+000  0.1850773E+03  0.7546771E-02  0.1162978E+00
         21   -1    0    0  501  502  0.00000000000E+00  0.00000000000E+00  0.27798395731E+03  0.27798395731E+03  0.00000000000E+00 0. -1.
         21   -1    0    0  502  503 -0.00000000000E+00 -0.00000000000E+00 -0.17456080626E+03  0.17456080626E+03  0.00000000000E+00 0.  1.
          6    1    1    2  501    0  0.62948804199E+02 -0.19027755841E+02  0.17442245435E+03  0.25431633849E+03  0.17300000000E+03 0. -1.
         -6    1    1    2    0  503 -0.62948804199E+02  0.19027755841E+02 -0.70999303288E+02  0.19822842508E+03  0.17300000000E+03 0. -1.
<mgrwt>
<rscale>  2 0.18507730E+03</rscale>
<asrwt>0</asrwt>
<pdfrwt beam="1">  1       21 0.42766763E-01 0.18507730E+03</pdfrwt>
<pdfrwt beam="2">  1       21 0.26855509E-01 0.18507730E+03</pdfrwt>
<totfact> 0.69665474E+04</totfact>
</mgrwt>
</event>
<event>
 4    1  0.3876841E+000  0.2125383E+03  0.7546771E-02  0.1139572E+00
         21   -1    0    0  503  502  0.00000000000E+00  0.00000000000E+00  0.61548855689E+02  0.61548855689E+02  0.00000000000E+00 0.  1.
         21   -1    0    0  501  503 -0.00000000000E+00 -0.00000000000E+00 -0.93216553553E+03  0.93216553553E+03  0.00000000000E+00 0.  1.
          6    1    1    2  501    0 -0.48386274663E+02  0.11358834201E+03 -0.66443518263E+03  0.69760064144E+03  0.17300000000E+03 0. -1.
         -6    1    1    2    0  502  0.48386274663E+02 -0.11358834201E+03 -0.20618149720E+03  0.29611374978E+03  0.17300000000E+03 0. -1.
<mgrwt>
<rscale>  2 0.21253833E+03</rscale>
<asrwt>0</asrwt>
<pdfrwt beam="1">  1       21 0.94690552E-02 0.21253833E+03</pdfrwt>
<pdfrwt beam="2">  1       21 0.14341008E+00 0.21253833E+03</pdfrwt>
<totfact> 0.29672861E+04</totfact>
</mgrwt>
</event>
<event>
 4    1  0.3876841E+000  0.2059187E+03  0.7546771E-02  0.1144839E+00
         21   -1    0    0  503  502  0.00000000000E+00  0.00000000000E+00  0.10252555150E+03  0.10252555150E+03  0.00000000000E+00 0. -1.
         21   -1    0    0  501  503 -0.00000000000E+00 -0.00000000000E+00 -0.51812386843E+03  0.51812386843E+03  0.00000000000E+00 0.  1.
          6    1    1    2  501    0  0.78543962809E+02  0.79400042883E+02 -0.34719466502E+03  0.40366651622E+03  0.17300000000E+03 0.  1.
         -6    1    1    2    0  502 -0.78543962809E+02 -0.79400042883E+02 -0.68403651918E+02  0.21698290370E+03  0.17300000000E+03 0. -1.
<mgrwt>
<rscale>  2 0.20591872E+03</rscale>
<asrwt>0</asrwt>
<pdfrwt beam="1">  1       21 0.15773162E-01 0.20591872E+03</pdfrwt>
<pdfrwt beam="2">  1       21 0.79711365E-01 0.20591872E+03</pdfrwt>
<totfact> 0.49301052E+04</totfact>
</mgrwt>
</event>
<event>
 4    1  0.3876841E+000  0.1862039E+03  0.7546771E-02  0.1161930E+00
         21   -1    0    0  501  502  0.00000000000E+00  0.00000000000E+00  0.52935867885E+02  0.52935867885E+02  0.00000000000E+00 0.  1.
         21   -1    0    0  502  503 -0.00000000000E+00 -0.00000000000E+00 -0.67146206673E+03  0.67146206673E+03  0.00000000000E+00 0.  1.
          6    1    1    2  501    0  0.18595834424E+02 -0.66310598781E+02 -0.25251506721E+03  0.31374473659E+03  0.17300000000E+03 0.  1.
         -6    1    1    2    0  503 -0.18595834424E+02  0.66310598781E+02 -0.36601113163E+03  0.41065319803E+03  0.17300000000E+03 0.  1.
<mgrwt>
<rscale>  2 0.18620392E+03</rscale>
<asrwt>0</asrwt>
<pdfrwt beam="1">  1       21 0.81439797E-02 0.18620392E+03</pdfrwt>
<pdfrwt beam="2">  1       21 0.10330186E+00 0.18620392E+03</pdfrwt>
<totfact> 0.88625328E+04</totfact>
</mgrwt>
</event>
<event>
 4    1  0.3876841E+000  0.1840484E+03  0.7546771E-02  0.1163941E+00
         21   -1    0    0  503  502  0.00000000000E+00  0.00000000000E+00  0.28496994676E+03  0.28496994676E+03  0.00000000000E+00 0. -1.
         21   -1    0    0  501  503 -0.00000000000E+00 -0.00000000000E+00 -0.13487478018E+03  0.13487478018E+03  0.00000000000E+00 0. -1.
          6    1    1    2  501    0  0.16078229101E+02 -0.60714985752E+02  0.27298535075E+01  0.18406865851E+03  0.17300000000E+03 0. -1.
         -6    1    1    2    0  502 -0.16078229101E+02  0.60714985752E+02  0.14736531307E+03  0.23577606843E+03  0.17300000000E+03 0. -1.
<mgrwt>
<rscale>  2 0.18404841E+03</rscale>
<asrwt>0</asrwt>
<pdfrwt beam="1">  1       21 0.43841530E-01 0.18404841E+03</pdfrwt>
<pdfrwt beam="2">  1       21 0.20749966E-01 0.18404841E+03</pdfrwt>
<totfact> 0.10804810E+05</totfact>
</mgrwt>
</event>
<event>
 4    1  0.3876841E+000  0.2194388E+03  0.7546771E-02  0.1134302E+00
         21   -1    0    0  503  502  0.00000000000E+00  0.00000000000E+00  0.37007132347E+03  0.37007132347E+03  0.00000000000E+00 0.  1.
         21   -1    0    0  501  503 -0.00000000000E+00 -0.00000000000E+00 -0.16680651154E+03  0.16680651154E+03  0.00000000000E+00 0.  1.
          6    1    1    2  501    0 -0.38972760670E+01  0.13494150899E+03  0.22752398529E+03  0.31610214092E+03  0.17300000000E+03 0.  1.
         -6    1    1    2    0  502  0.38972760670E+01 -0.13494150899E+03 -0.24259173370E+02  0.22077569409E+03  0.17300000000E+03 0.  1.
<mgrwt>
<rscale>  2 0.21943883E+03</rscale>
<asrwt>0</asrwt>
<pdfrwt beam="1">  1       21 0.56934050E-01 0.21943883E+03</pdfrwt>
<pdfrwt beam="2">  1       21 0.25662540E-01 0.21943883E+03</pdfrwt>
<totfact> 0.41209577E+04</totfact>
</mgrwt>
</event>
<event>
 4    1  0.3876841E+000  0.3581166E+03  0.7546771E-02  0.1059332E+00
         21   -1    0    0  503  502  0.00000000000E+00  0.00000000000E+00  0.37414798732E+03  0.37414798732E+03  0.00000000000E+00 0.  1.
         21   -1    0    0  501  503 -0.00000000000E+00 -0.00000000000E+00 -0.36820729414E+03  0.36820729414E+03  0.00000000000E+00 0.  1.
          6    1    1    2  501    0  0.24802525988E+03 -0.19183848695E+03  0.10052593523E+03  0.37195832868E+03  0.17300000000E+03 0.  1.
         -6    1    1    2    0  502 -0.24802525988E+03  0.19183848695E+03 -0.94585242046E+02  0.37039695278E+03  0.17300000000E+03 0.  1.
<mgrwt>
<rscale>  2 0.35811665E+03</rscale>
<asrwt>0</asrwt>
<pdfrwt beam="1">  1       21 0.57561229E-01 0.35811665E+03</pdfrwt>
<pdfrwt beam="2">  1       21 0.56647275E-01 0.35811665E+03</pdfrwt>
<totfact> 0.75985347E+03</totfact>
</mgrwt>
</event>
<event>
 4    1  0.3876841E+000  0.2224577E+03  0.7546771E-02  0.1132064E+00
         21   -1    0    0  501  502  0.00000000000E+00  0.00000000000E+00  0.10068780949E+03  0.10068780949E+03  0.00000000000E+00 0. -1.
         21   -1    0    0  502  503 -0.00000000000E+00 -0.00000000000E+00 -0.82056237345E+03  0.82056237345E+03  0.00000000000E+00 0. -1.
          6    1    1    2  501    0  0.13610341595E+03  0.32160112140E+02 -0.65163641407E+03  0.68856185546E+03  0.17300000000E+03 0. -1.
         -6    1    1    2    0  503 -0.13610341595E+03 -0.32160112140E+02 -0.68238149880E+02  0.23268832748E+03  0.17300000000E+03 0. -1.
<mgrwt>
<rscale>  2 0.22245766E+03</rscale>
<asrwt>0</asrwt>
<pdfrwt beam="1">  1       21 0.15490433E-01 0.22245766E+03</pdfrwt>
<pdfrwt beam="2">  1       21 0.12624036E+00 0.22245766E+03</pdfrwt>
<totfact> 0.16889918E+04</totfact>
</mgrwt>
</event>
<event>
 4    1  0.3876841E+000  0.2769296E+03  0.7546771E-02  0.1097378E+00
         21   -1    0    0  503  502  0.00000000000E+00  0.00000000000E+00  0.14990121260E+03  0.14990121260E+03  0.00000000000E+00 0.  1.
         21   -1    0    0  501  503 -0.00000000000E+00 -0.00000000000E+00 -0.65060958955E+03  0.65060958955E+03  0.00000000000E+00 0. -1.
          6    1    1    2  501    0 -0.13464812708E+03  0.16920662030E+03 -0.43536356678E+03  0.51597619495E+03  0.17300000000E+03 0. -1.
         -6    1    1    2    0  502  0.13464812708E+03 -0.16920662030E+03 -0.65344810163E+02  0.28453460720E+03  0.17300000000E+03 0.  1.
<mgrwt>
<rscale>  2 0.27692959E+03</rscale>
<asrwt>0</asrwt>
<pdfrwt beam="1">  1       21 0.23061725E-01 0.27692959E+03</pdfrwt>
<pdfrwt beam="2">  1       21 0.10009378E+00 0.27692959E+03</pdfrwt>
<totfact> 0.13785397E+04</totfact>
</mgrwt>
</event>
<event>
 4    1  0.3876841E+000  0.2103033E+03  0.7546771E-02  0.1141326E+00
         21   -1    0    0  503  502  0.00000000000E+00  0.00000000000E+00  0.91828997293E+03  0.91828997293E+03  0.00000000000E+00 0.  1.
         21   -1    0    0  501  503 -0.00000000000E+00 -0.00000000000E+00 -0.64878311994E+02  0.64878311994E+02  0.00000000000E+00 0.  1.
          6    1    1    2  501    0  0.11952571852E+03  0.34729800378E+01  0.17718469840E+03  0.27499432054E+03  0.17300000000E+03 0.  1.
         -6    1    1    2    0  502 -0.11952571852E+03 -0.34729800378E+01  0.67622696254E+03  0.70817396439E+03  0.17300000000E+03 0.  1.
<mgrwt>
<rscale>  2 0.21030325E+03</rscale>
<asrwt>0</asrwt>
<pdfrwt beam="1">  1       21 0.14127537E+00 0.21030325E+03</pdfrwt>
<pdfrwt beam="2">  1       21 0.99812794E-02 0.21030325E+03</pdfrwt>
<totfact> 0.28149470E+04</totfact>
</mgrwt>
</event>
<event>
 4    1  0.3876841E+000  0.1897702E+03  0.7546771E-02  0.1158669E+00
         21   -1    0    0  503  502  0.00000000000E+00  0.00000000000E+00  0.20492133029E+03  0.20492133029E+03  0.00000000000E+00 0. -1.
         21   -1    0    0  501  503 -0.00000000000E+00 -0.00000000000E+00 -0.37441750806E+03  0.37441750806E+03  0.00000000000E+00 0. -1.
          6    1    1    2  501    0  0.77410924664E+02  0.95548884270E+01 -0.29575642165E+03  0.35140376791E+03  0.17300000000E+03 0. -1.
         -6    1    1    2    0  502 -0.77410924664E+02 -0.95548884270E+01  0.12626024389E+03  0.22793507044E+03  0.17300000000E+03 0. -1.
<mgrwt>
<rscale>  2 0.18977025E+03</rscale>
<asrwt>0</asrwt>
<pdfrwt beam="1">  1       21 0.31526359E-01 0.18977025E+03</pdfrwt>
<pdfrwt beam="2">  1       21 0.57602693E-01 0.18977025E+03</pdfrwt>
<totfact> 0.27388804E+04</totfact>
</mgrwt>
</event>
<event>
 4    1  0.3876841E+000  0.1735793E+03  0.7546771E-02  0.1174166E+00
         21   -1    0    0  501  502  0.00000000000E+00  0.00000000000E+00  0.64399717361E+03  0.64399717361E+03  0.00000000000E+00 0.  1.
         21   -1    0    0  502  503 -0.00000000000E+00 -0.00000000000E+00 -0.13439697105E+04  0.13439697105E+04  0.00000000000E+00 0.  1.
          6    1    1    2  501    0  0.12158626932E+02 -0.72758005064E+01  0.62654291345E+03  0.65014290111E+03  0.17300000000E+03 0.  1.
         -6    1    1    2    0  503 -0.12158626932E+02  0.72758005064E+01 -0.13265154504E+04  0.13378239830E+04  0.17300000000E+03 0.  1.
<mgrwt>
<rscale>  2 0.17357929E+03</rscale>
<asrwt>0</asrwt>
<pdfrwt beam="1">  1       21 0.99076490E-01 0.17357929E+03</pdfrwt>
<pdfrwt beam="2">  1       21 0.20676457E+00 0.17357929E+03</pdfrwt>
<totfact> 0.10507174E+02</totfact>
</mgrwt>
</event>
<event>
 4    1  0.3876841E+000  0.2317035E+03  0.7546771E-02  0.1125446E+00
         21   -1    0    0  503  502  0.00000000000E+00  0.00000000000E+00  0.24715032720E+04  0.24715032720E+04  0.00000000000E+00 0. -1.
         21   -1    0    0  501  503 -0.00000000000E+00 -0.00000000000E+00 -0.40767437797E+02  0.40767437797E+02  0.00000000000E+00 0. -1.
          6    1    1    2  501    0 -0.11635932661E+03  0.10108418912E+03  0.35680357306E+03  0.42543541922E+03  0.17300000000E+03 0. -1.
         -6    1    1    2    0  502  0.11635932661E+03 -0.10108418912E+03  0.20739322612E+04  0.20868352906E+04  0.17300000000E+03 0. -1.
<mgrwt>
<rscale>  2 0.23170349E+03</rscale>
<asrwt>0</asrwt>
<pdfrwt beam="1">  1       21 0.38023116E+00 0.23170349E+03</pdfrwt>
<pdfrwt beam="2">  1       21 0.62719154E-02 0.23170349E+03</pdfrwt>
<totfact> 0.20006087E+03</totfact>
</mgrwt>
</event>
<event>
 4    1  0.3876841E+000  0.1893837E+03  0.7546771E-02  0.1159018E+00
         21   -1    0    0  503  502  0.00000000000E+00  0.00000000000E+00  0.21930637129E+02  0.21930637129E+02  0.00000000000E+00 0.  1.
         21   -1    0    0  501  503 -0.00000000000E+00 -0.00000000000E+00 -0.21240014619E+04  0.21240014619E+04  0.00000000000E+00 0.  1.
          6    1    1    2  501    0  0.61972989769E+02 -0.45787957203E+02 -0.15656347774E+04  0.15770473819E+04  0.17300000000E+03 0.  1.
         -6    1    1    2    0  502 -0.61972989769E+02  0.45787957203E+02 -0.53643604732E+03  0.56888471710E+03  0.17300000000E+03 0.  1.
<mgrwt>
<rscale>  2 0.18938371E+03</rscale>
<asrwt>0</asrwt>
<pdfrwt beam="1">  1       21 0.33739434E-02 0.18938371E+03</pdfrwt>
<pdfrwt beam="2">  1       21 0.32676953E+00 0.18938371E+03</pdfrwt>
<totfact> 0.12496219E+04</totfact>
</mgrwt>
</event>
<event>
 4    1  0.3876841E+000  0.1924883E+03  0.7546771E-02  0.1156236E+00
         21   -1    0    0  503  502  0.00000000000E+00  0.00000000000E+00  0.31908659661E+03  0.31908659661E+03  0.00000000000E+00 0. -1.
         21   -1    0    0  501  503 -0.00000000000E+00 -0.00000000000E+00 -0.12411922708E+03  0.12411922708E+03  0.00000000000E+00 0. -1.
          6    1    1    2  501    0 -0.49564343269E+02 -0.68309122084E+02  0.15374746178E+03  0.24635349051E+03  0.17300000000E+03 0. -1.
         -6    1    1    2    0  502  0.49564343269E+02  0.68309122084E+02  0.41219907749E+02  0.19685233318E+03  0.17300000000E+03 0. -1.
<mgrwt>
<rscale>  2 0.19248834E+03</rscale>
<asrwt>0</asrwt>
<pdfrwt beam="1">  1       21 0.49090245E-01 0.19248834E+03</pdfrwt>
<pdfrwt beam="2">  1       21 0.19095266E-01 0.19248834E+03</pdfrwt>
<totfact> 0.99631932E+04</totfact>
</mgrwt>
</event>
<event>
 4    1  0.3876841E+000  0.4484054E+03  0.7546771E-02  0.1028199E+00
         21   -1    0    0  503  502  0.00000000000E+00  0.00000000000E+00  0.79061784127E+03  0.79061784127E+03  0.00000000000E+00 0.  1.
         21   -1    0    0  501  503 -0.00000000000E+00 -0.00000000000E+00 -0.15121581905E+04  0.15121581905E+04  0.00000000000E+00 0. -1.
          6    1    1    2  501    0  0.41289977491E+03 -0.25537274860E+02 -0.14108831809E+04  0.14804251845E+04  0.17300000000E+03 0. -1.
         -6    1    1    2    0  502 -0.41289977491E+03  0.25537274860E+02  0.68934283168E+03  0.82235084734E+03  0.17300000000E+03 0.  1.
<mgrwt>
<rscale>  2 0.44840537E+03</rscale>
<asrwt>0</asrwt>
<pdfrwt beam="1">  1       21 0.12163351E+00 0.44840537E+03</pdfrwt>
<pdfrwt beam="2">  1       21 0.23263972E+00 0.44840537E+03</pdfrwt>
<totfact> 0.33144203E+01</totfact>
</mgrwt>
</event>
<event>
 4    1  0.3876841E+000  0.2131152E+03  0.7546771E-02  0.1139123E+00
         21   -1    0    0  503  502  0.00000000000E+00  0.00000000000E+00  0.80038220563E+02  0.80038220563E+02  0.00000000000E+00 0. -1.
         21   -1    0    0  501  503 -0.00000000000E+00 -0.00000000000E+00 -0.59380685012E+03  0.59380685012E+03  0.00000000000E+00 0. -1.
          6    1    1    2  501    0 -0.72417644038E+02 -0.10121643032E+03 -0.32786068543E+03  0.39103799046E+03  0.17300000000E+03 0. -1.
         -6    1    1    2    0  502  0.72417644038E+02  0.10121643032E+03 -0.18590794413E+03  0.28280708022E+03  0.17300000000E+03 0. -1.
<mgrwt>
<rscale>  2 0.21311518E+03</rscale>
<asrwt>0</asrwt>
<pdfrwt beam="1">  1       21 0.12313572E-01 0.21311518E+03</pdfrwt>
<pdfrwt beam="2">  1       21 0.91354900E-01 0.21311518E+03</pdfrwt>
<totfact> 0.56301263E+04</totfact>
</mgrwt>
</event>
<event>
 4    1  0.3876841E+000  0.2534588E+03  0.7546771E-02  0.1111138E+00
         21   -1    0    0  503  502  0.00000000000E+00  0.00000000000E+00  0.15155645585E+03  0.15155645585E+03  0.00000000000E+00 0.  1.
         21   -1    0    0  501  503 -0.00000000000E+00 -0.00000000000E+00 -0.57043902426E+03  0.57043902426E+03  0.00000000000E+00 0. -1.
          6    1    1    2  501    0  0.17997267041E+03 -0.43842682560E+02 -0.39242402826E+03  0.46715945978E+03  0.17300000000E+03 0. -1.
         -6    1    1    2    0  502 -0.17997267041E+03  0.43842682560E+02 -0.26458540155E+02  0.25483602033E+03  0.17300000000E+03 0.  1.
<mgrwt>
<rscale>  2 0.25345876E+03</rscale>
<asrwt>0</asrwt>
<pdfrwt beam="1">  1       21 0.23316378E-01 0.25345876E+03</pdfrwt>
<pdfrwt beam="2">  1       21 0.87759849E-01 0.25345876E+03</pdfrwt>
<totfact> 0.18613883E+04</totfact>
</mgrwt>
</event>
<event>
 4    1  0.3876841E+000  0.2288366E+03  0.7546771E-02  0.1127461E+00
         21   -1    0    0  501  502  0.00000000000E+00  0.00000000000E+00  0.61911339234E+03  0.61911339234E+03  0.00000000000E+00 0. -1.
         21   -1    0    0  502  503 -0.00000000000E+00 -0.00000000000E+00 -0.26382142547E+03  0.26382142547E+03  0.00000000000E+00 0. -1.
          6    1    1    2  501    0 -0.50415014918E+02 -0.14105152883E+03  0.54152724036E+03  0.58789281299E+03  0.17300000000E+03 0. -1.
         -6    1    1    2    0  503  0.50415014918E+02  0.14105152883E+03 -0.18623527349E+03  0.29504200482E+03  0.17300000000E+03 0. -1.
<mgrwt>
<rscale>  2 0.22883664E+03</rscale>
<asrwt>0</asrwt>
<pdfrwt beam="1">  1       21 0.95248214E-01 0.22883664E+03</pdfrwt>
<pdfrwt beam="2">  1       21 0.40587912E-01 0.22883664E+03</pdfrwt>
<totfact> 0.52420430E+03</totfact>
</mgrwt>
</event>
<event>
 4    1  0.3876841E+000  0.1984800E+03  0.7546771E-02  0.1151028E+00
         21   -1    0    0  501  502  0.00000000000E+00  0.00000000000E+00  0.41165681106E+03  0.41165681106E+03  0.00000000000E+00 0.  1.
         21   -1    0    0  502  503 -0.00000000000E+00 -0.00000000000E+00 -0.11928856804E+03  0.11928856804E+03  0.00000000000E+00 0.  1.
          6    1    1    2  501    0 -0.95207838618E+02  0.20019519262E+02  0.26424310063E+03  0.33048257128E+03  0.17300000000E+03 0.  1.
         -6    1    1    2    0  503  0.95207838618E+02 -0.20019519262E+02  0.28125142378E+02  0.20046280782E+03  0.17300000000E+03 0.  1.
<mgrwt>
<rscale>  2 0.19848001E+03</rscale>
<asrwt>0</asrwt>
<pdfrwt beam="1">  1       21 0.63331816E-01 0.19848001E+03</pdfrwt>
<pdfrwt beam="2">  1       21 0.18352088E-01 0.19848001E+03</pdfrwt>
<totfact> 0.62296242E+04</totfact>
</mgrwt>
</event>
<event>
 4    1  0.3876841E+000  0.1800987E+03  0.7546771E-02  0.1167708E+00
         21   -1    0    0  501  502  0.00000000000E+00  0.00000000000E+00  0.10955371901E+02  0.10955371901E+02  0.00000000000E+00 0.  1.
         21   -1    0    0  502  503 -0.00000000000E+00 -0.00000000000E+00 -0.29613813462E+04  0.29613813462E+04  0.00000000000E+00 0.  1.
          6    1    1    2  501    0  0.42716761669E+02  0.26111347959E+02 -0.14526019446E+04  0.14637239950E+04  0.17300000000E+03 0. -1.
         -6    1    1    2    0  503 -0.42716761669E+02 -0.26111347959E+02 -0.14978240298E+04  0.15086127231E+04  0.17300000000E+03 0. -1.
<mgrwt>
<rscale>  2 0.18009865E+03</rscale>
<asrwt>0</asrwt>
<pdfrwt beam="1">  1       21 0.16854373E-02 0.18009865E+03</pdfrwt>
<pdfrwt beam="2">  1       21 0.45559836E+00 0.18009865E+03</pdfrwt>
<totfact> 0.63199126E+03</totfact>
</mgrwt>
</event>
<event>
 4    1  0.3876841E+000  0.1931960E+03  0.7546771E-02  0.1155610E+00
         21   -1    0    0  503  502  0.00000000000E+00  0.00000000000E+00  0.84749638584E+02  0.84749638584E+02  0.00000000000E+00 0.  1.
         21   -1    0    0  501  503 -0.00000000000E+00 -0.00000000000E+00 -0.47540305798E+03  0.47540305798E+03  0.00000000000E+00 0.  1.
          6    1    1    2  501    0 -0.56973711042E+02 -0.64418063378E+02 -0.27131189147E+03  0.33306881134E+03  0.17300000000E+03 0.  1.
         -6    1    1    2    0  502  0.56973711042E+02  0.64418063378E+02 -0.11934152793E+03  0.22708388522E+03  0.17300000000E+03 0.  1.
<mgrwt>
<rscale>  2 0.19319599E+03</rscale>
<asrwt>0</asrwt>
<pdfrwt beam="1">  1       21 0.13038406E-01 0.19319599E+03</pdfrwt>
<pdfrwt beam="2">  1       21 0.73138930E-01 0.19319599E+03</pdfrwt>
<totfact> 0.85003299E+04</totfact>
</mgrwt>
</event>
<event>
 4    1  0.3876841E+000  0.2491075E+03  0.7546771E-02  0.1113870E+00
         21   -1    0    0  503  502  0.00000000000E+00  0.00000000000E+00  0.13662934784E+04  0.13662934784E+04  0.00000000000E+00 0.  1.
         21   -1    0    0  501  503 -0.00000000000E+00 -0.00000000000E+00 -0.64769504405E+02  0.64769504405E+02  0.00000000000E+00 0.  1.
          6    1    1    2  501    0  0.75749893150E+02 -0.16244232585E+03  0.25965202822E+03  0.35982458407E+03  0.17300000000E+03 0.  1.
         -6    1    1    2    0  502 -0.75749893150E+02  0.16244232585E+03  0.10418719458E+04  0.10712383988E+04  0.17300000000E+03 0.  1.
<mgrwt>
<rscale>  2 0.24910752E+03</rscale>
<asrwt>0</asrwt>
<pdfrwt beam="1">  1       21 0.21019898E+00 0.24910752E+03</pdfrwt>
<pdfrwt beam="2">  1       21 0.99645402E-02 0.24910752E+03</pdfrwt>
<totfact> 0.90380863E+03</totfact>
</mgrwt>
</event>
<event>
 4    1  0.3876841E+000  0.1779295E+03  0.7546771E-02  0.1169822E+00
         21   -1    0    0  501  502  0.00000000000E+00  0.00000000000E+00  0.80497628599E+02  0.80497628599E+02  0.00000000000E+00 0.  1.
         21   -1    0    0  502  503 -0.00000000000E+00 -0.00000000000E+00 -0.46304450432E+03  0.46304450432E+03  0.00000000000E+00 0.  1.
          6    1    1    2  501    0  0.35269293533E+02 -0.22045094465E+02 -0.85791500028E+02  0.19753250551E+03  0.17300000000E+03 0.  1.
         -6    1    1    2    0  503 -0.35269293533E+02  0.22045094465E+02 -0.29675537569E+03  0.34600962741E+03  0.17300000000E+03 0.  1.
<mgrwt>
<rscale>  2 0.17792951E+03</rscale>
<asrwt>0</asrwt>
<pdfrwt beam="1">  1       21 0.12384250E-01 0.17792951E+03</pdfrwt>
<pdfrwt beam="2">  1       21 0.71237617E-01 0.17792951E+03</pdfrwt>
<totfact> 0.99433481E+04</totfact>
</mgrwt>
</event>
<event>
 4    1  0.3876841E+000  0.1860816E+03  0.7546771E-02  0.1162044E+00
         21   -1    0    0  501  502  0.00000000000E+00  0.00000000000E+00  0.15509252515E+03  0.15509252515E+03  0.00000000000E+00 0. -1.
         21   -1    0    0  502  503 -0.00000000000E+00 -0.00000000000E+00 -0.22357716681E+03  0.22357716681E+03  0.00000000000E+00 0. -1.
          6    1    1    2  501    0  0.49992901976E+02 -0.46883670543E+02 -0.27141053543E+02  0.18805054001E+03  0.17300000000E+03 0. -1.
         -6    1    1    2    0  503 -0.49992901976E+02  0.46883670543E+02 -0.41343588122E+02  0.19061915195E+03  0.17300000000E+03 0. -1.
<mgrwt>
<rscale>  2 0.18608162E+03</rscale>
<asrwt>0</asrwt>
<pdfrwt beam="1">  1       21 0.23860388E-01 0.18608162E+03</pdfrwt>
<pdfrwt beam="2">  1       21 0.34396487E-01 0.18608162E+03</pdfrwt>
<totfact> 0.13513986E+05</totfact>
</mgrwt>
</event>
<event>
 4    1  0.3876841E+000  0.2296896E+03  0.7546771E-02  0.1126858E+00
         21   -1    0    0  501  502  0.00000000000E+00  0.00000000000E+00  0.71940240909E+03  0.71940240909E+03  0.00000000000E+00 0. -1.
         21   -1    0    0  502  503 -0.00000000000E+00 -0.00000000000E+00 -0.42543889268E+03  0.42543889268E+03  0.00000000000E+00 0. -1.
          6    1    1    2  501    0  0.27801762192E+02  0.14851055366E+03  0.66773520974E+03  0.70613570428E+03  0.17300000000E+03 0. -1.
         -6    1    1    2    0  503 -0.27801762192E+02 -0.14851055366E+03 -0.37377169333E+03  0.43870559749E+03  0.17300000000E+03 0. -1.
<mgrwt>
<rscale>  2 0.22968962E+03</rscale>
<asrwt>0</asrwt>
<pdfrwt beam="1">  1       21 0.11067729E+00 0.22968962E+03</pdfrwt>
<pdfrwt beam="2">  1       21 0.65452138E-01 0.22968962E+03</pdfrwt>
<totfact> 0.13355293E+03</totfact>
</mgrwt>
</event>
<event>
 4    1  0.3876841E+000  0.2699145E+03  0.7546771E-02  0.1101329E+00
         21   -1    0    0  501  502  0.00000000000E+00  0.00000000000E+00  0.11922146205E+03  0.11922146205E+03  0.00000000000E+00 0.  1.
         21   -1    0    0  502  503 -0.00000000000E+00 -0.00000000000E+00 -0.62204615303E+03  0.62204615303E+03  0.00000000000E+00 0.  1.
          6    1    1    2  501    0 -0.19751036879E+03  0.62565879635E+02 -0.20220119395E+03  0.33725236531E+03  0.17300000000E+03 0.  1.
         -6    1    1    2    0  503  0.19751036879E+03 -0.62565879635E+02 -0.30062349704E+03  0.40401524977E+03  0.17300000000E+03 0.  1.
<mgrwt>
<rscale>  2 0.26991450E+03</rscale>
<asrwt>0</asrwt>
<pdfrwt beam="1">  1       21 0.18341764E-01 0.26991450E+03</pdfrwt>
<pdfrwt beam="2">  1       21 0.95699405E-01 0.26991450E+03</pdfrwt>
<totfact> 0.23716036E+04</totfact>
</mgrwt>
</event>
<event>
 4    1  0.3876841E+000  0.2489278E+03  0.7546771E-02  0.1113984E+00
         21   -1    0    0  501  502  0.00000000000E+00  0.00000000000E+00  0.41563361510E+03  0.41563361510E+03  0.00000000000E+00 0. -1.
         21   -1    0    0  502  503 -0.00000000000E+00 -0.00000000000E+00 -0.16054807454E+03  0.16054807454E+03  0.00000000000E+00 0. -1.
          6    1    1    2  501    0  0.15037189563E+03 -0.97079058977E+02  0.50565378743E+02  0.25401163008E+03  0.17300000000E+03 0. -1.
         -6    1    1    2    0  503 -0.15037189563E+03  0.97079058977E+02  0.20452016182E+03  0.32217005956E+03  0.17300000000E+03 0. -1.
<mgrwt>
<rscale>  2 0.24892780E+03</rscale>
<asrwt>0</asrwt>
<pdfrwt beam="1">  1       21 0.63943633E-01 0.24892780E+03</pdfrwt>
<pdfrwt beam="2">  1       21 0.24699704E-01 0.24892780E+03</pdfrwt>
<totfact> 0.34053296E+04</totfact>
</mgrwt>
</event>
<event>
 4    1  0.3876841E+000  0.1816589E+03  0.7546771E-02  0.1166207E+00
         21   -1    0    0  501  502  0.00000000000E+00  0.00000000000E+00  0.12371865292E+03  0.12371865292E+03  0.00000000000E+00 0.  1.
         21   -1    0    0  502  503 -0.00000000000E+00 -0.00000000000E+00 -0.36088886566E+03  0.36088886566E+03  0.00000000000E+00 0. -1.
          6    1    1    2  501    0 -0.51070183339E+02 -0.21512432950E+02  0.51791449693E+01  0.18173269365E+03  0.17300000000E+03 0.  1.
         -6    1    1    2    0  503  0.51070183339E+02  0.21512432950E+02 -0.24234935771E+03  0.30287482494E+03  0.17300000000E+03 0. -1.
<mgrwt>
<rscale>  2 0.18165888E+03</rscale>
<asrwt>0</asrwt>
<pdfrwt beam="1">  1       21 0.19033639E-01 0.18165888E+03</pdfrwt>
<pdfrwt beam="2">  1       21 0.55521363E-01 0.18165888E+03</pdfrwt>
<totfact> 0.77752365E+04</totfact>
</mgrwt>
</event>
<event>
 4    1  0.3876841E+000  0.2611407E+03  0.7546771E-02  0.1106460E+00
         21   -1    0    0  501  502  0.00000000000E+00  0.00000000000E+00  0.90895276028E+02  0.90895276028E+02  0.00000000000E+00 0. -1.
         21   -1    0    0  502  503 -0.00000000000E+00 -0.00000000000E+00 -0.75056827150E+03  0.75056827150E+03  0.00000000000E+00 0.  1.
          6    1    1    2  501    0 -0.64205302319E+02 -0.18477869493E+03 -0.33845435251E+03  0.42748781934E+03  0.17300000000E+03 0.  1.
         -6    1    1    2    0  503  0.64205302319E+02  0.18477869493E+03 -0.32121864296E+03  0.41397572819E+03  0.17300000000E+03 0. -1.
<mgrwt>
<rscale>  2 0.26114074E+03</rscale>
<asrwt>0</asrwt>
<pdfrwt beam="1">  1       21 0.13983889E-01 0.26114074E+03</pdfrwt>
<pdfrwt beam="2">  1       21 0.11547204E+00 0.26114074E+03</pdfrwt>
<totfact> 0.24924183E+04</totfact>
</mgrwt>
</event>
<event>
 4    1  0.3876841E+000  0.1813143E+03  0.7546771E-02  0.1166537E+00
         21   -1    0    0  501  502  0.00000000000E+00  0.00000000000E+00  0.99216071835E+03  0.99216071835E+03  0.00000000000E+00 0.  1.
         21   -1    0    0  502  503 -0.00000000000E+00 -0.00000000000E+00 -0.33651438858E+02  0.33651438858E+02  0.00000000000E+00 0.  1.
          6    1    1    2  501    0 -0.48756364826E+02 -0.23847071659E+02  0.54281791067E+03  0.57229900409E+03  0.17300000000E+03 0.  1.
         -6    1    1    2    0  503  0.48756364826E+02  0.23847071659E+02  0.41569136882E+03  0.45351315311E+03  0.17300000000E+03 0.  1.
<mgrwt>
<rscale>  2 0.18131427E+03</rscale>
<asrwt>0</asrwt>
<pdfrwt beam="1">  1       21 0.15264009E+00 0.18131427E+03</pdfrwt>
<pdfrwt beam="2">  1       21 0.51771452E-02 0.18131427E+03</pdfrwt>
<totfact> 0.72806368E+04</totfact>
</mgrwt>
</event>
<event>
 4    1  0.3876841E+000  0.2936841E+03  0.7546771E-02  0.1088441E+00
         21   -1    0    0  503  502  0.00000000000E+00  0.00000000000E+00  0.10418489104E+04  0.10418489104E+04  0.00000000000E+00 0. -1.
         21   -1    0    0  501  503 -0.00000000000E+00 -0.00000000000E+00 -0.85734043296E+02  0.85734043296E+02  0.00000000000E+00 0.  1.
          6    1    1    2  501    0 -0.93811277117E+02 -0.21799263117E+03  0.37350836693E+03  0.47514086662E+03  0.17300000000E+03 0.  1.
         -6    1    1    2    0  502  0.93811277117E+02  0.21799263117E+03  0.58260650020E+03  0.65244208711E+03  0.17300000000E+03 0. -1.
<mgrwt>
<rscale>  2 0.29368409E+03</rscale>
<asrwt>0</asrwt>
<pdfrwt beam="1">  1       21 0.16028444E+00 0.29368409E+03</pdfrwt>
<pdfrwt beam="2">  1       21 0.13189854E-01 0.29368409E+03</pdfrwt>
<totfact> 0.11648447E+04</totfact>
</mgrwt>
</event>
<event>
 4    1  0.3876841E+000  0.2392460E+03  0.7546771E-02  0.1120296E+00
         21   -1    0    0  501  502  0.00000000000E+00  0.00000000000E+00  0.26069517361E+04  0.26069517361E+04  0.00000000000E+00 0.  1.
         21   -1    0    0  502  503 -0.00000000000E+00 -0.00000000000E+00 -0.37118786138E+02  0.37118786138E+02  0.00000000000E+00 0.  1.
          6    1    1    2  501    0  0.38582193941E+02  0.16068935470E+03  0.21298710116E+04  0.21432660079E+04  0.17300000000E+03 0.  1.
         -6    1    1    2    0  503 -0.38582193941E+02 -0.16068935470E+03  0.43996193828E+03  0.50080451429E+03  0.17300000000E+03 0.  1.
<mgrwt>
<rscale>  2 0.23924601E+03</rscale>
<asrwt>0</asrwt>
<pdfrwt beam="1">  1       21 0.40106935E+00 0.23924601E+03</pdfrwt>
<pdfrwt beam="2">  1       21 0.57105845E-02 0.23924601E+03</pdfrwt>
<totfact> 0.17299078E+03</totfact>
</mgrwt>
</event>
<event>
 4    1  0.3876841E+000  0.4798898E+03  0.7546771E-02  0.1019165E+00
         21   -1    0    0  503  502  0.00000000000E+00  0.00000000000E+00  0.21514432160E+03  0.21514432160E+03  0.00000000000E+00 0.  1.
         21   -1    0    0  501  503 -0.00000000000E+00 -0.00000000000E+00 -0.11150639522E+04  0.11150639522E+04  0.00000000000E+00 0. -1.
          6    1    1    2  501    0  0.32575550933E+03 -0.30699928708E+03 -0.58304630744E+03  0.75514052384E+03  0.17300000000E+03 0. -1.
         -6    1    1    2    0  502 -0.32575550933E+03  0.30699928708E+03 -0.31687332317E+03  0.57506774998E+03  0.17300000000E+03 0.  1.
<mgrwt>
<rscale>  2 0.47988979E+03</rscale>
<asrwt>0</asrwt>
<pdfrwt beam="1">  1       21 0.33099127E-01 0.47988979E+03</pdfrwt>
<pdfrwt beam="2">  1       21 0.17154830E+00 0.47988979E+03</pdfrwt>
<totfact> 0.15319403E+03</totfact>
</mgrwt>
</event>
<event>
 4    1  0.3876841E+000  0.2382109E+03  0.7546771E-02  0.1120990E+00
         21   -1    0    0  501  502  0.00000000000E+00  0.00000000000E+00  0.16111861294E+04  0.16111861294E+04  0.00000000000E+00 0. -1.
         21   -1    0    0  502  503 -0.00000000000E+00 -0.00000000000E+00 -0.62064093088E+02  0.62064093088E+02  0.00000000000E+00 0. -1.
          6    1    1    2  501    0  0.11629167224E+03 -0.11528952490E+03  0.13247891972E+04  0.13460352315E+04  0.17300000000E+03 0. -1.
         -6    1    1    2    0  503 -0.11629167224E+03  0.11528952490E+03  0.22433283913E+03  0.32721499094E+03  0.17300000000E+03 0. -1.
<mgrwt>
<rscale>  2 0.23821089E+03</rscale>
<asrwt>0</asrwt>
<pdfrwt beam="1">  1       21 0.24787476E+00 0.23821089E+03</pdfrwt>
<pdfrwt beam="2">  1       21 0.95483232E-02 0.23821089E+03</pdfrwt>
<totfact> 0.57752756E+03</totfact>
</mgrwt>
</event>
<event>
 4    1  0.3876841E+000  0.1959561E+03  0.7546771E-02  0.1153196E+00
         21   -1    0    0  501  502  0.00000000000E+00  0.00000000000E+00  0.34365511893E+03  0.34365511893E+03  0.00000000000E+00 0.  1.
         21   -1    0    0  502  503 -0.00000000000E+00 -0.00000000000E+00 -0.11949880329E+03  0.11949880329E+03  0.00000000000E+00 0.  1.
          6    1    1    2  501    0  0.70419697855E+02 -0.59252591414E+02  0.17109965755E+03  0.26014206936E+03  0.17300000000E+03 0.  1.
         -6    1    1    2    0  503 -0.70419697855E+02  0.59252591414E+02  0.53056658082E+02  0.20301185286E+03  0.17300000000E+03 0.  1.
<mgrwt>
<rscale>  2 0.19595613E+03</rscale>
<asrwt>0</asrwt>
<pdfrwt beam="1">  1       21 0.52870018E-01 0.19595613E+03</pdfrwt>
<pdfrwt beam="2">  1       21 0.18384431E-01 0.19595613E+03</pdfrwt>
<totfact> 0.91407640E+04</totfact>
</mgrwt>
</event>
<event>
 4    1  0.3876841E+000  0.1751606E+03  0.7546771E-02  0.1172571E+00
         21   -1    0    0  503  502  0.00000000000E+00  0.00000000000E+00  0.27969309371E+02  0.27969309371E+02  0.00000000000E+00 0.  1.
         21   -1    0    0  501  503 -0.00000000000E+00 -0.00000000000E+00 -0.24090041312E+04  0.24090041312E+04  0.00000000000E+00 0.  1.
          6    1    1    2  501    0  0.25682182560E+02  0.96254039552E+01 -0.20897586068E+04  0.20970866118E+04  0.17300000000E+03 0.  1.
         -6    1    1    2    0  502 -0.25682182560E+02 -0.96254039552E+01 -0.29127621509E+03  0.33988682878E+03  0.17300000000E+03 0.  1.
<mgrwt>
<rscale>  2 0.17516056E+03</rscale>
<asrwt>0</asrwt>
<pdfrwt beam="1">  1       21 0.43029714E-02 0.17516056E+03</pdfrwt>
<pdfrwt beam="2">  1       21 0.37061596E+00 0.17516056E+03</pdfrwt>
<totfact> 0.46806437E+03</totfact>
</mgrwt>
</event>
<event>
 4    1  0.3876841E+000  0.1804888E+03  0.7546771E-02  0.1167331E+00
         21   -1    0    0  503  502  0.00000000000E+00  0.00000000000E+00  0.54311440801E+03  0.54311440801E+03  0.00000000000E+00 0.  1.
         21   -1    0    0  501  503 -0.00000000000E+00 -0.00000000000E+00 -0.10012389858E+03  0.10012389858E+03  0.00000000000E+00 0. -1.
          6    1    1    2  501    0  0.10095917660E+02  0.50450764130E+02  0.17846968119E+02  0.18136902003E+03  0.17300000000E+03 0. -1.
         -6    1    1    2    0  502 -0.10095917660E+02 -0.50450764130E+02  0.42514354131E+03  0.46186928657E+03  0.17300000000E+03 0.  1.
<mgrwt>
<rscale>  2 0.18048880E+03</rscale>
<asrwt>0</asrwt>
<pdfrwt beam="1">  1       21 0.83556061E-01 0.18048880E+03</pdfrwt>
<pdfrwt beam="2">  1       21 0.15403677E-01 0.18048880E+03</pdfrwt>
<totfact> 0.46852279E+04</totfact>
</mgrwt>
</event>
<event>
 4    1  0.3876841E+000  0.1780138E+03  0.7546771E-02  0.1169739E+00
         21   -1    0    0  503  502  0.00000000000E+00  0.00000000000E+00  0.79037785263E+03  0.79037785263E+03  0.00000000000E+00 0.  1.
         21   -1    0    0  501  503 -0.00000000000E+00 -0.00000000000E+00 -0.41961120373E+02  0.41961120373E+02  0.00000000000E+00 0.  1.
          6    1    1    2  501    0  0.39044638051E+02  0.15343192469E+02  0.46201113801E+03  0.49511936839E+03  0.17300000000E+03 0.  1.
         -6    1    1    2    0  502 -0.39044638051E+02 -0.15343192469E+02  0.28640559425E+03  0.33721960461E+03  0.17300000000E+03 0.  1.
<mgrwt>
<rscale>  2 0.17801376E+03</rscale>
<asrwt>0</asrwt>
<pdfrwt beam="1">  1       21 0.12159658E+00 0.17801376E+03</pdfrwt>
<pdfrwt beam="2">  1       21 0.64555576E-02 0.17801376E+03</pdfrwt>
<totfact> 0.89465628E+04</totfact>
</mgrwt>
</event>
<event>
 4    1  0.3876841E+000  0.2497664E+03  0.7546771E-02  0.1113453E+00
         21   -1    0    0  501  502  0.00000000000E+00  0.00000000000E+00  0.84390200492E+03  0.84390200492E+03  0.00000000000E+00 0. -1.
         21   -1    0    0  502  503 -0.00000000000E+00 -0.00000000000E+00 -0.18537551284E+03  0.18537551284E+03  0.00000000000E+00 0.  1.
          6    1    1    2  501    0  0.36073105456E+02 -0.17650203009E+03  0.72830879379E+03  0.76994605959E+03  0.17300000000E+03 0. -1.
         -6    1    1    2    0  503 -0.36073105456E+02  0.17650203009E+03 -0.69782301716E+02  0.25933145817E+03  0.17300000000E+03 0.  1.
<mgrwt>
<rscale>  2 0.24976636E+03</rscale>
<asrwt>0</asrwt>
<pdfrwt beam="1">  1       21 0.12983108E+00 0.24976636E+03</pdfrwt>
<pdfrwt beam="2">  1       21 0.28519310E-01 0.24976636E+03</pdfrwt>
<totfact> 0.48884209E+03</totfact>
</mgrwt>
</event>
<event>
 4    1  0.3876841E+000  0.1762974E+03  0.7546771E-02  0.1171435E+00
         21   -1    0    0  501  502  0.00000000000E+00  0.00000000000E+00  0.51011378587E+03  0.51011378587E+03  0.00000000000E+00 0. -1.
         21   -1    0    0  502  503 -0.00000000000E+00 -0.00000000000E+00 -0.66626706627E+02  0.66626706627E+02  0.00000000000E+00 0. -1.
          6    1    1    2  501    0 -0.12616324250E+02 -0.31505677004E+02  0.30607159753E+03  0.35321466863E+03  0.17300000000E+03 0. -1.
         -6    1    1    2    0  503  0.12616324250E+02  0.31505677004E+02  0.13741548172E+03  0.22352582387E+03  0.17300000000E+03 0. -1.
<mgrwt>
<rscale>  2 0.17629742E+03</rscale>
<asrwt>0</asrwt>
<pdfrwt beam="1">  1       21 0.78479041E-01 0.17629742E+03</pdfrwt>
<pdfrwt beam="2">  1       21 0.10250263E-01 0.17629742E+03</pdfrwt>
<totfact> 0.11225587E+05</totfact>
</mgrwt>
</event>
<event>
 4    1  0.3876841E+000  0.2749217E+03  0.7546771E-02  0.1098495E+00
         21   -1    0    0  501  502  0.00000000000E+00  0.00000000000E+00  0.52790179720E+02  0.52790179720E+02  0.00000000000E+00 0. -1.
         21   -1    0    0  502  503 -0.00000000000E+00 -0.00000000000E+00 -0.23855417944E+04  0.23855417944E+04  0.00000000000E+00 0.  1.
          6    1    1    2  501    0 -0.21908331443E+02  0.21253926989E+03 -0.19372756212E+04  0.19566856540E+04  0.17300000000E+03 0.  1.
         -6    1    1    2    0  503  0.21908331443E+02 -0.21253926989E+03 -0.39547599352E+03  0.48164632012E+03  0.17300000000E+03 0. -1.
<mgrwt>
<rscale>  2 0.27492165E+03</rscale>
<asrwt>0</asrwt>
<pdfrwt beam="1">  1       21 0.81215666E-02 0.27492165E+03</pdfrwt>
<pdfrwt beam="2">  1       21 0.36700641E+00 0.27492165E+03</pdfrwt>
<totfact> 0.14669470E+03</totfact>
</mgrwt>
</event>
<event>
 4    1  0.3876841E+000  0.1984909E+03  0.7546771E-02  0.1151018E+00
         21   -1    0    0  503  502  0.00000000000E+00  0.00000000000E+00  0.64194092172E+03  0.64194092172E+03  0.00000000000E+00 0. -1.
         21   -1    0    0  501  503 -0.00000000000E+00 -0.00000000000E+00 -0.90851880016E+02  0.90851880016E+02  0.00000000000E+00 0.  1.
          6    1    1    2  501    0  0.94570542977E+02  0.22936167101E+02  0.66840711963E+02  0.20944291856E+03  0.17300000000E+03 0.  1.
         -6    1    1    2    0  502 -0.94570542977E+02 -0.22936167101E+02  0.48424832974E+03  0.52334988318E+03  0.17300000000E+03 0. -1.
<mgrwt>
<rscale>  2 0.19849095E+03</rscale>
<asrwt>0</asrwt>
<pdfrwt beam="1">  1       21 0.98760139E-01 0.19849095E+03</pdfrwt>
<pdfrwt beam="2">  1       21 0.13977213E-01 0.19849095E+03</pdfrwt>
<totfact> 0.37587759E+04</totfact>
</mgrwt>
</event>
<event>
 4    1  0.3876841E+000  0.2237742E+03  0.7546771E-02  0.1131100E+00
         21   -1    0    0  501  502  0.00000000000E+00  0.00000000000E+00  0.52937155151E+03  0.52937155151E+03  0.00000000000E+00 0.  1.
         21   -1    0    0  502  503 -0.00000000000E+00 -0.00000000000E+00 -0.16377805578E+03  0.16377805578E+03  0.00000000000E+00 0. -1.
          6    1    1    2  501    0 -0.60746533905E+02  0.12827992044E+03  0.40805207125E+03  0.46538303818E+03  0.17300000000E+03 0.  1.
         -6    1    1    2    0  503  0.60746533905E+02 -0.12827992044E+03 -0.42458575524E+02  0.22776656911E+03  0.17300000000E+03 0. -1.
<mgrwt>
<rscale>  2 0.22377417E+03</rscale>
<asrwt>0</asrwt>
<pdfrwt beam="1">  1       21 0.81441776E-01 0.22377417E+03</pdfrwt>
<pdfrwt beam="2">  1       21 0.25196624E-01 0.22377417E+03</pdfrwt>
<totfact> 0.19350646E+04</totfact>
</mgrwt>
</event>
<event>
 4    1  0.3876841E+000  0.2622312E+03  0.7546771E-02  0.1105810E+00
         21   -1    0    0  501  502  0.00000000000E+00  0.00000000000E+00  0.59923914116E+02  0.59923914116E+02  0.00000000000E+00 0. -1.
         21   -1    0    0  502  503 -0.00000000000E+00 -0.00000000000E+00 -0.11760208756E+04  0.11760208756E+04  0.00000000000E+00 0. -1.
          6    1    1    2  501    0 -0.16477230173E+03 -0.10810317621E+03 -0.46188216108E+03  0.53113118798E+03  0.17300000000E+03 0. -1.
         -6    1    1    2    0  503  0.16477230173E+03  0.10810317621E+03 -0.65421480043E+03  0.70481360176E+03  0.17300000000E+03 0. -1.
<mgrwt>
<rscale>  2 0.26223121E+03</rscale>
<asrwt>0</asrwt>
<pdfrwt beam="1">  1       21 0.92190635E-02 0.26223121E+03</pdfrwt>
<pdfrwt beam="2">  1       21 0.18092629E+00 0.26223121E+03</pdfrwt>
<totfact> 0.16040786E+04</totfact>
</mgrwt>
</event>
<event>
 4    1  0.3876841E+000  0.1819293E+03  0.7546771E-02  0.1165949E+00
         21   -1    0    0  503  502  0.00000000000E+00  0.00000000000E+00  0.82334458790E+02  0.82334458790E+02  0.00000000000E+00 0.  1.
         21   -1    0    0  501  503 -0.00000000000E+00 -0.00000000000E+00 -0.96098970222E+03  0.96098970222E+03  0.00000000000E+00 0.  1.
          6    1    1    2  501    0  0.11571353597E+02  0.55094216630E+02 -0.83718981427E+03  0.85672927698E+03  0.17300000000E+03 0.  1.
         -6    1    1    2    0  502 -0.11571353597E+02 -0.55094216630E+02 -0.41465429169E+02  0.18659488403E+03  0.17300000000E+03 0.  1.
<mgrwt>
<rscale>  2 0.18192930E+03</rscale>
<asrwt>0</asrwt>
<pdfrwt beam="1">  1       21 0.12666840E-01 0.18192930E+03</pdfrwt>
<pdfrwt beam="2">  1       21 0.14784457E+00 0.18192930E+03</pdfrwt>
<totfact> 0.16660307E+04</totfact>
</mgrwt>
</event>
<event>
 4    1  0.3876841E+000  0.2252199E+03  0.7546771E-02  0.1130050E+00
         21   -1    0    0  503  502  0.00000000000E+00  0.00000000000E+00  0.83643035338E+02  0.83643035338E+02  0.00000000000E+00 0.  1.
         21   -1    0    0  501  503 -0.00000000000E+00 -0.00000000000E+00 -0.60954899871E+03  0.60954899871E+03  0.00000000000E+00 0. -1.
          6    1    1    2  501    0  0.13038699243E+03 -0.61597251748E+02 -0.28772953661E+03  0.36539331611E+03  0.17300000000E+03 0.  1.
         -6    1    1    2    0  502 -0.13038699243E+03  0.61597251748E+02 -0.23817642676E+03  0.32779871794E+03  0.17300000000E+03 0. -1.
<mgrwt>
<rscale>  2 0.22521987E+03</rscale>
<asrwt>0</asrwt>
<pdfrwt beam="1">  1       21 0.12868159E-01 0.22521987E+03</pdfrwt>
<pdfrwt beam="2">  1       21 0.93776771E-01 0.22521987E+03</pdfrwt>
<totfact> 0.48648692E+04</totfact>
</mgrwt>
</event>
<event>
 4    1  0.3876841E+000  0.2223512E+03  0.7546771E-02  0.1132142E+00
         21   -1    0    0  501  502  0.00000000000E+00  0.00000000000E+00  0.80908070010E+03  0.80908070010E+03  0.00000000000E+00 0.  1.
         21   -1    0    0  502  503 -0.00000000000E+00 -0.00000000000E+00 -0.20591288387E+03  0.20591288387E+03  0.00000000000E+00 0. -1.
          6    1    1    2  501    0 -0.49542285062E+01 -0.13959416354E+03  0.72716803601E+03  0.76040346361E+03  0.17300000000E+03 0.  1.
         -6    1    1    2    0  503  0.49542285062E+01  0.13959416354E+03 -0.12400021979E+03  0.25459012036E+03  0.17300000000E+03 0. -1.
<mgrwt>
<rscale>  2 0.22235124E+03</rscale>
<asrwt>0</asrwt>
<pdfrwt beam="1">  1       21 0.12447395E+00 0.22235124E+03</pdfrwt>
<pdfrwt beam="2">  1       21 0.31678906E-01 0.22235124E+03</pdfrwt>
<totfact> 0.45111826E+03</totfact>
</mgrwt>
</event>
<event>
 4    1  0.3876841E+000  0.2732522E+03  0.7546771E-02  0.1099433E+00
         21   -1    0    0  501  502  0.00000000000E+00  0.00000000000E+00  0.38124443354E+03  0.38124443354E+03  0.00000000000E+00 0. -1.
         21   -1    0    0  502  503 -0.00000000000E+00 -0.00000000000E+00 -0.22916930766E+03  0.22916930766E+03  0.00000000000E+00 0. -1.
          6    1    1    2  501    0 -0.20669376247E+02 -0.21050070437E+03  0.19241351704E+03  0.33420013644E+03  0.17300000000E+03 0. -1.
         -6    1    1    2    0  503  0.20669376247E+02  0.21050070437E+03 -0.40338391169E+02  0.27621360476E+03  0.17300000000E+03 0. -1.
<mgrwt>
<rscale>  2 0.27325221E+03</rscale>
<asrwt>0</asrwt>
<pdfrwt beam="1">  1       21 0.58652990E-01 0.27325221E+03</pdfrwt>
<pdfrwt beam="2">  1       21 0.35256817E-01 0.27325221E+03</pdfrwt>
<totfact> 0.20234952E+04</totfact>
</mgrwt>
</event>
<event>
 4    1  0.3876841E+000  0.1733119E+03  0.7546771E-02  0.1174437E+00
         21   -1    0    0  503  502  0.00000000000E+00  0.00000000000E+00  0.70375151623E+03  0.70375151623E+03  0.00000000000E+00 0.  1.
         21   -1    0    0  501  503 -0.00000000000E+00 -0.00000000000E+00 -0.95526968294E+02  0.95526968294E+02  0.00000000000E+00 0.  1.
          6    1    1    2  501    0  0.43735847965E+01  0.94282036508E+01  0.68704710338E+01  0.17344804017E+03  0.17300000000E+03 0.  1.
         -6    1    1    2    0  502 -0.43735847965E+01 -0.94282036508E+01  0.60135407691E+03  0.62583044435E+03  0.17300000000E+03 0.  1.
<mgrwt>
<rscale>  2 0.17331191E+03</rscale>
<asrwt>0</asrwt>
<pdfrwt beam="1">  1       21 0.10826946E+00 0.17331191E+03</pdfrwt>
<pdfrwt beam="2">  1       21 0.14696457E-01 0.17331191E+03</pdfrwt>
<totfact> 0.27947885E+04</totfact>
</mgrwt>
</event>
<event>
 4    1  0.3876841E+000  0.1968498E+03  0.7546771E-02  0.1152424E+00
         21   -1    0    0  503  502  0.00000000000E+00  0.00000000000E+00  0.50622254548E+03  0.50622254548E+03  0.00000000000E+00 0.  1.
         21   -1    0    0  501  503 -0.00000000000E+00 -0.00000000000E+00 -0.91246094232E+02  0.91246094232E+02  0.00000000000E+00 0. -1.
          6    1    1    2  501    0 -0.55321637277E+02  0.75897006154E+02  0.87587275379E+02  0.21545619022E+03  0.17300000000E+03 0. -1.
         -6    1    1    2    0  502  0.55321637277E+02 -0.75897006154E+02  0.32738917587E+03  0.38201244950E+03  0.17300000000E+03 0.  1.
<mgrwt>
<rscale>  2 0.19684979E+03</rscale>
<asrwt>0</asrwt>
<pdfrwt beam="1">  1       21 0.77880390E-01 0.19684979E+03</pdfrwt>
<pdfrwt beam="2">  1       21 0.14037861E-01 0.19684979E+03</pdfrwt>
<totfact> 0.64527453E+04</totfact>
</mgrwt>
</event>
<event>
 4    1  0.3876841E+000  0.2049314E+03  0.7546771E-02  0.1145644E+00
         21   -1    0    0  503  502  0.00000000000E+00  0.00000000000E+00  0.17429657622E+03  0.17429657622E+03  0.00000000000E+00 0. -1.
         21   -1    0    0  501  503 -0.00000000000E+00 -0.00000000000E+00 -0.26822601497E+03  0.26822601497E+03  0.00000000000E+00 0. -1.
          6    1    1    2  501    0 -0.79853986485E+02 -0.75440258491E+02 -0.11752161202E+03  0.23623763682E+03  0.17300000000E+03 0. -1.
         -6    1    1    2    0  502  0.79853986485E+02  0.75440258491E+02  0.23592173270E+02  0.20628495437E+03  0.17300000000E+03 0. -1.
<mgrwt>
<rscale>  2 0.20493143E+03</rscale>
<asrwt>0</asrwt>
<pdfrwt beam="1">  1       21 0.26814858E-01 0.20493143E+03</pdfrwt>
<pdfrwt beam="2">  1       21 0.41265540E-01 0.20493143E+03</pdfrwt>
<totfact> 0.74494237E+04</totfact>
</mgrwt>
</event>
<event>
 4    1  0.3876841E+000  0.2231530E+03  0.7546771E-02  0.1131554E+00
         21   -1    0    0  503  502  0.00000000000E+00  0.00000000000E+00  0.64912787858E+03  0.64912787858E+03  0.00000000000E+00 0. -1.
         21   -1    0    0  501  503 -0.00000000000E+00 -0.00000000000E+00 -0.78233301523E+02  0.78233301523E+02  0.00000000000E+00 0. -1.
          6    1    1    2  501    0 -0.13630077816E+03  0.35921363731E+02  0.23476745520E+03  0.32390277016E+03  0.17300000000E+03 0. -1.
         -6    1    1    2    0  502  0.13630077816E+03 -0.35921363731E+02  0.33612712186E+03  0.40345840994E+03  0.17300000000E+03 0. -1.
<mgrwt>
<rscale>  2 0.22315297E+03</rscale>
<asrwt>0</asrwt>
<pdfrwt beam="1">  1       21 0.99865824E-01 0.22315297E+03</pdfrwt>
<pdfrwt beam="2">  1       21 0.12035893E-01 0.22315297E+03</pdfrwt>
<totfact> 0.47342525E+04</totfact>
</mgrwt>
</event>
<event>
 4    1  0.3876841E+000  0.1910791E+03  0.7546771E-02  0.1157492E+00
         21   -1    0    0  501  502  0.00000000000E+00  0.00000000000E+00  0.18519950421E+03  0.18519950421E+03  0.00000000000E+00 0. -1.
         21   -1    0    0  502  503 -0.00000000000E+00 -0.00000000000E+00 -0.33823405146E+03  0.33823405146E+03  0.00000000000E+00 0. -1.
          6    1    1    2  501    0  0.42570050622E+02  0.69065417807E+02  0.92514696097E+02  0.21229745675E+03  0.17300000000E+03 0. -1.
         -6    1    1    2    0  503 -0.42570050622E+02 -0.69065417807E+02 -0.24554924334E+03  0.31113609892E+03  0.17300000000E+03 0. -1.
<mgrwt>
<rscale>  2 0.19107915E+03</rscale>
<asrwt>0</asrwt>
<pdfrwt beam="1">  1       21 0.28492231E-01 0.19107915E+03</pdfrwt>
<pdfrwt beam="2">  1       21 0.52036008E-01 0.19107915E+03</pdfrwt>
<totfact> 0.41323638E+04</totfact>
</mgrwt>
</event>
<event>
 4    1  0.3876841E+000  0.2239278E+03  0.7546771E-02  0.1130988E+00
         21   -1    0    0  503  502  0.00000000000E+00  0.00000000000E+00  0.61944909957E+03  0.61944909957E+03  0.00000000000E+00 0. -1.
         21   -1    0    0  501  503 -0.00000000000E+00 -0.00000000000E+00 -0.88531290793E+02  0.88531290793E+02  0.00000000000E+00 0. -1.
          6    1    1    2  501    0 -0.14091256624E+01  0.14217134557E+03  0.16186169728E+03  0.27630216464E+03  0.17300000000E+03 0. -1.
         -6    1    1    2    0  502  0.14091256624E+01 -0.14217134557E+03  0.36905611149E+03  0.43167822572E+03  0.17300000000E+03 0. -1.
<mgrwt>
<rscale>  2 0.22392784E+03</rscale>
<asrwt>0</asrwt>
<pdfrwt beam="1">  1       21 0.95299859E-01 0.22392784E+03</pdfrwt>
<pdfrwt beam="2">  1       21 0.13620199E-01 0.22392784E+03</pdfrwt>
<totfact> 0.42292368E+04</totfact>
</mgrwt>
</event>
<event>
 4    1  0.3876841E+000  0.1989776E+03  0.7546771E-02  0.1150605E+00
         21   -1    0    0  501  502  0.00000000000E+00  0.00000000000E+00  0.24130768011E+03  0.24130768011E+03  0.00000000000E+00 0.  1.
         21   -1    0    0  502  503 -0.00000000000E+00 -0.00000000000E+00 -0.24470138178E+03  0.24470138178E+03  0.00000000000E+00 0.  1.
          6    1    1    2  501    0 -0.91262214172E+02 -0.36527821712E+02  0.13779220961E+03  0.24203050743E+03  0.17300000000E+03 0.  1.
         -6    1    1    2    0  503  0.91262214172E+02  0.36527821712E+02 -0.14118591128E+03  0.24397855447E+03  0.17300000000E+03 0.  1.
<mgrwt>
<rscale>  2 0.19897757E+03</rscale>
<asrwt>0</asrwt>
<pdfrwt beam="1">  1       21 0.37124259E-01 0.19897757E+03</pdfrwt>
<pdfrwt beam="2">  1       21 0.37646366E-01 0.19897757E+03</pdfrwt>
<totfact> 0.47471336E+04</totfact>
</mgrwt>
</event>
<event>
 4    1  0.3876841E+000  0.3129027E+03  0.7546771E-02  0.1078963E+00
         21   -1    0    0  501  502  0.00000000000E+00  0.00000000000E+00  0.47220163745E+03  0.47220163745E+03  0.00000000000E+00 0.  1.
         21   -1    0    0  502  503 -0.00000000000E+00 -0.00000000000E+00 -0.24034151827E+03  0.24034151827E+03  0.00000000000E+00 0.  1.
          6    1    1    2  501    0 -0.10831608922E+03 -0.23716394892E+03 -0.16080382833E+02  0.31331564366E+03  0.17300000000E+03 0.  1.
         -6    1    1    2    0  503  0.10831608922E+03  0.23716394892E+03  0.24794050201E+03  0.39922751206E+03  0.17300000000E+03 0.  1.
<mgrwt>
<rscale>  2 0.31290272E+03</rscale>
<asrwt>0</asrwt>
<pdfrwt beam="1">  1       21 0.72646406E-01 0.31290272E+03</pdfrwt>
<pdfrwt beam="2">  1       21 0.36975618E-01 0.31290272E+03</pdfrwt>
<totfact> 0.11284410E+04</totfact>
</mgrwt>
</event>
<event>
 4    1  0.3876841E+000  0.1989056E+03  0.7546771E-02  0.1150666E+00
         21   -1    0    0  501  502  0.00000000000E+00  0.00000000000E+00  0.20588390507E+03  0.20588390507E+03  0.00000000000E+00 0. -1.
         21   -1    0    0  502  503 -0.00000000000E+00 -0.00000000000E+00 -0.19943585873E+03  0.19943585873E+03  0.00000000000E+00 0. -1.
          6    1    1    2  501    0  0.70292895649E+02  0.68508032978E+02  0.41922481194E+02  0.20327551793E+03  0.17300000000E+03 0. -1.
         -6    1    1    2    0  503 -0.70292895649E+02 -0.68508032978E+02 -0.35474434850E+02  0.20204424587E+03  0.17300000000E+03 0. -1.
<mgrwt>
<rscale>  2 0.19890561E+03</rscale>
<asrwt>0</asrwt>
<pdfrwt beam="1">  1       21 0.31674447E-01 0.19890561E+03</pdfrwt>
<pdfrwt beam="2">  1       21 0.30682440E-01 0.19890561E+03</pdfrwt>
<totfact> 0.97482703E+04</totfact>
</mgrwt>
</event>
<event>
 4    1  0.3876841E+000  0.1797997E+03  0.7546771E-02  0.1167997E+00
         21   -1    0    0  501  502  0.00000000000E+00  0.00000000000E+00  0.51671466445E+03  0.51671466445E+03  0.00000000000E+00 0. -1.
         21   -1    0    0  502  503 -0.00000000000E+00 -0.00000000000E+00 -0.68064765676E+02  0.68064765676E+02  0.00000000000E+00 0. -1.
          6    1    1    2  501    0  0.24149745032E+02 -0.42611433053E+02  0.14120666217E+03  0.22862035310E+03  0.17300000000E+03 0. -1.
         -6    1    1    2    0  503 -0.24149745032E+02  0.42611433053E+02  0.30744323660E+03  0.35615907702E+03  0.17300000000E+03 0. -1.
<mgrwt>
<rscale>  2 0.17979973E+03</rscale>
<asrwt>0</asrwt>
<pdfrwt beam="1">  1       21 0.79494561E-01 0.17979973E+03</pdfrwt>
<pdfrwt beam="2">  1       21 0.10471503E-01 0.17979973E+03</pdfrwt>
<totfact> 0.10487131E+05</totfact>
</mgrwt>
</event>
<event>
 4    1  0.3876841E+000  0.2861117E+03  0.7546771E-02  0.1092397E+00
         21   -1    0    0  503  502  0.00000000000E+00  0.00000000000E+00  0.90121838800E+03  0.90121838800E+03  0.00000000000E+00 0.  1.
         21   -1    0    0  501  503 -0.00000000000E+00 -0.00000000000E+00 -0.16115146051E+03  0.16115146051E+03  0.00000000000E+00 0. -1.
          6    1    1    2  501    0 -0.17966413636E+03  0.14018455352E+03  0.19148411802E+02  0.28675176131E+03  0.17300000000E+03 0. -1.
         -6    1    1    2    0  502  0.17966413636E+03 -0.14018455352E+03  0.72091851569E+03  0.77561808721E+03  0.17300000000E+03 0.  1.
<mgrwt>
<rscale>  2 0.28611171E+03</rscale>
<asrwt>0</asrwt>
<pdfrwt beam="1">  1       21 0.13864898E+00 0.28611171E+03</pdfrwt>
<pdfrwt beam="2">  1       21 0.24792533E-01 0.28611171E+03</pdfrwt>
<totfact> 0.52963641E+03</totfact>
</mgrwt>
</event>
<event>
 4    1  0.3876841E+000  0.1981244E+03  0.7546771E-02  0.1151331E+00
         21   -1    0    0  501  502  0.00000000000E+00  0.00000000000E+00  0.62546836841E+03  0.62546836841E+03  0.00000000000E+00 0. -1.
         21   -1    0    0  502  503 -0.00000000000E+00 -0.00000000000E+00 -0.90520408774E+02  0.90520408774E+02  0.00000000000E+00 0. -1.
          6    1    1    2  501    0  0.96479981996E+02  0.39869360714E+01  0.46573156112E+03  0.50612169446E+03  0.17300000000E+03 0. -1.
         -6    1    1    2    0  503 -0.96479981996E+02 -0.39869360714E+01  0.69216398517E+02  0.20986708272E+03  0.17300000000E+03 0. -1.
<mgrwt>
<rscale>  2 0.19812441E+03</rscale>
<asrwt>0</asrwt>
<pdfrwt beam="1">  1       21 0.96225900E-01 0.19812441E+03</pdfrwt>
<pdfrwt beam="2">  1       21 0.13926217E-01 0.19812441E+03</pdfrwt>
<totfact> 0.40235749E+04</totfact>
</mgrwt>
</event>
<event>
 4    1  0.3876841E+000  0.1731601E+03  0.7546771E-02  0.1174592E+00
         21   -1    0    0  501  502  0.00000000000E+00  0.00000000000E+00  0.51773618412E+02  0.51773618412E+02  0.00000000000E+00 0. -1.
         21   -1    0    0  502  503 -0.00000000000E+00 -0.00000000000E+00 -0.77120356060E+03  0.77120356060E+03  0.00000000000E+00 0. -1.
          6    1    1    2  501    0 -0.72934597081E+01 -0.14877898867E+01 -0.15436689122E+03  0.23197746696E+03  0.17300000000E+03 0. -1.
         -6    1    1    2    0  503  0.72934597081E+01  0.14877898867E+01 -0.56506305096E+03  0.59099971205E+03  0.17300000000E+03 0. -1.
<mgrwt>
<rscale>  2 0.17316006E+03</rscale>
<asrwt>0</asrwt>
<pdfrwt beam="1">  1       21 0.79651729E-02 0.17316006E+03</pdfrwt>
<pdfrwt beam="2">  1       21 0.11864669E+00 0.17316006E+03</pdfrwt>
<totfact> 0.66305285E+04</totfact>
</mgrwt>
</event>
<event>
 4    1  0.3876841E+000  0.2278843E+03  0.7546771E-02  0.1128138E+00
         21   -1    0    0  503  502  0.00000000000E+00  0.00000000000E+00  0.15398561825E+04  0.15398561825E+04  0.00000000000E+00 0.  1.
         21   -1    0    0  501  503 -0.00000000000E+00 -0.00000000000E+00 -0.48066557822E+02  0.48066557822E+02  0.00000000000E+00 0.  1.
          6    1    1    2  501    0 -0.35899977437E+02  0.14392162140E+03  0.31220418162E+03  0.38652644478E+03  0.17300000000E+03 0.  1.
         -6    1    1    2    0  502  0.35899977437E+02 -0.14392162140E+03  0.11795854430E+04  0.12013962955E+04  0.17300000000E+03 0.  1.
<mgrwt>
<rscale>  2 0.22788427E+03</rscale>
<asrwt>0</asrwt>
<pdfrwt beam="1">  1       21 0.23690091E+00 0.22788427E+03</pdfrwt>
<pdfrwt beam="2">  1       21 0.73948562E-02 0.22788427E+03</pdfrwt>
<totfact> 0.10608427E+04</totfact>
</mgrwt>
</event>
<event>
 4    1  0.3876841E+000  0.1780390E+03  0.7546771E-02  0.1169715E+00
         21   -1    0    0  501  502  0.00000000000E+00  0.00000000000E+00  0.41814693829E+03  0.41814693829E+03  0.00000000000E+00 0.  1.
         21   -1    0    0  502  503 -0.00000000000E+00 -0.00000000000E+00 -0.85148200613E+02  0.85148200613E+02  0.00000000000E+00 0.  1.
          6    1    1    2  501    0  0.40175409893E+02 -0.12442280143E+02  0.24985581847E+03  0.30679928931E+03  0.17300000000E+03 0.  1.
         -6    1    1    2    0  503 -0.40175409893E+02  0.12442280143E+02  0.83142919209E+02  0.19649584960E+03  0.17300000000E+03 0.  1.
<mgrwt>
<rscale>  2 0.17803897E+03</rscale>
<asrwt>0</asrwt>
<pdfrwt beam="1">  1       21 0.64330297E-01 0.17803897E+03</pdfrwt>
<pdfrwt beam="2">  1       21 0.13099723E-01 0.17803897E+03</pdfrwt>
<totfact> 0.11236760E+05</totfact>
</mgrwt>
</event>
<event>
 4    1  0.3876841E+000  0.1855683E+03  0.7546771E-02  0.1162520E+00
         21   -1    0    0  503  502  0.00000000000E+00  0.00000000000E+00  0.11668864368E+03  0.11668864368E+03  0.00000000000E+00 0.  1.
         21   -1    0    0  501  503 -0.00000000000E+00 -0.00000000000E+00 -0.37562435011E+03  0.37562435011E+03  0.00000000000E+00 0. -1.
          6    1    1    2  501    0  0.46775947210E+02  0.48151866677E+02 -0.24343513471E+03  0.30609844220E+03  0.17300000000E+03 0. -1.
         -6    1    1    2    0  502 -0.46775947210E+02 -0.48151866677E+02 -0.15500571720E+02  0.18621455159E+03  0.17300000000E+03 0.  1.
<mgrwt>
<rscale>  2 0.18556829E+03</rscale>
<asrwt>0</asrwt>
<pdfrwt beam="1">  1       21 0.17952099E-01 0.18556829E+03</pdfrwt>
<pdfrwt beam="2">  1       21 0.57788362E-01 0.18556829E+03</pdfrwt>
<totfact> 0.79459827E+04</totfact>
</mgrwt>
</event>
<event>
 4    1  0.3876841E+000  0.1871956E+03  0.7546771E-02  0.1161015E+00
         21   -1    0    0  501  502  0.00000000000E+00  0.00000000000E+00  0.25717660164E+02  0.25717660164E+02  0.00000000000E+00 0.  1.
         21   -1    0    0  502  503 -0.00000000000E+00 -0.00000000000E+00 -0.13631124225E+04  0.13631124225E+04  0.00000000000E+00 0. -1.
          6    1    1    2  501    0  0.67532312236E+02  0.23506618278E+02 -0.68251882664E+03  0.70772460959E+03  0.17300000000E+03 0.  1.
         -6    1    1    2    0  503 -0.67532312236E+02 -0.23506618278E+02 -0.65487593565E+03  0.68110547303E+03  0.17300000000E+03 0.  1.
<mgrwt>
<rscale>  2 0.18719555E+03</rscale>
<asrwt>0</asrwt>
<pdfrwt beam="1">  1       21 0.39565634E-02 0.18719555E+03</pdfrwt>
<pdfrwt beam="2">  1       21 0.20970959E+00 0.18719555E+03</pdfrwt>
<totfact> 0.46678597E+04</totfact>
</mgrwt>
</event>
<event>
 4    1  0.3876841E+000  0.1821312E+03  0.7546771E-02  0.1165756E+00
         21   -1    0    0  503  502  0.00000000000E+00  0.00000000000E+00  0.18719182447E+03  0.18719182447E+03  0.00000000000E+00 0. -1.
         21   -1    0    0  501  503 -0.00000000000E+00 -0.00000000000E+00 -0.68438021031E+03  0.68438021031E+03  0.00000000000E+00 0. -1.
          6    1    1    2  501    0  0.37826360994E+02  0.42567003300E+02 -0.62374210675E+03  0.64978919588E+03  0.17300000000E+03 0. -1.
         -6    1    1    2    0  502 -0.37826360994E+02 -0.42567003300E+02  0.12655372090E+03  0.22178283890E+03  0.17300000000E+03 0. -1.
<mgrwt>
<rscale>  2 0.18213123E+03</rscale>
<asrwt>0</asrwt>
<pdfrwt beam="1">  1       21 0.28798742E-01 0.18213123E+03</pdfrwt>
<pdfrwt beam="2">  1       21 0.10528926E+00 0.18213123E+03</pdfrwt>
<totfact> 0.84390344E+03</totfact>
</mgrwt>
</event>
<event>
 4    1  0.3876841E+000  0.1797582E+03  0.7546771E-02  0.1168037E+00
         21   -1    0    0  503  502  0.00000000000E+00  0.00000000000E+00  0.16852323615E+03  0.16852323615E+03  0.00000000000E+00 0.  1.
         21   -1    0    0  501  503 -0.00000000000E+00 -0.00000000000E+00 -0.30525809849E+03  0.30525809849E+03  0.00000000000E+00 0. -1.
          6    1    1    2  501    0 -0.48778090660E+02 -0.21683976716E+01 -0.21282584284E+03  0.27858184338E+03  0.17300000000E+03 0.  1.
         -6    1    1    2    0  502  0.48778090660E+02  0.21683976716E+01  0.76090980495E+02  0.19519949126E+03  0.17300000000E+03 0.  1.
<mgrwt>
<rscale>  2 0.17975818E+03</rscale>
<asrwt>0</asrwt>
<pdfrwt beam="1">  1       21 0.25926652E-01 0.17975818E+03</pdfrwt>
<pdfrwt beam="2">  1       21 0.46962785E-01 0.17975818E+03</pdfrwt>
<totfact> 0.61663349E+04</totfact>
</mgrwt>
</event>
<event>
 4    1  0.3876841E+000  0.1751253E+03  0.7546771E-02  0.1172606E+00
         21   -1    0    0  503  502  0.00000000000E+00  0.00000000000E+00  0.13483160945E+03  0.13483160945E+03  0.00000000000E+00 0. -1.
         21   -1    0    0  501  503 -0.00000000000E+00 -0.00000000000E+00 -0.50270338298E+03  0.50270338298E+03  0.00000000000E+00 0. -1.
          6    1    1    2  501    0 -0.20765154047E+02 -0.17569572689E+02 -0.41980771951E+03  0.45487075403E+03  0.17300000000E+03 0. -1.
         -6    1    1    2    0  502  0.20765154047E+02  0.17569572689E+02  0.51935945978E+02  0.18266423840E+03  0.17300000000E+03 0. -1.
<mgrwt>
<rscale>  2 0.17512533E+03</rscale>
<asrwt>0</asrwt>
<pdfrwt beam="1">  1       21 0.20743325E-01 0.17512533E+03</pdfrwt>
<pdfrwt beam="2">  1       21 0.77338981E-01 0.17512533E+03</pdfrwt>
<totfact> 0.32307812E+04</totfact>
</mgrwt>
</event>
<event>
 4    1  0.3876841E+000  0.2008042E+03  0.7546771E-02  0.1149062E+00
         21   -1    0    0  503  502  0.00000000000E+00  0.00000000000E+00  0.41121863203E+03  0.41121863203E+03  0.00000000000E+00 0. -1.
         21   -1    0    0  501  503 -0.00000000000E+00 -0.00000000000E+00 -0.10773040653E+03  0.10773040653E+03  0.00000000000E+00 0. -1.
          6    1    1    2  501    0 -0.10194755663E+03  0.93600039060E-01  0.22950217616E+03  0.30494845782E+03  0.17300000000E+03 0. -1.
         -6    1    1    2    0  502  0.10194755663E+03 -0.93600039060E-01  0.73986049333E+02  0.21400058075E+03  0.17300000000E+03 0. -1.
<mgrwt>
<rscale>  2 0.20080417E+03</rscale>
<asrwt>0</asrwt>
<pdfrwt beam="1">  1       21 0.63264404E-01 0.20080417E+03</pdfrwt>
<pdfrwt beam="2">  1       21 0.16573909E-01 0.20080417E+03</pdfrwt>
<totfact> 0.75279932E+04</totfact>
</mgrwt>
</event>
<event>
 4    1  0.3876841E+000  0.2059592E+03  0.7546771E-02  0.1144806E+00
         21   -1    0    0  503  502  0.00000000000E+00  0.00000000000E+00  0.20319442227E+02  0.20319442227E+02  0.00000000000E+00 0. -1.
         21   -1    0    0  501  503 -0.00000000000E+00 -0.00000000000E+00 -0.24083613812E+04  0.24083613812E+04  0.00000000000E+00 0.  1.
          6    1    1    2  501    0  0.71316983180E+02 -0.86047008009E+02 -0.75086194873E+03  0.77859672856E+03  0.17300000000E+03 0. -1.
         -6    1    1    2    0  502 -0.71316983180E+02  0.86047008009E+02 -0.16371799903E+04  0.16500840949E+04  0.17300000000E+03 0.  1.
<mgrwt>
<rscale>  2 0.20595922E+03</rscale>
<asrwt>0</asrwt>
<pdfrwt beam="1">  1       21 0.31260682E-02 0.20595922E+03</pdfrwt>
<pdfrwt beam="2">  1       21 0.37051711E+00 0.20595922E+03</pdfrwt>
<totfact> 0.76740271E+03</totfact>
</mgrwt>
</event>
<event>
 4    1  0.3876841E+000  0.1968880E+03  0.7546771E-02  0.1152391E+00
         21   -1    0    0  503  502  0.00000000000E+00  0.00000000000E+00  0.26956630899E+03  0.26956630899E+03  0.00000000000E+00 0.  1.
         21   -1    0    0  501  503 -0.00000000000E+00 -0.00000000000E+00 -0.22515230899E+03  0.22515230899E+03  0.00000000000E+00 0. -1.
          6    1    1    2  501    0  0.87613885834E+02 -0.34054362875E+02 -0.12647642183E+03  0.23401106363E+03  0.17300000000E+03 0. -1.
         -6    1    1    2    0  502 -0.87613885834E+02  0.34054362875E+02  0.17089042183E+03  0.26070755435E+03  0.17300000000E+03 0.  1.
<mgrwt>
<rscale>  2 0.19688802E+03</rscale>
<asrwt>0</asrwt>
<pdfrwt beam="1">  1       21 0.41471740E-01 0.19688802E+03</pdfrwt>
<pdfrwt beam="2">  1       21 0.34638817E-01 0.19688802E+03</pdfrwt>
<totfact> 0.44877563E+04</totfact>
</mgrwt>
</event>
<event>
 4    1  0.3876841E+000  0.1984386E+03  0.7546771E-02  0.1151063E+00
         21   -1    0    0  501  502  0.00000000000E+00  0.00000000000E+00  0.32173379331E+03  0.32173379331E+03  0.00000000000E+00 0. -1.
         21   -1    0    0  502  503 -0.00000000000E+00 -0.00000000000E+00 -0.55661936543E+03  0.55661936543E+03  0.00000000000E+00 0.  1.
          6    1    1    2  501    0  0.95190790437E+02  0.19687618837E+02  0.27045582769E+03  0.33544633498E+03  0.17300000000E+03 0. -1.
         -6    1    1    2    0  503 -0.95190790437E+02 -0.19687618837E+02 -0.50534139981E+03  0.54290682376E+03  0.17300000000E+03 0.  1.
<mgrwt>
<rscale>  2 0.19843863E+03</rscale>
<asrwt>0</asrwt>
<pdfrwt beam="1">  1       21 0.49497507E-01 0.19843863E+03</pdfrwt>
<pdfrwt beam="2">  1       21 0.85633748E-01 0.19843863E+03</pdfrwt>
<totfact> 0.45632611E+03</totfact>
</mgrwt>
</event>
<event>
 4    1  0.3876841E+000  0.1814453E+03  0.7546771E-02  0.1166412E+00
         21   -1    0    0  503  502  0.00000000000E+00  0.00000000000E+00  0.75839925339E+02  0.75839925339E+02  0.00000000000E+00 0. -1.
         21   -1    0    0  501  503 -0.00000000000E+00 -0.00000000000E+00 -0.44778350602E+03  0.44778350602E+03  0.00000000000E+00 0. -1.
          6    1    1    2  501    0  0.54672722812E+02 -0.20738310372E+01 -0.23173240182E+03  0.29431668904E+03  0.17300000000E+03 0. -1.
         -6    1    1    2    0  502 -0.54672722812E+02  0.20738310372E+01 -0.14021117886E+03  0.22930674232E+03  0.17300000000E+03 0. -1.
<mgrwt>
<rscale>  2 0.18144533E+03</rscale>
<asrwt>0</asrwt>
<pdfrwt beam="1">  1       21 0.11667681E-01 0.18144533E+03</pdfrwt>
<pdfrwt beam="2">  1       21 0.68889769E-01 0.18144533E+03</pdfrwt>
<totfact> 0.11890979E+05</totfact>
</mgrwt>
</event>
<event>
 4    1  0.3876841E+000  0.1889308E+03  0.7546771E-02  0.1159429E+00
         21   -1    0    0  501  502  0.00000000000E+00  0.00000000000E+00  0.11514108952E+03  0.11514108952E+03  0.00000000000E+00 0.  1.
         21   -1    0    0  502  503 -0.00000000000E+00 -0.00000000000E+00 -0.31134196167E+03  0.31134196167E+03  0.00000000000E+00 0. -1.
          6    1    1    2  501    0  0.63795165449E+02  0.41182838758E+02 -0.84151046929E+02  0.20682419598E+03  0.17300000000E+03 0.  1.
         -6    1    1    2    0  503 -0.63795165449E+02 -0.41182838758E+02 -0.11204982522E+03  0.21965885521E+03  0.17300000000E+03 0.  1.
<mgrwt>
<rscale>  2 0.18893081E+03</rscale>
<asrwt>0</asrwt>
<pdfrwt beam="1">  1       21 0.17714014E-01 0.18893081E+03</pdfrwt>
<pdfrwt beam="2">  1       21 0.47898763E-01 0.18893081E+03</pdfrwt>
<totfact> 0.12063912E+05</totfact>
</mgrwt>
</event>
<event>
 4    1  0.3876841E+000  0.3172408E+03  0.7546771E-02  0.1076926E+00
         21   -1    0    0  501  502  0.00000000000E+00  0.00000000000E+00  0.48525779426E+03  0.48525779426E+03  0.00000000000E+00 0.  1.
         21   -1    0    0  502  503 -0.00000000000E+00 -0.00000000000E+00 -0.69046497636E+03  0.69046497636E+03  0.00000000000E+00 0.  1.
          6    1    1    2  501    0 -0.50458784855E+02  0.26108744380E+03  0.38910472473E+03  0.50204006721E+03  0.17300000000E+03 0.  1.
         -6    1    1    2    0  503  0.50458784855E+02 -0.26108744380E+03 -0.59431190683E+03  0.67368270341E+03  0.17300000000E+03 0.  1.
<mgrwt>
<rscale>  2 0.31724083E+03</rscale>
<asrwt>0</asrwt>
<pdfrwt beam="1">  1       21 0.74655046E-01 0.31724083E+03</pdfrwt>
<pdfrwt beam="2">  1       21 0.10622538E+00 0.31724083E+03</pdfrwt>
<totfact> 0.10356649E+03</totfact>
</mgrwt>
</event>
<event>
 4    1  0.3876841E+000  0.1904982E+03  0.7546771E-02  0.1158013E+00
         21   -1    0    0  503  502  0.00000000000E+00  0.00000000000E+00  0.23509183978E+04  0.23509183978E+04  0.00000000000E+00 0.  1.
         21   -1    0    0  501  503 -0.00000000000E+00 -0.00000000000E+00 -0.10447462734E+03  0.10447462734E+03  0.00000000000E+00 0.  1.
          6    1    1    2  501    0 -0.29334187846E+02  0.74162522445E+02 -0.10154102246E+02  0.19076865598E+03  0.17300000000E+03 0.  1.
         -6    1    1    2    0  502  0.29334187846E+02 -0.74162522445E+02  0.22565978727E+04  0.22646243692E+04  0.17300000000E+03 0.  1.
<mgrwt>
<rscale>  2 0.19049823E+03</rscale>
<asrwt>0</asrwt>
<pdfrwt beam="1">  1       21 0.36167971E+00 0.19049823E+03</pdfrwt>
<pdfrwt beam="2">  1       21 0.16073021E-01 0.19049823E+03</pdfrwt>
<totfact> 0.51725017E+02</totfact>
</mgrwt>
</event>
<event>
 4    1  0.3876841E+000  0.2072217E+03  0.7546771E-02  0.1143785E+00
         21   -1    0    0  501  502  0.00000000000E+00  0.00000000000E+00  0.63063388481E+02  0.63063388481E+02  0.00000000000E+00 0.  1.
         21   -1    0    0  502  503 -0.00000000000E+00 -0.00000000000E+00 -0.84100204331E+03  0.84100204331E+03  0.00000000000E+00 0. -1.
          6    1    1    2  501    0  0.47486419001E+02  0.10371536834E+03 -0.58618833968E+03  0.62173757100E+03  0.17300000000E+03 0. -1.
         -6    1    1    2    0  503 -0.47486419001E+02 -0.10371536834E+03 -0.19175031515E+03  0.28232786079E+03  0.17300000000E+03 0.  1.
<mgrwt>
<rscale>  2 0.20722171E+03</rscale>
<asrwt>0</asrwt>
<pdfrwt beam="1">  1       21 0.97020597E-02 0.20722171E+03</pdfrwt>
<pdfrwt beam="2">  1       21 0.12938493E+00 0.20722171E+03</pdfrwt>
<totfact> 0.37132491E+04</totfact>
</mgrwt>
</event>
<event>
 4    1  0.3876841E+000  0.2039721E+03  0.7546771E-02  0.1146430E+00
         21   -1    0    0  503  502  0.00000000000E+00  0.00000000000E+00  0.51661516230E+02  0.51661516230E+02  0.00000000000E+00 0.  1.
         21   -1    0    0  501  503 -0.00000000000E+00 -0.00000000000E+00 -0.80990442458E+03  0.80990442458E+03  0.00000000000E+00 0.  1.
          6    1    1    2  501    0  0.94168922514E+01 -0.10764270871E+03 -0.41149223282E+03  0.45927169331E+03  0.17300000000E+03 0.  1.
         -6    1    1    2    0  502 -0.94168922514E+01  0.10764270871E+03 -0.34675067553E+03  0.40229424751E+03  0.17300000000E+03 0.  1.
<mgrwt>
<rscale>  2 0.20397213E+03</rscale>
<asrwt>0</asrwt>
<pdfrwt beam="1">  1       21 0.79479265E-02 0.20397213E+03</pdfrwt>
<pdfrwt beam="2">  1       21 0.12460067E+00 0.20397213E+03</pdfrwt>
<totfact> 0.58021966E+04</totfact>
</mgrwt>
</event>
<event>
 4    1  0.3876841E+000  0.1780977E+03  0.7546771E-02  0.1169657E+00
         21   -1    0    0  503  502  0.00000000000E+00  0.00000000000E+00  0.19977762605E+02  0.19977762605E+02  0.00000000000E+00 0. -1.
         21   -1    0    0  501  503 -0.00000000000E+00 -0.00000000000E+00 -0.19329171672E+04  0.19329171672E+04  0.00000000000E+00 0. -1.
          6    1    1    2  501    0  0.42305823360E+02  0.11763331496E+00 -0.13691228999E+04  0.13806579271E+04  0.17300000000E+03 0. -1.
         -6    1    1    2    0  502 -0.42305823360E+02 -0.11763331496E+00 -0.54381650463E+03  0.57223700268E+03  0.17300000000E+03 0. -1.
<mgrwt>
<rscale>  2 0.17809772E+03</rscale>
<asrwt>0</asrwt>
<pdfrwt beam="1">  1       21 0.30735016E-02 0.17809772E+03</pdfrwt>
<pdfrwt beam="2">  1       21 0.29737191E+00 0.17809772E+03</pdfrwt>
<totfact> 0.21805992E+04</totfact>
</mgrwt>
</event>
<event>
 4    1  0.3876841E+000  0.1867700E+03  0.7546771E-02  0.1161407E+00
         21   -1    0    0  503  502  0.00000000000E+00  0.00000000000E+00  0.10942522691E+03  0.10942522691E+03  0.00000000000E+00 0.  1.
         21   -1    0    0  501  503 -0.00000000000E+00 -0.00000000000E+00 -0.33589282032E+03  0.33589282032E+03  0.00000000000E+00 0.  1.
          6    1    1    2  501    0 -0.15754326711E+02  0.68598971634E+02 -0.62982270653E+02  0.19710348585E+03  0.17300000000E+03 0.  1.
         -6    1    1    2    0  502  0.15754326711E+02 -0.68598971634E+02 -0.16348532277E+03  0.24821456138E+03  0.17300000000E+03 0.  1.
<mgrwt>
<rscale>  2 0.18676996E+03</rscale>
<asrwt>0</asrwt>
<pdfrwt beam="1">  1       21 0.16834651E-01 0.18676996E+03</pdfrwt>
<pdfrwt beam="2">  1       21 0.51675817E-01 0.18676996E+03</pdfrwt>
<totfact> 0.11321167E+05</totfact>
</mgrwt>
</event>
<event>
 4    1  0.3876841E+000  0.1733264E+03  0.7546771E-02  0.1174423E+00
         21   -1    0    0  501  502  0.00000000000E+00  0.00000000000E+00  0.70099749281E+02  0.70099749281E+02  0.00000000000E+00 0.  1.
         21   -1    0    0  502  503 -0.00000000000E+00 -0.00000000000E+00 -0.73434833679E+03  0.73434833679E+03  0.00000000000E+00 0.  1.
          6    1    1    2  501    0 -0.10508252033E+02 -0.16174049191E+01 -0.72571021934E+02  0.18790580774E+03  0.17300000000E+03 0.  1.
         -6    1    1    2    0  503  0.10508252033E+02  0.16174049191E+01 -0.59167756557E+03  0.61654227833E+03  0.17300000000E+03 0.  1.
<mgrwt>
<rscale>  2 0.17332640E+03</rscale>
<asrwt>0</asrwt>
<pdfrwt beam="1">  1       21 0.10784577E-01 0.17332640E+03</pdfrwt>
<pdfrwt beam="2">  1       21 0.11297667E+00 0.17332640E+03</pdfrwt>
<totfact> 0.43906143E+04</totfact>
</mgrwt>
</event>
<event>
 4    1  0.3876841E+000  0.2702015E+03  0.7546771E-02  0.1101164E+00
         21   -1    0    0  501  502  0.00000000000E+00  0.00000000000E+00  0.16778912646E+04  0.16778912646E+04  0.00000000000E+00 0. -1.
         21   -1    0    0  502  503 -0.00000000000E+00 -0.00000000000E+00 -0.56341813217E+02  0.56341813217E+02  0.00000000000E+00 0.  1.
          6    1    1    2  501    0 -0.19861413718E+03  0.60268250147E+02  0.12245531691E+04  0.12540092908E+04  0.17300000000E+03 0. -1.
         -6    1    1    2    0  503  0.19861413718E+03 -0.60268250147E+02  0.39699628224E+03  0.48022378697E+03  0.17300000000E+03 0.  1.
<mgrwt>
<rscale>  2 0.27020148E+03</rscale>
<asrwt>0</asrwt>
<pdfrwt beam="1">  1       21 0.25813708E+00 0.27020148E+03</pdfrwt>
<pdfrwt beam="2">  1       21 0.86679726E-02 0.27020148E+03</pdfrwt>
<totfact> 0.58044261E+03</totfact>
</mgrwt>
</event>
<event>
 4    1  0.3876841E+000  0.2331446E+03  0.7546771E-02  0.1124446E+00
         21   -1    0    0  501  502  0.00000000000E+00  0.00000000000E+00  0.45310925412E+03  0.45310925412E+03  0.00000000000E+00 0. -1.
         21   -1    0    0  502  503 -0.00000000000E+00 -0.00000000000E+00 -0.12715271143E+03  0.12715271143E+03  0.00000000000E+00 0.  1.
          6    1    1    2  501    0 -0.32435679741E+02  0.15289000197E+03  0.23196755818E+03  0.32888504690E+03  0.17300000000E+03 0. -1.
         -6    1    1    2    0  503  0.32435679741E+02 -0.15289000197E+03  0.93988984505E+02  0.25137691865E+03  0.17300000000E+03 0. -1.
<mgrwt>
<rscale>  2 0.23314465E+03</rscale>
<asrwt>0</asrwt>
<pdfrwt beam="1">  1       21 0.69709115E-01 0.23314465E+03</pdfrwt>
<pdfrwt beam="2">  1       21 0.19561956E-01 0.23314465E+03</pdfrwt>
<totfact> 0.44117640E+04</totfact>
</mgrwt>
</event>
<event>
 4    1  0.3876841E+000  0.2201540E+03  0.7546771E-02  0.1133768E+00
         21   -1    0    0  501  502  0.00000000000E+00  0.00000000000E+00  0.22572777328E+03  0.22572777328E+03  0.00000000000E+00 0. -1.
         21   -1    0    0  502  503 -0.00000000000E+00 -0.00000000000E+00 -0.26191659022E+03  0.26191659022E+03  0.00000000000E+00 0. -1.
          6    1    1    2  501    0 -0.10765173719E+03 -0.83366048294E+02  0.85409478731E+02  0.23614100361E+03  0.17300000000E+03 0. -1.
         -6    1    1    2    0  503  0.10765173719E+03  0.83366048294E+02 -0.12159829567E+03  0.25150335990E+03  0.17300000000E+03 0. -1.
<mgrwt>
<rscale>  2 0.22015402E+03</rscale>
<asrwt>0</asrwt>
<pdfrwt beam="1">  1       21 0.34727350E-01 0.22015402E+03</pdfrwt>
<pdfrwt beam="2">  1       21 0.40294860E-01 0.22015402E+03</pdfrwt>
<totfact> 0.46810204E+04</totfact>
</mgrwt>
</event>
<event>
 4    1  0.3876841E+000  0.2390979E+03  0.7546771E-02  0.1120395E+00
         21   -1    0    0  503  502  0.00000000000E+00  0.00000000000E+00  0.13499080776E+03  0.13499080776E+03  0.00000000000E+00 0. -1.
         21   -1    0    0  501  503 -0.00000000000E+00 -0.00000000000E+00 -0.11522432635E+04  0.11522432635E+04  0.00000000000E+00 0.  1.
          6    1    1    2  501    0 -0.37851780798E+02 -0.16064264315E+03 -0.10204782984E+04  0.10481143895E+04  0.17300000000E+03 0.  1.
         -6    1    1    2    0  502  0.37851780798E+02  0.16064264315E+03  0.32258426729E+01  0.23911968168E+03  0.17300000000E+03 0. -1.
<mgrwt>
<rscale>  2 0.23909792E+03</rscale>
<asrwt>0</asrwt>
<pdfrwt beam="1">  1       21 0.20767816E-01 0.23909792E+03</pdfrwt>
<pdfrwt beam="2">  1       21 0.17726820E+00 0.23909792E+03</pdfrwt>
<totfact> 0.39299067E+03</totfact>
</mgrwt>
</event>
<event>
 4    1  0.3876841E+000  0.2824281E+03  0.7546771E-02  0.1094370E+00
         21   -1    0    0  503  502  0.00000000000E+00  0.00000000000E+00  0.22148480920E+03  0.22148480920E+03  0.00000000000E+00 0.  1.
         21   -1    0    0  501  503 -0.00000000000E+00 -0.00000000000E+00 -0.36443184255E+03  0.36443184255E+03  0.00000000000E+00 0.  1.
          6    1    1    2  501    0  0.74821716672E+02  0.21032915461E+03 -0.10326391434E+03  0.30071428062E+03  0.17300000000E+03 0.  1.
         -6    1    1    2    0  502 -0.74821716672E+02 -0.21032915461E+03 -0.39683119002E+02  0.28520237113E+03  0.17300000000E+03 0.  1.
<mgrwt>
<rscale>  2 0.28242812E+03</rscale>
<asrwt>0</asrwt>
<pdfrwt beam="1">  1       21 0.34074586E-01 0.28242812E+03</pdfrwt>
<pdfrwt beam="2">  1       21 0.56066437E-01 0.28242812E+03</pdfrwt>
<totfact> 0.23776515E+04</totfact>
</mgrwt>
</event>
<event>
 4    1  0.3876841E+000  0.1864920E+03  0.7546771E-02  0.1161664E+00
         21   -1    0    0  501  502  0.00000000000E+00  0.00000000000E+00  0.13736900006E+03  0.13736900006E+03  0.00000000000E+00 0.  1.
         21   -1    0    0  502  503 -0.00000000000E+00 -0.00000000000E+00 -0.41563505841E+03  0.41563505841E+03  0.00000000000E+00 0.  1.
          6    1    1    2  501    0 -0.54246829553E+01  0.69432279060E+02  0.33731964460E+02  0.18951810992E+03  0.17300000000E+03 0.  1.
         -6    1    1    2    0  503  0.54246829553E+01 -0.69432279060E+02 -0.31199802281E+03  0.36348594856E+03  0.17300000000E+03 0.  1.
<mgrwt>
<rscale>  2 0.18649201E+03</rscale>
<asrwt>0</asrwt>
<pdfrwt beam="1">  1       21 0.21133693E-01 0.18649201E+03</pdfrwt>
<pdfrwt beam="2">  1       21 0.63943854E-01 0.18649201E+03</pdfrwt>
<totfact> 0.47157894E+04</totfact>
</mgrwt>
</event>
<event>
 4    1  0.3876841E+000  0.2038834E+03  0.7546771E-02  0.1146503E+00
         21   -1    0    0  503  502  0.00000000000E+00  0.00000000000E+00  0.10996447528E+03  0.10996447528E+03  0.00000000000E+00 0.  1.
         21   -1    0    0  501  503 -0.00000000000E+00 -0.00000000000E+00 -0.51002310327E+03  0.51002310327E+03  0.00000000000E+00 0. -1.
          6    1    1    2  501    0 -0.30549413703E+02  0.10347055997E+03 -0.35773789962E+03  0.41175821581E+03  0.17300000000E+03 0. -1.
         -6    1    1    2    0  502  0.30549413703E+02 -0.10347055997E+03 -0.42320728361E+02  0.20822936274E+03  0.17300000000E+03 0.  1.
<mgrwt>
<rscale>  2 0.20388336E+03</rscale>
<asrwt>0</asrwt>
<pdfrwt beam="1">  1       21 0.16917612E-01 0.20388336E+03</pdfrwt>
<pdfrwt beam="2">  1       21 0.78465093E-01 0.20388336E+03</pdfrwt>
<totfact> 0.44967189E+04</totfact>
</mgrwt>
</event>
<event>
 4    1  0.3876841E+000  0.1848592E+03  0.7546771E-02  0.1163181E+00
         21   -1    0    0  503  502  0.00000000000E+00  0.00000000000E+00  0.42462756410E+02  0.42462756410E+02  0.00000000000E+00 0.  1.
         21   -1    0    0  501  503 -0.00000000000E+00 -0.00000000000E+00 -0.99604879714E+03  0.99604879714E+03  0.00000000000E+00 0. -1.
          6    1    1    2  501    0  0.63585102710E+02 -0.14172983019E+02 -0.70433915659E+03  0.72819405809E+03  0.17300000000E+03 0. -1.
         -6    1    1    2    0  502 -0.63585102710E+02  0.14172983019E+02 -0.24924688414E+03  0.31031749546E+03  0.17300000000E+03 0.  1.
<mgrwt>
<rscale>  2 0.18485924E+03</rscale>
<asrwt>0</asrwt>
<pdfrwt beam="1">  1       21 0.65327324E-02 0.18485924E+03</pdfrwt>
<pdfrwt beam="2">  1       21 0.15323826E+00 0.18485924E+03</pdfrwt>
<totfact> 0.48352677E+04</totfact>
</mgrwt>
</event>
<event>
 4    1  0.3876841E+000  0.2184576E+03  0.7546771E-02  0.1135038E+00
         21   -1    0    0  503  502  0.00000000000E+00  0.00000000000E+00  0.24058851319E+03  0.24058851319E+03  0.00000000000E+00 0. -1.
         21   -1    0    0  501  503 -0.00000000000E+00 -0.00000000000E+00 -0.31442807693E+03  0.31442807693E+03  0.00000000000E+00 0.  1.
          6    1    1    2  501    0 -0.16977115911E+02 -0.13231218887E+03 -0.20552345655E+03  0.29993937551E+03  0.17300000000E+03 0.  1.
         -6    1    1    2    0  502  0.16977115911E+02  0.13231218887E+03  0.13168389281E+03  0.25507721461E+03  0.17300000000E+03 0. -1.
<mgrwt>
<rscale>  2 0.21845763E+03</rscale>
<asrwt>0</asrwt>
<pdfrwt beam="1">  1       21 0.37013617E-01 0.21845763E+03</pdfrwt>
<pdfrwt beam="2">  1       21 0.48373550E-01 0.21845763E+03</pdfrwt>
<totfact> 0.28334823E+04</totfact>
</mgrwt>
</event>
<event>
 4    1  0.3876841E+000  0.2173356E+03  0.7546771E-02  0.1135885E+00
         21   -1    0    0  503  502  0.00000000000E+00  0.00000000000E+00  0.14372140446E+03  0.14372140446E+03  0.00000000000E+00 0.  1.
         21   -1    0    0  501  503 -0.00000000000E+00 -0.00000000000E+00 -0.32987973210E+03  0.32987973210E+03  0.00000000000E+00 0.  1.
          6    1    1    2  501    0  0.11656064355E+03 -0.60986695918E+02 -0.10750770306E+03  0.24247199204E+03  0.17300000000E+03 0.  1.
         -6    1    1    2    0  502 -0.11656064355E+03  0.60986695918E+02 -0.78650624579E+02  0.23112914453E+03  0.17300000000E+03 0.  1.
<mgrwt>
<rscale>  2 0.21733559E+03</rscale>
<asrwt>0</asrwt>
<pdfrwt beam="1">  1       21 0.22110986E-01 0.21733559E+03</pdfrwt>
<pdfrwt beam="2">  1       21 0.50750727E-01 0.21733559E+03</pdfrwt>
<totfact> 0.69866955E+04</totfact>
</mgrwt>
</event>
<event>
 4    1  0.3876841E+000  0.1880136E+03  0.7546771E-02  0.1160265E+00
         21   -1    0    0  503  502  0.00000000000E+00  0.00000000000E+00  0.72641410321E+02  0.72641410321E+02  0.00000000000E+00 0. -1.
         21   -1    0    0  501  503 -0.00000000000E+00 -0.00000000000E+00 -0.58079430030E+03  0.58079430030E+03  0.00000000000E+00 0. -1.
          6    1    1    2  501    0 -0.64262498503E+02 -0.35922595557E+02 -0.38563441178E+03  0.42902564158E+03  0.17300000000E+03 0. -1.
         -6    1    1    2    0  502  0.64262498503E+02  0.35922595557E+02 -0.12251847819E+03  0.22441006904E+03  0.17300000000E+03 0. -1.
<mgrwt>
<rscale>  2 0.18801357E+03</rscale>
<asrwt>0</asrwt>
<pdfrwt beam="1">  1       21 0.11175602E-01 0.18801357E+03</pdfrwt>
<pdfrwt beam="2">  1       21 0.89352967E-01 0.18801357E+03</pdfrwt>
<totfact> 0.71324145E+04</totfact>
</mgrwt>
</event>
<event>
 4    1  0.3876841E+000  0.1790645E+03  0.7546771E-02  0.1168711E+00
         21   -1    0    0  501  502  0.00000000000E+00  0.00000000000E+00  0.45920957370E+02  0.45920957370E+02  0.00000000000E+00 0.  1.
         21   -1    0    0  502  503 -0.00000000000E+00 -0.00000000000E+00 -0.12159826552E+04  0.12159826552E+04  0.00000000000E+00 0.  1.
          6    1    1    2  501    0 -0.33964511957E+01  0.46082137637E+02 -0.17332485700E+03  0.24920996237E+03  0.17300000000E+03 0.  1.
         -6    1    1    2    0  503  0.33964511957E+01 -0.46082137637E+02 -0.99673684082E+03  0.10126936502E+04  0.17300000000E+03 0.  1.
<mgrwt>
<rscale>  2 0.17906451E+03</rscale>
<asrwt>0</asrwt>
<pdfrwt beam="1">  1       21 0.70647640E-02 0.17906451E+03</pdfrwt>
<pdfrwt beam="2">  1       21 0.18707422E+00 0.17906451E+03</pdfrwt>
<totfact> 0.24518089E+04</totfact>
</mgrwt>
</event>
<event>
 4    1  0.3876841E+000  0.2100592E+03  0.7546771E-02  0.1141519E+00
         21   -1    0    0  501  502  0.00000000000E+00  0.00000000000E+00  0.53537938986E+03  0.53537938986E+03  0.00000000000E+00 0.  1.
         21   -1    0    0  502  503 -0.00000000000E+00 -0.00000000000E+00 -0.85551874358E+02  0.85551874358E+02  0.00000000000E+00 0.  1.
          6    1    1    2  501    0  0.99621973084E+02 -0.65355324622E+02  0.28433545714E+03  0.35351309475E+03  0.17300000000E+03 0.  1.
         -6    1    1    2    0  503 -0.99621973084E+02  0.65355324622E+02  0.16549205836E+03  0.26741816946E+03  0.17300000000E+03 0.  1.
<mgrwt>
<rscale>  2 0.21005917E+03</rscale>
<asrwt>0</asrwt>
<pdfrwt beam="1">  1       21 0.82366058E-01 0.21005917E+03</pdfrwt>
<pdfrwt beam="2">  1       21 0.13161827E-01 0.21005917E+03</pdfrwt>
<totfact> 0.63479326E+04</totfact>
</mgrwt>
</event>
<event>
 4    1  0.3876841E+000  0.2618875E+03  0.7546771E-02  0.1106014E+00
         21   -1    0    0  501  502  0.00000000000E+00  0.00000000000E+00  0.78273202301E+03  0.78273202301E+03  0.00000000000E+00 0.  1.
         21   -1    0    0  502  503 -0.00000000000E+00 -0.00000000000E+00 -0.94819822109E+02  0.94819822109E+02  0.00000000000E+00 0.  1.
          6    1    1    2  501    0  0.55841349567E+02  0.18851477467E+03  0.46484134599E+03  0.53353777142E+03  0.17300000000E+03 0.  1.
         -6    1    1    2    0  503 -0.55841349567E+02 -0.18851477467E+03  0.22307085492E+03  0.34401407370E+03  0.17300000000E+03 0.  1.
<mgrwt>
<rscale>  2 0.26188753E+03</rscale>
<asrwt>0</asrwt>
<pdfrwt beam="1">  1       21 0.12042031E+00 0.26188753E+03</pdfrwt>
<pdfrwt beam="2">  1       21 0.14587665E-01 0.26188753E+03</pdfrwt>
<totfact> 0.20782170E+04</totfact>
</mgrwt>
</event>
<event>
 4    1  0.3876841E+000  0.1824507E+03  0.7546771E-02  0.1165452E+00
         21   -1    0    0  501  502  0.00000000000E+00  0.00000000000E+00  0.50858799439E+03  0.50858799439E+03  0.00000000000E+00 0. -1.
         21   -1    0    0  502  503 -0.00000000000E+00 -0.00000000000E+00 -0.67727702830E+02  0.67727702830E+02  0.00000000000E+00 0.  1.
          6    1    1    2  501    0 -0.22441653301E+02  0.53438188462E+02  0.27324715883E+03  0.32856091916E+03  0.17300000000E+03 0. -1.
         -6    1    1    2    0  503  0.22441653301E+02 -0.53438188462E+02  0.16761313273E+03  0.24775477806E+03  0.17300000000E+03 0.  1.
<mgrwt>
<rscale>  2 0.18245073E+03</rscale>
<asrwt>0</asrwt>
<pdfrwt beam="1">  1       21 0.78244304E-01 0.18245073E+03</pdfrwt>
<pdfrwt beam="2">  1       21 0.10419647E-01 0.18245073E+03</pdfrwt>
<totfact> 0.10952503E+05</totfact>
</mgrwt>
</event>
<event>
 4    1  0.3876841E+000  0.2156832E+03  0.7546771E-02  0.1137143E+00
         21   -1    0    0  503  502  0.00000000000E+00  0.00000000000E+00  0.95139256459E+02  0.95139256459E+02  0.00000000000E+00 0. -1.
         21   -1    0    0  501  503 -0.00000000000E+00 -0.00000000000E+00 -0.49055003958E+03  0.49055003958E+03  0.00000000000E+00 0.  1.
          6    1    1    2  501    0 -0.12290898568E+03 -0.38517835108E+02 -0.18103026473E+03  0.28158692997E+03  0.17300000000E+03 0. -1.
         -6    1    1    2    0  502  0.12290898568E+03  0.38517835108E+02 -0.21438051840E+03  0.30410236607E+03  0.17300000000E+03 0.  1.
<mgrwt>
<rscale>  2 0.21568320E+03</rscale>
<asrwt>0</asrwt>
<pdfrwt beam="1">  1       21 0.14636809E-01 0.21568320E+03</pdfrwt>
<pdfrwt beam="2">  1       21 0.75469237E-01 0.21568320E+03</pdfrwt>
<totfact> 0.63634303E+04</totfact>
</mgrwt>
</event>
<event>
 4    1  0.3876841E+000  0.2171648E+03  0.7546771E-02  0.1136015E+00
         21   -1    0    0  503  502  0.00000000000E+00  0.00000000000E+00  0.91560812950E+03  0.91560812950E+03  0.00000000000E+00 0.  1.
         21   -1    0    0  501  503 -0.00000000000E+00 -0.00000000000E+00 -0.54544877891E+02  0.54544877891E+02  0.00000000000E+00 0.  1.
          6    1    1    2  501    0 -0.12713529213E+03  0.32683125806E+02  0.31606160477E+03  0.38347817047E+03  0.17300000000E+03 0.  1.
         -6    1    1    2    0  502  0.12713529213E+03 -0.32683125806E+02  0.54500164684E+03  0.58667483692E+03  0.17300000000E+03 0.  1.
<mgrwt>
<rscale>  2 0.21716484E+03</rscale>
<asrwt>0</asrwt>
<pdfrwt beam="1">  1       21 0.14086278E+00 0.21716484E+03</pdfrwt>
<pdfrwt beam="2">  1       21 0.83915203E-02 0.21716484E+03</pdfrwt>
<totfact> 0.38344149E+04</totfact>
</mgrwt>
</event>
<event>
 4    1  0.3876841E+000  0.1883667E+03  0.7546771E-02  0.1159943E+00
         21   -1    0    0  503  502  0.00000000000E+00  0.00000000000E+00  0.59789321733E+02  0.59789321733E+02  0.00000000000E+00 0.  1.
         21   -1    0    0  501  503 -0.00000000000E+00 -0.00000000000E+00 -0.14332088904E+04  0.14332088904E+04  0.00000000000E+00 0.  1.
          6    1    1    2  501    0  0.23097675753E+02  0.70848619509E+02 -0.12581247439E+04  0.12721477511E+04  0.17300000000E+03 0.  1.
         -6    1    1    2    0  502 -0.23097675753E+02 -0.70848619509E+02 -0.11529482480E+03  0.22085046103E+03  0.17300000000E+03 0.  1.
<mgrwt>
<rscale>  2 0.18836674E+03</rscale>
<asrwt>0</asrwt>
<pdfrwt beam="1">  1       21 0.91983574E-02 0.18836674E+03</pdfrwt>
<pdfrwt beam="2">  1       21 0.22049367E+00 0.18836674E+03</pdfrwt>
<totfact> 0.94282069E+03</totfact>
</mgrwt>
</event>
<event>
 4    1  0.3876841E+000  0.1881129E+03  0.7546771E-02  0.1160174E+00
         21   -1    0    0  501  502  0.00000000000E+00  0.00000000000E+00  0.12669901928E+03  0.12669901928E+03  0.00000000000E+00 0.  1.
         21   -1    0    0  502  503 -0.00000000000E+00 -0.00000000000E+00 -0.84051617110E+03  0.84051617110E+03  0.00000000000E+00 0.  1.
          6    1    1    2  501    0  0.39923479585E+02  0.62157633208E+02  0.38264126774E+02  0.19196509835E+03  0.17300000000E+03 0.  1.
         -6    1    1    2    0  503 -0.39923479585E+02 -0.62157633208E+02 -0.75208127858E+03  0.77525009203E+03  0.17300000000E+03 0.  1.
<mgrwt>
<rscale>  2 0.18811288E+03</rscale>
<asrwt>0</asrwt>
<pdfrwt beam="1">  1       21 0.19492157E-01 0.18811288E+03</pdfrwt>
<pdfrwt beam="2">  1       21 0.12931018E+00 0.18811288E+03</pdfrwt>
<totfact> 0.10644537E+04</totfact>
</mgrwt>
</event>
<event>
 4    1  0.3876841E+000  0.4051072E+03  0.7546771E-02  0.1042025E+00
         21   -1    0    0  503  502  0.00000000000E+00  0.00000000000E+00  0.16016483785E+03  0.16016483785E+03  0.00000000000E+00 0. -1.
         21   -1    0    0  501  503 -0.00000000000E+00 -0.00000000000E+00 -0.10301871203E+04  0.10301871203E+04  0.00000000000E+00 0.  1.
          6    1    1    2  501    0 -0.12220916133E+03  0.34532271563E+03 -0.47867124951E+03  0.62708693349E+03  0.17300000000E+03 0.  1.
         -6    1    1    2    0  502  0.12220916133E+03 -0.34532271563E+03 -0.39135103294E+03  0.56326502468E+03  0.17300000000E+03 0. -1.
<mgrwt>
<rscale>  2 0.40510722E+03</rscale>
<asrwt>0</asrwt>
<pdfrwt beam="1">  1       21 0.24640744E-01 0.40510722E+03</pdfrwt>
<pdfrwt beam="2">  1       21 0.15849033E+00 0.40510722E+03</pdfrwt>
<totfact> 0.35341733E+03</totfact>
</mgrwt>
</event>
<event>
 4    1  0.3876841E+000  0.2067062E+03  0.7546771E-02  0.1144201E+00
         21   -1    0    0  501  502  0.00000000000E+00  0.00000000000E+00  0.19577812766E+03  0.19577812766E+03  0.00000000000E+00 0. -1.
         21   -1    0    0  502  503 -0.00000000000E+00 -0.00000000000E+00 -0.23218148634E+03  0.23218148634E+03  0.00000000000E+00 0. -1.
          6    1    1    2  501    0 -0.10280815133E+03  0.47211475403E+02 -0.70627860690E+02  0.21843931444E+03  0.17300000000E+03 0. -1.
         -6    1    1    2    0  503  0.10280815133E+03 -0.47211475403E+02  0.34224502005E+02  0.20952029956E+03  0.17300000000E+03 0. -1.
<mgrwt>
<rscale>  2 0.20670617E+03</rscale>
<asrwt>0</asrwt>
<pdfrwt beam="1">  1       21 0.30119712E-01 0.20670617E+03</pdfrwt>
<pdfrwt beam="2">  1       21 0.35720229E-01 0.20670617E+03</pdfrwt>
<totfact> 0.79427827E+04</totfact>
</mgrwt>
</event>
<event>
 4    1  0.3876841E+000  0.2189441E+03  0.7546771E-02  0.1134673E+00
         21   -1    0    0  503  502  0.00000000000E+00  0.00000000000E+00  0.43293616124E+03  0.43293616124E+03  0.00000000000E+00 0. -1.
         21   -1    0    0  501  503 -0.00000000000E+00 -0.00000000000E+00 -0.11745546555E+03  0.11745546555E+03  0.00000000000E+00 0.  1.
          6    1    1    2  501    0  0.62886274766E+02  0.11854473571E+03  0.91860665482E+02  0.23743403248E+03  0.17300000000E+03 0. -1.
         -6    1    1    2    0  502 -0.62886274766E+02 -0.11854473571E+03  0.22362003021E+03  0.31295759430E+03  0.17300000000E+03 0. -1.
<mgrwt>
<rscale>  2 0.21894414E+03</rscale>
<asrwt>0</asrwt>
<pdfrwt beam="1">  1       21 0.66605562E-01 0.21894414E+03</pdfrwt>
<pdfrwt beam="2">  1       21 0.18070072E-01 0.21894414E+03</pdfrwt>
<totfact> 0.56903451E+04</totfact>
</mgrwt>
</event>
<event>
 4    1  0.3876841E+000  0.2919041E+03  0.7546771E-02  0.1089359E+00
         21   -1    0    0  503  502  0.00000000000E+00  0.00000000000E+00  0.15666312861E+04  0.15666312861E+04  0.00000000000E+00 0.  1.
         21   -1    0    0  501  503 -0.00000000000E+00 -0.00000000000E+00 -0.58324400606E+02  0.58324400606E+02  0.00000000000E+00 0. -1.
          6    1    1    2  501    0 -0.12180769427E+03 -0.20110167419E+03  0.96519289180E+03  0.10083676493E+04  0.17300000000E+03 0.  1.
         -6    1    1    2    0  502  0.12180769427E+03  0.20110167419E+03  0.54311399373E+03  0.61658803745E+03  0.17300000000E+03 0. -1.
<mgrwt>
<rscale>  2 0.29190409E+03</rscale>
<asrwt>0</asrwt>
<pdfrwt beam="1">  1       21 0.24102017E+00 0.29190409E+03</pdfrwt>
<pdfrwt beam="2">  1       21 0.89729859E-02 0.29190409E+03</pdfrwt>
<totfact> 0.68153462E+03</totfact>
</mgrwt>
</event>
<event>
 4    1  0.3876841E+000  0.2504743E+03  0.7546771E-02  0.1113005E+00
         21   -1    0    0  501  502  0.00000000000E+00  0.00000000000E+00  0.38309167379E+03  0.38309167379E+03  0.00000000000E+00 0. -1.
         21   -1    0    0  502  503 -0.00000000000E+00 -0.00000000000E+00 -0.16385039162E+03  0.16385039162E+03  0.00000000000E+00 0.  1.
          6    1    1    2  501    0  0.71253600454E+02  0.16652720118E+03  0.11582765198E+03  0.27595910797E+03  0.17300000000E+03 0. -1.
         -6    1    1    2    0  503 -0.71253600454E+02 -0.16652720118E+03  0.10341363019E+03  0.27098295743E+03  0.17300000000E+03 0. -1.
<mgrwt>
<rscale>  2 0.25047432E+03</rscale>
<asrwt>0</asrwt>
<pdfrwt beam="1">  1       21 0.58937180E-01 0.25047432E+03</pdfrwt>
<pdfrwt beam="2">  1       21 0.25207753E-01 0.25047432E+03</pdfrwt>
<totfact> 0.39058906E+04</totfact>
</mgrwt>
</event>
<event>
 4    1  0.3876841E+000  0.2037404E+03  0.7546771E-02  0.1146621E+00
         21   -1    0    0  503  502  0.00000000000E+00  0.00000000000E+00  0.11623637709E+03  0.11623637709E+03  0.00000000000E+00 0.  1.
         21   -1    0    0  501  503 -0.00000000000E+00 -0.00000000000E+00 -0.42892378416E+03  0.42892378416E+03  0.00000000000E+00 0.  1.
          6    1    1    2  501    0  0.10215302760E+03 -0.33851225927E+02 -0.26787137127E+03  0.33654898320E+03  0.17300000000E+03 0.  1.
         -6    1    1    2    0  502 -0.10215302760E+03  0.33851225927E+02 -0.44816035804E+02  0.20861117805E+03  0.17300000000E+03 0.  1.
<mgrwt>
<rscale>  2 0.20374039E+03</rscale>
<asrwt>0</asrwt>
<pdfrwt beam="1">  1       21 0.17882519E-01 0.20374039E+03</pdfrwt>
<pdfrwt beam="2">  1       21 0.65988275E-01 0.20374039E+03</pdfrwt>
<totfact> 0.59619337E+04</totfact>
</mgrwt>
</event>
<event>
 4    1  0.3876841E+000  0.1890075E+03  0.7546771E-02  0.1159360E+00
         21   -1    0    0  503  502  0.00000000000E+00  0.00000000000E+00  0.18016422187E+03  0.18016422187E+03  0.00000000000E+00 0.  1.
         21   -1    0    0  501  503 -0.00000000000E+00 -0.00000000000E+00 -0.27663918672E+03  0.27663918672E+03  0.00000000000E+00 0.  1.
          6    1    1    2  501    0 -0.72669930407E+02  0.22670134499E+02 -0.16979273551E+03  0.25407366415E+03  0.17300000000E+03 0.  1.
         -6    1    1    2    0  502  0.72669930407E+02 -0.22670134499E+02  0.73317770666E+02  0.20272974444E+03  0.17300000000E+03 0.  1.
<mgrwt>
<rscale>  2 0.18900755E+03</rscale>
<asrwt>0</asrwt>
<pdfrwt beam="1">  1       21 0.27717573E-01 0.18900755E+03</pdfrwt>
<pdfrwt beam="2">  1       21 0.42559875E-01 0.18900755E+03</pdfrwt>
<totfact> 0.66092900E+04</totfact>
</mgrwt>
</event>
<event>
 4    1  0.3876841E+000  0.1731086E+03  0.7546771E-02  0.1174644E+00
         21   -1    0    0  501  502  0.00000000000E+00  0.00000000000E+00  0.14605694595E+04  0.14605694595E+04  0.00000000000E+00 0.  1.
         21   -1    0    0  502  503 -0.00000000000E+00 -0.00000000000E+00 -0.24963977320E+02  0.24963977320E+02  0.00000000000E+00 0.  1.
          6    1    1    2  501    0  0.42340497738E+01  0.44320945203E+01  0.10312942355E+04  0.10457219376E+04  0.17300000000E+03 0.  1.
         -6    1    1    2    0  503 -0.42340497738E+01 -0.44320945203E+01  0.40431124669E+03  0.43981149921E+03  0.17300000000E+03 0.  1.
<mgrwt>
<rscale>  2 0.17310855E+03</rscale>
<asrwt>0</asrwt>
<pdfrwt beam="1">  1       21 0.22470293E+00 0.17310855E+03</pdfrwt>
<pdfrwt beam="2">  1       21 0.38406130E-02 0.17310855E+03</pdfrwt>
<totfact> 0.40084400E+04</totfact>
</mgrwt>
</event>
<event>
 4    1  0.3876841E+000  0.2007782E+03  0.7546771E-02  0.1149084E+00
         21   -1    0    0  501  502  0.00000000000E+00  0.00000000000E+00  0.46098666032E+03  0.46098666032E+03  0.00000000000E+00 0.  1.
         21   -1    0    0  502  503 -0.00000000000E+00 -0.00000000000E+00 -0.15876587213E+03  0.15876587213E+03  0.00000000000E+00 0.  1.
          6    1    1    2  501    0 -0.73855761693E+02  0.70201236863E+02  0.35879870711E+03  0.41115495791E+03  0.17300000000E+03 0.  1.
         -6    1    1    2    0  503  0.73855761693E+02 -0.70201236863E+02 -0.56577918930E+02  0.20859757454E+03  0.17300000000E+03 0.  1.
<mgrwt>
<rscale>  2 0.20077820E+03</rscale>
<asrwt>0</asrwt>
<pdfrwt beam="1">  1       21 0.70921024E-01 0.20077820E+03</pdfrwt>
<pdfrwt beam="2">  1       21 0.24425519E-01 0.20077820E+03</pdfrwt>
<totfact> 0.28372875E+04</totfact>
</mgrwt>
</event>
<event>
 4    1  0.3876841E+000  0.2267191E+03  0.7546771E-02  0.1128971E+00
         21   -1    0    0  501  502  0.00000000000E+00  0.00000000000E+00  0.16108628727E+04  0.16108628727E+04  0.00000000000E+00 0.  1.
         21   -1    0    0  502  503 -0.00000000000E+00 -0.00000000000E+00 -0.75819559299E+02  0.75819559299E+02  0.00000000000E+00 0.  1.
          6    1    1    2  501    0  0.14621473897E+03 -0.96844171162E+01  0.14093155834E+04  0.14274354457E+04  0.17300000000E+03 0.  1.
         -6    1    1    2    0  503 -0.14621473897E+03  0.96844171162E+01  0.12572772991E+03  0.25924698628E+03  0.17300000000E+03 0.  1.
<mgrwt>
<rscale>  2 0.22671907E+03</rscale>
<asrwt>0</asrwt>
<pdfrwt beam="1">  1       21 0.24782503E+00 0.22671907E+03</pdfrwt>
<pdfrwt beam="2">  1       21 0.11664549E-01 0.22671907E+03</pdfrwt>
<totfact> 0.40871419E+03</totfact>
</mgrwt>
</event>
<event>
 4    1  0.3876841E+000  0.2054175E+03  0.7546771E-02  0.1145247E+00
         21   -1    0    0  503  502  0.00000000000E+00  0.00000000000E+00  0.16942625525E+03  0.16942625525E+03  0.00000000000E+00 0. -1.
         21   -1    0    0  501  503 -0.00000000000E+00 -0.00000000000E+00 -0.31625785902E+03  0.31625785902E+03  0.00000000000E+00 0.  1.
          6    1    1    2  501    0 -0.89366452595E+02  0.65429131739E+02  0.38527841853E+02  0.20899935102E+03  0.17300000000E+03 0. -1.
         -6    1    1    2    0  502  0.89366452595E+02 -0.65429131739E+02 -0.18535944563E+03  0.27668476325E+03  0.17300000000E+03 0.  1.
<mgrwt>
<rscale>  2 0.20541746E+03</rscale>
<asrwt>0</asrwt>
<pdfrwt beam="1">  1       21 0.26065578E-01 0.20541746E+03</pdfrwt>
<pdfrwt beam="2">  1       21 0.48655055E-01 0.20541746E+03</pdfrwt>
<totfact> 0.56056722E+04</totfact>
</mgrwt>
</event>
<event>
 4    1  0.3876841E+000  0.2133936E+03  0.7546771E-02  0.1138906E+00
         21   -1    0    0  501  502  0.00000000000E+00  0.00000000000E+00  0.18094132848E+02  0.18094132848E+02  0.00000000000E+00 0.  1.
         21   -1    0    0  502  503 -0.00000000000E+00 -0.00000000000E+00 -0.27353266541E+04  0.27353266541E+04  0.00000000000E+00 0.  1.
          6    1    1    2  501    0 -0.98509728338E+02 -0.76835390099E+02 -0.96936879464E+03  0.99257881489E+03  0.17300000000E+03 0.  1.
         -6    1    1    2    0  503  0.98509728338E+02  0.76835390099E+02 -0.17478637266E+04  0.17608419720E+04  0.17300000000E+03 0.  1.
<mgrwt>
<rscale>  2 0.21339364E+03</rscale>
<asrwt>0</asrwt>
<pdfrwt beam="1">  1       21 0.27837118E-02 0.21339364E+03</pdfrwt>
<pdfrwt beam="2">  1       21 0.42081963E+00 0.21339364E+03</pdfrwt>
<totfact> 0.44864661E+03</totfact>
</mgrwt>
</event>
<event>
 4    1  0.3876841E+000  0.2024945E+03  0.7546771E-02  0.1147651E+00
         21   -1    0    0  503  502  0.00000000000E+00  0.00000000000E+00  0.50997753649E+02  0.50997753649E+02  0.00000000000E+00 0.  1.
         21   -1    0    0  501  503 -0.00000000000E+00 -0.00000000000E+00 -0.10736258870E+04  0.10736258870E+04  0.00000000000E+00 0. -1.
          6    1    1    2  501    0  0.62157249910E+02  0.84920543077E+02 -0.79308918599E+03  0.81853190487E+03  0.17300000000E+03 0. -1.
         -6    1    1    2    0  502 -0.62157249910E+02 -0.84920543077E+02 -0.22953894733E+03  0.30609173575E+03  0.17300000000E+03 0.  1.
<mgrwt>
<rscale>  2 0.20249450E+03</rscale>
<asrwt>0</asrwt>
<pdfrwt beam="1">  1       21 0.78458094E-02 0.20249450E+03</pdfrwt>
<pdfrwt beam="2">  1       21 0.16517319E+00 0.20249450E+03</pdfrwt>
<totfact> 0.28477237E+04</totfact>
</mgrwt>
</event>
<event>
 4    1  0.3876841E+000  0.1935783E+03  0.7546771E-02  0.1155273E+00
         21   -1    0    0  501  502  0.00000000000E+00  0.00000000000E+00  0.29661724645E+03  0.29661724645E+03  0.00000000000E+00 0. -1.
         21   -1    0    0  502  503 -0.00000000000E+00 -0.00000000000E+00 -0.36750403201E+03  0.36750403201E+03  0.00000000000E+00 0. -1.
          6    1    1    2  501    0  0.61753803959E+02 -0.61074055004E+02  0.23355447512E+03  0.30334842235E+03  0.17300000000E+03 0. -1.
         -6    1    1    2    0  503 -0.61753803959E+02  0.61074055004E+02 -0.30444126067E+03  0.36077285610E+03  0.17300000000E+03 0. -1.
<mgrwt>
<rscale>  2 0.19357834E+03</rscale>
<asrwt>0</asrwt>
<pdfrwt beam="1">  1       21 0.45633423E-01 0.19357834E+03</pdfrwt>
<pdfrwt beam="2">  1       21 0.56539082E-01 0.19357834E+03</pdfrwt>
<totfact> 0.13538481E+04</totfact>
</mgrwt>
</event>
<event>
 4    1  0.3876841E+000  0.2488724E+03  0.7546771E-02  0.1114019E+00
         21   -1    0    0  503  502  0.00000000000E+00  0.00000000000E+00  0.68010769588E+03  0.68010769588E+03  0.00000000000E+00 0. -1.
         21   -1    0    0  501  503 -0.00000000000E+00 -0.00000000000E+00 -0.92174224237E+02  0.92174224237E+02  0.00000000000E+00 0.  1.
          6    1    1    2  501    0 -0.11715160472E+03  0.13521831499E+03  0.25170516194E+03  0.35396748402E+03  0.17300000000E+03 0.  1.
         -6    1    1    2    0  502  0.11715160472E+03 -0.13521831499E+03  0.33622830970E+03  0.41831443609E+03  0.17300000000E+03 0. -1.
<mgrwt>
<rscale>  2 0.24887244E+03</rscale>
<asrwt>0</asrwt>
<pdfrwt beam="1">  1       21 0.10463195E+00 0.24887244E+03</pdfrwt>
<pdfrwt beam="2">  1       21 0.14180650E-01 0.24887244E+03</pdfrwt>
<totfact> 0.31083003E+04</totfact>
</mgrwt>
</event>
<event>
 4    1  0.3876841E+000  0.1775790E+03  0.7546771E-02  0.1170167E+00
         21   -1    0    0  503  502  0.00000000000E+00  0.00000000000E+00  0.47461587013E+03  0.47461587013E+03  0.00000000000E+00 0.  1.
         21   -1    0    0  501  503 -0.00000000000E+00 -0.00000000000E+00 -0.71188650051E+02  0.71188650051E+02  0.00000000000E+00 0.  1.
          6    1    1    2  501    0 -0.32809963787E+02  0.22995537221E+02  0.13124287905E+03  0.22081436040E+03  0.17300000000E+03 0. -1.
         -6    1    1    2    0  502  0.32809963787E+02 -0.22995537221E+02  0.27218434102E+03  0.32499015978E+03  0.17300000000E+03 0. -1.
<mgrwt>
<rscale>  2 0.17757896E+03</rscale>
<asrwt>0</asrwt>
<pdfrwt beam="1">  1       21 0.73017824E-01 0.17757896E+03</pdfrwt>
<pdfrwt beam="2">  1       21 0.10952100E-01 0.17757896E+03</pdfrwt>
<totfact> 0.11721483E+05</totfact>
</mgrwt>
</event>
<event>
 4    1  0.3876841E+000  0.1784653E+03  0.7546771E-02  0.1169297E+00
         21   -1    0    0  503  502  0.00000000000E+00  0.00000000000E+00  0.19971367064E+03  0.19971367064E+03  0.00000000000E+00 0.  1.
         21   -1    0    0  501  503 -0.00000000000E+00 -0.00000000000E+00 -0.17049625801E+03  0.17049625801E+03  0.00000000000E+00 0.  1.
          6    1    1    2  501    0 -0.36963552926E+02  0.23548878196E+02 -0.32448407379E+02  0.18139116034E+03  0.17300000000E+03 0. -1.
         -6    1    1    2    0  502  0.36963552926E+02 -0.23548878196E+02  0.61665820004E+02  0.18881876831E+03  0.17300000000E+03 0. -1.
<mgrwt>
<rscale>  2 0.17846527E+03</rscale>
<asrwt>0</asrwt>
<pdfrwt beam="1">  1       21 0.30725180E-01 0.17846527E+03</pdfrwt>
<pdfrwt beam="2">  1       21 0.26230193E-01 0.17846527E+03</pdfrwt>
<totfact> 0.14118237E+05</totfact>
</mgrwt>
</event>
<event>
 4    1  0.3876841E+000  0.2181238E+03  0.7546771E-02  0.1135290E+00
         21   -1    0    0  503  502  0.00000000000E+00  0.00000000000E+00  0.22271721379E+03  0.22271721379E+03  0.00000000000E+00 0. -1.
         21   -1    0    0  501  503 -0.00000000000E+00 -0.00000000000E+00 -0.21712338629E+03  0.21712338629E+03  0.00000000000E+00 0. -1.
          6    1    1    2  501    0  0.42241315749E+02  0.12595496804E+03  0.30712123848E+02  0.22027532154E+03  0.17300000000E+03 0. -1.
         -6    1    1    2    0  502 -0.42241315749E+02 -0.12595496804E+03 -0.25118296352E+02  0.21956527854E+03  0.17300000000E+03 0. -1.
<mgrwt>
<rscale>  2 0.21812378E+03</rscale>
<asrwt>0</asrwt>
<pdfrwt beam="1">  1       21 0.34264187E-01 0.21812378E+03</pdfrwt>
<pdfrwt beam="2">  1       21 0.33403598E-01 0.21812378E+03</pdfrwt>
<totfact> 0.70063438E+04</totfact>
</mgrwt>
</event>
<event>
 4    1  0.3876841E+000  0.1874510E+03  0.7546771E-02  0.1160781E+00
         21   -1    0    0  503  502  0.00000000000E+00  0.00000000000E+00  0.35102799783E+03  0.35102799783E+03  0.00000000000E+00 0. -1.
         21   -1    0    0  501  503 -0.00000000000E+00 -0.00000000000E+00 -0.10020526570E+03  0.10020526570E+03  0.00000000000E+00 0. -1.
          6    1    1    2  501    0 -0.71882296944E+02 -0.64655902229E+01  0.13272729800E+03  0.22968326910E+03  0.17300000000E+03 0.  1.
         -6    1    1    2    0  502  0.71882296944E+02  0.64655902229E+01  0.11809543412E+03  0.22154999443E+03  0.17300000000E+03 0.  1.
<mgrwt>
<rscale>  2 0.18745098E+03</rscale>
<asrwt>0</asrwt>
<pdfrwt beam="1">  1       21 0.54004307E-01 0.18745098E+03</pdfrwt>
<pdfrwt beam="2">  1       21 0.15416195E-01 0.18745098E+03</pdfrwt>
<totfact> 0.12120979E+05</totfact>
</mgrwt>
</event>
<event>
 4    1  0.3876841E+000  0.1878387E+03  0.7546771E-02  0.1160425E+00
         21   -1    0    0  501  502  0.00000000000E+00  0.00000000000E+00  0.10221004084E+03  0.10221004084E+03  0.00000000000E+00 0. -1.
         21   -1    0    0  502  503 -0.00000000000E+00 -0.00000000000E+00 -0.35106013758E+03  0.35106013758E+03  0.00000000000E+00 0. -1.
          6    1    1    2  501    0 -0.70030823391E+02 -0.21214505979E+02 -0.15369496668E+03  0.24270458230E+03  0.17300000000E+03 0. -1.
         -6    1    1    2    0  503  0.70030823391E+02  0.21214505979E+02 -0.95155130059E+02  0.21056559611E+03  0.17300000000E+03 0. -1.
<mgrwt>
<rscale>  2 0.18783868E+03</rscale>
<asrwt>0</asrwt>
<pdfrwt beam="1">  1       21 0.15724621E-01 0.18783868E+03</pdfrwt>
<pdfrwt beam="2">  1       21 0.54009253E-01 0.18783868E+03</pdfrwt>
<totfact> 0.11686722E+05</totfact>
</mgrwt>
</event>
<event>
 4    1  0.3876841E+000  0.1870744E+03  0.7546771E-02  0.1161127E+00
         21   -1    0    0  501  502  0.00000000000E+00  0.00000000000E+00  0.13858486955E+03  0.13858486955E+03  0.00000000000E+00 0. -1.
         21   -1    0    0  502  503 -0.00000000000E+00 -0.00000000000E+00 -0.75376886500E+03  0.75376886500E+03  0.00000000000E+00 0. -1.
          6    1    1    2  501    0 -0.40565215649E+02  0.58500477174E+02  0.56247886239E+02  0.19534755503E+03  0.17300000000E+03 0. -1.
         -6    1    1    2    0  503  0.40565215649E+02 -0.58500477174E+02 -0.67143188169E+03  0.69700617953E+03  0.17300000000E+03 0. -1.
<mgrwt>
<rscale>  2 0.18707443E+03</rscale>
<asrwt>0</asrwt>
<pdfrwt beam="1">  1       21 0.21320749E-01 0.18707443E+03</pdfrwt>
<pdfrwt beam="2">  1       21 0.11596444E+00 0.18707443E+03</pdfrwt>
<totfact> 0.11808375E+04</totfact>
</mgrwt>
</event>
<event>
 4    1  0.3876841E+000  0.1980545E+03  0.7546771E-02  0.1151391E+00
         21   -1    0    0  501  502  0.00000000000E+00  0.00000000000E+00  0.55544669985E+03  0.55544669985E+03  0.00000000000E+00 0.  1.
         21   -1    0    0  502  503 -0.00000000000E+00 -0.00000000000E+00 -0.80510802943E+02  0.80510802943E+02  0.00000000000E+00 0.  1.
          6    1    1    2  501    0  0.15060157675E+02  0.95235354339E+02  0.34892033172E+03  0.40121188785E+03  0.17300000000E+03 0.  1.
         -6    1    1    2    0  503 -0.15060157675E+02 -0.95235354339E+02  0.12601556519E+03  0.23474561494E+03  0.17300000000E+03 0.  1.
<mgrwt>
<rscale>  2 0.19805449E+03</rscale>
<asrwt>0</asrwt>
<pdfrwt beam="1">  1       21 0.85453336E-01 0.19805449E+03</pdfrwt>
<pdfrwt beam="2">  1       21 0.12386278E-01 0.19805449E+03</pdfrwt>
<totfact> 0.65466550E+04</totfact>
</mgrwt>
</event>
<event>
 4    1  0.3876841E+000  0.2140916E+03  0.7546771E-02  0.1138366E+00
         21   -1    0    0  503  502  0.00000000000E+00  0.00000000000E+00  0.11922655716E+03  0.11922655716E+03  0.00000000000E+00 0. -1.
         21   -1    0    0  501  503 -0.00000000000E+00 -0.00000000000E+00 -0.45070362160E+03  0.45070362160E+03  0.00000000000E+00 0. -1.
          6    1    1    2  501    0  0.34754092773E+02 -0.12123680390E+03 -0.27500591392E+03  0.34851608611E+03  0.17300000000E+03 0. -1.
         -6    1    1    2    0  502 -0.34754092773E+02  0.12123680390E+03 -0.56471150515E+02  0.22141409265E+03  0.17300000000E+03 0. -1.
<mgrwt>
<rscale>  2 0.21409159E+03</rscale>
<asrwt>0</asrwt>
<pdfrwt beam="1">  1       21 0.18342547E-01 0.21409159E+03</pdfrwt>
<pdfrwt beam="2">  1       21 0.69339018E-01 0.21409159E+03</pdfrwt>
<totfact> 0.50769555E+04</totfact>
</mgrwt>
</event>
<event>
 4    1  0.3876841E+000  0.1942720E+03  0.7546771E-02  0.1154664E+00
         21   -1    0    0  503  502  0.00000000000E+00  0.00000000000E+00  0.97926401345E+02  0.97926401345E+02  0.00000000000E+00 0. -1.
         21   -1    0    0  501  503 -0.00000000000E+00 -0.00000000000E+00 -0.67181509483E+03  0.67181509483E+03  0.00000000000E+00 0.  1.
          6    1    1    2  501    0  0.63608529269E+02 -0.61372393090E+02 -0.53823823913E+03  0.57222549549E+03  0.17300000000E+03 0.  1.
         -6    1    1    2    0  502 -0.63608529269E+02  0.61372393090E+02 -0.35650454352E+02  0.19751600068E+03  0.17300000000E+03 0. -1.
<mgrwt>
<rscale>  2 0.19427201E+03</rscale>
<asrwt>0</asrwt>
<pdfrwt beam="1">  1       21 0.15065600E-01 0.19427201E+03</pdfrwt>
<pdfrwt beam="2">  1       21 0.10335617E+00 0.19427201E+03</pdfrwt>
<totfact> 0.29503876E+04</totfact>
</mgrwt>
</event>
<event>
 4    1  0.3876841E+000  0.3343045E+03  0.7546771E-02  0.1069248E+00
         21   -1    0    0  503  502  0.00000000000E+00  0.00000000000E+00  0.49695694940E+03  0.49695694940E+03  0.00000000000E+00 0. -1.
         21   -1    0    0  501  503 -0.00000000000E+00 -0.00000000000E+00 -0.22500503343E+03  0.22500503343E+03  0.00000000000E+00 0.  1.
          6    1    1    2  501    0  0.94480017930E+02 -0.27000748937E+03  0.14421831854E+03  0.36408576120E+03  0.17300000000E+03 0.  1.
         -6    1    1    2    0  502 -0.94480017930E+02  0.27000748937E+03  0.12773359742E+03  0.35787622164E+03  0.17300000000E+03 0. -1.
<mgrwt>
<rscale>  2 0.33430453E+03</rscale>
<asrwt>0</asrwt>
<pdfrwt beam="1">  1       21 0.76454915E-01 0.33430453E+03</pdfrwt>
<pdfrwt beam="2">  1       21 0.34616159E-01 0.33430453E+03</pdfrwt>
<totfact> 0.11381029E+04</totfact>
</mgrwt>
</event>
<event>
 4    1  0.3876841E+000  0.1914535E+03  0.7546771E-02  0.1157157E+00
         21   -1    0    0  503  502  0.00000000000E+00  0.00000000000E+00  0.21575935859E+03  0.21575935859E+03  0.00000000000E+00 0.  1.
         21   -1    0    0  501  503 -0.00000000000E+00 -0.00000000000E+00 -0.17009902230E+03  0.17009902230E+03  0.00000000000E+00 0. -1.
          6    1    1    2  501    0  0.39930510308E+02  0.71630893414E+02  0.15997961203E+02  0.19212070505E+03  0.17300000000E+03 0. -1.
         -6    1    1    2    0  502 -0.39930510308E+02 -0.71630893414E+02  0.29662375083E+02  0.19373767584E+03  0.17300000000E+03 0.  1.
<mgrwt>
<rscale>  2 0.19145347E+03</rscale>
<asrwt>0</asrwt>
<pdfrwt beam="1">  1       21 0.33193748E-01 0.19145347E+03</pdfrwt>
<pdfrwt beam="2">  1       21 0.26169080E-01 0.19145347E+03</pdfrwt>
<totfact> 0.12134094E+05</totfact>
</mgrwt>
</event>
<event>
 4    1  0.3876841E+000  0.1806532E+03  0.7546771E-02  0.1167172E+00
         21   -1    0    0  501  502  0.00000000000E+00  0.00000000000E+00  0.37342268107E+03  0.37342268107E+03  0.00000000000E+00 0. -1.
         21   -1    0    0  502  503 -0.00000000000E+00 -0.00000000000E+00 -0.94188161267E+02  0.94188161267E+02  0.00000000000E+00 0. -1.
          6    1    1    2  501    0 -0.36610063116E+02 -0.36963391053E+02  0.20240365049E+03  0.27129840901E+03  0.17300000000E+03 0. -1.
         -6    1    1    2    0  503  0.36610063116E+02  0.36963391053E+02  0.76830869313E+02  0.19631243333E+03  0.17300000000E+03 0. -1.
<mgrwt>
<rscale>  2 0.18065323E+03</rscale>
<asrwt>0</asrwt>
<pdfrwt beam="1">  1       21 0.57449643E-01 0.18065323E+03</pdfrwt>
<pdfrwt beam="2">  1       21 0.14490487E-01 0.18065323E+03</pdfrwt>
<totfact> 0.11929420E+05</totfact>
</mgrwt>
</event>
<event>
 4    1  0.3876841E+000  0.2162002E+03  0.7546771E-02  0.1136748E+00
         21   -1    0    0  503  502  0.00000000000E+00  0.00000000000E+00  0.40864019204E+03  0.40864019204E+03  0.00000000000E+00 0.  1.
         21   -1    0    0  501  503 -0.00000000000E+00 -0.00000000000E+00 -0.13080890016E+03  0.13080890016E+03  0.00000000000E+00 0.  1.
          6    1    1    2  501    0 -0.46884021744E+02  0.12089424903E+03  0.43343184685E+02  0.22050206938E+03  0.17300000000E+03 0.  1.
         -6    1    1    2    0  502  0.46884021744E+02 -0.12089424903E+03  0.23448810720E+03  0.31894702281E+03  0.17300000000E+03 0.  1.
<mgrwt>
<rscale>  2 0.21620021E+03</rscale>
<asrwt>0</asrwt>
<pdfrwt beam="1">  1       21 0.62867721E-01 0.21620021E+03</pdfrwt>
<pdfrwt beam="2">  1       21 0.20124446E-01 0.21620021E+03</pdfrwt>
<totfact> 0.52868101E+04</totfact>
</mgrwt>
</event>
<event>
 4    1  0.3876841E+000  0.2148808E+03  0.7546771E-02  0.1137758E+00
         21   -1    0    0  501  502  0.00000000000E+00  0.00000000000E+00  0.16124675933E+03  0.16124675933E+03  0.00000000000E+00 0.  1.
         21   -1    0    0  502  503 -0.00000000000E+00 -0.00000000000E+00 -0.30641734408E+03  0.30641734408E+03  0.00000000000E+00 0. -1.
          6    1    1    2  501    0  0.11797211088E+03  0.48242523613E+02 -0.13241845334E+03  0.25240524324E+03  0.17300000000E+03 0. -1.
         -6    1    1    2    0  503 -0.11797211088E+03 -0.48242523613E+02 -0.12752131413E+02  0.21525886018E+03  0.17300000000E+03 0.  1.
<mgrwt>
<rscale>  2 0.21488080E+03</rscale>
<asrwt>0</asrwt>
<pdfrwt beam="1">  1       21 0.24807194E-01 0.21488080E+03</pdfrwt>
<pdfrwt beam="2">  1       21 0.47141130E-01 0.21488080E+03</pdfrwt>
<totfact> 0.65536054E+04</totfact>
</mgrwt>
</event>
<event>
 4    1  0.3876841E+000  0.1762173E+03  0.7546771E-02  0.1171515E+00
         21   -1    0    0  503  502  0.00000000000E+00  0.00000000000E+00  0.57794358235E+02  0.57794358235E+02  0.00000000000E+00 0.  1.
         21   -1    0    0  501  503 -0.00000000000E+00 -0.00000000000E+00 -0.54805550007E+03  0.54805550007E+03  0.00000000000E+00 0.  1.
          6    1    1    2  501    0  0.18459057182E+02 -0.27978671884E+02 -0.20268173365E+03  0.26857480899E+03  0.17300000000E+03 0.  1.
         -6    1    1    2    0  502 -0.18459057182E+02  0.27978671884E+02 -0.28757940819E+03  0.33727504931E+03  0.17300000000E+03 0.  1.
<mgrwt>
<rscale>  2 0.17621732E+03</rscale>
<asrwt>0</asrwt>
<pdfrwt beam="1">  1       21 0.88914395E-02 0.17621732E+03</pdfrwt>
<pdfrwt beam="2">  1       21 0.84316233E-01 0.17621732E+03</pdfrwt>
<totfact> 0.12254519E+05</totfact>
</mgrwt>
</event>
<event>
 4    1  0.3876841E+000  0.1791110E+03  0.7546771E-02  0.1168666E+00
         21   -1    0    0  503  502  0.00000000000E+00  0.00000000000E+00  0.36092343536E+03  0.36092343536E+03  0.00000000000E+00 0. -1.
         21   -1    0    0  501  503 -0.00000000000E+00 -0.00000000000E+00 -0.28977556471E+03  0.28977556471E+03  0.00000000000E+00 0. -1.
          6    1    1    2  501    0  0.25070991287E+02  0.39027931323E+02 -0.23531974275E+03  0.29572980127E+03  0.17300000000E+03 0. -1.
         -6    1    1    2    0  502 -0.25070991287E+02 -0.39027931323E+02  0.30646761341E+03  0.35496919880E+03  0.17300000000E+03 0. -1.
<mgrwt>
<rscale>  2 0.17911095E+03</rscale>
<asrwt>0</asrwt>
<pdfrwt beam="1">  1       21 0.55526682E-01 0.17911095E+03</pdfrwt>
<pdfrwt beam="2">  1       21 0.44580856E-01 0.17911095E+03</pdfrwt>
<totfact> 0.14894612E+04</totfact>
</mgrwt>
</event>
<event>
 4    1  0.3876841E+000  0.1907050E+03  0.7546771E-02  0.1157827E+00
         21   -1    0    0  501  502  0.00000000000E+00  0.00000000000E+00  0.10876131764E+03  0.10876131764E+03  0.00000000000E+00 0.  1.
         21   -1    0    0  502  503 -0.00000000000E+00 -0.00000000000E+00 -0.51196461932E+03  0.51196461932E+03  0.00000000000E+00 0.  1.
          6    1    1    2  501    0  0.67908824825E+02 -0.42752533672E+02 -0.18815264416E+02  0.19163089991E+03  0.17300000000E+03 0.  1.
         -6    1    1    2    0  503 -0.67908824825E+02  0.42752533672E+02 -0.38438803727E+03  0.42909503705E+03  0.17300000000E+03 0.  1.
<mgrwt>
<rscale>  2 0.19070498E+03</rscale>
<asrwt>0</asrwt>
<pdfrwt beam="1">  1       21 0.16732510E-01 0.19070498E+03</pdfrwt>
<pdfrwt beam="2">  1       21 0.78763789E-01 0.19070498E+03</pdfrwt>
<totfact> 0.45801975E+04</totfact>
</mgrwt>
</event>
<event>
 4    1  0.3876841E+000  0.1986024E+03  0.7546771E-02  0.1150924E+00
         21   -1    0    0  501  502  0.00000000000E+00  0.00000000000E+00  0.18761489254E+03  0.18761489254E+03  0.00000000000E+00 0.  1.
         21   -1    0    0  502  503 -0.00000000000E+00 -0.00000000000E+00 -0.26636662970E+03  0.26636662970E+03  0.00000000000E+00 0.  1.
          6    1    1    2  501    0  0.87388590986E+02 -0.43325893986E+02  0.64826755588E+02  0.20891483232E+03  0.17300000000E+03 0.  1.
         -6    1    1    2    0  503 -0.87388590986E+02  0.43325893986E+02 -0.14357849275E+03  0.24506668991E+03  0.17300000000E+03 0.  1.
<mgrwt>
<rscale>  2 0.19860236E+03</rscale>
<asrwt>0</asrwt>
<pdfrwt beam="1">  1       21 0.28863830E-01 0.19860236E+03</pdfrwt>
<pdfrwt beam="2">  1       21 0.40979482E-01 0.19860236E+03</pdfrwt>
<totfact> 0.65709176E+04</totfact>
</mgrwt>
</event>
<event>
 4    1  0.3876841E+000  0.1970282E+03  0.7546771E-02  0.1152271E+00
         21   -1    0    0  503  502  0.00000000000E+00  0.00000000000E+00  0.10845683521E+03  0.10845683521E+03  0.00000000000E+00 0.  1.
         21   -1    0    0  501  503 -0.00000000000E+00 -0.00000000000E+00 -0.62266306438E+03  0.62266306438E+03  0.00000000000E+00 0.  1.
          6    1    1    2  501    0  0.93473353758E+02 -0.12402621723E+02 -0.49546406447E+03  0.53320233689E+03  0.17300000000E+03 0.  1.
         -6    1    1    2    0  502 -0.93473353758E+02  0.12402621723E+02 -0.18742164701E+02  0.19791756270E+03  0.17300000000E+03 0.  1.
<mgrwt>
<rscale>  2 0.19702815E+03</rscale>
<asrwt>0</asrwt>
<pdfrwt beam="1">  1       21 0.16685667E-01 0.19702815E+03</pdfrwt>
<pdfrwt beam="2">  1       21 0.95794318E-01 0.19702815E+03</pdfrwt>
<totfact> 0.29256913E+04</totfact>
</mgrwt>
</event>
<event>
 4    1  0.3876841E+000  0.1830206E+03  0.7546771E-02  0.1164911E+00
         21   -1    0    0  501  502  0.00000000000E+00  0.00000000000E+00  0.24480073553E+03  0.24480073553E+03  0.00000000000E+00 0. -1.
         21   -1    0    0  502  503 -0.00000000000E+00 -0.00000000000E+00 -0.25442312979E+03  0.25442312979E+03  0.00000000000E+00 0. -1.
          6    1    1    2  501    0  0.92100135013E+01 -0.59014455201E+02 -0.17450839094E+03  0.25288279653E+03  0.17300000000E+03 0. -1.
         -6    1    1    2    0  503 -0.92100135013E+01  0.59014455201E+02  0.16488599668E+03  0.24634106879E+03  0.17300000000E+03 0. -1.
<mgrwt>
<rscale>  2 0.18302057E+03</rscale>
<asrwt>0</asrwt>
<pdfrwt beam="1">  1       21 0.37661652E-01 0.18302057E+03</pdfrwt>
<pdfrwt beam="2">  1       21 0.39142020E-01 0.18302057E+03</pdfrwt>
<totfact> 0.42988994E+04</totfact>
</mgrwt>
</event>
<event>
 4    1  0.3876841E+000  0.1907810E+03  0.7546771E-02  0.1157759E+00
         21   -1    0    0  503  502  0.00000000000E+00  0.00000000000E+00  0.13911545273E+03  0.13911545273E+03  0.00000000000E+00 0.  1.
         21   -1    0    0  501  503 -0.00000000000E+00 -0.00000000000E+00 -0.26382380585E+03  0.26382380585E+03  0.00000000000E+00 0. -1.
          6    1    1    2  501    0  0.69750948291E+02  0.40040074053E+02 -0.44001241405E+02  0.19578945723E+03  0.17300000000E+03 0.  1.
         -6    1    1    2    0  502 -0.69750948291E+02 -0.40040074053E+02 -0.80707111715E+02  0.20714980135E+03  0.17300000000E+03 0. -1.
<mgrwt>
<rscale>  2 0.19078103E+03</rscale>
<asrwt>0</asrwt>
<pdfrwt beam="1">  1       21 0.21402377E-01 0.19078103E+03</pdfrwt>
<pdfrwt beam="2">  1       21 0.40588278E-01 0.19078103E+03</pdfrwt>
<totfact> 0.11897907E+05</totfact>
</mgrwt>
</event>
<event>
 4    1  0.3876841E+000  0.2322611E+03  0.7546771E-02  0.1125058E+00
         21   -1    0    0  503  502  0.00000000000E+00  0.00000000000E+00  0.33272998848E+03  0.33272998848E+03  0.00000000000E+00 0.  1.
         21   -1    0    0  501  503 -0.00000000000E+00 -0.00000000000E+00 -0.16234704996E+03  0.16234704996E+03  0.00000000000E+00 0.  1.
          6    1    1    2  501    0 -0.12773878599E+03  0.87743993301E+02  0.94261781610E+02  0.25066010708E+03  0.17300000000E+03 0.  1.
         -6    1    1    2    0  502  0.12773878599E+03 -0.87743993301E+02  0.76121156917E+02  0.24441693136E+03  0.17300000000E+03 0.  1.
<mgrwt>
<rscale>  2 0.23226107E+03</rscale>
<asrwt>0</asrwt>
<pdfrwt beam="1">  1       21 0.51189229E-01 0.23226107E+03</pdfrwt>
<pdfrwt beam="2">  1       21 0.24976469E-01 0.23226107E+03</pdfrwt>
<totfact> 0.54068302E+04</totfact>
</mgrwt>
</event>
<event>
 4    1  0.3876841E+000  0.3199845E+03  0.7546771E-02  0.1075656E+00
         21   -1    0    0  503  502  0.00000000000E+00  0.00000000000E+00  0.34745302263E+03  0.34745302263E+03  0.00000000000E+00 0. -1.
         21   -1    0    0  501  503 -0.00000000000E+00 -0.00000000000E+00 -0.61882542009E+03  0.61882542009E+03  0.00000000000E+00 0. -1.
          6    1    1    2  501    0  0.23027598758E+03  0.13940604625E+03 -0.48535196626E+03  0.58134035413E+03  0.17300000000E+03 0. -1.
         -6    1    1    2    0  502 -0.23027598758E+03 -0.13940604625E+03  0.21397956879E+03  0.38493808859E+03  0.17300000000E+03 0. -1.
<mgrwt>
<rscale>  2 0.31998449E+03</rscale>
<asrwt>0</asrwt>
<pdfrwt beam="1">  1       21 0.53454312E-01 0.31998449E+03</pdfrwt>
<pdfrwt beam="2">  1       21 0.95203910E-01 0.31998449E+03</pdfrwt>
<totfact> 0.28026771E+03</totfact>
</mgrwt>
</event>
<event>
 4    1  0.3876841E+000  0.2932949E+03  0.7546771E-02  0.1088641E+00
         21   -1    0    0  501  502  0.00000000000E+00  0.00000000000E+00  0.10642246265E+04  0.10642246265E+04  0.00000000000E+00 0. -1.
         21   -1    0    0  502  503 -0.00000000000E+00 -0.00000000000E+00 -0.35487284263E+03  0.35487284263E+03  0.00000000000E+00 0. -1.
          6    1    1    2  501    0 -0.23117760042E+03  0.51476624030E+02  0.97820193239E+03  0.10212252182E+04  0.17300000000E+03 0. -1.
         -6    1    1    2    0  503  0.23117760042E+03 -0.51476624030E+02 -0.26885014847E+03  0.39787225097E+03  0.17300000000E+03 0. -1.
<mgrwt>
<rscale>  2 0.29329495E+03</rscale>
<asrwt>0</asrwt>
<pdfrwt beam="1">  1       21 0.16372686E+00 0.29329495E+03</pdfrwt>
<pdfrwt beam="2">  1       21 0.54595822E-01 0.29329495E+03</pdfrwt>
<totfact> 0.68404301E+02</totfact>
</mgrwt>
</event>
<event>
 4    1  0.3876841E+000  0.2567755E+03  0.7546771E-02  0.1109096E+00
         21   -1    0    0  501  502  0.00000000000E+00  0.00000000000E+00  0.13907627448E+04  0.13907627448E+04  0.00000000000E+00 0.  1.
         21   -1    0    0  502  503 -0.00000000000E+00 -0.00000000000E+00 -0.48776339200E+02  0.48776339200E+02  0.00000000000E+00 0. -1.
          6    1    1    2  501    0  0.18045205859E+03  0.58666091479E+02  0.55044995358E+03  0.60739509970E+03  0.17300000000E+03 0. -1.
         -6    1    1    2    0  503 -0.18045205859E+03 -0.58666091479E+02  0.79153645205E+03  0.83214398433E+03  0.17300000000E+03 0. -1.
<mgrwt>
<rscale>  2 0.25677550E+03</rscale>
<asrwt>0</asrwt>
<pdfrwt beam="1">  1       21 0.21396347E+00 0.25677550E+03</pdfrwt>
<pdfrwt beam="2">  1       21 0.75040532E-02 0.25677550E+03</pdfrwt>
<totfact> 0.14023627E+04</totfact>
</mgrwt>
</event>
<event>
 4    1  0.3876841E+000  0.1876338E+03  0.7546771E-02  0.1160613E+00
         21   -1    0    0  501  502  0.00000000000E+00  0.00000000000E+00  0.60785614211E+03  0.60785614211E+03  0.00000000000E+00 0. -1.
         21   -1    0    0  502  503 -0.00000000000E+00 -0.00000000000E+00 -0.12292416501E+03  0.12292416501E+03  0.00000000000E+00 0. -1.
          6    1    1    2  501    0 -0.58778630829E+02  0.42690752754E+02  0.50817855580E+03  0.54171198287E+03  0.17300000000E+03 0. -1.
         -6    1    1    2    0  503  0.58778630829E+02 -0.42690752754E+02 -0.23246578698E+02  0.18906832425E+03  0.17300000000E+03 0. -1.
<mgrwt>
<rscale>  2 0.18763376E+03</rscale>
<asrwt>0</asrwt>
<pdfrwt beam="1">  1       21 0.93516328E-01 0.18763376E+03</pdfrwt>
<pdfrwt beam="2">  1       21 0.18911410E-01 0.18763376E+03</pdfrwt>
<totfact> 0.24694340E+04</totfact>
</mgrwt>
</event>
<event>
 4    1  0.3876841E+000  0.2897782E+03  0.7546771E-02  0.1090465E+00
         21   -1    0    0  503  502  0.00000000000E+00  0.00000000000E+00  0.22434716698E+03  0.22434716698E+03  0.00000000000E+00 0.  1.
         21   -1    0    0  501  503 -0.00000000000E+00 -0.00000000000E+00 -0.12592855418E+04  0.12592855418E+04  0.00000000000E+00 0. -1.
          6    1    1    2  501    0  0.41321371748E+02  0.22876831128E+03 -0.11393459019E+04  0.11756191901E+04  0.17300000000E+03 0. -1.
         -6    1    1    2    0  502 -0.41321371748E+02 -0.22876831128E+03  0.10440752703E+03  0.30801351871E+03  0.17300000000E+03 0.  1.
<mgrwt>
<rscale>  2 0.28977818E+03</rscale>
<asrwt>0</asrwt>
<pdfrwt beam="1">  1       21 0.34514948E-01 0.28977818E+03</pdfrwt>
<pdfrwt beam="2">  1       21 0.19373624E+00 0.28977818E+03</pdfrwt>
<totfact> 0.10925777E+03</totfact>
</mgrwt>
</event>
<event>
 4    1  0.3876841E+000  0.2551504E+03  0.7546771E-02  0.1110092E+00
         21   -1    0    0  501  502  0.00000000000E+00  0.00000000000E+00  0.60761050573E+03  0.60761050573E+03  0.00000000000E+00 0. -1.
         21   -1    0    0  502  503 -0.00000000000E+00 -0.00000000000E+00 -0.10877393284E+03  0.10877393284E+03  0.00000000000E+00 0.  1.
          6    1    1    2  501    0  0.15947211395E+03  0.98698286889E+02  0.20556891461E+03  0.32765879450E+03  0.17300000000E+03 0.  1.
         -6    1    1    2    0  503 -0.15947211395E+03 -0.98698286889E+02  0.29326765828E+03  0.38872564406E+03  0.17300000000E+03 0. -1.
<mgrwt>
<rscale>  2 0.25515036E+03</rscale>
<asrwt>0</asrwt>
<pdfrwt beam="1">  1       21 0.93478537E-01 0.25515036E+03</pdfrwt>
<pdfrwt beam="2">  1       21 0.16734452E-01 0.25515036E+03</pdfrwt>
<totfact> 0.29920217E+04</totfact>
</mgrwt>
</event>
<event>
 4    1  0.3876841E+000  0.1985528E+03  0.7546771E-02  0.1150966E+00
         21   -1    0    0  503  502  0.00000000000E+00  0.00000000000E+00  0.21210421738E+02  0.21210421738E+02  0.00000000000E+00 0. -1.
         21   -1    0    0  501  503 -0.00000000000E+00 -0.00000000000E+00 -0.19207774832E+04  0.19207774832E+04  0.00000000000E+00 0.  1.
          6    1    1    2  501    0  0.60694976998E+02 -0.76225453139E+02 -0.11243841504E+04  0.11417805908E+04  0.17300000000E+03 0. -1.
         -6    1    1    2    0  502 -0.60694976998E+02  0.76225453139E+02 -0.77518291103E+03  0.80020731407E+03  0.17300000000E+03 0.  1.
<mgrwt>
<rscale>  2 0.19855276E+03</rscale>
<asrwt>0</asrwt>
<pdfrwt beam="1">  1       21 0.32631423E-02 0.19855276E+03</pdfrwt>
<pdfrwt beam="2">  1       21 0.29550418E+00 0.19855276E+03</pdfrwt>
<totfact> 0.19826622E+04</totfact>
</mgrwt>
</event>
<event>
 4    1  0.3876841E+000  0.1811521E+03  0.7546771E-02  0.1166693E+00
         21   -1    0    0  501  502  0.00000000000E+00  0.00000000000E+00  0.12685112744E+04  0.12685112744E+04  0.00000000000E+00 0.  1.
         21   -1    0    0  502  503 -0.00000000000E+00 -0.00000000000E+00 -0.47685989224E+02  0.47685989224E+02  0.00000000000E+00 0.  1.
          6    1    1    2  501    0 -0.53467825463E+02  0.53172716305E+01  0.10555411796E+04  0.10709730452E+04  0.17300000000E+03 0. -1.
         -6    1    1    2    0  503  0.53467825463E+02 -0.53172716305E+01  0.16528410556E+03  0.24522421840E+03  0.17300000000E+03 0. -1.
<mgrwt>
<rscale>  2 0.18115210E+03</rscale>
<asrwt>0</asrwt>
<pdfrwt beam="1">  1       21 0.19515556E+00 0.18115210E+03</pdfrwt>
<pdfrwt beam="2">  1       21 0.73363070E-02 0.18115210E+03</pdfrwt>
<totfact> 0.20303127E+04</totfact>
</mgrwt>
</event>
<event>
 4    1  0.3876841E+000  0.3015302E+03  0.7546771E-02  0.1084478E+00
         21   -1    0    0  501  502  0.00000000000E+00  0.00000000000E+00  0.65350922357E+03  0.65350922357E+03  0.00000000000E+00 0.  1.
         21   -1    0    0  502  503 -0.00000000000E+00 -0.00000000000E+00 -0.14672950641E+03  0.14672950641E+03  0.00000000000E+00 0.  1.
          6    1    1    2  501    0  0.23608670846E+03  0.72488268499E+02  0.34446967007E+03  0.45779890408E+03  0.17300000000E+03 0.  1.
         -6    1    1    2    0  503 -0.23608670846E+03 -0.72488268499E+02  0.16231004709E+03  0.34243982590E+03  0.17300000000E+03 0.  1.
<mgrwt>
<rscale>  2 0.30153024E+03</rscale>
<asrwt>0</asrwt>
<pdfrwt beam="1">  1       21 0.10053988E+00 0.30153024E+03</pdfrwt>
<pdfrwt beam="2">  1       21 0.22573771E-01 0.30153024E+03</pdfrwt>
<totfact> 0.14049165E+04</totfact>
</mgrwt>
</event>
<event>
 4    1  0.3876841E+000  0.1732037E+03  0.7546771E-02  0.1174547E+00
         21   -1    0    0  503  502  0.00000000000E+00  0.00000000000E+00  0.12055462733E+04  0.12055462733E+04  0.00000000000E+00 0. -1.
         21   -1    0    0  501  503 -0.00000000000E+00 -0.00000000000E+00 -0.31041156547E+02  0.31041156547E+02  0.00000000000E+00 0. -1.
          6    1    1    2  501    0 -0.13802686117E+01 -0.82835127461E+01  0.31189610325E+03  0.35676140619E+03  0.17300000000E+03 0. -1.
         -6    1    1    2    0  502  0.13802686117E+01  0.82835127461E+01  0.86260901353E+03  0.87982602368E+03  0.17300000000E+03 0. -1.
<mgrwt>
<rscale>  2 0.17320370E+03</rscale>
<asrwt>0</asrwt>
<pdfrwt beam="1">  1       21 0.18546862E+00 0.17320370E+03</pdfrwt>
<pdfrwt beam="2">  1       21 0.47755635E-02 0.17320370E+03</pdfrwt>
<totfact> 0.49205268E+04</totfact>
</mgrwt>
</event>
<event>
 4    1  0.3876841E+000  0.2105478E+03  0.7546771E-02  0.1141133E+00
         21   -1    0    0  501  502  0.00000000000E+00  0.00000000000E+00  0.79742153275E+03  0.79742153275E+03  0.00000000000E+00 0.  1.
         21   -1    0    0  502  503 -0.00000000000E+00 -0.00000000000E+00 -0.61541379903E+02  0.61541379903E+02  0.00000000000E+00 0.  1.
          6    1    1    2  501    0 -0.45224913060E+02  0.11115794433E+03  0.50147381256E+03  0.54388083808E+03  0.17300000000E+03 0.  1.
         -6    1    1    2    0  503  0.45224913060E+02 -0.11115794433E+03  0.23440634029E+03  0.31508207458E+03  0.17300000000E+03 0.  1.
<mgrwt>
<rscale>  2 0.21054781E+03</rscale>
<asrwt>0</asrwt>
<pdfrwt beam="1">  1       21 0.12268023E+00 0.21054781E+03</pdfrwt>
<pdfrwt beam="2">  1       21 0.94679052E-02 0.21054781E+03</pdfrwt>
<totfact> 0.44236815E+04</totfact>
</mgrwt>
</event>
<event>
 4    1  0.3876841E+000  0.2737957E+03  0.7546771E-02  0.1099127E+00
         21   -1    0    0  503  502  0.00000000000E+00  0.00000000000E+00  0.13144512776E+03  0.13144512776E+03  0.00000000000E+00 0. -1.
         21   -1    0    0  501  503 -0.00000000000E+00 -0.00000000000E+00 -0.80878583324E+03  0.80878583324E+03  0.00000000000E+00 0. -1.
          6    1    1    2  501    0  0.21194950189E+03  0.10607007719E+02 -0.83392850996E+02  0.28621402405E+03  0.17300000000E+03 0. -1.
         -6    1    1    2    0  502 -0.21194950189E+03 -0.10607007719E+02 -0.59394785449E+03  0.65401693695E+03  0.17300000000E+03 0. -1.
<mgrwt>
<rscale>  2 0.27379573E+03</rscale>
<asrwt>0</asrwt>
<pdfrwt beam="1">  1       21 0.20222327E-01 0.27379573E+03</pdfrwt>
<pdfrwt beam="2">  1       21 0.12442859E+00 0.27379573E+03</pdfrwt>
<totfact> 0.10374264E+04</totfact>
</mgrwt>
</event>
<event>
 4    1  0.3876841E+000  0.2474998E+03  0.7546771E-02  0.1114895E+00
         21   -1    0    0  501  502  0.00000000000E+00  0.00000000000E+00  0.59873614269E+03  0.59873614269E+03  0.00000000000E+00 0. -1.
         21   -1    0    0  502  503 -0.00000000000E+00 -0.00000000000E+00 -0.22081375012E+03  0.22081375012E+03  0.00000000000E+00 0. -1.
          6    1    1    2  501    0 -0.19003277525E+02  0.17597172973E+03  0.48915379850E+03  0.54820398832E+03  0.17300000000E+03 0. -1.
         -6    1    1    2    0  503  0.19003277525E+02 -0.17597172973E+03 -0.11123140593E+03  0.27134590449E+03  0.17300000000E+03 0. -1.
<mgrwt>
<rscale>  2 0.24749985E+03</rscale>
<asrwt>0</asrwt>
<pdfrwt beam="1">  1       21 0.92113252E-01 0.24749985E+03</pdfrwt>
<pdfrwt beam="2">  1       21 0.33971346E-01 0.24749985E+03</pdfrwt>
<totfact> 0.80150550E+03</totfact>
</mgrwt>
</event>
<event>
 4    1  0.3876841E+000  0.2360151E+03  0.7546771E-02  0.1122476E+00
         21   -1    0    0  503  502  0.00000000000E+00  0.00000000000E+00  0.41408889908E+03  0.41408889908E+03  0.00000000000E+00 0.  1.
         21   -1    0    0  501  503 -0.00000000000E+00 -0.00000000000E+00 -0.14288646642E+03  0.14288646642E+03  0.00000000000E+00 0.  1.
          6    1    1    2  501    0  0.91930743349E+02  0.13161631628E+03  0.68212194479E+02  0.24567462172E+03  0.17300000000E+03 0.  1.
         -6    1    1    2    0  502 -0.91930743349E+02 -0.13161631628E+03  0.20299023818E+03  0.31130074378E+03  0.17300000000E+03 0.  1.
<mgrwt>
<rscale>  2 0.23601508E+03</rscale>
<asrwt>0</asrwt>
<pdfrwt beam="1">  1       21 0.63705984E-01 0.23601508E+03</pdfrwt>
<pdfrwt beam="2">  1       21 0.21982533E-01 0.23601508E+03</pdfrwt>
<totfact> 0.43111294E+04</totfact>
</mgrwt>
</event>
<event>
 4    1  0.3876841E+000  0.1852531E+03  0.7546771E-02  0.1162814E+00
         21   -1    0    0  501  502  0.00000000000E+00  0.00000000000E+00  0.12550257893E+03  0.12550257893E+03  0.00000000000E+00 0.  1.
         21   -1    0    0  502  503 -0.00000000000E+00 -0.00000000000E+00 -0.54888749387E+03  0.54888749387E+03  0.00000000000E+00 0.  1.
          6    1    1    2  501    0 -0.51427182534E+02 -0.41772859525E+02  0.27171564721E+02  0.18723520189E+03  0.17300000000E+03 0.  1.
         -6    1    1    2    0  503  0.51427182534E+02  0.41772859525E+02 -0.45055647966E+03  0.48715487091E+03  0.17300000000E+03 0.  1.
<mgrwt>
<rscale>  2 0.18525314E+03</rscale>
<asrwt>0</asrwt>
<pdfrwt beam="1">  1       21 0.19308089E-01 0.18525314E+03</pdfrwt>
<pdfrwt beam="2">  1       21 0.84444231E-01 0.18525314E+03</pdfrwt>
<totfact> 0.30104862E+04</totfact>
</mgrwt>
</event>
<event>
 4    1  0.3876841E+000  0.2175302E+03  0.7546771E-02  0.1135738E+00
         21   -1    0    0  503  502  0.00000000000E+00  0.00000000000E+00  0.98997707794E+02  0.98997707794E+02  0.00000000000E+00 0.  1.
         21   -1    0    0  501  503 -0.00000000000E+00 -0.00000000000E+00 -0.56106991151E+03  0.56106991151E+03  0.00000000000E+00 0.  1.
          6    1    1    2  501    0 -0.11660694936E+03 -0.61589092709E+02 -0.35803841018E+03  0.41894021070E+03  0.17300000000E+03 0.  1.
         -6    1    1    2    0  502  0.11660694936E+03  0.61589092709E+02 -0.10403379354E+03  0.24112740860E+03  0.17300000000E+03 0.  1.
<mgrwt>
<rscale>  2 0.21753022E+03</rscale>
<asrwt>0</asrwt>
<pdfrwt beam="1">  1       21 0.15230417E-01 0.21753022E+03</pdfrwt>
<pdfrwt beam="2">  1       21 0.86318448E-01 0.21753022E+03</pdfrwt>
<totfact> 0.43580481E+04</totfact>
</mgrwt>
</event>
<event>
 4    1  0.3876841E+000  0.2301220E+03  0.7546771E-02  0.1126554E+00
         21   -1    0    0  503  502  0.00000000000E+00  0.00000000000E+00  0.64473742161E+03  0.64473742161E+03  0.00000000000E+00 0. -1.
         21   -1    0    0  501  503 -0.00000000000E+00 -0.00000000000E+00 -0.98233670489E+02  0.98233670489E+02  0.00000000000E+00 0.  1.
          6    1    1    2  501    0 -0.37127211291E+02  0.14713505491E+03  0.12287078726E+03  0.26087043635E+03  0.17300000000E+03 0.  1.
         -6    1    1    2    0  502  0.37127211291E+02 -0.14713505491E+03  0.42363296386E+03  0.48210065574E+03  0.17300000000E+03 0. -1.
<mgrwt>
<rscale>  2 0.23012204E+03</rscale>
<asrwt>0</asrwt>
<pdfrwt beam="1">  1       21 0.99190370E-01 0.23012204E+03</pdfrwt>
<pdfrwt beam="2">  1       21 0.15112873E-01 0.23012204E+03</pdfrwt>
<totfact> 0.31739157E+04</totfact>
</mgrwt>
</event>
<event>
 4    1  0.3876841E+000  0.1970823E+03  0.7546771E-02  0.1152224E+00
         21   -1    0    0  503  502  0.00000000000E+00  0.00000000000E+00  0.46802453999E+02  0.46802453999E+02  0.00000000000E+00 0.  1.
         21   -1    0    0  501  503 -0.00000000000E+00 -0.00000000000E+00 -0.12841606497E+04  0.12841606497E+04  0.00000000000E+00 0.  1.
          6    1    1    2  501    0  0.69361675310E+02 -0.64041967328E+02 -0.10144813837E+04  0.10334475765E+04  0.17300000000E+03 0.  1.
         -6    1    1    2    0  502 -0.69361675310E+02  0.64041967328E+02 -0.22287681206E+03  0.29751552721E+03  0.17300000000E+03 0.  1.
<mgrwt>
<rscale>  2 0.19708226E+03</rscale>
<asrwt>0</asrwt>
<pdfrwt beam="1">  1       21 0.72003784E-02 0.19708226E+03</pdfrwt>
<pdfrwt beam="2">  1       21 0.19756315E+00 0.19708226E+03</pdfrwt>
<totfact> 0.19987985E+04</totfact>
</mgrwt>
</event>
<event>
 4    1  0.3876841E+000  0.2452868E+03  0.7546771E-02  0.1116320E+00
         21   -1    0    0  501  502  0.00000000000E+00  0.00000000000E+00  0.17206514062E+03  0.17206514062E+03  0.00000000000E+00 0.  1.
         21   -1    0    0  502  503 -0.00000000000E+00 -0.00000000000E+00 -0.48603155834E+03  0.48603155834E+03  0.00000000000E+00 0.  1.
          6    1    1    2  501    0  0.17151470189E+03  0.28623722028E+02  0.17308701209E+02  0.24589672947E+03  0.17300000000E+03 0.  1.
         -6    1    1    2    0  503 -0.17151470189E+03 -0.28623722028E+02 -0.33127511893E+03  0.41219996949E+03  0.17300000000E+03 0.  1.
<mgrwt>
<rscale>  2 0.24528679E+03</rscale>
<asrwt>0</asrwt>
<pdfrwt beam="1">  1       21 0.26471561E-01 0.24528679E+03</pdfrwt>
<pdfrwt beam="2">  1       21 0.74774084E-01 0.24528679E+03</pdfrwt>
<totfact> 0.21109409E+04</totfact>
</mgrwt>
</event>
<event>
 4    1  0.3876841E+000  0.1955819E+03  0.7546771E-02  0.1153521E+00
         21   -1    0    0  501  502  0.00000000000E+00  0.00000000000E+00  0.38603420951E+02  0.38603420951E+02  0.00000000000E+00 0.  1.
         21   -1    0    0  502  503 -0.00000000000E+00 -0.00000000000E+00 -0.17353757716E+04  0.17353757716E+04  0.00000000000E+00 0.  1.
          6    1    1    2  501    0 -0.50806930848E+02 -0.75775627943E+02 -0.26742670593E+03  0.33131455304E+03  0.17300000000E+03 0.  1.
         -6    1    1    2    0  503  0.50806930848E+02  0.75775627943E+02 -0.14293456447E+04  0.14426646395E+04  0.17300000000E+03 0.  1.
<mgrwt>
<rscale>  2 0.19558193E+03</rscale>
<asrwt>0</asrwt>
<pdfrwt beam="1">  1       21 0.59389896E-02 0.19558193E+03</pdfrwt>
<pdfrwt beam="2">  1       21 0.26698081E+00 0.19558193E+03</pdfrwt>
<totfact> 0.10589110E+04</totfact>
</mgrwt>
</event>
<event>
 4    1  0.3876841E+000  0.3975634E+03  0.7546771E-02  0.1044627E+00
         21   -1    0    0  503  502  0.00000000000E+00  0.00000000000E+00  0.45439401925E+03  0.45439401925E+03  0.00000000000E+00 0.  1.
         21   -1    0    0  501  503 -0.00000000000E+00 -0.00000000000E+00 -0.38623541266E+03  0.38623541266E+03  0.00000000000E+00 0. -1.
          6    1    1    2  501    0  0.35615175560E+03  0.35827390972E+02  0.16660039134E+03  0.43105958446E+03  0.17300000000E+03 0.  1.
         -6    1    1    2    0  502 -0.35615175560E+03 -0.35827390972E+02 -0.98441784748E+02  0.40956984745E+03  0.17300000000E+03 0. -1.
<mgrwt>
<rscale>  2 0.39756342E+03</rscale>
<asrwt>0</asrwt>
<pdfrwt beam="1">  1       21 0.69906772E-01 0.39756342E+03</pdfrwt>
<pdfrwt beam="2">  1       21 0.59420833E-01 0.39756342E+03</pdfrwt>
<totfact> 0.43955953E+03</totfact>
</mgrwt>
</event>
<event>
 4    1  0.3876841E+000  0.1791628E+03  0.7546771E-02  0.1168616E+00
         21   -1    0    0  501  502  0.00000000000E+00  0.00000000000E+00  0.29995748343E+02  0.29995748343E+02  0.00000000000E+00 0. -1.
         21   -1    0    0  502  503 -0.00000000000E+00 -0.00000000000E+00 -0.18187924441E+04  0.18187924441E+04  0.00000000000E+00 0. -1.
          6    1    1    2  501    0  0.46549520087E+02 -0.18541762291E+01 -0.30132399698E+03  0.35056446903E+03  0.17300000000E+03 0. -1.
         -6    1    1    2    0  503 -0.46549520087E+02  0.18541762291E+01 -0.14874726987E+04  0.14982237234E+04  0.17300000000E+03 0. -1.
<mgrwt>
<rscale>  2 0.17916276E+03</rscale>
<asrwt>0</asrwt>
<pdfrwt beam="1">  1       21 0.46147302E-02 0.17916276E+03</pdfrwt>
<pdfrwt beam="2">  1       21 0.27981424E+00 0.17916276E+03</pdfrwt>
<totfact> 0.13934170E+04</totfact>
</mgrwt>
</event>
<event>
 4    1  0.3876841E+000  0.2009700E+03  0.7546771E-02  0.1148923E+00
         21   -1    0    0  503  502  0.00000000000E+00  0.00000000000E+00  0.55261625009E+02  0.55261625009E+02  0.00000000000E+00 0.  1.
         21   -1    0    0  501  503 -0.00000000000E+00 -0.00000000000E+00 -0.10309826346E+04  0.10309826346E+04  0.00000000000E+00 0.  1.
          6    1    1    2  501    0  0.29669456358E+01  0.10223076614E+03 -0.78089293430E+03  0.80633907704E+03  0.17300000000E+03 0.  1.
         -6    1    1    2    0  502 -0.29669456358E+01 -0.10223076614E+03 -0.19482807530E+03  0.27990518258E+03  0.17300000000E+03 0.  1.
<mgrwt>
<rscale>  2 0.20096998E+03</rscale>
<asrwt>0</asrwt>
<pdfrwt beam="1">  1       21 0.85017890E-02 0.20096998E+03</pdfrwt>
<pdfrwt beam="2">  1       21 0.15861270E+00 0.20096998E+03</pdfrwt>
<totfact> 0.27658263E+04</totfact>
</mgrwt>
</event>
<event>
 4    1  0.3876841E+000  0.2047458E+03  0.7546771E-02  0.1145796E+00
         21   -1    0    0  501  502  0.00000000000E+00  0.00000000000E+00  0.20704471508E+03  0.20704471508E+03  0.00000000000E+00 0.  1.
         21   -1    0    0  502  503 -0.00000000000E+00 -0.00000000000E+00 -0.22316053354E+03  0.22316053354E+03  0.00000000000E+00 0.  1.
          6    1    1    2  501    0  0.66998071349E+02  0.86620521097E+02  0.57435389340E+02  0.21264919513E+03  0.17300000000E+03 0.  1.
         -6    1    1    2    0  503 -0.66998071349E+02 -0.86620521097E+02 -0.73551207803E+02  0.21755605349E+03  0.17300000000E+03 0.  1.
<mgrwt>
<rscale>  2 0.20474583E+03</rscale>
<asrwt>0</asrwt>
<pdfrwt beam="1">  1       21 0.31853033E-01 0.20474583E+03</pdfrwt>
<pdfrwt beam="2">  1       21 0.34332390E-01 0.20474583E+03</pdfrwt>
<totfact> 0.77079833E+04</totfact>
</mgrwt>
</event>
<event>
 4    1  0.3876841E+000  0.1939264E+03  0.7546771E-02  0.1154967E+00
         21   -1    0    0  501  502  0.00000000000E+00  0.00000000000E+00  0.30536191354E+03  0.30536191354E+03  0.00000000000E+00 0.  1.
         21   -1    0    0  502  503 -0.00000000000E+00 -0.00000000000E+00 -0.15458768275E+03  0.15458768275E+03  0.00000000000E+00 0.  1.
          6    1    1    2  501    0 -0.70184882189E+02  0.52464562006E+02  0.17908500527E+03  0.26396758715E+03  0.17300000000E+03 0.  1.
         -6    1    1    2    0  503  0.70184882189E+02 -0.52464562006E+02 -0.28310774482E+02  0.19598200914E+03  0.17300000000E+03 0.  1.
<mgrwt>
<rscale>  2 0.19392640E+03</rscale>
<asrwt>0</asrwt>
<pdfrwt beam="1">  1       21 0.46978756E-01 0.19392640E+03</pdfrwt>
<pdfrwt beam="2">  1       21 0.23782720E-01 0.19392640E+03</pdfrwt>
<totfact> 0.72200677E+04</totfact>
</mgrwt>
</event>
<event>
 4    1  0.3876841E+000  0.1964953E+03  0.7546771E-02  0.1152730E+00
         21   -1    0    0  503  502  0.00000000000E+00  0.00000000000E+00  0.41812512976E+03  0.41812512976E+03  0.00000000000E+00 0. -1.
         21   -1    0    0  501  503 -0.00000000000E+00 -0.00000000000E+00 -0.13450954820E+03  0.13450954820E+03  0.00000000000E+00 0. -1.
          6    1    1    2  501    0  0.67395737394E+02 -0.64336659064E+02 -0.12903578212E+02  0.19691849443E+03  0.17300000000E+03 0. -1.
         -6    1    1    2    0  502 -0.67395737394E+02  0.64336659064E+02  0.29651915977E+03  0.35571618353E+03  0.17300000000E+03 0. -1.
<mgrwt>
<rscale>  2 0.19649527E+03</rscale>
<asrwt>0</asrwt>
<pdfrwt beam="1">  1       21 0.64326943E-01 0.19649527E+03</pdfrwt>
<pdfrwt beam="2">  1       21 0.20693777E-01 0.19649527E+03</pdfrwt>
<totfact> 0.48189443E+04</totfact>
</mgrwt>
</event>
<event>
 4    1  0.3876841E+000  0.2331444E+03  0.7546771E-02  0.1124446E+00
         21   -1    0    0  501  502  0.00000000000E+00  0.00000000000E+00  0.34411653619E+03  0.34411653619E+03  0.00000000000E+00 0.  1.
         21   -1    0    0  502  503 -0.00000000000E+00 -0.00000000000E+00 -0.18265846406E+03  0.18265846406E+03  0.00000000000E+00 0.  1.
          6    1    1    2  501    0  0.46266474725E+02 -0.14928732899E+03 -0.16125350950E+02  0.23370134836E+03  0.17300000000E+03 0.  1.
         -6    1    1    2    0  503 -0.46266474725E+02  0.14928732899E+03  0.17758342308E+03  0.29307365189E+03  0.17300000000E+03 0.  1.
<mgrwt>
<rscale>  2 0.23314436E+03</rscale>
<asrwt>0</asrwt>
<pdfrwt beam="1">  1       21 0.52941005E-01 0.23314436E+03</pdfrwt>
<pdfrwt beam="2">  1       21 0.28101302E-01 0.23314436E+03</pdfrwt>
<totfact> 0.40102090E+04</totfact>
</mgrwt>
</event>
<event>
 4    1  0.3876841E+000  0.1839406E+03  0.7546771E-02  0.1164043E+00
         21   -1    0    0  501  502  0.00000000000E+00  0.00000000000E+00  0.45677014907E+02  0.45677014907E+02  0.00000000000E+00 0.  1.
         21   -1    0    0  502  503 -0.00000000000E+00 -0.00000000000E+00 -0.11292898280E+04  0.11292898280E+04  0.00000000000E+00 0. -1.
          6    1    1    2  501    0 -0.37729165112E+02 -0.49816097664E+02 -0.19719922404E+03  0.26966955232E+03  0.17300000000E+03 0.  1.
         -6    1    1    2    0  503  0.37729165112E+02  0.49816097664E+02 -0.88641358905E+03  0.90529729059E+03  0.17300000000E+03 0. -1.
<mgrwt>
<rscale>  2 0.18394057E+03</rscale>
<asrwt>0</asrwt>
<pdfrwt beam="1">  1       21 0.70272331E-02 0.18394057E+03</pdfrwt>
<pdfrwt beam="2">  1       21 0.17373690E+00 0.18394057E+03</pdfrwt>
<totfact> 0.30366646E+04</totfact>
</mgrwt>
</event>
<event>
 4    1  0.3876841E+000  0.2097867E+03  0.7546771E-02  0.1141735E+00
         21   -1    0    0  501  502  0.00000000000E+00  0.00000000000E+00  0.26019770031E+03  0.26019770031E+03  0.00000000000E+00 0.  1.
         21   -1    0    0  502  503 -0.00000000000E+00 -0.00000000000E+00 -0.17729923960E+03  0.17729923960E+03  0.00000000000E+00 0.  1.
          6    1    1    2  501    0  0.11845292119E+03 -0.70971345304E+01  0.88368637154E+02  0.22763892437E+03  0.17300000000E+03 0.  1.
         -6    1    1    2    0  503 -0.11845292119E+03  0.70971345304E+01 -0.54701764466E+01  0.20985801554E+03  0.17300000000E+03 0.  1.
<mgrwt>
<rscale>  2 0.20978671E+03</rscale>
<asrwt>0</asrwt>
<pdfrwt beam="1">  1       21 0.40030416E-01 0.20978671E+03</pdfrwt>
<pdfrwt beam="2">  1       21 0.27276806E-01 0.20978671E+03</pdfrwt>
<totfact> 0.76505034E+04</totfact>
</mgrwt>
</event>
<event>
 4    1  0.3876841E+000  0.1847123E+03  0.7546771E-02  0.1163319E+00
         21   -1    0    0  501  502  0.00000000000E+00  0.00000000000E+00  0.10020744838E+03  0.10020744838E+03  0.00000000000E+00 0. -1.
         21   -1    0    0  502  503 -0.00000000000E+00 -0.00000000000E+00 -0.34153217855E+03  0.34153217855E+03  0.00000000000E+00 0.  1.
          6    1    1    2  501    0  0.46854688424E+02  0.44657461414E+02 -0.13292056878E+03  0.22756653597E+03  0.17300000000E+03 0.  1.
         -6    1    1    2    0  503 -0.46854688424E+02 -0.44657461414E+02 -0.10840416139E+03  0.21417309096E+03  0.17300000000E+03 0. -1.
<mgrwt>
<rscale>  2 0.18471235E+03</rscale>
<asrwt>0</asrwt>
<pdfrwt beam="1">  1       21 0.15416530E-01 0.18471235E+03</pdfrwt>
<pdfrwt beam="2">  1       21 0.52543412E-01 0.18471235E+03</pdfrwt>
<totfact> 0.12852331E+05</totfact>
</mgrwt>
</event>
<event>
 4    1  0.3876841E+000  0.2120416E+03  0.7546771E-02  0.1139959E+00
         21   -1    0    0  503  502  0.00000000000E+00  0.00000000000E+00  0.58370825287E+03  0.58370825287E+03  0.00000000000E+00 0. -1.
         21   -1    0    0  501  503 -0.00000000000E+00 -0.00000000000E+00 -0.91778667265E+02  0.91778667265E+02  0.00000000000E+00 0. -1.
          6    1    1    2  501    0  0.10615371897E+03  0.61351620024E+02  0.11056184745E+03  0.23913501509E+03  0.17300000000E+03 0. -1.
         -6    1    1    2    0  502 -0.10615371897E+03 -0.61351620024E+02  0.38136773816E+03  0.43635190505E+03  0.17300000000E+03 0. -1.
<mgrwt>
<rscale>  2 0.21204158E+03</rscale>
<asrwt>0</asrwt>
<pdfrwt beam="1">  1       21 0.89801267E-01 0.21204158E+03</pdfrwt>
<pdfrwt beam="2">  1       21 0.14119795E-01 0.21204158E+03</pdfrwt>
<totfact> 0.45779624E+04</totfact>
</mgrwt>
</event>
<event>
 4    1  0.3876841E+000  0.2246120E+03  0.7546771E-02  0.1130491E+00
         21   -1    0    0  501  502  0.00000000000E+00  0.00000000000E+00  0.27657018785E+03  0.27657018785E+03  0.00000000000E+00 0.  1.
         21   -1    0    0  502  503 -0.00000000000E+00 -0.00000000000E+00 -0.19746752203E+03  0.19746752203E+03  0.00000000000E+00 0.  1.
          6    1    1    2  501    0  0.11299684085E+03 -0.88052563015E+02  0.10499087669E+03  0.24793875067E+03  0.17300000000E+03 0.  1.
         -6    1    1    2    0  503 -0.11299684085E+03  0.88052563015E+02 -0.25888210873E+02  0.22609895921E+03  0.17300000000E+03 0.  1.
<mgrwt>
<rscale>  2 0.22461198E+03</rscale>
<asrwt>0</asrwt>
<pdfrwt beam="1">  1       21 0.42549260E-01 0.22461198E+03</pdfrwt>
<pdfrwt beam="2">  1       21 0.30379619E-01 0.22461198E+03</pdfrwt>
<totfact> 0.54448687E+04</totfact>
</mgrwt>
</event>
<event>
 4    1  0.3876841E+000  0.3768125E+03  0.7546771E-02  0.1052118E+00
         21   -1    0    0  503  502  0.00000000000E+00  0.00000000000E+00  0.20692203627E+03  0.20692203627E+03  0.00000000000E+00 0.  1.
         21   -1    0    0  501  503 -0.00000000000E+00 -0.00000000000E+00 -0.68963608908E+03  0.68963608908E+03  0.00000000000E+00 0.  1.
          6    1    1    2  501    0 -0.32862595942E+03  0.63746534402E+02 -0.27304975494E+03  0.46534268075E+03  0.17300000000E+03 0.  1.
         -6    1    1    2    0  502  0.32862595942E+03 -0.63746534402E+02 -0.20966429788E+03  0.43121544460E+03  0.17300000000E+03 0.  1.
<mgrwt>
<rscale>  2 0.37681248E+03</rscale>
<asrwt>0</asrwt>
<pdfrwt beam="1">  1       21 0.31834159E-01 0.37681248E+03</pdfrwt>
<pdfrwt beam="2">  1       21 0.10609786E+00 0.37681248E+03</pdfrwt>
<totfact> 0.61116664E+03</totfact>
</mgrwt>
</event>
<event>
 4    1  0.3876841E+000  0.5799067E+03  0.7546771E-02  0.9947993E-01
         21   -1    0    0  501  502  0.00000000000E+00  0.00000000000E+00  0.14107181305E+04  0.14107181305E+04  0.00000000000E+00 0.  1.
         21   -1    0    0  502  503 -0.00000000000E+00 -0.00000000000E+00 -0.59650515319E+03  0.59650515319E+03  0.00000000000E+00 0. -1.
          6    1    1    2  501    0 -0.55163751869E+03 -0.45374328606E+02  0.11847381644E+04  0.13190512878E+04  0.17300000000E+03 0.  1.
         -6    1    1    2    0  503  0.55163751869E+03  0.45374328606E+02 -0.37052518704E+03  0.68817199591E+03  0.17300000000E+03 0. -1.
<mgrwt>
<rscale>  2 0.57990670E+03</rscale>
<asrwt>0</asrwt>
<pdfrwt beam="1">  1       21 0.21703356E+00 0.57990670E+03</pdfrwt>
<pdfrwt beam="2">  1       21 0.91770024E-01 0.57990670E+03</pdfrwt>
<totfact> 0.77755510E+01</totfact>
</mgrwt>
</event>
<event>
 4    1  0.3876841E+000  0.2498293E+03  0.7546771E-02  0.1113413E+00
         21   -1    0    0  501  502  0.00000000000E+00  0.00000000000E+00  0.12589660891E+04  0.12589660891E+04  0.00000000000E+00 0. -1.
         21   -1    0    0  502  503 -0.00000000000E+00 -0.00000000000E+00 -0.51437886997E+02  0.51437886997E+02  0.00000000000E+00 0.  1.
          6    1    1    2  501    0 -0.71973882195E+02 -0.16524354249E+03  0.47911332119E+03  0.54033715640E+03  0.17300000000E+03 0.  1.
         -6    1    1    2    0  503  0.71973882195E+02  0.16524354249E+03  0.72841488092E+03  0.77006681970E+03  0.17300000000E+03 0. -1.
<mgrwt>
<rscale>  2 0.24982928E+03</rscale>
<asrwt>0</asrwt>
<pdfrwt beam="1">  1       21 0.19368707E+00 0.24982928E+03</pdfrwt>
<pdfrwt beam="2">  1       21 0.79135220E-02 0.24982928E+03</pdfrwt>
<totfact> 0.17343049E+04</totfact>
</mgrwt>
</event>
<event>
 4    1  0.3876841E+000  0.1850406E+03  0.7546771E-02  0.1163012E+00
         21   -1    0    0  501  502  0.00000000000E+00  0.00000000000E+00  0.89061211227E+03  0.89061211227E+03  0.00000000000E+00 0.  1.
         21   -1    0    0  502  503 -0.00000000000E+00 -0.00000000000E+00 -0.89301009113E+02  0.89301009113E+02  0.00000000000E+00 0.  1.
          6    1    1    2  501    0  0.60521022326E+02 -0.25460359046E+02  0.77039723669E+03  0.79230797442E+03  0.17300000000E+03 0.  1.
         -6    1    1    2    0  503 -0.60521022326E+02  0.25460359046E+02  0.30913866460E+02  0.18760514696E+03  0.17300000000E+03 0.  1.
<mgrwt>
<rscale>  2 0.18504060E+03</rscale>
<asrwt>0</asrwt>
<pdfrwt beam="1">  1       21 0.13701724E+00 0.18504060E+03</pdfrwt>
<pdfrwt beam="2">  1       21 0.13738617E-01 0.18504060E+03</pdfrwt>
<totfact> 0.17491122E+04</totfact>
</mgrwt>
</event>
<event>
 4    1  0.3876841E+000  0.2265528E+03  0.7546771E-02  0.1129090E+00
         21   -1    0    0  503  502  0.00000000000E+00  0.00000000000E+00  0.49386900948E+03  0.49386900948E+03  0.00000000000E+00 0.  1.
         21   -1    0    0  501  503 -0.00000000000E+00 -0.00000000000E+00 -0.10611373039E+03  0.10611373039E+03  0.00000000000E+00 0.  1.
          6    1    1    2  501    0 -0.13933818789E+03  0.44520257344E+02  0.15081021860E+03  0.27215786954E+03  0.17300000000E+03 0.  1.
         -6    1    1    2    0  502  0.13933818789E+03 -0.44520257344E+02  0.23694506049E+03  0.32782487033E+03  0.17300000000E+03 0.  1.
<mgrwt>
<rscale>  2 0.22655283E+03</rscale>
<asrwt>0</asrwt>
<pdfrwt beam="1">  1       21 0.75979846E-01 0.22655283E+03</pdfrwt>
<pdfrwt beam="2">  1       21 0.16325190E-01 0.22655283E+03</pdfrwt>
<totfact> 0.51075135E+04</totfact>
</mgrwt>
</event>
<event>
 4    1  0.3876841E+000  0.1751171E+03  0.7546771E-02  0.1172614E+00
         21   -1    0    0  501  502  0.00000000000E+00  0.00000000000E+00  0.51700032904E+03  0.51700032904E+03  0.00000000000E+00 0.  1.
         21   -1    0    0  502  503 -0.00000000000E+00 -0.00000000000E+00 -0.83189585471E+02  0.83189585471E+02  0.00000000000E+00 0.  1.
          6    1    1    2  501    0 -0.52730752273E+01 -0.26630389617E+02  0.37766989965E+03  0.41629380980E+03  0.17300000000E+03 0.  1.
         -6    1    1    2    0  503  0.52730752273E+01  0.26630389617E+02  0.56140843919E+02  0.18389610472E+03  0.17300000000E+03 0.  1.
<mgrwt>
<rscale>  2 0.17511706E+03</rscale>
<asrwt>0</asrwt>
<pdfrwt beam="1">  1       21 0.79538510E-01 0.17511706E+03</pdfrwt>
<pdfrwt beam="2">  1       21 0.12798398E-01 0.17511706E+03</pdfrwt>
<totfact> 0.73411688E+04</totfact>
</mgrwt>
</event>
<event>
 4    1  0.3876841E+000  0.2858623E+03  0.7546771E-02  0.1092529E+00
         21   -1    0    0  503  502  0.00000000000E+00  0.00000000000E+00  0.43602789114E+03  0.43602789114E+03  0.00000000000E+00 0. -1.
         21   -1    0    0  501  503 -0.00000000000E+00 -0.00000000000E+00 -0.18759509504E+03  0.18759509504E+03  0.00000000000E+00 0.  1.
          6    1    1    2  501    0  0.86405743244E+02  0.21052858879E+03  0.11449824946E+03  0.30794007257E+03  0.17300000000E+03 0.  1.
         -6    1    1    2    0  502 -0.86405743244E+02 -0.21052858879E+03  0.13393454664E+03  0.31568291361E+03  0.17300000000E+03 0.  1.
<mgrwt>
<rscale>  2 0.28586227E+03</rscale>
<asrwt>0</asrwt>
<pdfrwt beam="1">  1       21 0.67081214E-01 0.28586227E+03</pdfrwt>
<pdfrwt beam="2">  1       21 0.28860784E-01 0.28586227E+03</pdfrwt>
<totfact> 0.22315408E+04</totfact>
</mgrwt>
</event>
<event>
 4    1  0.3876841E+000  0.1880906E+03  0.7546771E-02  0.1160195E+00
         21   -1    0    0  503  502  0.00000000000E+00  0.00000000000E+00  0.82453173055E+02  0.82453173055E+02  0.00000000000E+00 0.  1.
         21   -1    0    0  501  503 -0.00000000000E+00 -0.00000000000E+00 -0.81525705760E+03  0.81525705760E+03  0.00000000000E+00 0.  1.
          6    1    1    2  501    0  0.70657837202E+02 -0.21366521544E+02 -0.67533088898E+03  0.70103485492E+03  0.17300000000E+03 0.  1.
         -6    1    1    2    0  502 -0.70657837202E+02  0.21366521544E+02 -0.57472995562E+02  0.19667537573E+03  0.17300000000E+03 0.  1.
<mgrwt>
<rscale>  2 0.18809056E+03</rscale>
<asrwt>0</asrwt>
<pdfrwt beam="1">  1       21 0.12685104E-01 0.18809056E+03</pdfrwt>
<pdfrwt beam="2">  1       21 0.12542416E+00 0.18809056E+03</pdfrwt>
<totfact> 0.25196718E+04</totfact>
</mgrwt>
</event>
<event>
 4    1  0.3876841E+000  0.2035315E+03  0.7546771E-02  0.1146793E+00
         21   -1    0    0  503  502  0.00000000000E+00  0.00000000000E+00  0.74679769095E+03  0.74679769095E+03  0.00000000000E+00 0. -1.
         21   -1    0    0  501  503 -0.00000000000E+00 -0.00000000000E+00 -0.29146086872E+03  0.29146086872E+03  0.00000000000E+00 0.  1.
          6    1    1    2  501    0  0.46648695527E+02  0.96540023148E+02 -0.23945618902E+03  0.31426794829E+03  0.17300000000E+03 0.  1.
         -6    1    1    2    0  502 -0.46648695527E+02 -0.96540023148E+02  0.69479301125E+03  0.72399061137E+03  0.17300000000E+03 0. -1.
<mgrwt>
<rscale>  2 0.20353151E+03</rscale>
<asrwt>0</asrwt>
<pdfrwt beam="1">  1       21 0.11489195E+00 0.20353151E+03</pdfrwt>
<pdfrwt beam="2">  1       21 0.44840134E-01 0.20353151E+03</pdfrwt>
<totfact> 0.27783807E+03</totfact>
</mgrwt>
</event>
<event>
 4    1  0.3876841E+000  0.1953995E+03  0.7546771E-02  0.1153680E+00
         21   -1    0    0  503  502  0.00000000000E+00  0.00000000000E+00  0.55446956310E+03  0.55446956310E+03  0.00000000000E+00 0. -1.
         21   -1    0    0  501  503 -0.00000000000E+00 -0.00000000000E+00 -0.79744733904E+02  0.79744733904E+02  0.00000000000E+00 0. -1.
          6    1    1    2  501    0 -0.86866851574E+02  0.26572489817E+02  0.12020825599E+03  0.22941441089E+03  0.17300000000E+03 0. -1.
         -6    1    1    2    0  502  0.86866851574E+02 -0.26572489817E+02  0.35451657321E+03  0.40479988611E+03  0.17300000000E+03 0. -1.
<mgrwt>
<rscale>  2 0.19539946E+03</rscale>
<asrwt>0</asrwt>
<pdfrwt beam="1">  1       21 0.85303007E-01 0.19539946E+03</pdfrwt>
<pdfrwt beam="2">  1       21 0.12268421E-01 0.19539946E+03</pdfrwt>
<totfact> 0.66953319E+04</totfact>
</mgrwt>
</event>
<event>
 4    1  0.3876841E+000  0.1761781E+03  0.7546771E-02  0.1171554E+00
         21   -1    0    0  501  502  0.00000000000E+00  0.00000000000E+00  0.21221097618E+04  0.21221097618E+04  0.00000000000E+00 0.  1.
         21   -1    0    0  502  503 -0.00000000000E+00 -0.00000000000E+00 -0.24038827252E+02  0.24038827252E+02  0.00000000000E+00 0.  1.
          6    1    1    2  501    0 -0.31722641813E+02 -0.10168392308E+02  0.17205031269E+04  0.17294998502E+04  0.17300000000E+03 0.  1.
         -6    1    1    2    0  503  0.31722641813E+02  0.10168392308E+02  0.37756780764E+03  0.41664873883E+03  0.17300000000E+03 0.  1.
<mgrwt>
<rscale>  2 0.17617810E+03</rscale>
<asrwt>0</asrwt>
<pdfrwt beam="1">  1       21 0.32647828E+00 0.17617810E+03</pdfrwt>
<pdfrwt beam="2">  1       21 0.36982828E-02 0.17617810E+03</pdfrwt>
<totfact> 0.10936227E+04</totfact>
</mgrwt>
</event>
<event>
 4    1  0.3876841E+000  0.2014193E+03  0.7546771E-02  0.1148547E+00
         21   -1    0    0  503  502  0.00000000000E+00  0.00000000000E+00  0.38447218532E+02  0.38447218532E+02  0.00000000000E+00 0. -1.
         21   -1    0    0  501  503 -0.00000000000E+00 -0.00000000000E+00 -0.10607780981E+04  0.10607780981E+04  0.00000000000E+00 0.  1.
          6    1    1    2  501    0  0.98896317399E+02 -0.29329852687E+02 -0.47133016254E+03  0.51256399013E+03  0.17300000000E+03 0. -1.
         -6    1    1    2    0  502 -0.98896317399E+02  0.29329852687E+02 -0.55100071706E+03  0.58666132653E+03  0.17300000000E+03 0.  1.
<mgrwt>
<rscale>  2 0.20141927E+03</rscale>
<asrwt>0</asrwt>
<pdfrwt beam="1">  1       21 0.59149572E-02 0.20141927E+03</pdfrwt>
<pdfrwt beam="2">  1       21 0.16319662E+00 0.20141927E+03</pdfrwt>
<totfact> 0.47954855E+04</totfact>
</mgrwt>
</event>
<event>
 4    1  0.3876841E+000  0.1798500E+03  0.7546771E-02  0.1167948E+00
         21   -1    0    0  501  502  0.00000000000E+00  0.00000000000E+00  0.92602135051E+02  0.92602135051E+02  0.00000000000E+00 0.  1.
         21   -1    0    0  502  503 -0.00000000000E+00 -0.00000000000E+00 -0.37505711758E+03  0.37505711758E+03  0.00000000000E+00 0.  1.
          6    1    1    2  501    0 -0.36877939307E+02 -0.32512124259E+02 -0.20250355003E+03  0.27083889751E+03  0.17300000000E+03 0.  1.
         -6    1    1    2    0  503  0.36877939307E+02  0.32512124259E+02 -0.79951432508E+02  0.19682035512E+03  0.17300000000E+03 0.  1.
<mgrwt>
<rscale>  2 0.17984999E+03</rscale>
<asrwt>0</asrwt>
<pdfrwt beam="1">  1       21 0.14246482E-01 0.17984999E+03</pdfrwt>
<pdfrwt beam="2">  1       21 0.57701095E-01 0.17984999E+03</pdfrwt>
<totfact> 0.12191862E+05</totfact>
</mgrwt>
</event>
<event>
 4    1  0.3876841E+000  0.2044975E+03  0.7546771E-02  0.1145999E+00
         21   -1    0    0  501  502  0.00000000000E+00  0.00000000000E+00  0.32535036488E+03  0.32535036488E+03  0.00000000000E+00 0. -1.
         21   -1    0    0  502  503 -0.00000000000E+00 -0.00000000000E+00 -0.28924222051E+03  0.28924222051E+03  0.00000000000E+00 0. -1.
          6    1    1    2  501    0 -0.55689390292E+02 -0.93749217535E+02  0.24711070109E+03  0.32075367897E+03  0.17300000000E+03 0. -1.
         -6    1    1    2    0  503  0.55689390292E+02  0.93749217535E+02 -0.21100255673E+03  0.29383890642E+03  0.17300000000E+03 0. -1.
<mgrwt>
<rscale>  2 0.20449749E+03</rscale>
<asrwt>0</asrwt>
<pdfrwt beam="1">  1       21 0.50053902E-01 0.20449749E+03</pdfrwt>
<pdfrwt beam="2">  1       21 0.44498803E-01 0.20449749E+03</pdfrwt>
<totfact> 0.18301650E+04</totfact>
</mgrwt>
</event>
<event>
 4    1  0.3876841E+000  0.2153515E+03  0.7546771E-02  0.1137397E+00
         21   -1    0    0  501  502  0.00000000000E+00  0.00000000000E+00  0.33966121462E+02  0.33966121462E+02  0.00000000000E+00 0.  1.
         21   -1    0    0  502  503 -0.00000000000E+00 -0.00000000000E+00 -0.14270146659E+04  0.14270146659E+04  0.00000000000E+00 0. -1.
          6    1    1    2  501    0 -0.11685259842E+03  0.52846474246E+02 -0.54469602769E+03  0.58572181296E+03  0.17300000000E+03 0.  1.
         -6    1    1    2    0  503  0.11685259842E+03 -0.52846474246E+02 -0.84835251680E+03  0.87525897445E+03  0.17300000000E+03 0. -1.
<mgrwt>
<rscale>  2 0.21535153E+03</rscale>
<asrwt>0</asrwt>
<pdfrwt beam="1">  1       21 0.52255569E-02 0.21535153E+03</pdfrwt>
<pdfrwt beam="2">  1       21 0.21954073E+00 0.21535153E+03</pdfrwt>
<totfact> 0.24841590E+04</totfact>
</mgrwt>
</event>
<event>
 4    1  0.3876841E+000  0.1931244E+03  0.7546771E-02  0.1155673E+00
         21   -1    0    0  501  502  0.00000000000E+00  0.00000000000E+00  0.13531011649E+03  0.13531011649E+03  0.00000000000E+00 0.  1.
         21   -1    0    0  502  503 -0.00000000000E+00 -0.00000000000E+00 -0.27861961578E+03  0.27861961578E+03  0.00000000000E+00 0.  1.
          6    1    1    2  501    0 -0.58888887234E+02 -0.62451084645E+02 -0.93053357933E+02  0.21437342754E+03  0.17300000000E+03 0.  1.
         -6    1    1    2    0  503  0.58888887234E+02  0.62451084645E+02 -0.50256141363E+02  0.19955630473E+03  0.17300000000E+03 0.  1.
<mgrwt>
<rscale>  2 0.19312441E+03</rscale>
<asrwt>0</asrwt>
<pdfrwt beam="1">  1       21 0.20816941E-01 0.19312441E+03</pdfrwt>
<pdfrwt beam="2">  1       21 0.42864555E-01 0.19312441E+03</pdfrwt>
<totfact> 0.11209333E+05</totfact>
</mgrwt>
</event>
<event>
 4    1  0.3876841E+000  0.2265985E+03  0.7546771E-02  0.1129057E+00
         21   -1    0    0  501  502  0.00000000000E+00  0.00000000000E+00  0.89368070700E+03  0.89368070700E+03  0.00000000000E+00 0.  1.
         21   -1    0    0  502  503 -0.00000000000E+00 -0.00000000000E+00 -0.78223527409E+02  0.78223527409E+02  0.00000000000E+00 0.  1.
          6    1    1    2  501    0  0.62363512175E+02  0.13239587805E+03  0.65812168819E+03  0.69603953382E+03  0.17300000000E+03 0.  1.
         -6    1    1    2    0  503 -0.62363512175E+02 -0.13239587805E+03  0.15733549140E+03  0.27586470058E+03  0.17300000000E+03 0.  1.
<mgrwt>
<rscale>  2 0.22659849E+03</rscale>
<asrwt>0</asrwt>
<pdfrwt beam="1">  1       21 0.13748933E+00 0.22659849E+03</pdfrwt>
<pdfrwt beam="2">  1       21 0.12034389E-01 0.22659849E+03</pdfrwt>
<totfact> 0.21432021E+04</totfact>
</mgrwt>
</event>
<event>
 4    1  0.3876841E+000  0.1769823E+03  0.7546771E-02  0.1170756E+00
         21   -1    0    0  503  502  0.00000000000E+00  0.00000000000E+00  0.35959443935E+03  0.35959443935E+03  0.00000000000E+00 0. -1.
         21   -1    0    0  501  503 -0.00000000000E+00 -0.00000000000E+00 -0.11087132390E+03  0.11087132390E+03  0.00000000000E+00 0. -1.
          6    1    1    2  501    0 -0.36748401282E+02 -0.65802418637E+01  0.15452867891E+02  0.17765566612E+03  0.17300000000E+03 0. -1.
         -6    1    1    2    0  502  0.36748401282E+02  0.65802418637E+01  0.23327024757E+03  0.29281009713E+03  0.17300000000E+03 0. -1.
<mgrwt>
<rscale>  2 0.17698233E+03</rscale>
<asrwt>0</asrwt>
<pdfrwt beam="1">  1       21 0.55322221E-01 0.17698233E+03</pdfrwt>
<pdfrwt beam="2">  1       21 0.17057127E-01 0.17698233E+03</pdfrwt>
<totfact> 0.96104770E+04</totfact>
</mgrwt>
</event>
<event>
 4    1  0.3876841E+000  0.1933810E+03  0.7546771E-02  0.1155447E+00
         21   -1    0    0  501  502  0.00000000000E+00  0.00000000000E+00  0.47977779927E+03  0.47977779927E+03  0.00000000000E+00 0. -1.
         21   -1    0    0  502  503 -0.00000000000E+00 -0.00000000000E+00 -0.13040751454E+03  0.13040751454E+03  0.00000000000E+00 0. -1.
          6    1    1    2  501    0  0.85789044891E+02  0.10366708014E+02 -0.18825762413E+02  0.19429523460E+03  0.17300000000E+03 0. -1.
         -6    1    1    2    0  503 -0.85789044891E+02 -0.10366708014E+02  0.36819604714E+03  0.41589007921E+03  0.17300000000E+03 0. -1.
<mgrwt>
<rscale>  2 0.19338105E+03</rscale>
<asrwt>0</asrwt>
<pdfrwt beam="1">  1       21 0.73811968E-01 0.19338105E+03</pdfrwt>
<pdfrwt beam="2">  1       21 0.20062695E-01 0.19338105E+03</pdfrwt>
<totfact> 0.37796641E+04</totfact>
</mgrwt>
</event>
<event>
 4    1  0.3876841E+000  0.1817224E+03  0.7546771E-02  0.1166146E+00
         21   -1    0    0  503  502  0.00000000000E+00  0.00000000000E+00  0.11917301268E+03  0.11917301268E+03  0.00000000000E+00 0.  1.
         21   -1    0    0  501  503 -0.00000000000E+00 -0.00000000000E+00 -0.36733081112E+03  0.36733081112E+03  0.00000000000E+00 0.  1.
          6    1    1    2  501    0 -0.47441450807E+01 -0.55421355315E+02 -0.24463831716E+03  0.30474733758E+03  0.17300000000E+03 0.  1.
         -6    1    1    2    0  502  0.47441450807E+01  0.55421355315E+02 -0.35194812809E+01  0.18175648623E+03  0.17300000000E+03 0.  1.
<mgrwt>
<rscale>  2 0.18172241E+03</rscale>
<asrwt>0</asrwt>
<pdfrwt beam="1">  1       21 0.18334309E-01 0.18172241E+03</pdfrwt>
<pdfrwt beam="2">  1       21 0.56512433E-01 0.18172241E+03</pdfrwt>
<totfact> 0.80268741E+04</totfact>
</mgrwt>
</event>
<event>
 4    1  0.3876841E+000  0.2901059E+03  0.7546771E-02  0.1090294E+00
         21   -1    0    0  501  502  0.00000000000E+00  0.00000000000E+00  0.15754732118E+03  0.15754732118E+03  0.00000000000E+00 0.  1.
         21   -1    0    0  502  503 -0.00000000000E+00 -0.00000000000E+00 -0.86452546292E+03  0.86452546292E+03  0.00000000000E+00 0. -1.
          6    1    1    2  501    0 -0.18871842250E+03 -0.13644695500E+03 -0.37599359802E+02  0.29253226553E+03  0.17300000000E+03 0.  1.
         -6    1    1    2    0  503  0.18871842250E+03  0.13644695500E+03 -0.66937878194E+03  0.72954051857E+03  0.17300000000E+03 0. -1.
<mgrwt>
<rscale>  2 0.29010587E+03</rscale>
<asrwt>0</asrwt>
<pdfrwt beam="1">  1       21 0.24238049E-01 0.29010587E+03</pdfrwt>
<pdfrwt beam="2">  1       21 0.13300392E+00 0.29010587E+03</pdfrwt>
<totfact> 0.61472542E+03</totfact>
</mgrwt>
</event>
<event>
 4    1  0.3876841E+000  0.2126578E+03  0.7546771E-02  0.1139478E+00
         21   -1    0    0  501  502  0.00000000000E+00  0.00000000000E+00  0.53362924888E+03  0.53362924888E+03  0.00000000000E+00 0. -1.
         21   -1    0    0  502  503 -0.00000000000E+00 -0.00000000000E+00 -0.99175428698E+02  0.99175428698E+02  0.00000000000E+00 0. -1.
          6    1    1    2  501    0 -0.84322111704E+02 -0.90466243781E+02  0.33791113161E+03  0.39925842840E+03  0.17300000000E+03 0. -1.
         -6    1    1    2    0  503  0.84322111704E+02  0.90466243781E+02  0.96542688571E+02  0.23354624917E+03  0.17300000000E+03 0. -1.
<mgrwt>
<rscale>  2 0.21265785E+03</rscale>
<asrwt>0</asrwt>
<pdfrwt beam="1">  1       21 0.82096806E-01 0.21265785E+03</pdfrwt>
<pdfrwt beam="2">  1       21 0.15257759E-01 0.21265785E+03</pdfrwt>
<totfact> 0.48838299E+04</totfact>
</mgrwt>
</event>
<event>
 4    1  0.3876841E+000  0.1851534E+03  0.7546771E-02  0.1162907E+00
         21   -1    0    0  501  502  0.00000000000E+00  0.00000000000E+00  0.18797282205E+03  0.18797282205E+03  0.00000000000E+00 0. -1.
         21   -1    0    0  502  503 -0.00000000000E+00 -0.00000000000E+00 -0.24362076450E+03  0.24362076450E+03  0.00000000000E+00 0. -1.
          6    1    1    2  501    0 -0.21169641750E+02  0.62487134559E+02  0.80374495679E+02  0.20184611780E+03  0.17300000000E+03 0.  1.
         -6    1    1    2    0  503  0.21169641750E+02 -0.62487134559E+02 -0.13602243813E+03  0.22974746874E+03  0.17300000000E+03 0.  1.
<mgrwt>
<rscale>  2 0.18515344E+03</rscale>
<asrwt>0</asrwt>
<pdfrwt beam="1">  1       21 0.28918896E-01 0.18515344E+03</pdfrwt>
<pdfrwt beam="2">  1       21 0.37480118E-01 0.18515344E+03</pdfrwt>
<totfact> 0.78812957E+04</totfact>
</mgrwt>
</event>
<event>
 4    1  0.3876841E+000  0.1738353E+03  0.7546771E-02  0.1173906E+00
         21   -1    0    0  503  502  0.00000000000E+00  0.00000000000E+00  0.40617938910E+03  0.40617938910E+03  0.00000000000E+00 0.  1.
         21   -1    0    0  501  503 -0.00000000000E+00 -0.00000000000E+00 -0.17821095281E+03  0.17821095281E+03  0.00000000000E+00 0.  1.
          6    1    1    2  501    0  0.56411710619E+01 -0.16058682200E+02 -0.10903012477E+03  0.20519812911E+03  0.17300000000E+03 0.  1.
         -6    1    1    2    0  502 -0.56411710619E+01  0.16058682200E+02  0.33699856106E+03  0.37919221279E+03  0.17300000000E+03 0.  1.
<mgrwt>
<rscale>  2 0.17383528E+03</rscale>
<asrwt>0</asrwt>
<pdfrwt beam="1">  1       21 0.62489137E-01 0.17383528E+03</pdfrwt>
<pdfrwt beam="2">  1       21 0.27417070E-01 0.17383528E+03</pdfrwt>
<totfact> 0.30435216E+04</totfact>
</mgrwt>
</event>
<event>
 4    1  0.3876841E+000  0.2278913E+03  0.7546771E-02  0.1128133E+00
         21   -1    0    0  501  502  0.00000000000E+00  0.00000000000E+00  0.25759511446E+03  0.25759511446E+03  0.00000000000E+00 0.  1.
         21   -1    0    0  502  503 -0.00000000000E+00 -0.00000000000E+00 -0.20442501125E+03  0.20442501125E+03  0.00000000000E+00 0. -1.
          6    1    1    2  501    0 -0.85677492585E+01 -0.14809467194E+03  0.53680608260E+02  0.23412826802E+03  0.17300000000E+03 0. -1.
         -6    1    1    2    0  503  0.85677492585E+01  0.14809467194E+03 -0.51050504689E+00  0.22789185768E+03  0.17300000000E+03 0.  1.
<mgrwt>
<rscale>  2 0.22789129E+03</rscale>
<asrwt>0</asrwt>
<pdfrwt beam="1">  1       21 0.39630017E-01 0.22789129E+03</pdfrwt>
<pdfrwt beam="2">  1       21 0.31450002E-01 0.22789129E+03</pdfrwt>
<totfact> 0.58709029E+04</totfact>
</mgrwt>
</event>
<event>
 4    1  0.3876841E+000  0.4153290E+03  0.7546771E-02  0.1038597E+00
         21   -1    0    0  503  502  0.00000000000E+00  0.00000000000E+00  0.12711984641E+04  0.12711984641E+04  0.00000000000E+00 0. -1.
         21   -1    0    0  501  503 -0.00000000000E+00 -0.00000000000E+00 -0.13995209036E+03  0.13995209036E+03  0.00000000000E+00 0.  1.
          6    1    1    2  501    0 -0.19375506725E+02  0.37708587826E+03  0.68864834395E+03  0.80419817923E+03  0.17300000000E+03 0. -1.
         -6    1    1    2    0  502  0.19375506725E+02 -0.37708587826E+03  0.44259802981E+03  0.60695237526E+03  0.17300000000E+03 0.  1.
<mgrwt>
<rscale>  2 0.41532899E+03</rscale>
<asrwt>0</asrwt>
<pdfrwt beam="1">  1       21 0.19556899E+00 0.41532899E+03</pdfrwt>
<pdfrwt beam="2">  1       21 0.21531092E-01 0.41532899E+03</pdfrwt>
<totfact> 0.24868847E+03</totfact>
</mgrwt>
</event>
<event>
 4    1  0.3876841E+000  0.2123563E+03  0.7546771E-02  0.1139714E+00
         21   -1    0    0  503  502  0.00000000000E+00  0.00000000000E+00  0.28506144403E+03  0.28506144403E+03  0.00000000000E+00 0.  1.
         21   -1    0    0  501  503 -0.00000000000E+00 -0.00000000000E+00 -0.18176826366E+03  0.18176826366E+03  0.00000000000E+00 0. -1.
          6    1    1    2  501    0  0.92271126211E+02 -0.81561313449E+02 -0.32412002404E+02  0.21481561043E+03  0.17300000000E+03 0. -1.
         -6    1    1    2    0  502 -0.92271126211E+02  0.81561313449E+02  0.13570518278E+03  0.25201409726E+03  0.17300000000E+03 0.  1.
<mgrwt>
<rscale>  2 0.21235632E+03</rscale>
<asrwt>0</asrwt>
<pdfrwt beam="1">  1       21 0.43855607E-01 0.21235632E+03</pdfrwt>
<pdfrwt beam="2">  1       21 0.27964348E-01 0.21235632E+03</pdfrwt>
<totfact> 0.60465829E+04</totfact>
</mgrwt>
</event>
<event>
 4    1  0.3876841E+000  0.2183186E+03  0.7546771E-02  0.1135143E+00
         21   -1    0    0  501  502  0.00000000000E+00  0.00000000000E+00  0.15974531905E+03  0.15974531905E+03  0.00000000000E+00 0. -1.
         21   -1    0    0  502  503 -0.00000000000E+00 -0.00000000000E+00 -0.73309656757E+03  0.73309656757E+03  0.00000000000E+00 0. -1.
          6    1    1    2  501    0 -0.13307836002E+03 -0.49155202711E+01  0.57098100599E+02  0.22566170552E+03  0.17300000000E+03 0. -1.
         -6    1    1    2    0  503  0.13307836002E+03  0.49155202711E+01 -0.63044934912E+03  0.66718018110E+03  0.17300000000E+03 0. -1.
<mgrwt>
<rscale>  2 0.21831860E+03</rscale>
<asrwt>0</asrwt>
<pdfrwt beam="1">  1       21 0.24576203E-01 0.21831860E+03</pdfrwt>
<pdfrwt beam="2">  1       21 0.11278409E+00 0.21831860E+03</pdfrwt>
<totfact> 0.94477406E+03</totfact>
</mgrwt>
</event>
<event>
 4    1  0.3876841E+000  0.1786750E+03  0.7546771E-02  0.1169092E+00
         21   -1    0    0  501  502  0.00000000000E+00  0.00000000000E+00  0.21941772370E+02  0.21941772370E+02  0.00000000000E+00 0.  1.
         21   -1    0    0  502  503 -0.00000000000E+00 -0.00000000000E+00 -0.15074566757E+04  0.15074566757E+04  0.00000000000E+00 0.  1.
          6    1    1    2  501    0 -0.44475788464E+02 -0.42011449347E+01 -0.88543946360E+03  0.90328721295E+03  0.17300000000E+03 0.  1.
         -6    1    1    2    0  503  0.44475788464E+02  0.42011449347E+01 -0.60007543975E+03  0.62611123514E+03  0.17300000000E+03 0.  1.
<mgrwt>
<rscale>  2 0.17867497E+03</rscale>
<asrwt>0</asrwt>
<pdfrwt beam="1">  1       21 0.33756570E-02 0.17867497E+03</pdfrwt>
<pdfrwt beam="2">  1       21 0.23191643E+00 0.17867497E+03</pdfrwt>
<totfact> 0.44771831E+04</totfact>
</mgrwt>
</event>
<event>
 4    1  0.3876841E+000  0.2758514E+03  0.7546771E-02  0.1097977E+00
         21   -1    0    0  503  502  0.00000000000E+00  0.00000000000E+00  0.49344732640E+03  0.49344732640E+03  0.00000000000E+00 0.  1.
         21   -1    0    0  501  503 -0.00000000000E+00 -0.00000000000E+00 -0.18495501404E+03  0.18495501404E+03  0.00000000000E+00 0.  1.
          6    1    1    2  501    0  0.21043223021E+03  0.43396432745E+02  0.29254525176E+03  0.40209041050E+03  0.17300000000E+03 0.  1.
         -6    1    1    2    0  502 -0.21043223021E+03 -0.43396432745E+02  0.15947060595E+02  0.27631192994E+03  0.17300000000E+03 0.  1.
<mgrwt>
<rscale>  2 0.27585136E+03</rscale>
<asrwt>0</asrwt>
<pdfrwt beam="1">  1       21 0.75914973E-01 0.27585136E+03</pdfrwt>
<pdfrwt beam="2">  1       21 0.28454618E-01 0.27585136E+03</pdfrwt>
<totfact> 0.17477010E+04</totfact>
</mgrwt>
</event>
<event>
 4    1  0.3876841E+000  0.1769749E+03  0.7546771E-02  0.1170763E+00
         21   -1    0    0  503  502  0.00000000000E+00  0.00000000000E+00  0.56582293287E+02  0.56582293287E+02  0.00000000000E+00 0.  1.
         21   -1    0    0  501  503 -0.00000000000E+00 -0.00000000000E+00 -0.58727514478E+03  0.58727514478E+03  0.00000000000E+00 0.  1.
          6    1    1    2  501    0 -0.25324947174E+02  0.27382037046E+02 -0.34251305595E+03  0.38553251796E+03  0.17300000000E+03 0.  1.
         -6    1    1    2    0  502  0.25324947174E+02 -0.27382037046E+02 -0.18817979554E+03  0.25832492011E+03  0.17300000000E+03 0.  1.
<mgrwt>
<rscale>  2 0.17697494E+03</rscale>
<asrwt>0</asrwt>
<pdfrwt beam="1">  1       21 0.87049682E-02 0.17697494E+03</pdfrwt>
<pdfrwt beam="2">  1       21 0.90350023E-01 0.17697494E+03</pdfrwt>
<totfact> 0.10848974E+05</totfact>
</mgrwt>
</event>
<event>
 4    1  0.3876841E+000  0.1829026E+03  0.7546771E-02  0.1165023E+00
         21   -1    0    0  501  502  0.00000000000E+00  0.00000000000E+00  0.89920527723E+02  0.89920527723E+02  0.00000000000E+00 0.  1.
         21   -1    0    0  502  503 -0.00000000000E+00 -0.00000000000E+00 -0.62412288792E+03  0.62412288792E+03  0.00000000000E+00 0.  1.
          6    1    1    2  501    0 -0.55180747305E+02  0.21896387708E+02 -0.40199539693E+02  0.18726817578E+03  0.17300000000E+03 0.  1.
         -6    1    1    2    0  503  0.55180747305E+02 -0.21896387708E+02 -0.49400282050E+03  0.52677523986E+03  0.17300000000E+03 0.  1.
<mgrwt>
<rscale>  2 0.18290262E+03</rscale>
<asrwt>0</asrwt>
<pdfrwt beam="1">  1       21 0.13833927E-01 0.18290262E+03</pdfrwt>
<pdfrwt beam="2">  1       21 0.96018910E-01 0.18290262E+03</pdfrwt>
<totfact> 0.41257290E+04</totfact>
</mgrwt>
</event>
<event>
 4    1  0.3876841E+000  0.2700463E+03  0.7546771E-02  0.1101253E+00
         21   -1    0    0  503  502  0.00000000000E+00  0.00000000000E+00  0.36489639757E+03  0.36489639757E+03  0.00000000000E+00 0. -1.
         21   -1    0    0  501  503 -0.00000000000E+00 -0.00000000000E+00 -0.24209242386E+03  0.24209242386E+03  0.00000000000E+00 0.  1.
          6    1    1    2  501    0  0.20673796089E+03  0.15981967154E+02 -0.65371371278E+02  0.27784604358E+03  0.17300000000E+03 0.  1.
         -6    1    1    2    0  502 -0.20673796089E+03 -0.15981967154E+02  0.18817534499E+03  0.32914277785E+03  0.17300000000E+03 0. -1.
<mgrwt>
<rscale>  2 0.27004631E+03</rscale>
<asrwt>0</asrwt>
<pdfrwt beam="1">  1       21 0.56137908E-01 0.27004631E+03</pdfrwt>
<pdfrwt beam="2">  1       21 0.37244988E-01 0.27004631E+03</pdfrwt>
<totfact> 0.19940810E+04</totfact>
</mgrwt>
</event>
<event>
 4    1  0.3876841E+000  0.2220893E+03  0.7546771E-02  0.1132335E+00
         21   -1    0    0  501  502  0.00000000000E+00  0.00000000000E+00  0.38700925716E+03  0.38700925716E+03  0.00000000000E+00 0.  1.
         21   -1    0    0  502  503 -0.00000000000E+00 -0.00000000000E+00 -0.18138868177E+03  0.18138868177E+03  0.00000000000E+00 0.  1.
          6    1    1    2  501    0 -0.11830679889E+03 -0.73472166703E+02  0.25778989628E+03  0.34026355751E+03  0.17300000000E+03 0.  1.
         -6    1    1    2    0  503  0.11830679889E+03  0.73472166703E+02 -0.52169320894E+02  0.22813438142E+03  0.17300000000E+03 0.  1.
<mgrwt>
<rscale>  2 0.22208930E+03</rscale>
<asrwt>0</asrwt>
<pdfrwt beam="1">  1       21 0.59539886E-01 0.22208930E+03</pdfrwt>
<pdfrwt beam="2">  1       21 0.27905951E-01 0.22208930E+03</pdfrwt>
<totfact> 0.31808071E+04</totfact>
</mgrwt>
</event>
<event>
 4    1  0.3876841E+000  0.2456387E+03  0.7546771E-02  0.1116092E+00
         21   -1    0    0  503  502  0.00000000000E+00  0.00000000000E+00  0.23028747499E+03  0.23028747499E+03  0.00000000000E+00 0. -1.
         21   -1    0    0  501  503 -0.00000000000E+00 -0.00000000000E+00 -0.33467450299E+03  0.33467450299E+03  0.00000000000E+00 0.  1.
          6    1    1    2  501    0 -0.37744438249E+02 -0.17024904050E+03 -0.18381574280E+03  0.30680059601E+03  0.17300000000E+03 0.  1.
         -6    1    1    2    0  502  0.37744438249E+02  0.17024904050E+03  0.79428714796E+02  0.25816138198E+03  0.17300000000E+03 0. -1.
<mgrwt>
<rscale>  2 0.24563872E+03</rscale>
<asrwt>0</asrwt>
<pdfrwt beam="1">  1       21 0.35428842E-01 0.24563872E+03</pdfrwt>
<pdfrwt beam="2">  1       21 0.51488385E-01 0.24563872E+03</pdfrwt>
<totfact> 0.26783727E+04</totfact>
</mgrwt>
</event>
<event>
 4    1  0.3876841E+000  0.2490378E+03  0.7546771E-02  0.1113914E+00
         21   -1    0    0  503  502  0.00000000000E+00  0.00000000000E+00  0.51064765361E+03  0.51064765361E+03  0.00000000000E+00 0.  1.
         21   -1    0    0  501  503 -0.00000000000E+00 -0.00000000000E+00 -0.12224220251E+03  0.12224220251E+03  0.00000000000E+00 0. -1.
          6    1    1    2  501    0 -0.15687431520E+03  0.86494233174E+02  0.21962535872E+03  0.33204683606E+03  0.17300000000E+03 0. -1.
         -6    1    1    2    0  502  0.15687431520E+03 -0.86494233174E+02  0.16878009237E+03  0.30084302007E+03  0.17300000000E+03 0.  1.
<mgrwt>
<rscale>  2 0.24903775E+03</rscale>
<asrwt>0</asrwt>
<pdfrwt beam="1">  1       21 0.78561176E-01 0.24903775E+03</pdfrwt>
<pdfrwt beam="2">  1       21 0.18806493E-01 0.24903775E+03</pdfrwt>
<totfact> 0.36079996E+04</totfact>
</mgrwt>
</event>
<event>
 4    1  0.3876841E+000  0.1784162E+03  0.7546771E-02  0.1169345E+00
         21   -1    0    0  503  502  0.00000000000E+00  0.00000000000E+00  0.44150816330E+03  0.44150816330E+03  0.00000000000E+00 0. -1.
         21   -1    0    0  501  503 -0.00000000000E+00 -0.00000000000E+00 -0.13972784573E+03  0.13972784573E+03  0.00000000000E+00 0. -1.
          6    1    1    2  501    0 -0.27819378200E+01  0.43538507865E+02 -0.51293803774E+02  0.18564319312E+03  0.17300000000E+03 0. -1.
         -6    1    1    2    0  502  0.27819378200E+01 -0.43538507865E+02  0.35307412133E+03  0.39559281591E+03  0.17300000000E+03 0. -1.
<mgrwt>
<rscale>  2 0.17841620E+03</rscale>
<asrwt>0</asrwt>
<pdfrwt beam="1">  1       21 0.67924332E-01 0.17841620E+03</pdfrwt>
<pdfrwt beam="2">  1       21 0.21496592E-01 0.17841620E+03</pdfrwt>
<totfact> 0.40206654E+04</totfact>
</mgrwt>
</event>
<event>
 4    1  0.3876841E+000  0.2418476E+03  0.7546771E-02  0.1118568E+00
         21   -1    0    0  501  502  0.00000000000E+00  0.00000000000E+00  0.21931635681E+03  0.21931635681E+03  0.00000000000E+00 0.  1.
         21   -1    0    0  502  503 -0.00000000000E+00 -0.00000000000E+00 -0.42222212636E+03  0.42222212636E+03  0.00000000000E+00 0. -1.
          6    1    1    2  501    0 -0.43803624666E+02 -0.16322529861E+03  0.93229803665E+02  0.25919500754E+03  0.17300000000E+03 0.  1.
         -6    1    1    2    0  503  0.43803624666E+02  0.16322529861E+03 -0.29613557321E+03  0.38234347563E+03  0.17300000000E+03 0. -1.
<mgrwt>
<rscale>  2 0.24184759E+03</rscale>
<asrwt>0</asrwt>
<pdfrwt beam="1">  1       21 0.33740978E-01 0.24184759E+03</pdfrwt>
<pdfrwt beam="2">  1       21 0.64957249E-01 0.24184759E+03</pdfrwt>
<totfact> 0.17958136E+04</totfact>
</mgrwt>
</event>
<event>
 4    1  0.3876841E+000  0.2004552E+03  0.7546771E-02  0.1149356E+00
         21   -1    0    0  501  502  0.00000000000E+00  0.00000000000E+00  0.13599002203E+04  0.13599002203E+04  0.00000000000E+00 0. -1.
         21   -1    0    0  502  503 -0.00000000000E+00 -0.00000000000E+00 -0.59580742141E+02  0.59580742141E+02  0.00000000000E+00 0. -1.
          6    1    1    2  501    0  0.83207016612E+02 -0.57705135515E+02  0.11540597135E+04  0.11713394523E+04  0.17300000000E+03 0. -1.
         -6    1    1    2    0  503 -0.83207016612E+02  0.57705135515E+02  0.14625976466E+03  0.24814151010E+03  0.17300000000E+03 0. -1.
<mgrwt>
<rscale>  2 0.20045521E+03</rscale>
<asrwt>0</asrwt>
<pdfrwt beam="1">  1       21 0.20921540E+00 0.20045521E+03</pdfrwt>
<pdfrwt beam="2">  1       21 0.91662690E-02 0.20045521E+03</pdfrwt>
<totfact> 0.11028599E+04</totfact>
</mgrwt>
</event>
<event>
 4    1  0.3876841E+000  0.2348011E+03  0.7546771E-02  0.1123305E+00
         21   -1    0    0  501  502  0.00000000000E+00  0.00000000000E+00  0.27367048221E+03  0.27367048221E+03  0.00000000000E+00 0. -1.
         21   -1    0    0  502  503 -0.00000000000E+00 -0.00000000000E+00 -0.78685107710E+03  0.78685107710E+03  0.00000000000E+00 0. -1.
          6    1    1    2  501    0  0.15199014304E+03 -0.45842566907E+02  0.20078125032E+03  0.30894118373E+03  0.17300000000E+03 0. -1.
         -6    1    1    2    0  503 -0.15199014304E+03  0.45842566907E+02 -0.71396184521E+03  0.75158037557E+03  0.17300000000E+03 0. -1.
<mgrwt>
<rscale>  2 0.23480107E+03</rscale>
<asrwt>0</asrwt>
<pdfrwt beam="1">  1       21 0.42103151E-01 0.23480107E+03</pdfrwt>
<pdfrwt beam="2">  1       21 0.12105401E+00 0.23480107E+03</pdfrwt>
<totfact> 0.27096286E+03</totfact>
</mgrwt>
</event>
<event>
 4    1  0.3876841E+000  0.2349668E+03  0.7546771E-02  0.1123192E+00
         21   -1    0    0  501  502  0.00000000000E+00  0.00000000000E+00  0.96752459420E+03  0.96752459420E+03  0.00000000000E+00 0.  1.
         21   -1    0    0  502  503 -0.00000000000E+00 -0.00000000000E+00 -0.61087609063E+02  0.61087609063E+02  0.00000000000E+00 0.  1.
          6    1    1    2  501    0 -0.15623745902E+03  0.29499974523E+02  0.32120059041E+03  0.39796885730E+03  0.17300000000E+03 0.  1.
         -6    1    1    2    0  503  0.15623745902E+03 -0.29499974523E+02  0.58523639472E+03  0.63064334596E+03  0.17300000000E+03 0.  1.
<mgrwt>
<rscale>  2 0.23496679E+03</rscale>
<asrwt>0</asrwt>
<pdfrwt beam="1">  1       21 0.14884993E+00 0.23496679E+03</pdfrwt>
<pdfrwt beam="2">  1       21 0.93980944E-02 0.23496679E+03</pdfrwt>
<totfact> 0.26920541E+04</totfact>
</mgrwt>
</event>
<event>
 4    1  0.3876841E+000  0.1906001E+03  0.7546771E-02  0.1157921E+00
         21   -1    0    0  501  502  0.00000000000E+00  0.00000000000E+00  0.69145979912E+02  0.69145979912E+02  0.00000000000E+00 0. -1.
         21   -1    0    0  502  503 -0.00000000000E+00 -0.00000000000E+00 -0.53212939130E+03  0.53212939130E+03  0.00000000000E+00 0. -1.
          6    1    1    2  501    0  0.59645893128E+02  0.53308190644E+02 -0.26533271125E+03  0.32669533731E+03  0.17300000000E+03 0. -1.
         -6    1    1    2    0  503 -0.59645893128E+02 -0.53308190644E+02 -0.19765070014E+03  0.27458003391E+03  0.17300000000E+03 0. -1.
<mgrwt>
<rscale>  2 0.19060009E+03</rscale>
<asrwt>0</asrwt>
<pdfrwt beam="1">  1       21 0.10637843E-01 0.19060009E+03</pdfrwt>
<pdfrwt beam="2">  1       21 0.81866060E-01 0.19060009E+03</pdfrwt>
<totfact> 0.95022102E+04</totfact>
</mgrwt>
</event>
<event>
 4    1  0.3876841E+000  0.3021181E+03  0.7546771E-02  0.1084187E+00
         21   -1    0    0  501  502  0.00000000000E+00  0.00000000000E+00  0.94292380656E+02  0.94292380656E+02  0.00000000000E+00 0.  1.
         21   -1    0    0  502  503 -0.00000000000E+00 -0.00000000000E+00 -0.12703062684E+04  0.12703062684E+04  0.00000000000E+00 0.  1.
          6    1    1    2  501    0 -0.24786936654E+02 -0.24643852962E+03 -0.25516206072E+03  0.39545292810E+03  0.17300000000E+03 0.  1.
         -6    1    1    2    0  503  0.24786936654E+02  0.24643852962E+03 -0.92085182705E+03  0.96914572098E+03  0.17300000000E+03 0.  1.
<mgrwt>
<rscale>  2 0.30211809E+03</rscale>
<asrwt>0</asrwt>
<pdfrwt beam="1">  1       21 0.14506521E-01 0.30211809E+03</pdfrwt>
<pdfrwt beam="2">  1       21 0.19543172E+00 0.30211809E+03</pdfrwt>
<totfact> 0.55323112E+03</totfact>
</mgrwt>
</event>
<event>
 4    1  0.3876841E+000  0.2056513E+03  0.7546771E-02  0.1145057E+00
         21   -1    0    0  501  502  0.00000000000E+00  0.00000000000E+00  0.33350717346E+03  0.33350717346E+03  0.00000000000E+00 0.  1.
         21   -1    0    0  502  503 -0.00000000000E+00 -0.00000000000E+00 -0.16242964071E+03  0.16242964071E+03  0.00000000000E+00 0. -1.
          6    1    1    2  501    0 -0.10194335118E+03  0.44395943833E+02  0.20165718935E+03  0.28802442378E+03  0.17300000000E+03 0.  1.
         -6    1    1    2    0  503  0.10194335118E+03 -0.44395943833E+02 -0.30579656606E+02  0.20791239039E+03  0.17300000000E+03 0. -1.
<mgrwt>
<rscale>  2 0.20565127E+03</rscale>
<asrwt>0</asrwt>
<pdfrwt beam="1">  1       21 0.51308796E-01 0.20565127E+03</pdfrwt>
<pdfrwt beam="2">  1       21 0.24989176E-01 0.20565127E+03</pdfrwt>
<totfact> 0.54389098E+04</totfact>
</mgrwt>
</event>
<event>
 4    1  0.3876841E+000  0.2304599E+03  0.7546771E-02  0.1126316E+00
         21   -1    0    0  503  502  0.00000000000E+00  0.00000000000E+00  0.24692805869E+03  0.24692805869E+03  0.00000000000E+00 0.  1.
         21   -1    0    0  501  503 -0.00000000000E+00 -0.00000000000E+00 -0.44367707220E+03  0.44367707220E+03  0.00000000000E+00 0.  1.
          6    1    1    2  501    0  0.42314683515E+02  0.14626088199E+03 -0.34622629696E+03  0.41591396556E+03  0.17300000000E+03 0.  1.
         -6    1    1    2    0  502 -0.42314683515E+02 -0.14626088199E+03  0.14947728345E+03  0.27469116533E+03  0.17300000000E+03 0.  1.
<mgrwt>
<rscale>  2 0.23045993E+03</rscale>
<asrwt>0</asrwt>
<pdfrwt beam="1">  1       21 0.37988933E-01 0.23045993E+03</pdfrwt>
<pdfrwt beam="2">  1       21 0.68258010E-01 0.23045993E+03</pdfrwt>
<totfact> 0.12782422E+04</totfact>
</mgrwt>
</event>
<event>
 4    1  0.3876841E+000  0.2750714E+03  0.7546771E-02  0.1098412E+00
         21   -1    0    0  501  502  0.00000000000E+00  0.00000000000E+00  0.12301956548E+04  0.12301956548E+04  0.00000000000E+00 0. -1.
         21   -1    0    0  502  503 -0.00000000000E+00 -0.00000000000E+00 -0.66724356432E+02  0.66724356432E+02  0.00000000000E+00 0. -1.
          6    1    1    2  501    0 -0.21356570130E+03  0.11179555095E+02  0.76308333586E+03  0.81114762447E+03  0.17300000000E+03 0. -1.
         -6    1    1    2    0  503  0.21356570130E+03 -0.11179555095E+02  0.40038796256E+03  0.48577238680E+03  0.17300000000E+03 0. -1.
<mgrwt>
<rscale>  2 0.27507143E+03</rscale>
<asrwt>0</asrwt>
<pdfrwt beam="1">  1       21 0.18926085E+00 0.27507143E+03</pdfrwt>
<pdfrwt beam="2">  1       21 0.10265286E-01 0.27507143E+03</pdfrwt>
<totfact> 0.11546759E+04</totfact>
</mgrwt>
</event>
<event>
 4    1  0.3876841E+000  0.1775625E+03  0.7546771E-02  0.1170183E+00
         21   -1    0    0  503  502  0.00000000000E+00  0.00000000000E+00  0.94589083264E+02  0.94589083264E+02  0.00000000000E+00 0.  1.
         21   -1    0    0  501  503 -0.00000000000E+00 -0.00000000000E+00 -0.33568044514E+03  0.33568044514E+03  0.00000000000E+00 0. -1.
          6    1    1    2  501    0 -0.20549642934E+02 -0.34309902225E+02 -0.13858504421E+03  0.22524269510E+03  0.17300000000E+03 0.  1.
         -6    1    1    2    0  502  0.20549642934E+02  0.34309902225E+02 -0.10250631767E+03  0.20502683331E+03  0.17300000000E+03 0.  1.
<mgrwt>
<rscale>  2 0.17756254E+03</rscale>
<asrwt>0</asrwt>
<pdfrwt beam="1">  1       21 0.14552167E-01 0.17756254E+03</pdfrwt>
<pdfrwt beam="2">  1       21 0.51643146E-01 0.17756254E+03</pdfrwt>
<totfact> 0.14836051E+05</totfact>
</mgrwt>
</event>
<event>
 4    1  0.3876841E+000  0.1825853E+03  0.7546771E-02  0.1165324E+00
         21   -1    0    0  501  502  0.00000000000E+00  0.00000000000E+00  0.77210247379E+03  0.77210247379E+03  0.00000000000E+00 0.  1.
         21   -1    0    0  502  503 -0.00000000000E+00 -0.00000000000E+00 -0.44481241632E+02  0.44481241632E+02  0.00000000000E+00 0.  1.
          6    1    1    2  501    0 -0.56281788708E+02 -0.15516616204E+02  0.29390876106E+03  0.34600544063E+03  0.17300000000E+03 0. -1.
         -6    1    1    2    0  503  0.56281788708E+02  0.15516616204E+02  0.43371247110E+03  0.47057827479E+03  0.17300000000E+03 0. -1.
<mgrwt>
<rscale>  2 0.18258534E+03</rscale>
<asrwt>0</asrwt>
<pdfrwt beam="1">  1       21 0.11878499E+00 0.18258534E+03</pdfrwt>
<pdfrwt beam="2">  1       21 0.68432685E-02 0.18258534E+03</pdfrwt>
<totfact> 0.85574793E+04</totfact>
</mgrwt>
</event>
<event>
 4    1  0.3876841E+000  0.2881922E+03  0.7546771E-02  0.1091297E+00
         21   -1    0    0  501  502  0.00000000000E+00  0.00000000000E+00  0.14318279933E+03  0.14318279933E+03  0.00000000000E+00 0. -1.
         21   -1    0    0  502  503 -0.00000000000E+00 -0.00000000000E+00 -0.68266838295E+03  0.68266838295E+03  0.00000000000E+00 0.  1.
          6    1    1    2  501    0 -0.21130841056E+03 -0.92056915751E+02 -0.10965553365E+03  0.30834891952E+03  0.17300000000E+03 0. -1.
         -6    1    1    2    0  503  0.21130841056E+03  0.92056915751E+02 -0.42983004996E+03  0.51750226276E+03  0.17300000000E+03 0.  1.
<mgrwt>
<rscale>  2 0.28819216E+03</rscale>
<asrwt>0</asrwt>
<pdfrwt beam="1">  1       21 0.22028123E-01 0.28819216E+03</pdfrwt>
<pdfrwt beam="2">  1       21 0.10502590E+00 0.28819216E+03</pdfrwt>
<totfact> 0.13322313E+04</totfact>
</mgrwt>
</event>
<event>
 4    1  0.3876841E+000  0.1776587E+03  0.7546771E-02  0.1170088E+00
         21   -1    0    0  503  502  0.00000000000E+00  0.00000000000E+00  0.71164090229E+03  0.71164090229E+03  0.00000000000E+00 0.  1.
         21   -1    0    0  501  503 -0.00000000000E+00 -0.00000000000E+00 -0.98501633379E+02  0.98501633379E+02  0.00000000000E+00 0.  1.
          6    1    1    2  501    0  0.11118545097E+02  0.38858469010E+02  0.62332026258E+01  0.17776798214E+03  0.17300000000E+03 0.  1.
         -6    1    1    2    0  502 -0.11118545097E+02 -0.38858469010E+02  0.60690606629E+03  0.63237455353E+03  0.17300000000E+03 0.  1.
<mgrwt>
<rscale>  2 0.17765867E+03</rscale>
<asrwt>0</asrwt>
<pdfrwt beam="1">  1       21 0.10948321E+00 0.17765867E+03</pdfrwt>
<pdfrwt beam="2">  1       21 0.15154098E-01 0.17765867E+03</pdfrwt>
<totfact> 0.25664802E+04</totfact>
</mgrwt>
</event>
<event>
 4    1  0.3876841E+000  0.1798807E+03  0.7546771E-02  0.1167919E+00
         21   -1    0    0  501  502  0.00000000000E+00  0.00000000000E+00  0.39487768665E+02  0.39487768665E+02  0.00000000000E+00 0. -1.
         21   -1    0    0  502  503 -0.00000000000E+00 -0.00000000000E+00 -0.87925327677E+03  0.87925327677E+03  0.00000000000E+00 0. -1.
          6    1    1    2  501    0  0.74187500005E+01 -0.48713847984E+02 -0.30004969326E+03  0.34983838449E+03  0.17300000000E+03 0. -1.
         -6    1    1    2    0  503 -0.74187500005E+01  0.48713847984E+02 -0.53971581484E+03  0.56890266094E+03  0.17300000000E+03 0. -1.
<mgrwt>
<rscale>  2 0.17988073E+03</rscale>
<asrwt>0</asrwt>
<pdfrwt beam="1">  1       21 0.60750416E-02 0.17988073E+03</pdfrwt>
<pdfrwt beam="2">  1       21 0.13526973E+00 0.17988073E+03</pdfrwt>
<totfact> 0.75915186E+04</totfact>
</mgrwt>
</event>
<event>
 4    1  0.3876841E+000  0.2954037E+03  0.7546771E-02  0.1087561E+00
         21   -1    0    0  501  502  0.00000000000E+00  0.00000000000E+00  0.88667011801E+03  0.88667011801E+03  0.00000000000E+00 0.  1.
         21   -1    0    0  502  503 -0.00000000000E+00 -0.00000000000E+00 -0.11163613356E+03  0.11163613356E+03  0.00000000000E+00 0. -1.
          6    1    1    2  501    0 -0.23033108549E+03  0.65436487104E+02  0.55928180405E+03  0.63250255266E+03  0.17300000000E+03 0.  1.
         -6    1    1    2    0  503  0.23033108549E+03 -0.65436487104E+02  0.21575218041E+03  0.36580369891E+03  0.17300000000E+03 0.  1.
<mgrwt>
<rscale>  2 0.29540369E+03</rscale>
<asrwt>0</asrwt>
<pdfrwt beam="1">  1       21 0.13641078E+00 0.29540369E+03</pdfrwt>
<pdfrwt beam="2">  1       21 0.17174790E-01 0.29540369E+03</pdfrwt>
<totfact> 0.11012739E+04</totfact>
</mgrwt>
</event>
<event>
 4    1  0.3876841E+000  0.2586673E+03  0.7546771E-02  0.1107947E+00
         21   -1    0    0  501  502  0.00000000000E+00  0.00000000000E+00  0.27138005209E+03  0.27138005209E+03  0.00000000000E+00 0.  1.
         21   -1    0    0  502  503 -0.00000000000E+00 -0.00000000000E+00 -0.27687414473E+03  0.27687414473E+03  0.00000000000E+00 0.  1.
          6    1    1    2  501    0 -0.18393244246E+03  0.56112420482E+02  0.87973398945E+02  0.27321798265E+03  0.17300000000E+03 0.  1.
         -6    1    1    2    0  503  0.18393244246E+03 -0.56112420482E+02 -0.93467491583E+02  0.27503621417E+03  0.17300000000E+03 0.  1.
<mgrwt>
<rscale>  2 0.25866725E+03</rscale>
<asrwt>0</asrwt>
<pdfrwt beam="1">  1       21 0.41750777E-01 0.25866725E+03</pdfrwt>
<pdfrwt beam="2">  1       21 0.42596022E-01 0.25866725E+03</pdfrwt>
<totfact> 0.28335964E+04</totfact>
</mgrwt>
</event>
<event>
 4    1  0.3876841E+000  0.2209659E+03  0.7546771E-02  0.1133165E+00
         21   -1    0    0  503  502  0.00000000000E+00  0.00000000000E+00  0.29046774261E+03  0.29046774261E+03  0.00000000000E+00 0.  1.
         21   -1    0    0  501  503 -0.00000000000E+00 -0.00000000000E+00 -0.17665081957E+03  0.17665081957E+03  0.00000000000E+00 0.  1.
          6    1    1    2  501    0  0.10532924018E+03 -0.88332679491E+02  0.55049030638E+01  0.22103442053E+03  0.17300000000E+03 0.  1.
         -6    1    1    2    0  502 -0.10532924018E+03  0.88332679491E+02  0.10831201998E+03  0.24608414165E+03  0.17300000000E+03 0.  1.
<mgrwt>
<rscale>  2 0.22096586E+03</rscale>
<asrwt>0</asrwt>
<pdfrwt beam="1">  1       21 0.44687345E-01 0.22096586E+03</pdfrwt>
<pdfrwt beam="2">  1       21 0.27177049E-01 0.22096586E+03</pdfrwt>
<totfact> 0.61254223E+04</totfact>
</mgrwt>
</event>
<event>
 4    1  0.3876841E+000  0.1754212E+03  0.7546771E-02  0.1172309E+00
         21   -1    0    0  503  502  0.00000000000E+00  0.00000000000E+00  0.78617499102E+02  0.78617499102E+02  0.00000000000E+00 0.  1.
         21   -1    0    0  501  503 -0.00000000000E+00 -0.00000000000E+00 -0.41107215658E+03  0.41107215658E+03  0.00000000000E+00 0.  1.
          6    1    1    2  501    0 -0.89057790934E+01  0.27645520291E+02 -0.11269461319E+03  0.20850099169E+03  0.17300000000E+03 0.  1.
         -6    1    1    2    0  502  0.89057790934E+01 -0.27645520291E+02 -0.21976004429E+03  0.28118866399E+03  0.17300000000E+03 0.  1.
<mgrwt>
<rscale>  2 0.17542117E+03</rscale>
<asrwt>0</asrwt>
<pdfrwt beam="1">  1       21 0.12095000E-01 0.17542117E+03</pdfrwt>
<pdfrwt beam="2">  1       21 0.63241869E-01 0.17542117E+03</pdfrwt>
<totfact> 0.13464767E+05</totfact>
</mgrwt>
</event>
<event>
 4    1  0.3876841E+000  0.1873591E+03  0.7546771E-02  0.1160865E+00
         21   -1    0    0  503  502  0.00000000000E+00  0.00000000000E+00  0.53851650859E+02  0.53851650859E+02  0.00000000000E+00 0.  1.
         21   -1    0    0  501  503 -0.00000000000E+00 -0.00000000000E+00 -0.12772179390E+04  0.12772179390E+04  0.00000000000E+00 0.  1.
          6    1    1    2  501    0  0.56281603276E+02 -0.44797596916E+02 -0.10773812673E+04  0.10935510224E+04  0.17300000000E+03 0.  1.
         -6    1    1    2    0  502 -0.56281603276E+02  0.44797596916E+02 -0.14598502084E+03  0.23751856741E+03  0.17300000000E+03 0.  1.
<mgrwt>
<rscale>  2 0.18735913E+03</rscale>
<asrwt>0</asrwt>
<pdfrwt beam="1">  1       21 0.82848704E-02 0.18735913E+03</pdfrwt>
<pdfrwt beam="2">  1       21 0.19649504E+00 0.18735913E+03</pdfrwt>
<totfact> 0.16035805E+04</totfact>
</mgrwt>
</event>
<event>
 4    1  0.3876841E+000  0.1920239E+03  0.7546771E-02  0.1156648E+00
         21   -1    0    0  503  502  0.00000000000E+00  0.00000000000E+00  0.36760716775E+02  0.36760716775E+02  0.00000000000E+00 0.  1.
         21   -1    0    0  501  503 -0.00000000000E+00 -0.00000000000E+00 -0.10435469535E+04  0.10435469535E+04  0.00000000000E+00 0. -1.
          6    1    1    2  501    0 -0.57568710507E+02  0.60249596325E+02 -0.39699743271E+03  0.44099901572E+03  0.17300000000E+03 0. -1.
         -6    1    1    2    0  502  0.57568710507E+02 -0.60249596325E+02 -0.60978880400E+03  0.63930865454E+03  0.17300000000E+03 0. -1.
<mgrwt>
<rscale>  2 0.19202388E+03</rscale>
<asrwt>0</asrwt>
<pdfrwt beam="1">  1       21 0.56554944E-02 0.19202388E+03</pdfrwt>
<pdfrwt beam="2">  1       21 0.16054570E+00 0.19202388E+03</pdfrwt>
<totfact> 0.54424758E+04</totfact>
</mgrwt>
</event>
<event>
 4    1  0.3876841E+000  0.1778682E+03  0.7546771E-02  0.1169882E+00
         21   -1    0    0  501  502  0.00000000000E+00  0.00000000000E+00  0.10942052639E+03  0.10942052639E+03  0.00000000000E+00 0.  1.
         21   -1    0    0  502  503 -0.00000000000E+00 -0.00000000000E+00 -0.34010768653E+03  0.34010768653E+03  0.00000000000E+00 0.  1.
          6    1    1    2  501    0 -0.27615563006E+01 -0.41236651421E+02 -0.28328220968E+02  0.18010989900E+03  0.17300000000E+03 0.  1.
         -6    1    1    2    0  503  0.27615563006E+01  0.41236651421E+02 -0.20235893917E+03  0.26941831392E+03  0.17300000000E+03 0.  1.
<mgrwt>
<rscale>  2 0.17786817E+03</rscale>
<asrwt>0</asrwt>
<pdfrwt beam="1">  1       21 0.16833927E-01 0.17786817E+03</pdfrwt>
<pdfrwt beam="2">  1       21 0.52324259E-01 0.17786817E+03</pdfrwt>
<totfact> 0.11066288E+05</totfact>
</mgrwt>
</event>
<event>
 4    1  0.3876841E+000  0.2444477E+03  0.7546771E-02  0.1116865E+00
         21   -1    0    0  501  502  0.00000000000E+00  0.00000000000E+00  0.16362091376E+03  0.16362091376E+03  0.00000000000E+00 0. -1.
         21   -1    0    0  502  503 -0.00000000000E+00 -0.00000000000E+00 -0.10496584239E+04  0.10496584239E+04  0.00000000000E+00 0. -1.
          6    1    1    2  501    0  0.17188463336E+03 -0.16773203004E+02  0.46850004284E+02  0.24889674652E+03  0.17300000000E+03 0. -1.
         -6    1    1    2    0  503 -0.17188463336E+03  0.16773203004E+02 -0.93288751440E+03  0.96438259112E+03  0.17300000000E+03 0. -1.
<mgrwt>
<rscale>  2 0.24444768E+03</rscale>
<asrwt>0</asrwt>
<pdfrwt beam="1">  1       21 0.25172447E-01 0.24444768E+03</pdfrwt>
<pdfrwt beam="2">  1       21 0.16148592E+00 0.24444768E+03</pdfrwt>
<totfact> 0.35173443E+03</totfact>
</mgrwt>
</event>
<event>
 4    1  0.3876841E+000  0.2134000E+03  0.7546771E-02  0.1138902E+00
         21   -1    0    0  503  502  0.00000000000E+00  0.00000000000E+00  0.16136103487E+03  0.16136103487E+03  0.00000000000E+00 0. -1.
         21   -1    0    0  501  503 -0.00000000000E+00 -0.00000000000E+00 -0.29728379667E+03  0.29728379667E+03  0.00000000000E+00 0.  1.
          6    1    1    2  501    0 -0.12427296387E+03 -0.12914492184E+02 -0.11958000874E+03  0.24461997496E+03  0.17300000000E+03 0. -1.
         -6    1    1    2    0  502  0.12427296387E+03  0.12914492184E+02 -0.16342753058E+02  0.21402485658E+03  0.17300000000E+03 0.  1.
<mgrwt>
<rscale>  2 0.21339999E+03</rscale>
<asrwt>0</asrwt>
<pdfrwt beam="1">  1       21 0.24824775E-01 0.21339999E+03</pdfrwt>
<pdfrwt beam="2">  1       21 0.45735969E-01 0.21339999E+03</pdfrwt>
<totfact> 0.69718301E+04</totfact>
</mgrwt>
</event>
<event>
 4    1  0.3876841E+000  0.2206331E+03  0.7546771E-02  0.1133412E+00
         21   -1    0    0  503  502  0.00000000000E+00  0.00000000000E+00  0.30718714669E+03  0.30718714669E+03  0.00000000000E+00 0. -1.
         21   -1    0    0  501  503 -0.00000000000E+00 -0.00000000000E+00 -0.20098422969E+03  0.20098422969E+03  0.00000000000E+00 0. -1.
          6    1    1    2  501    0 -0.12647235427E+03 -0.52485126183E+02 -0.63763156866E+02  0.22966211058E+03  0.17300000000E+03 0. -1.
         -6    1    1    2    0  502  0.12647235427E+03  0.52485126183E+02  0.16996607387E+03  0.27850926579E+03  0.17300000000E+03 0. -1.
<mgrwt>
<rscale>  2 0.22063305E+03</rscale>
<asrwt>0</asrwt>
<pdfrwt beam="1">  1       21 0.47259561E-01 0.22063305E+03</pdfrwt>
<pdfrwt beam="2">  1       21 0.30920651E-01 0.22063305E+03</pdfrwt>
<totfact> 0.42441953E+04</totfact>
</mgrwt>
</event>
<event>
 4    1  0.3876841E+000  0.1836960E+03  0.7546771E-02  0.1164273E+00
         21   -1    0    0  501  502  0.00000000000E+00  0.00000000000E+00  0.23741699820E+03  0.23741699820E+03  0.00000000000E+00 0.  1.
         21   -1    0    0  502  503 -0.00000000000E+00 -0.00000000000E+00 -0.26652664587E+03  0.26652664587E+03  0.00000000000E+00 0.  1.
          6    1    1    2  501    0 -0.25362506566E+02 -0.56320140705E+02  0.15758644002E+03  0.24202830633E+03  0.17300000000E+03 0.  1.
         -6    1    1    2    0  503  0.25362506566E+02  0.56320140705E+02 -0.18669608769E+03  0.26191533774E+03  0.17300000000E+03 0.  1.
<mgrwt>
<rscale>  2 0.18369599E+03</rscale>
<asrwt>0</asrwt>
<pdfrwt beam="1">  1       21 0.36525692E-01 0.18369599E+03</pdfrwt>
<pdfrwt beam="2">  1       21 0.41004099E-01 0.18369599E+03</pdfrwt>
<totfact> 0.41594359E+04</totfact>
</mgrwt>
</event>
<event>
 4    1  0.3876841E+000  0.2119764E+03  0.7546771E-02  0.1140010E+00
         21   -1    0    0  501  502  0.00000000000E+00  0.00000000000E+00  0.26209795520E+03  0.26209795520E+03  0.00000000000E+00 0.  1.
         21   -1    0    0  502  503 -0.00000000000E+00 -0.00000000000E+00 -0.18373724012E+03  0.18373724012E+03  0.00000000000E+00 0.  1.
          6    1    1    2  501    0  0.24959506906E+02 -0.11992511980E+03  0.96850864611E+02  0.23305385927E+03  0.17300000000E+03 0.  1.
         -6    1    1    2    0  503 -0.24959506906E+02  0.11992511980E+03 -0.18490149532E+02  0.21278133606E+03  0.17300000000E+03 0.  1.
<mgrwt>
<rscale>  2 0.21197644E+03</rscale>
<asrwt>0</asrwt>
<pdfrwt beam="1">  1       21 0.40322762E-01 0.21197644E+03</pdfrwt>
<pdfrwt beam="2">  1       21 0.28267268E-01 0.21197644E+03</pdfrwt>
<totfact> 0.70289495E+04</totfact>
</mgrwt>
</event>
<event>
 4    1  0.3876841E+000  0.1867345E+03  0.7546771E-02  0.1161440E+00
         21   -1    0    0  501  502  0.00000000000E+00  0.00000000000E+00  0.81851922238E+02  0.81851922238E+02  0.00000000000E+00 0.  1.
         21   -1    0    0  502  503 -0.00000000000E+00 -0.00000000000E+00 -0.43464582193E+03  0.43464582193E+03  0.00000000000E+00 0.  1.
          6    1    1    2  501    0 -0.84573528565E+01  0.69779860675E+02 -0.13999565173E+03  0.23338495726E+03  0.17300000000E+03 0.  1.
         -6    1    1    2    0  503  0.84573528565E+01 -0.69779860675E+02 -0.21279824796E+03  0.28311278690E+03  0.17300000000E+03 0.  1.
<mgrwt>
<rscale>  2 0.18673445E+03</rscale>
<asrwt>0</asrwt>
<pdfrwt beam="1">  1       21 0.12592604E-01 0.18673445E+03</pdfrwt>
<pdfrwt beam="2">  1       21 0.66868587E-01 0.18673445E+03</pdfrwt>
<totfact> 0.11052082E+05</totfact>
</mgrwt>
</event>
<event>
 4    1  0.3876841E+000  0.1853716E+03  0.7546771E-02  0.1162703E+00
         21   -1    0    0  501  502  0.00000000000E+00  0.00000000000E+00  0.70693315170E+02  0.70693315170E+02  0.00000000000E+00 0.  1.
         21   -1    0    0  502  503 -0.00000000000E+00 -0.00000000000E+00 -0.48686037348E+03  0.48686037348E+03  0.00000000000E+00 0.  1.
          6    1    1    2  501    0  0.34386583316E+01 -0.66496749889E+02 -0.19692605117E+03  0.27044872295E+03  0.17300000000E+03 0.  1.
         -6    1    1    2    0  503 -0.34386583316E+01  0.66496749889E+02 -0.21924100714E+03  0.28710496570E+03  0.17300000000E+03 0.  1.
<mgrwt>
<rscale>  2 0.18537163E+03</rscale>
<asrwt>0</asrwt>
<pdfrwt beam="1">  1       21 0.10875894E-01 0.18537163E+03</pdfrwt>
<pdfrwt beam="2">  1       21 0.74901598E-01 0.18537163E+03</pdfrwt>
<totfact> 0.11181351E+05</totfact>
</mgrwt>
</event>
<event>
 4    1  0.3876841E+000  0.2054971E+03  0.7546771E-02  0.1145182E+00
         21   -1    0    0  503  502  0.00000000000E+00  0.00000000000E+00  0.20889651468E+03  0.20889651468E+03  0.00000000000E+00 0.  1.
         21   -1    0    0  501  503 -0.00000000000E+00 -0.00000000000E+00 -0.22126951227E+03  0.22126951227E+03  0.00000000000E+00 0. -1.
          6    1    1    2  501    0 -0.10782211227E+03 -0.25970089886E+02 -0.69405823560E+02  0.21690141034E+03  0.17300000000E+03 0. -1.
         -6    1    1    2    0  502  0.10782211227E+03  0.25970089886E+02  0.57032825967E+02  0.21326461662E+03  0.17300000000E+03 0.  1.
<mgrwt>
<rscale>  2 0.20549709E+03</rscale>
<asrwt>0</asrwt>
<pdfrwt beam="1">  1       21 0.32137925E-01 0.20549709E+03</pdfrwt>
<pdfrwt beam="2">  1       21 0.34041464E-01 0.20549709E+03</pdfrwt>
<totfact> 0.77005572E+04</totfact>
</mgrwt>
</event>
<event>
 4    1  0.3876841E+000  0.1762110E+03  0.7546771E-02  0.1171521E+00
         21   -1    0    0  503  502  0.00000000000E+00  0.00000000000E+00  0.30527752707E+03  0.30527752707E+03  0.00000000000E+00 0. -1.
         21   -1    0    0  501  503 -0.00000000000E+00 -0.00000000000E+00 -0.15872326862E+03  0.15872326862E+03  0.00000000000E+00 0. -1.
          6    1    1    2  501    0 -0.33477887072E+02 -0.74686718525E+00 -0.65766003871E+02  0.18808374198E+03  0.17300000000E+03 0. -1.
         -6    1    1    2    0  502  0.33477887072E+02  0.74686718525E+00  0.21232026233E+03  0.27591705371E+03  0.17300000000E+03 0. -1.
<mgrwt>
<rscale>  2 0.17621103E+03</rscale>
<asrwt>0</asrwt>
<pdfrwt beam="1">  1       21 0.46965773E-01 0.17621103E+03</pdfrwt>
<pdfrwt beam="2">  1       21 0.24418964E-01 0.17621103E+03</pdfrwt>
<totfact> 0.69226274E+04</totfact>
</mgrwt>
</event>
<event>
 4    1  0.3876841E+000  0.2487219E+03  0.7546771E-02  0.1114115E+00
         21   -1    0    0  501  502  0.00000000000E+00  0.00000000000E+00  0.46407679296E+02  0.46407679296E+02  0.00000000000E+00 0.  1.
         21   -1    0    0  502  503 -0.00000000000E+00 -0.00000000000E+00 -0.13610350456E+04  0.13610350456E+04  0.00000000000E+00 0. -1.
          6    1    1    2  501    0 -0.17746241495E+03 -0.20991914637E+02 -0.75826862471E+03  0.79801871935E+03  0.17300000000E+03 0. -1.
         -6    1    1    2    0  503  0.17746241495E+03  0.20991914637E+02 -0.55635874162E+03  0.60942400558E+03  0.17300000000E+03 0. -1.
<mgrwt>
<rscale>  2 0.24872187E+03</rscale>
<asrwt>0</asrwt>
<pdfrwt beam="1">  1       21 0.71396440E-02 0.24872187E+03</pdfrwt>
<pdfrwt beam="2">  1       21 0.20938998E+00 0.24872187E+03</pdfrwt>
<totfact> 0.16432621E+04</totfact>
</mgrwt>
</event>
<event>
 4    1  0.3876841E+000  0.5045955E+03  0.7546771E-02  0.1012586E+00
         21   -1    0    0  501  502  0.00000000000E+00  0.00000000000E+00  0.14833405950E+04  0.14833405950E+04  0.00000000000E+00 0. -1.
         21   -1    0    0  502  503 -0.00000000000E+00 -0.00000000000E+00 -0.22415882371E+03  0.22415882371E+03  0.00000000000E+00 0.  1.
          6    1    1    2  501    0 -0.16876899562E+01 -0.47400923872E+03  0.10427957890E+04  0.11584643560E+04  0.17300000000E+03 0. -1.
         -6    1    1    2    0  503  0.16876899562E+01  0.47400923872E+03  0.21638598226E+03  0.54903506264E+03  0.17300000000E+03 0.  1.
<mgrwt>
<rscale>  2 0.50459549E+03</rscale>
<asrwt>0</asrwt>
<pdfrwt beam="1">  1       21 0.22820624E+00 0.50459549E+03</pdfrwt>
<pdfrwt beam="2">  1       21 0.34485974E-01 0.50459549E+03</pdfrwt>
<totfact> 0.57993145E+02</totfact>
</mgrwt>
</event>
<event>
 4    1  0.3876841E+000  0.2902087E+03  0.7546771E-02  0.1090240E+00
         21   -1    0    0  503  502  0.00000000000E+00  0.00000000000E+00  0.28956674792E+03  0.28956674792E+03  0.00000000000E+00 0. -1.
         21   -1    0    0  501  503 -0.00000000000E+00 -0.00000000000E+00 -0.33001928264E+03  0.33001928264E+03  0.00000000000E+00 0. -1.
          6    1    1    2  501    0 -0.69985223989E+02 -0.22224791471E+03 -0.12695066104E+03  0.31676101008E+03  0.17300000000E+03 0. -1.
         -6    1    1    2    0  502  0.69985223989E+02  0.22224791471E+03  0.86498126315E+02  0.30282502047E+03  0.17300000000E+03 0. -1.
<mgrwt>
<rscale>  2 0.29020866E+03</rscale>
<asrwt>0</asrwt>
<pdfrwt beam="1">  1       21 0.44548731E-01 0.29020866E+03</pdfrwt>
<pdfrwt beam="2">  1       21 0.50772197E-01 0.29020866E+03</pdfrwt>
<totfact> 0.16972282E+04</totfact>
</mgrwt>
</event>
<event>
 4    1  0.3876841E+000  0.1800097E+03  0.7546771E-02  0.1167794E+00
         21   -1    0    0  501  502  0.00000000000E+00  0.00000000000E+00  0.39964948682E+03  0.39964948682E+03  0.00000000000E+00 0. -1.
         21   -1    0    0  502  503 -0.00000000000E+00 -0.00000000000E+00 -0.83989548049E+02  0.83989548049E+02  0.00000000000E+00 0.  1.
          6    1    1    2  501    0  0.38595463232E+02  0.31382734701E+02  0.11281995467E+03  0.21244252868E+03  0.17300000000E+03 0.  1.
         -6    1    1    2    0  503 -0.38595463232E+02 -0.31382734701E+02  0.20283998410E+03  0.27119650619E+03  0.17300000000E+03 0. -1.
<mgrwt>
<rscale>  2 0.18000968E+03</rscale>
<asrwt>0</asrwt>
<pdfrwt beam="1">  1       21 0.61484535E-01 0.18000968E+03</pdfrwt>
<pdfrwt beam="2">  1       21 0.12921469E-01 0.18000968E+03</pdfrwt>
<totfact> 0.12690051E+05</totfact>
</mgrwt>
</event>
<event>
 4    1  0.3876841E+000  0.2181830E+03  0.7546771E-02  0.1135245E+00
         21   -1    0    0  503  502  0.00000000000E+00  0.00000000000E+00  0.62967631216E+03  0.62967631216E+03  0.00000000000E+00 0.  1.
         21   -1    0    0  501  503 -0.00000000000E+00 -0.00000000000E+00 -0.97414369768E+02  0.97414369768E+02  0.00000000000E+00 0.  1.
          6    1    1    2  501    0 -0.11125939074E+03  0.72774913050E+02  0.94097286012E+02  0.23760921538E+03  0.17300000000E+03 0.  1.
         -6    1    1    2    0  502  0.11125939074E+03 -0.72774913050E+02  0.43816465638E+03  0.48948146655E+03  0.17300000000E+03 0.  1.
<mgrwt>
<rscale>  2 0.21818304E+03</rscale>
<asrwt>0</asrwt>
<pdfrwt beam="1">  1       21 0.96873276E-01 0.21818304E+03</pdfrwt>
<pdfrwt beam="2">  1       21 0.14986827E-01 0.21818304E+03</pdfrwt>
<totfact> 0.34290791E+04</totfact>
</mgrwt>
</event>
<event>
 4    1  0.3876841E+000  0.1813682E+03  0.7546771E-02  0.1166485E+00
         21   -1    0    0  501  502  0.00000000000E+00  0.00000000000E+00  0.99753809137E+02  0.99753809137E+02  0.00000000000E+00 0.  1.
         21   -1    0    0  502  503 -0.00000000000E+00 -0.00000000000E+00 -0.46357485641E+03  0.46357485641E+03  0.00000000000E+00 0.  1.
          6    1    1    2  501    0 -0.26982657182E+02  0.47300621591E+02 -0.30578566194E+02  0.18392786983E+03  0.17300000000E+03 0.  1.
         -6    1    1    2    0  503  0.26982657182E+02 -0.47300621591E+02 -0.33324248108E+03  0.37940079571E+03  0.17300000000E+03 0.  1.
<mgrwt>
<rscale>  2 0.18136817E+03</rscale>
<asrwt>0</asrwt>
<pdfrwt beam="1">  1       21 0.15346740E-01 0.18136817E+03</pdfrwt>
<pdfrwt beam="2">  1       21 0.71319207E-01 0.18136817E+03</pdfrwt>
<totfact> 0.67237339E+04</totfact>
</mgrwt>
</event>
<event>
 4    1  0.3876841E+000  0.1830683E+03  0.7546771E-02  0.1164866E+00
         21   -1    0    0  501  502  0.00000000000E+00  0.00000000000E+00  0.63470964906E+02  0.63470964906E+02  0.00000000000E+00 0. -1.
         21   -1    0    0  502  503 -0.00000000000E+00 -0.00000000000E+00 -0.53677313655E+03  0.53677313655E+03  0.00000000000E+00 0.  1.
          6    1    1    2  501    0  0.99313275941E+01  0.59045364715E+02 -0.19832752850E+03  0.26990330662E+03  0.17300000000E+03 0.  1.
         -6    1    1    2    0  503 -0.99313275941E+01 -0.59045364715E+02 -0.27497464314E+03  0.33034079483E+03  0.17300000000E+03 0. -1.
<mgrwt>
<rscale>  2 0.18306826E+03</rscale>
<asrwt>0</asrwt>
<pdfrwt beam="1">  1       21 0.97647638E-02 0.18306826E+03</pdfrwt>
<pdfrwt beam="2">  1       21 0.82580483E-01 0.18306826E+03</pdfrwt>
<totfact> 0.10870902E+05</totfact>
</mgrwt>
</event>
<event>
 4    1  0.3876841E+000  0.2287164E+03  0.7546771E-02  0.1127547E+00
         21   -1    0    0  503  502  0.00000000000E+00  0.00000000000E+00  0.60337064453E+03  0.60337064453E+03  0.00000000000E+00 0.  1.
         21   -1    0    0  501  503 -0.00000000000E+00 -0.00000000000E+00 -0.53151285205E+03  0.53151285205E+03  0.00000000000E+00 0. -1.
          6    1    1    2  501    0 -0.14940995859E+03  0.76704070898E+01 -0.48317456432E+03  0.53457350334E+03  0.17300000000E+03 0. -1.
         -6    1    1    2    0  502  0.14940995859E+03 -0.76704070898E+01  0.55503235681E+03  0.60030999323E+03  0.17300000000E+03 0.  1.
<mgrwt>
<rscale>  2 0.22871635E+03</rscale>
<asrwt>0</asrwt>
<pdfrwt beam="1">  1       21 0.92826253E-01 0.22871635E+03</pdfrwt>
<pdfrwt beam="2">  1       21 0.81771208E-01 0.22871635E+03</pdfrwt>
<totfact> 0.12381314E+03</totfact>
</mgrwt>
</event>
<event>
 4    1  0.3876841E+000  0.1910731E+03  0.7546771E-02  0.1157497E+00
         21   -1    0    0  501  502  0.00000000000E+00  0.00000000000E+00  0.10238894134E+04  0.10238894134E+04  0.00000000000E+00 0. -1.
         21   -1    0    0  502  503 -0.00000000000E+00 -0.00000000000E+00 -0.36126260544E+02  0.36126260544E+02  0.00000000000E+00 0. -1.
          6    1    1    2  501    0 -0.81078903364E+01  0.80710521402E+02  0.55428088980E+03  0.58629022758E+03  0.17300000000E+03 0. -1.
         -6    1    1    2    0  503  0.81078903364E+01 -0.80710521402E+02  0.43348226301E+03  0.47372544632E+03  0.17300000000E+03 0. -1.
<mgrwt>
<rscale>  2 0.19107309E+03</rscale>
<asrwt>0</asrwt>
<pdfrwt beam="1">  1       21 0.15752143E+00 0.19107309E+03</pdfrwt>
<pdfrwt beam="2">  1       21 0.55578870E-02 0.19107309E+03</pdfrwt>
<totfact> 0.59039478E+04</totfact>
</mgrwt>
</event>
<event>
 4    1  0.3876841E+000  0.2053790E+03  0.7546771E-02  0.1145278E+00
         21   -1    0    0  501  502  0.00000000000E+00  0.00000000000E+00  0.22799073951E+03  0.22799073951E+03  0.00000000000E+00 0. -1.
         21   -1    0    0  502  503 -0.00000000000E+00 -0.00000000000E+00 -0.23041833843E+03  0.23041833843E+03  0.00000000000E+00 0. -1.
          6    1    1    2  501    0 -0.10666867639E+03 -0.29551879016E+02  0.10053598013E+03  0.22866570223E+03  0.17300000000E+03 0. -1.
         -6    1    1    2    0  503  0.10666867639E+03  0.29551879016E+02 -0.10296357905E+03  0.22974337572E+03  0.17300000000E+03 0. -1.
<mgrwt>
<rscale>  2 0.20537897E+03</rscale>
<asrwt>0</asrwt>
<pdfrwt beam="1">  1       21 0.35075499E-01 0.20537897E+03</pdfrwt>
<pdfrwt beam="2">  1       21 0.35448975E-01 0.20537897E+03</pdfrwt>
<totfact> 0.59767056E+04</totfact>
</mgrwt>
</event>
<event>
 4    1  0.3876841E+000  0.1988969E+03  0.7546771E-02  0.1150673E+00
         21   -1    0    0  501  502  0.00000000000E+00  0.00000000000E+00  0.94682314048E+03  0.94682314048E+03  0.00000000000E+00 0.  1.
         21   -1    0    0  502  503 -0.00000000000E+00 -0.00000000000E+00 -0.41854797941E+02  0.41854797941E+02  0.00000000000E+00 0.  1.
          6    1    1    2  501    0  0.75289070255E+01  0.97848355976E+02  0.47312731033E+03  0.51323429054E+03  0.17300000000E+03 0.  1.
         -6    1    1    2    0  503 -0.75289070255E+01 -0.97848355976E+02  0.43184103221E+03  0.47544364788E+03  0.17300000000E+03 0.  1.
<mgrwt>
<rscale>  2 0.19889692E+03</rscale>
<asrwt>0</asrwt>
<pdfrwt beam="1">  1       21 0.14566508E+00 0.19889692E+03</pdfrwt>
<pdfrwt beam="2">  1       21 0.64392004E-02 0.19889692E+03</pdfrwt>
<totfact> 0.56189687E+04</totfact>
</mgrwt>
</event>
<event>
 4    1  0.3876841E+000  0.1937789E+03  0.7546771E-02  0.1155097E+00
         21   -1    0    0  503  502  0.00000000000E+00  0.00000000000E+00  0.17255314715E+03  0.17255314715E+03  0.00000000000E+00 0.  1.
         21   -1    0    0  501  503 -0.00000000000E+00 -0.00000000000E+00 -0.21959348537E+03  0.21959348537E+03  0.00000000000E+00 0.  1.
          6    1    1    2  501    0  0.62834245265E+02  0.60606162156E+02 -0.42128782927E+02  0.19830553099E+03  0.17300000000E+03 0.  1.
         -6    1    1    2    0  502 -0.62834245265E+02 -0.60606162156E+02 -0.49115552970E+01  0.19384110154E+03  0.17300000000E+03 0.  1.
<mgrwt>
<rscale>  2 0.19377887E+03</rscale>
<asrwt>0</asrwt>
<pdfrwt beam="1">  1       21 0.26546638E-01 0.19377887E+03</pdfrwt>
<pdfrwt beam="2">  1       21 0.33783613E-01 0.19377887E+03</pdfrwt>
<totfact> 0.11392051E+05</totfact>
</mgrwt>
</event>
<event>
 4    1  0.3876841E+000  0.1878163E+03  0.7546771E-02  0.1160446E+00
         21   -1    0    0  503  502  0.00000000000E+00  0.00000000000E+00  0.91476902965E+02  0.91476902965E+02  0.00000000000E+00 0. -1.
         21   -1    0    0  501  503 -0.00000000000E+00 -0.00000000000E+00 -0.98837976934E+03  0.98837976934E+03  0.00000000000E+00 0.  1.
          6    1    1    2  501    0 -0.38152312077E+02  0.62372889794E+02 -0.87009714935E+03  0.89013708248E+03  0.17300000000E+03 0.  1.
         -6    1    1    2    0  502  0.38152312077E+02 -0.62372889794E+02 -0.26805717025E+02  0.18971958982E+03  0.17300000000E+03 0. -1.
<mgrwt>
<rscale>  2 0.18781634E+03</rscale>
<asrwt>0</asrwt>
<pdfrwt beam="1">  1       21 0.14073370E-01 0.18781634E+03</pdfrwt>
<pdfrwt beam="2">  1       21 0.15205842E+00 0.18781634E+03</pdfrwt>
<totfact> 0.12745398E+04</totfact>
</mgrwt>
</event>
<event>
 4    1  0.3876841E+000  0.1796796E+03  0.7546771E-02  0.1168114E+00
         21   -1    0    0  503  502  0.00000000000E+00  0.00000000000E+00  0.36204429365E+02  0.36204429365E+02  0.00000000000E+00 0.  1.
         21   -1    0    0  501  503 -0.00000000000E+00 -0.00000000000E+00 -0.92647880075E+03  0.92647880075E+03  0.00000000000E+00 0.  1.
          6    1    1    2  501    0 -0.23674317366E+02  0.42370692188E+02 -0.35192435332E+03  0.39513984780E+03  0.17300000000E+03 0.  1.
         -6    1    1    2    0  502  0.23674317366E+02 -0.42370692188E+02 -0.53835001806E+03  0.56754338231E+03  0.17300000000E+03 0.  1.
<mgrwt>
<rscale>  2 0.17967957E+03</rscale>
<asrwt>0</asrwt>
<pdfrwt beam="1">  1       21 0.55699128E-02 0.17967957E+03</pdfrwt>
<pdfrwt beam="2">  1       21 0.14253518E+00 0.17967957E+03</pdfrwt>
<totfact> 0.76970523E+04</totfact>
</mgrwt>
</event>
<event>
 4    1  0.3876841E+000  0.1943971E+03  0.7546771E-02  0.1154554E+00
         21   -1    0    0  503  502  0.00000000000E+00  0.00000000000E+00  0.53551239226E+03  0.53551239226E+03  0.00000000000E+00 0.  1.
         21   -1    0    0  501  503 -0.00000000000E+00 -0.00000000000E+00 -0.70760960883E+02  0.70760960883E+02  0.00000000000E+00 0.  1.
          6    1    1    2  501    0 -0.19944974325E+02  0.86391201093E+02  0.24818997948E+03  0.31525942895E+03  0.17300000000E+03 0.  1.
         -6    1    1    2    0  502  0.19944974325E+02 -0.86391201093E+02  0.21656145190E+03  0.29101392419E+03  0.17300000000E+03 0.  1.
<mgrwt>
<rscale>  2 0.19439712E+03</rscale>
<asrwt>0</asrwt>
<pdfrwt beam="1">  1       21 0.82386519E-01 0.19439712E+03</pdfrwt>
<pdfrwt beam="2">  1       21 0.10886302E-01 0.19439712E+03</pdfrwt>
<totfact> 0.89762646E+04</totfact>
</mgrwt>
</event>
<event>
 4    1  0.3876841E+000  0.1741534E+03  0.7546771E-02  0.1173584E+00
         21   -1    0    0  503  502  0.00000000000E+00  0.00000000000E+00  0.15527427811E+03  0.15527427811E+03  0.00000000000E+00 0.  1.
         21   -1    0    0  501  503 -0.00000000000E+00 -0.00000000000E+00 -0.20952440259E+03  0.20952440259E+03  0.00000000000E+00 0.  1.
          6    1    1    2  501    0 -0.30472430221E+01  0.19776771747E+02 -0.74603440911E+02  0.18945996882E+03  0.17300000000E+03 0.  1.
         -6    1    1    2    0  502  0.30472430221E+01 -0.19776771747E+02  0.20353316432E+02  0.17533871187E+03  0.17300000000E+03 0.  1.
<mgrwt>
<rscale>  2 0.17415340E+03</rscale>
<asrwt>0</asrwt>
<pdfrwt beam="1">  1       21 0.23888350E-01 0.17415340E+03</pdfrwt>
<pdfrwt beam="2">  1       21 0.32234524E-01 0.17415340E+03</pdfrwt>
<totfact> 0.15383831E+05</totfact>
</mgrwt>
</event>
<event>
 4    1  0.3876841E+000  0.2052448E+03  0.7546771E-02  0.1145388E+00
         21   -1    0    0  503  502  0.00000000000E+00  0.00000000000E+00  0.35980492931E+03  0.35980492931E+03  0.00000000000E+00 0.  1.
         21   -1    0    0  501  503 -0.00000000000E+00 -0.00000000000E+00 -0.18397758465E+03  0.18397758465E+03  0.00000000000E+00 0. -1.
          6    1    1    2  501    0  0.90577409751E+02 -0.63183497629E+02 -0.76040650883E+02  0.21887805307E+03  0.17300000000E+03 0. -1.
         -6    1    1    2    0  502 -0.90577409751E+02  0.63183497629E+02  0.25186799554E+03  0.32490446089E+03  0.17300000000E+03 0.  1.
<mgrwt>
<rscale>  2 0.20524478E+03</rscale>
<asrwt>0</asrwt>
<pdfrwt beam="1">  1       21 0.55354604E-01 0.20524478E+03</pdfrwt>
<pdfrwt beam="2">  1       21 0.28304244E-01 0.20524478E+03</pdfrwt>
<totfact> 0.36470560E+04</totfact>
</mgrwt>
</event>
<event>
 4    1  0.3876841E+000  0.2771963E+03  0.7546771E-02  0.1097230E+00
         21   -1    0    0  501  502  0.00000000000E+00  0.00000000000E+00  0.10861521476E+03  0.10861521476E+03  0.00000000000E+00 0.  1.
         21   -1    0    0  502  503 -0.00000000000E+00 -0.00000000000E+00 -0.13539968797E+04  0.13539968797E+04  0.00000000000E+00 0. -1.
          6    1    1    2  501    0 -0.19340816616E+03 -0.97478563658E+02 -0.11733571839E+03  0.30100740841E+03  0.17300000000E+03 0.  1.
         -6    1    1    2    0  503  0.19340816616E+03  0.97478563658E+02 -0.11280459465E+04  0.11616046860E+04  0.17300000000E+03 0. -1.
<mgrwt>
<rscale>  2 0.27719630E+03</rscale>
<asrwt>0</asrwt>
<pdfrwt beam="1">  1       21 0.16710032E-01 0.27719630E+03</pdfrwt>
<pdfrwt beam="2">  1       21 0.20830722E+00 0.27719630E+03</pdfrwt>
<totfact> 0.35695715E+03</totfact>
</mgrwt>
</event>
<event>
 4    1  0.3876841E+000  0.2348229E+03  0.7546771E-02  0.1123290E+00
         21   -1    0    0  503  502  0.00000000000E+00  0.00000000000E+00  0.40240912301E+03  0.40240912301E+03  0.00000000000E+00 0. -1.
         21   -1    0    0  501  503 -0.00000000000E+00 -0.00000000000E+00 -0.17030733736E+03  0.17030733736E+03  0.00000000000E+00 0.  1.
          6    1    1    2  501    0 -0.14122315896E+03 -0.72586683704E+02 -0.10531231649E+02  0.23505895881E+03  0.17300000000E+03 0.  1.
         -6    1    1    2    0  502  0.14122315896E+03  0.72586683704E+02  0.24263301730E+03  0.33765750156E+03  0.17300000000E+03 0. -1.
<mgrwt>
<rscale>  2 0.23482293E+03</rscale>
<asrwt>0</asrwt>
<pdfrwt beam="1">  1       21 0.61909096E-01 0.23482293E+03</pdfrwt>
<pdfrwt beam="2">  1       21 0.26201129E-01 0.23482293E+03</pdfrwt>
<totfact> 0.32824091E+04</totfact>
</mgrwt>
</event>
<event>
 4    1  0.3876841E+000  0.2235143E+03  0.7546771E-02  0.1131290E+00
         21   -1    0    0  503  502  0.00000000000E+00  0.00000000000E+00  0.67186866143E+02  0.67186866143E+02  0.00000000000E+00 0.  1.
         21   -1    0    0  501  503 -0.00000000000E+00 -0.00000000000E+00 -0.17861702973E+04  0.17861702973E+04  0.00000000000E+00 0.  1.
          6    1    1    2  501    0  0.10408029349E+03  0.95900534293E+02 -0.15674784528E+04  0.15833342414E+04  0.17300000000E+03 0.  1.
         -6    1    1    2    0  502 -0.10408029349E+03 -0.95900534293E+02 -0.15150497838E+03  0.27002292207E+03  0.17300000000E+03 0.  1.
<mgrwt>
<rscale>  2 0.22351425E+03</rscale>
<asrwt>0</asrwt>
<pdfrwt beam="1">  1       21 0.10336441E-01 0.22351425E+03</pdfrwt>
<pdfrwt beam="2">  1       21 0.27479542E+00 0.22351425E+03</pdfrwt>
<totfact> 0.35308893E+03</totfact>
</mgrwt>
</event>
<event>
 4    1  0.3876841E+000  0.2111746E+03  0.7546771E-02  0.1140639E+00
         21   -1    0    0  503  502  0.00000000000E+00  0.00000000000E+00  0.44611593942E+03  0.44611593942E+03  0.00000000000E+00 0.  1.
         21   -1    0    0  501  503 -0.00000000000E+00 -0.00000000000E+00 -0.12908169274E+03  0.12908169274E+03  0.00000000000E+00 0.  1.
          6    1    1    2  501    0 -0.12109662551E+03  0.11543928862E+01  0.21918361983E+02  0.21230906699E+03  0.17300000000E+03 0.  1.
         -6    1    1    2    0  502  0.12109662551E+03 -0.11543928862E+01  0.29511588469E+03  0.36288856517E+03  0.17300000000E+03 0.  1.
<mgrwt>
<rscale>  2 0.21117463E+03</rscale>
<asrwt>0</asrwt>
<pdfrwt beam="1">  1       21 0.68633221E-01 0.21117463E+03</pdfrwt>
<pdfrwt beam="2">  1       21 0.19858722E-01 0.21117463E+03</pdfrwt>
<totfact> 0.44844946E+04</totfact>
</mgrwt>
</event>
<event>
 4    1  0.3876841E+000  0.2377526E+03  0.7546771E-02  0.1121299E+00
         21   -1    0    0  501  502  0.00000000000E+00  0.00000000000E+00  0.30534836317E+03  0.30534836317E+03  0.00000000000E+00 0. -1.
         21   -1    0    0  502  503 -0.00000000000E+00 -0.00000000000E+00 -0.20701805318E+03  0.20701805318E+03  0.00000000000E+00 0.  1.
          6    1    1    2  501    0 -0.16303497588E+03  0.41094040226E+01 -0.34153597130E+02  0.24019316968E+03  0.17300000000E+03 0.  1.
         -6    1    1    2    0  503  0.16303497588E+03 -0.41094040226E+01  0.13248390712E+03  0.27217324668E+03  0.17300000000E+03 0. -1.
<mgrwt>
<rscale>  2 0.23775258E+03</rscale>
<asrwt>0</asrwt>
<pdfrwt beam="1">  1       21 0.46976672E-01 0.23775258E+03</pdfrwt>
<pdfrwt beam="2">  1       21 0.31848931E-01 0.23775258E+03</pdfrwt>
<totfact> 0.40233440E+04</totfact>
</mgrwt>
</event>
<event>
 4    1  0.3876841E+000  0.1946437E+03  0.7546771E-02  0.1154338E+00
         21   -1    0    0  503  502  0.00000000000E+00  0.00000000000E+00  0.44159007400E+02  0.44159007400E+02  0.00000000000E+00 0.  1.
         21   -1    0    0  501  503 -0.00000000000E+00 -0.00000000000E+00 -0.10594454960E+04  0.10594454960E+04  0.00000000000E+00 0.  1.
          6    1    1    2  501    0  0.38500681898E+02  0.80466671246E+02 -0.74828867984E+03  0.77318958611E+03  0.17300000000E+03 0.  1.
         -6    1    1    2    0  502 -0.38500681898E+02 -0.80466671246E+02 -0.26699780877E+03  0.33041491731E+03  0.17300000000E+03 0.  1.
<mgrwt>
<rscale>  2 0.19464375E+03</rscale>
<asrwt>0</asrwt>
<pdfrwt beam="1">  1       21 0.67936936E-02 0.19464375E+03</pdfrwt>
<pdfrwt beam="2">  1       21 0.16299161E+00 0.19464375E+03</pdfrwt>
<totfact> 0.38084288E+04</totfact>
</mgrwt>
</event>
<event>
 4    1  0.3876841E+000  0.2089931E+03  0.7546771E-02  0.1142366E+00
         21   -1    0    0  503  502  0.00000000000E+00  0.00000000000E+00  0.66217964692E+03  0.66217964692E+03  0.00000000000E+00 0.  1.
         21   -1    0    0  501  503 -0.00000000000E+00 -0.00000000000E+00 -0.13159596607E+03  0.13159596607E+03  0.00000000000E+00 0.  1.
          6    1    1    2  501    0  0.44409663327E+01 -0.11717257389E+03 -0.15002021986E+02  0.20953089251E+03  0.17300000000E+03 0.  1.
         -6    1    1    2    0  502 -0.44409663327E+01  0.11717257389E+03  0.54558570284E+03  0.58424472047E+03  0.17300000000E+03 0.  1.
<mgrwt>
<rscale>  2 0.20899314E+03</rscale>
<asrwt>0</asrwt>
<pdfrwt beam="1">  1       21 0.10187379E+00 0.20899314E+03</pdfrwt>
<pdfrwt beam="2">  1       21 0.20245534E-01 0.20899314E+03</pdfrwt>
<totfact> 0.17539517E+04</totfact>
</mgrwt>
</event>
<event>
 4    1  0.3876841E+000  0.1865173E+03  0.7546771E-02  0.1161640E+00
         21   -1    0    0  503  502  0.00000000000E+00  0.00000000000E+00  0.62731759614E+03  0.62731759614E+03  0.00000000000E+00 0.  1.
         21   -1    0    0  501  503 -0.00000000000E+00 -0.00000000000E+00 -0.56700537275E+02  0.56700537275E+02  0.00000000000E+00 0.  1.
          6    1    1    2  501    0 -0.15648709718E+02 -0.67932604773E+02  0.23464524014E+03  0.29974507440E+03  0.17300000000E+03 0.  1.
         -6    1    1    2    0  502  0.15648709718E+02  0.67932604773E+02  0.33597181873E+03  0.38427305902E+03  0.17300000000E+03 0.  1.
<mgrwt>
<rscale>  2 0.18651735E+03</rscale>
<asrwt>0</asrwt>
<pdfrwt beam="1">  1       21 0.96510395E-01 0.18651735E+03</pdfrwt>
<pdfrwt beam="2">  1       21 0.87231600E-02 0.18651735E+03</pdfrwt>
<totfact> 0.92343808E+04</totfact>
</mgrwt>
</event>
<event>
 4    1  0.3876841E+000  0.1842035E+03  0.7546771E-02  0.1163796E+00
         21   -1    0    0  501  502  0.00000000000E+00  0.00000000000E+00  0.94662269682E+03  0.94662269682E+03  0.00000000000E+00 0. -1.
         21   -1    0    0  502  503 -0.00000000000E+00 -0.00000000000E+00 -0.14737822838E+03  0.14737822838E+03  0.00000000000E+00 0. -1.
          6    1    1    2  501    0 -0.19506307515E+02 -0.60178457701E+02  0.87547730586E+03  0.89464599472E+03  0.17300000000E+03 0. -1.
         -6    1    1    2    0  503  0.19506307515E+02  0.60178457701E+02 -0.76232837417E+02  0.19935493048E+03  0.17300000000E+03 0. -1.
<mgrwt>
<rscale>  2 0.18420354E+03</rscale>
<asrwt>0</asrwt>
<pdfrwt beam="1">  1       21 0.14563426E+00 0.18420354E+03</pdfrwt>
<pdfrwt beam="2">  1       21 0.22673574E-01 0.18420354E+03</pdfrwt>
<totfact> 0.59304413E+03</totfact>
</mgrwt>
</event>
<event>
 4    1  0.3876841E+000  0.2156479E+03  0.7546771E-02  0.1137170E+00
         21   -1    0    0  503  502  0.00000000000E+00  0.00000000000E+00  0.97440897176E+02  0.97440897176E+02  0.00000000000E+00 0. -1.
         21   -1    0    0  501  503 -0.00000000000E+00 -0.00000000000E+00 -0.48214370797E+03  0.48214370797E+03  0.00000000000E+00 0.  1.
          6    1    1    2  501    0  0.11740871642E+03 -0.52822325782E+02 -0.16316609772E+03  0.27042037689E+03  0.17300000000E+03 0. -1.
         -6    1    1    2    0  502 -0.11740871642E+03  0.52822325782E+02 -0.22153671307E+03  0.30916422825E+03  0.17300000000E+03 0. -1.
<mgrwt>
<rscale>  2 0.21564787E+03</rscale>
<asrwt>0</asrwt>
<pdfrwt beam="1">  1       21 0.14990908E-01 0.21564787E+03</pdfrwt>
<pdfrwt beam="2">  1       21 0.74175953E-01 0.21564787E+03</pdfrwt>
<totfact> 0.63323830E+04</totfact>
</mgrwt>
</event>
<event>
 4    1  0.3876841E+000  0.2040178E+03  0.7546771E-02  0.1146393E+00
         21   -1    0    0  503  502  0.00000000000E+00  0.00000000000E+00  0.27603994472E+03  0.27603994472E+03  0.00000000000E+00 0.  1.
         21   -1    0    0  501  503 -0.00000000000E+00 -0.00000000000E+00 -0.21273857866E+03  0.21273857866E+03  0.00000000000E+00 0.  1.
          6    1    1    2  501    0  0.97023554830E+02 -0.47756571826E+02 -0.10023111560E+03  0.22730934182E+03  0.17300000000E+03 0.  1.
         -6    1    1    2    0  502 -0.97023554830E+02  0.47756571826E+02  0.16353248167E+03  0.26146918156E+03  0.17300000000E+03 0.  1.
<mgrwt>
<rscale>  2 0.20401779E+03</rscale>
<asrwt>0</asrwt>
<pdfrwt beam="1">  1       21 0.42467684E-01 0.20401779E+03</pdfrwt>
<pdfrwt beam="2">  1       21 0.32729012E-01 0.20401779E+03</pdfrwt>
<totfact> 0.47665604E+04</totfact>
</mgrwt>
</event>
<event>
 4    1  0.3876841E+000  0.2005907E+03  0.7546771E-02  0.1149242E+00
         21   -1    0    0  501  502  0.00000000000E+00  0.00000000000E+00  0.18503684886E+03  0.18503684886E+03  0.00000000000E+00 0.  1.
         21   -1    0    0  502  503 -0.00000000000E+00 -0.00000000000E+00 -0.36385557283E+03  0.36385557283E+03  0.00000000000E+00 0.  1.
          6    1    1    2  501    0 -0.88878758748E+02 -0.49073430469E+02  0.84678519944E+02  0.21773168597E+03  0.17300000000E+03 0.  1.
         -6    1    1    2    0  503  0.88878758748E+02  0.49073430469E+02 -0.26349724392E+03  0.33116073573E+03  0.17300000000E+03 0.  1.
<mgrwt>
<rscale>  2 0.20059072E+03</rscale>
<asrwt>0</asrwt>
<pdfrwt beam="1">  1       21 0.28467208E-01 0.20059072E+03</pdfrwt>
<pdfrwt beam="2">  1       21 0.55977780E-01 0.20059072E+03</pdfrwt>
<totfact> 0.35306251E+04</totfact>
</mgrwt>
</event>
<event>
 4    1  0.3876841E+000  0.2439601E+03  0.7546771E-02  0.1117182E+00
         21   -1    0    0  503  502  0.00000000000E+00  0.00000000000E+00  0.22455974627E+03  0.22455974627E+03  0.00000000000E+00 0.  1.
         21   -1    0    0  501  503 -0.00000000000E+00 -0.00000000000E+00 -0.30023103116E+03  0.30023103116E+03  0.00000000000E+00 0. -1.
          6    1    1    2  501    0  0.12423508408E+03  0.11896712810E+03 -0.12767484294E+03  0.27534959452E+03  0.17300000000E+03 0.  1.
         -6    1    1    2    0  502 -0.12423508408E+03 -0.11896712810E+03  0.52003558044E+02  0.24944118291E+03  0.17300000000E+03 0.  1.
<mgrwt>
<rscale>  2 0.24396011E+03</rscale>
<asrwt>0</asrwt>
<pdfrwt beam="1">  1       21 0.34547653E-01 0.24396011E+03</pdfrwt>
<pdfrwt beam="2">  1       21 0.46189389E-01 0.24396011E+03</pdfrwt>
<totfact> 0.35367943E+04</totfact>
</mgrwt>
</event>
<event>
 4    1  0.3876841E+000  0.1935228E+03  0.7546771E-02  0.1155322E+00
         21   -1    0    0  501  502  0.00000000000E+00  0.00000000000E+00  0.23036405885E+03  0.23036405885E+03  0.00000000000E+00 0.  1.
         21   -1    0    0  502  503 -0.00000000000E+00 -0.00000000000E+00 -0.29302670737E+03  0.29302670737E+03  0.00000000000E+00 0. -1.
          6    1    1    2  501    0 -0.43937488432E+02 -0.74776908317E+02  0.14327897485E+03  0.24079026879E+03  0.17300000000E+03 0.  1.
         -6    1    1    2    0  503  0.43937488432E+02  0.74776908317E+02 -0.20594162338E+03  0.28260049743E+03  0.17300000000E+03 0. -1.
<mgrwt>
<rscale>  2 0.19352284E+03</rscale>
<asrwt>0</asrwt>
<pdfrwt beam="1">  1       21 0.35440624E-01 0.19352284E+03</pdfrwt>
<pdfrwt beam="2">  1       21 0.45081032E-01 0.19352284E+03</pdfrwt>
<totfact> 0.36226785E+04</totfact>
</mgrwt>
</event>
<event>
 4    1  0.3876841E+000  0.3868382E+03  0.7546771E-02  0.1048435E+00
         21   -1    0    0  503  502  0.00000000000E+00  0.00000000000E+00  0.26772469263E+03  0.26772469263E+03  0.00000000000E+00 0. -1.
         21   -1    0    0  501  503 -0.00000000000E+00 -0.00000000000E+00 -0.55954741202E+03  0.55954741202E+03  0.00000000000E+00 0.  1.
          6    1    1    2  501    0  0.18887204831E+03  0.28990016481E+03 -0.15946754204E+03  0.41841803636E+03  0.17300000000E+03 0.  1.
         -6    1    1    2    0  502 -0.18887204831E+03 -0.28990016481E+03 -0.13235517735E+03  0.40885406829E+03  0.17300000000E+03 0. -1.
<mgrwt>
<rscale>  2 0.38683815E+03</rscale>
<asrwt>0</asrwt>
<pdfrwt beam="1">  1       21 0.41188415E-01 0.38683815E+03</pdfrwt>
<pdfrwt beam="2">  1       21 0.86084217E-01 0.38683815E+03</pdfrwt>
<totfact> 0.59576105E+03</totfact>
</mgrwt>
</event>
<event>
 4    1  0.3876841E+000  0.2297699E+03  0.7546771E-02  0.1126802E+00
         21   -1    0    0  501  502  0.00000000000E+00  0.00000000000E+00  0.70103998968E+02  0.70103998968E+02  0.00000000000E+00 0.  1.
         21   -1    0    0  502  503 -0.00000000000E+00 -0.00000000000E+00 -0.78324402456E+03  0.78324402456E+03  0.00000000000E+00 0.  1.
          6    1    1    2  501    0 -0.13218966844E+03 -0.73424094915E+02 -0.44029649701E+03  0.49664394835E+03  0.17300000000E+03 0.  1.
         -6    1    1    2    0  503  0.13218966844E+03  0.73424094915E+02 -0.27284352858E+03  0.35670407517E+03  0.17300000000E+03 0.  1.
<mgrwt>
<rscale>  2 0.22976990E+03</rscale>
<asrwt>0</asrwt>
<pdfrwt beam="1">  1       21 0.10785230E-01 0.22976990E+03</pdfrwt>
<pdfrwt beam="2">  1       21 0.12049908E+00 0.22976990E+03</pdfrwt>
<totfact> 0.36360749E+04</totfact>
</mgrwt>
</event>
<event>
 4    1  0.3876841E+000  0.2104051E+03  0.7546771E-02  0.1141246E+00
         21   -1    0    0  503  502  0.00000000000E+00  0.00000000000E+00  0.80374792669E+03  0.80374792669E+03  0.00000000000E+00 0.  1.
         21   -1    0    0  501  503 -0.00000000000E+00 -0.00000000000E+00 -0.61381773104E+02  0.61381773104E+02  0.00000000000E+00 0.  1.
          6    1    1    2  501    0  0.11817717152E+03  0.19377262723E+02  0.23258163008E+03  0.31363121151E+03  0.17300000000E+03 0.  1.
         -6    1    1    2    0  502 -0.11817717152E+03 -0.19377262723E+02  0.50978452350E+03  0.55149848829E+03  0.17300000000E+03 0.  1.
<mgrwt>
<rscale>  2 0.21040514E+03</rscale>
<asrwt>0</asrwt>
<pdfrwt beam="1">  1       21 0.12365352E+00 0.21040514E+03</pdfrwt>
<pdfrwt beam="2">  1       21 0.94433503E-02 0.21040514E+03</pdfrwt>
<totfact> 0.43573077E+04</totfact>
</mgrwt>
</event>
<event>
 4    1  0.3876841E+000  0.2142497E+03  0.7546771E-02  0.1138244E+00
         21   -1    0    0  501  502  0.00000000000E+00  0.00000000000E+00  0.11748202877E+03  0.11748202877E+03  0.00000000000E+00 0.  1.
         21   -1    0    0  502  503 -0.00000000000E+00 -0.00000000000E+00 -0.39136761623E+03  0.39136761623E+03  0.00000000000E+00 0.  1.
          6    1    1    2  501    0 -0.11632686009E+03  0.49416640154E+02 -0.14726763345E+03  0.25998211201E+03  0.17300000000E+03 0.  1.
         -6    1    1    2    0  503  0.11632686009E+03 -0.49416640154E+02 -0.12661795400E+03  0.24886753299E+03  0.17300000000E+03 0.  1.
<mgrwt>
<rscale>  2 0.21424972E+03</rscale>
<asrwt>0</asrwt>
<pdfrwt beam="1">  1       21 0.18074158E-01 0.21424972E+03</pdfrwt>
<pdfrwt beam="2">  1       21 0.60210402E-01 0.21424972E+03</pdfrwt>
<totfact> 0.70977428E+04</totfact>
</mgrwt>
</event>
<event>
 4    1  0.3876841E+000  0.2544005E+03  0.7546771E-02  0.1110555E+00
         21   -1    0    0  503  502  0.00000000000E+00  0.00000000000E+00  0.31399720558E+03  0.31399720558E+03  0.00000000000E+00 0.  1.
         21   -1    0    0  501  503 -0.00000000000E+00 -0.00000000000E+00 -0.21073952916E+03  0.21073952916E+03  0.00000000000E+00 0. -1.
          6    1    1    2  501    0 -0.18537489616E+03  0.20658822218E+02  0.12764030434E+02  0.25472055185E+03  0.17300000000E+03 0.  1.
         -6    1    1    2    0  502  0.18537489616E+03 -0.20658822218E+02  0.90493645986E+02  0.27001618290E+03  0.17300000000E+03 0. -1.
<mgrwt>
<rscale>  2 0.25440055E+03</rscale>
<asrwt>0</asrwt>
<pdfrwt beam="1">  1       21 0.48307262E-01 0.25440055E+03</pdfrwt>
<pdfrwt beam="2">  1       21 0.32421466E-01 0.25440055E+03</pdfrwt>
<totfact> 0.36387867E+04</totfact>
</mgrwt>
</event>
<event>
 4    1  0.3876841E+000  0.1740641E+03  0.7546771E-02  0.1173675E+00
         21   -1    0    0  501  502  0.00000000000E+00  0.00000000000E+00  0.90351152196E+03  0.90351152196E+03  0.00000000000E+00 0.  1.
         21   -1    0    0  502  503 -0.00000000000E+00 -0.00000000000E+00 -0.51203199467E+02  0.51203199467E+02  0.00000000000E+00 0.  1.
          6    1    1    2  501    0 -0.11336233269E+02  0.15518029786E+02  0.70657094239E+03  0.72769555177E+03  0.17300000000E+03 0.  1.
         -6    1    1    2    0  503  0.11336233269E+02 -0.15518029786E+02  0.14573738010E+03  0.22701916966E+03  0.17300000000E+03 0.  1.
<mgrwt>
<rscale>  2 0.17406412E+03</rscale>
<asrwt>0</asrwt>
<pdfrwt beam="1">  1       21 0.13900176E+00 0.17406412E+03</pdfrwt>
<pdfrwt beam="2">  1       21 0.78774160E-02 0.17406412E+03</pdfrwt>
<totfact> 0.45405825E+04</totfact>
</mgrwt>
</event>
<event>
 4    1  0.3876841E+000  0.1852841E+03  0.7546771E-02  0.1162785E+00
         21   -1    0    0  501  502  0.00000000000E+00  0.00000000000E+00  0.12736499637E+03  0.12736499637E+03  0.00000000000E+00 0.  1.
         21   -1    0    0  502  503 -0.00000000000E+00 -0.00000000000E+00 -0.39193434326E+03  0.39193434326E+03  0.00000000000E+00 0.  1.
          6    1    1    2  501    0  0.64769282848E+02 -0.14358007607E+02  0.12812277958E+02  0.18572659166E+03  0.17300000000E+03 0.  1.
         -6    1    1    2    0  503 -0.64769282848E+02  0.14358007607E+02 -0.27738162485E+03  0.33357274797E+03  0.17300000000E+03 0.  1.
<mgrwt>
<rscale>  2 0.18528414E+03</rscale>
<asrwt>0</asrwt>
<pdfrwt beam="1">  1       21 0.19594615E-01 0.18528414E+03</pdfrwt>
<pdfrwt beam="2">  1       21 0.60297590E-01 0.18528414E+03</pdfrwt>
<totfact> 0.61687236E+04</totfact>
</mgrwt>
</event>
<event>
 4    1  0.3876841E+000  0.2016459E+03  0.7546771E-02  0.1148358E+00
         21   -1    0    0  503  502  0.00000000000E+00  0.00000000000E+00  0.10574327742E+04  0.10574327742E+04  0.00000000000E+00 0.  1.
         21   -1    0    0  501  503 -0.00000000000E+00 -0.00000000000E+00 -0.19048230857E+03  0.19048230857E+03  0.00000000000E+00 0.  1.
          6    1    1    2  501    0 -0.59919860276E+02 -0.84508520684E+02 -0.12395676216E+03  0.23669887750E+03  0.17300000000E+03 0.  1.
         -6    1    1    2    0  502  0.59919860276E+02  0.84508520684E+02  0.99090722783E+03  0.10112162053E+04  0.17300000000E+03 0.  1.
<mgrwt>
<rscale>  2 0.20164593E+03</rscale>
<asrwt>0</asrwt>
<pdfrwt beam="1">  1       21 0.16268196E+00 0.20164593E+03</pdfrwt>
<pdfrwt beam="2">  1       21 0.29304971E-01 0.20164593E+03</pdfrwt>
<totfact> 0.26614558E+03</totfact>
</mgrwt>
</event>
<event>
 4    1  0.3876841E+000  0.1736557E+03  0.7546771E-02  0.1174088E+00
         21   -1    0    0  503  502  0.00000000000E+00  0.00000000000E+00  0.45379277332E+02  0.45379277332E+02  0.00000000000E+00 0. -1.
         21   -1    0    0  501  503 -0.00000000000E+00 -0.00000000000E+00 -0.77753334952E+03  0.77753334952E+03  0.00000000000E+00 0. -1.
          6    1    1    2  501    0  0.51234339933E+01 -0.14179447767E+02 -0.20922422889E+03  0.27190271104E+03  0.17300000000E+03 0. -1.
         -6    1    1    2    0  502 -0.51234339933E+01  0.14179447767E+02 -0.52292984329E+03  0.55100991581E+03  0.17300000000E+03 0. -1.
<mgrwt>
<rscale>  2 0.17365571E+03</rscale>
<asrwt>0</asrwt>
<pdfrwt beam="1">  1       21 0.69814272E-02 0.17365571E+03</pdfrwt>
<pdfrwt beam="2">  1       21 0.11962052E+00 0.17365571E+03</pdfrwt>
<totfact> 0.81599132E+04</totfact>
</mgrwt>
</event>
<event>
 4    1  0.3876841E+000  0.2819819E+03  0.7546771E-02  0.1094611E+00
         21   -1    0    0  503  502  0.00000000000E+00  0.00000000000E+00  0.33860436256E+03  0.33860436256E+03  0.00000000000E+00 0. -1.
         21   -1    0    0  501  503 -0.00000000000E+00 -0.00000000000E+00 -0.27354513686E+03  0.27354513686E+03  0.00000000000E+00 0.  1.
          6    1    1    2  501    0  0.21780486492E+03  0.46322853738E+02 -0.82620651749E+02  0.29383658393E+03  0.17300000000E+03 0.  1.
         -6    1    1    2    0  502 -0.21780486492E+03 -0.46322853738E+02  0.14767987745E+03  0.31831291549E+03  0.17300000000E+03 0. -1.
<mgrwt>
<rscale>  2 0.28198185E+03</rscale>
<asrwt>0</asrwt>
<pdfrwt beam="1">  1       21 0.52092979E-01 0.28198185E+03</pdfrwt>
<pdfrwt beam="2">  1       21 0.42083867E-01 0.28198185E+03</pdfrwt>
<totfact> 0.18140882E+04</totfact>
</mgrwt>
</event>
<event>
 4    1  0.3876841E+000  0.1828543E+03  0.7546771E-02  0.1165069E+00
         21   -1    0    0  501  502  0.00000000000E+00  0.00000000000E+00  0.82437021344E+03  0.82437021344E+03  0.00000000000E+00 0. -1.
         21   -1    0    0  502  503 -0.00000000000E+00 -0.00000000000E+00 -0.10504341705E+03  0.10504341705E+03  0.00000000000E+00 0. -1.
          6    1    1    2  501    0  0.28589879249E+02 -0.51858716695E+02  0.72376425345E+03  0.74650546030E+03  0.17300000000E+03 0. -1.
         -6    1    1    2    0  503 -0.28589879249E+02  0.51858716695E+02 -0.44374570585E+01  0.18290817018E+03  0.17300000000E+03 0. -1.
<mgrwt>
<rscale>  2 0.18285433E+03</rscale>
<asrwt>0</asrwt>
<pdfrwt beam="1">  1       21 0.12682618E+00 0.18285433E+03</pdfrwt>
<pdfrwt beam="2">  1       21 0.16160526E-01 0.18285433E+03</pdfrwt>
<totfact> 0.15852791E+04</totfact>
</mgrwt>
</event>
<event>
 4    1  0.3876841E+000  0.1931091E+03  0.7546771E-02  0.1155687E+00
         21   -1    0    0  503  502  0.00000000000E+00  0.00000000000E+00  0.14076041015E+03  0.14076041015E+03  0.00000000000E+00 0.  1.
         21   -1    0    0  501  503 -0.00000000000E+00 -0.00000000000E+00 -0.27236172474E+03  0.27236172474E+03  0.00000000000E+00 0. -1.
          6    1    1    2  501    0 -0.85743139888E+02 -0.32012917257E+01 -0.99930036823E+02  0.21743308526E+03  0.17300000000E+03 0. -1.
         -6    1    1    2    0  502  0.85743139888E+02  0.32012917257E+01 -0.31671277767E+02  0.19568904962E+03  0.17300000000E+03 0.  1.
<mgrwt>
<rscale>  2 0.19310913E+03</rscale>
<asrwt>0</asrwt>
<pdfrwt beam="1">  1       21 0.21655448E-01 0.19310913E+03</pdfrwt>
<pdfrwt beam="2">  1       21 0.41901803E-01 0.19310913E+03</pdfrwt>
<totfact> 0.10900788E+05</totfact>
</mgrwt>
</event>
<event>
 4    1  0.3876841E+000  0.1992054E+03  0.7546771E-02  0.1150411E+00
         21   -1    0    0  503  502  0.00000000000E+00  0.00000000000E+00  0.36313652882E+03  0.36313652882E+03  0.00000000000E+00 0. -1.
         21   -1    0    0  501  503 -0.00000000000E+00 -0.00000000000E+00 -0.28075812235E+03  0.28075812235E+03  0.00000000000E+00 0. -1.
          6    1    1    2  501    0  0.65785843953E+02 -0.73661511422E+02 -0.21041951320E+03  0.28975708286E+03  0.17300000000E+03 0. -1.
         -6    1    1    2    0  502 -0.65785843953E+02  0.73661511422E+02  0.29279791967E+03  0.35413756832E+03  0.17300000000E+03 0. -1.
<mgrwt>
<rscale>  2 0.19920541E+03</rscale>
<asrwt>0</asrwt>
<pdfrwt beam="1">  1       21 0.55867158E-01 0.19920541E+03</pdfrwt>
<pdfrwt beam="2">  1       21 0.43193557E-01 0.19920541E+03</pdfrwt>
<totfact> 0.15485848E+04</totfact>
</mgrwt>
</event>
<event>
 4    1  0.3876841E+000  0.2003374E+03  0.7546771E-02  0.1149455E+00
         21   -1    0    0  503  502  0.00000000000E+00  0.00000000000E+00  0.83661966980E+03  0.83661966980E+03  0.00000000000E+00 0.  1.
         21   -1    0    0  501  503 -0.00000000000E+00 -0.00000000000E+00 -0.52836130630E+02  0.52836130630E+02  0.00000000000E+00 0.  1.
          6    1    1    2  501    0  0.40970603518E+02 -0.92344453833E+02  0.25696739542E+03  0.32583328684E+03  0.17300000000E+03 0.  1.
         -6    1    1    2    0  502 -0.40970603518E+02  0.92344453833E+02  0.52681614375E+03  0.56362251359E+03  0.17300000000E+03 0.  1.
<mgrwt>
<rscale>  2 0.20033744E+03</rscale>
<asrwt>0</asrwt>
<pdfrwt beam="1">  1       21 0.12871071E+00 0.20033744E+03</pdfrwt>
<pdfrwt beam="2">  1       21 0.81286361E-02 0.20033744E+03</pdfrwt>
<totfact> 0.51519872E+04</totfact>
</mgrwt>
</event>
<event>
 4    1  0.3876841E+000  0.2119885E+03  0.7546771E-02  0.1140001E+00
         21   -1    0    0  503  502  0.00000000000E+00  0.00000000000E+00  0.94993323241E+02  0.94993323241E+02  0.00000000000E+00 0.  1.
         21   -1    0    0  501  503 -0.00000000000E+00 -0.00000000000E+00 -0.92086694639E+03  0.92086694639E+03  0.00000000000E+00 0.  1.
          6    1    1    2  501    0 -0.10438884944E+03  0.64133251154E+02 -0.58741372139E+02  0.21997648645E+03  0.17300000000E+03 0.  1.
         -6    1    1    2    0  502  0.10438884944E+03 -0.64133251154E+02 -0.76713225101E+03  0.79588378318E+03  0.17300000000E+03 0.  1.
<mgrwt>
<rscale>  2 0.21198846E+03</rscale>
<asrwt>0</asrwt>
<pdfrwt beam="1">  1       21 0.14614358E-01 0.21198846E+03</pdfrwt>
<pdfrwt beam="2">  1       21 0.14167183E+00 0.21198846E+03</pdfrwt>
<totfact> 0.14082801E+04</totfact>
</mgrwt>
</event>
<event>
 4    1  0.3876841E+000  0.2026807E+03  0.7546771E-02  0.1147497E+00
         21   -1    0    0  503  502  0.00000000000E+00  0.00000000000E+00  0.43089499434E+03  0.43089499434E+03  0.00000000000E+00 0. -1.
         21   -1    0    0  501  503 -0.00000000000E+00 -0.00000000000E+00 -0.14902862574E+03  0.14902862574E+03  0.00000000000E+00 0.  1.
          6    1    1    2  501    0 -0.61373172830E+02  0.85929099112E+02 -0.33113743168E+02  0.20536795369E+03  0.17300000000E+03 0.  1.
         -6    1    1    2    0  502  0.61373172830E+02 -0.85929099112E+02  0.31498011177E+03  0.37455566639E+03  0.17300000000E+03 0. -1.
<mgrwt>
<rscale>  2 0.20268073E+03</rscale>
<asrwt>0</asrwt>
<pdfrwt beam="1">  1       21 0.66291537E-01 0.20268073E+03</pdfrwt>
<pdfrwt beam="2">  1       21 0.22927481E-01 0.20268073E+03</pdfrwt>
<totfact> 0.37083190E+04</totfact>
</mgrwt>
</event>
<event>
 4    1  0.3876841E+000  0.2778628E+03  0.7546771E-02  0.1096862E+00
         21   -1    0    0  503  502  0.00000000000E+00  0.00000000000E+00  0.16943365972E+04  0.16943365972E+04  0.00000000000E+00 0.  1.
         21   -1    0    0  501  503 -0.00000000000E+00 -0.00000000000E+00 -0.10924477488E+03  0.10924477488E+03  0.00000000000E+00 0. -1.
          6    1    1    2  501    0 -0.13102405651E+03  0.17352641898E+03  0.10405921495E+03  0.29670868151E+03  0.17300000000E+03 0. -1.
         -6    1    1    2    0  502  0.13102405651E+03 -0.17352641898E+03  0.14810326074E+04  0.15068726906E+04  0.17300000000E+03 0.  1.
<mgrwt>
<rscale>  2 0.27786277E+03</rscale>
<asrwt>0</asrwt>
<pdfrwt beam="1">  1       21 0.26066715E+00 0.27786277E+03</pdfrwt>
<pdfrwt beam="2">  1       21 0.16806890E-01 0.27786277E+03</pdfrwt>
<totfact> 0.16855562E+03</totfact>
</mgrwt>
</event>
<event>
 4    1  0.3876841E+000  0.2684043E+03  0.7546771E-02  0.1102196E+00
         21   -1    0    0  503  502  0.00000000000E+00  0.00000000000E+00  0.37316915481E+03  0.37316915481E+03  0.00000000000E+00 0. -1.
         21   -1    0    0  501  503 -0.00000000000E+00 -0.00000000000E+00 -0.25367430998E+03  0.25367430998E+03  0.00000000000E+00 0. -1.
          6    1    1    2  501    0 -0.36078182909E+02  0.20201539504E+03  0.21296514054E+03  0.34262954660E+03  0.17300000000E+03 0. -1.
         -6    1    1    2    0  502  0.36078182909E+02 -0.20201539504E+03 -0.93470295704E+02  0.28421391819E+03  0.17300000000E+03 0. -1.
<mgrwt>
<rscale>  2 0.26840428E+03</rscale>
<asrwt>0</asrwt>
<pdfrwt beam="1">  1       21 0.57410639E-01 0.26840428E+03</pdfrwt>
<pdfrwt beam="2">  1       21 0.39026817E-01 0.26840428E+03</pdfrwt>
<totfact> 0.17303774E+04</totfact>
</mgrwt>
</event>
<event>
 4    1  0.3876841E+000  0.2443633E+03  0.7546771E-02  0.1116920E+00
         21   -1    0    0  503  502  0.00000000000E+00  0.00000000000E+00  0.47189095950E+03  0.47189095950E+03  0.00000000000E+00 0. -1.
         21   -1    0    0  501  503 -0.00000000000E+00 -0.00000000000E+00 -0.14101467798E+03  0.14101467798E+03  0.00000000000E+00 0.  1.
          6    1    1    2  501    0  0.15379619804E+03 -0.78301539929E+02  0.67257524711E+02  0.25345014562E+03  0.17300000000E+03 0.  1.
         -6    1    1    2    0  502 -0.15379619804E+03  0.78301539929E+02  0.26361875681E+03  0.35945549186E+03  0.17300000000E+03 0. -1.
<mgrwt>
<rscale>  2 0.24436326E+03</rscale>
<asrwt>0</asrwt>
<pdfrwt beam="1">  1       21 0.72598608E-01 0.24436326E+03</pdfrwt>
<pdfrwt beam="2">  1       21 0.21694566E-01 0.24436326E+03</pdfrwt>
<totfact> 0.33008430E+04</totfact>
</mgrwt>
</event>
<event>
 4    1  0.3876841E+000  0.1810295E+03  0.7546771E-02  0.1166810E+00
         21   -1    0    0  501  502  0.00000000000E+00  0.00000000000E+00  0.42392051850E+02  0.42392051850E+02  0.00000000000E+00 0. -1.
         21   -1    0    0  502  503 -0.00000000000E+00 -0.00000000000E+00 -0.79243120625E+03  0.79243120625E+03  0.00000000000E+00 0. -1.
          6    1    1    2  501    0  0.50958527050E+02 -0.15681625355E+02 -0.30976070741E+03  0.35878040736E+03  0.17300000000E+03 0. -1.
         -6    1    1    2    0  503 -0.50958527050E+02  0.15681625355E+02 -0.44027844699E+03  0.47604285074E+03  0.17300000000E+03 0. -1.
<mgrwt>
<rscale>  2 0.18102951E+03</rscale>
<asrwt>0</asrwt>
<pdfrwt beam="1">  1       21 0.65218545E-02 0.18102951E+03</pdfrwt>
<pdfrwt beam="2">  1       21 0.12191249E+00 0.18102951E+03</pdfrwt>
<totfact> 0.87224237E+04</totfact>
</mgrwt>
</event>
<event>
 4    1  0.3876841E+000  0.1836726E+03  0.7546771E-02  0.1164295E+00
         21   -1    0    0  503  502  0.00000000000E+00  0.00000000000E+00  0.17762017805E+03  0.17762017805E+03  0.00000000000E+00 0. -1.
         21   -1    0    0  501  503 -0.00000000000E+00 -0.00000000000E+00 -0.19182832248E+03  0.19182832248E+03  0.00000000000E+00 0. -1.
          6    1    1    2  501    0 -0.35774956892E+02 -0.50266932130E+02 -0.25474371682E+02  0.18543072997E+03  0.17300000000E+03 0. -1.
         -6    1    1    2    0  502  0.35774956892E+02  0.50266932130E+02  0.11266227252E+02  0.18401777056E+03  0.17300000000E+03 0. -1.
<mgrwt>
<rscale>  2 0.18367257E+03</rscale>
<asrwt>0</asrwt>
<pdfrwt beam="1">  1       21 0.27326181E-01 0.18367257E+03</pdfrwt>
<pdfrwt beam="2">  1       21 0.29512050E-01 0.18367257E+03</pdfrwt>
<totfact> 0.14091314E+05</totfact>
</mgrwt>
</event>
<event>
 4    1  0.3876841E+000  0.3270795E+03  0.7546771E-02  0.1072436E+00
         21   -1    0    0  503  502  0.00000000000E+00  0.00000000000E+00  0.17780071706E+04  0.17780071706E+04  0.00000000000E+00 0. -1.
         21   -1    0    0  501  503 -0.00000000000E+00 -0.00000000000E+00 -0.61608182836E+02  0.61608182836E+02  0.00000000000E+00 0.  1.
          6    1    1    2  501    0  0.19333063046E+03  0.19918654568E+03  0.99878074256E+03  0.10509728752E+04  0.17300000000E+03 0.  1.
         -6    1    1    2    0  502 -0.19333063046E+03 -0.19918654568E+03  0.71761824516E+03  0.78864247821E+03  0.17300000000E+03 0. -1.
<mgrwt>
<rscale>  2 0.32707952E+03</rscale>
<asrwt>0</asrwt>
<pdfrwt beam="1">  1       21 0.27353953E+00 0.32707952E+03</pdfrwt>
<pdfrwt beam="2">  1       21 0.94781833E-02 0.32707952E+03</pdfrwt>
<totfact> 0.38571513E+03</totfact>
</mgrwt>
</event>
<event>
 4    1  0.3876841E+000  0.2262265E+03  0.7546771E-02  0.1129324E+00
         21   -1    0    0  501  502  0.00000000000E+00  0.00000000000E+00  0.40753129201E+03  0.40753129201E+03  0.00000000000E+00 0. -1.
         21   -1    0    0  502  503 -0.00000000000E+00 -0.00000000000E+00 -0.13765666193E+03  0.13765666193E+03  0.00000000000E+00 0.  1.
          6    1    1    2  501    0  0.57030068867E+02  0.13415294455E+03  0.21567232424E+03  0.31255878284E+03  0.17300000000E+03 0. -1.
         -6    1    1    2    0  503 -0.57030068867E+02 -0.13415294455E+03  0.54202305839E+02  0.23262917110E+03  0.17300000000E+03 0.  1.
<mgrwt>
<rscale>  2 0.22622653E+03</rscale>
<asrwt>0</asrwt>
<pdfrwt beam="1">  1       21 0.62697121E-01 0.22622653E+03</pdfrwt>
<pdfrwt beam="2">  1       21 0.21177948E-01 0.22622653E+03</pdfrwt>
<totfact> 0.48100269E+04</totfact>
</mgrwt>
</event>
<event>
 4    1  0.3876841E+000  0.1966777E+03  0.7546771E-02  0.1152573E+00
         21   -1    0    0  503  502  0.00000000000E+00  0.00000000000E+00  0.23917130614E+03  0.23917130614E+03  0.00000000000E+00 0.  1.
         21   -1    0    0  501  503 -0.00000000000E+00 -0.00000000000E+00 -0.16896462800E+03  0.16896462800E+03  0.00000000000E+00 0.  1.
          6    1    1    2  501    0 -0.36508646361E+02 -0.86140900113E+02 -0.71114339903E+01  0.19680627130E+03  0.17300000000E+03 0.  1.
         -6    1    1    2    0  502  0.36508646361E+02  0.86140900113E+02  0.77318112136E+02  0.21132966284E+03  0.17300000000E+03 0.  1.
<mgrwt>
<rscale>  2 0.19667775E+03</rscale>
<asrwt>0</asrwt>
<pdfrwt beam="1">  1       21 0.36795586E-01 0.19667775E+03</pdfrwt>
<pdfrwt beam="2">  1       21 0.25994558E-01 0.19667775E+03</pdfrwt>
<totfact> 0.99976432E+04</totfact>
</mgrwt>
</event>
<event>
 4    1  0.3876841E+000  0.2049162E+03  0.7546771E-02  0.1145656E+00
         21   -1    0    0  503  502  0.00000000000E+00  0.00000000000E+00  0.46182169407E+02  0.46182169407E+02  0.00000000000E+00 0. -1.
         21   -1    0    0  501  503 -0.00000000000E+00 -0.00000000000E+00 -0.90925656049E+03  0.90925656049E+03  0.00000000000E+00 0. -1.
          6    1    1    2  501    0  0.26539133796E+02 -0.10657083356E+03 -0.42948843254E+03  0.47586866032E+03  0.17300000000E+03 0. -1.
         -6    1    1    2    0  502 -0.26539133796E+02  0.10657083356E+03 -0.43358595855E+03  0.47957006958E+03  0.17300000000E+03 0. -1.
<mgrwt>
<rscale>  2 0.20491625E+03</rscale>
<asrwt>0</asrwt>
<pdfrwt beam="1">  1       21 0.71049493E-02 0.20491625E+03</pdfrwt>
<pdfrwt beam="2">  1       21 0.13988562E+00 0.20491625E+03</pdfrwt>
<totfact> 0.52511039E+04</totfact>
</mgrwt>
</event>
<event>
 4    1  0.3876841E+000  0.2024795E+03  0.7546771E-02  0.1147664E+00
         21   -1    0    0  503  502  0.00000000000E+00  0.00000000000E+00  0.36656594733E+03  0.36656594733E+03  0.00000000000E+00 0. -1.
         21   -1    0    0  501  503 -0.00000000000E+00 -0.00000000000E+00 -0.30866784748E+03  0.30866784748E+03  0.00000000000E+00 0. -1.
          6    1    1    2  501    0 -0.52180289690E+02 -0.91357260689E+02 -0.24064987082E+03  0.31450006683E+03  0.17300000000E+03 0. -1.
         -6    1    1    2    0  502  0.52180289690E+02  0.91357260689E+02  0.29854797066E+03  0.36073372798E+03  0.17300000000E+03 0. -1.
<mgrwt>
<rscale>  2 0.20247946E+03</rscale>
<asrwt>0</asrwt>
<pdfrwt beam="1">  1       21 0.56394761E-01 0.20247946E+03</pdfrwt>
<pdfrwt beam="2">  1       21 0.47487361E-01 0.20247946E+03</pdfrwt>
<totfact> 0.12463822E+04</totfact>
</mgrwt>
</event>
<event>
 4    1  0.3876841E+000  0.1761758E+03  0.7546771E-02  0.1171556E+00
         21   -1    0    0  501  502  0.00000000000E+00  0.00000000000E+00  0.42182588170E+03  0.42182588170E+03  0.00000000000E+00 0.  1.
         21   -1    0    0  502  503 -0.00000000000E+00 -0.00000000000E+00 -0.76581817260E+02  0.76581817260E+02  0.00000000000E+00 0.  1.
          6    1    1    2  501    0  0.20864518623E+02  0.25953276042E+02  0.12328281922E+03  0.21502686853E+03  0.17300000000E+03 0.  1.
         -6    1    1    2    0  503 -0.20864518623E+02 -0.25953276042E+02  0.22196124522E+03  0.28338083043E+03  0.17300000000E+03 0.  1.
<mgrwt>
<rscale>  2 0.17617577E+03</rscale>
<asrwt>0</asrwt>
<pdfrwt beam="1">  1       21 0.64896288E-01 0.17617577E+03</pdfrwt>
<pdfrwt beam="2">  1       21 0.11781818E-01 0.17617577E+03</pdfrwt>
<totfact> 0.13339008E+05</totfact>
</mgrwt>
</event>
<event>
 4    1  0.3876841E+000  0.1977803E+03  0.7546771E-02  0.1151625E+00
         21   -1    0    0  501  502  0.00000000000E+00  0.00000000000E+00  0.17476724182E+03  0.17476724182E+03  0.00000000000E+00 0.  1.
         21   -1    0    0  502  503 -0.00000000000E+00 -0.00000000000E+00 -0.25689116854E+03  0.25689116854E+03  0.00000000000E+00 0.  1.
          6    1    1    2  501    0  0.94975187684E+02 -0.12951675011E+02  0.36372946213E+02  0.20109704965E+03  0.17300000000E+03 0.  1.
         -6    1    1    2    0  503 -0.94975187684E+02  0.12951675011E+02 -0.11849687293E+03  0.23056136071E+03  0.17300000000E+03 0.  1.
<mgrwt>
<rscale>  2 0.19778026E+03</rscale>
<asrwt>0</asrwt>
<pdfrwt beam="1">  1       21 0.26887268E-01 0.19778026E+03</pdfrwt>
<pdfrwt beam="2">  1       21 0.39521718E-01 0.19778026E+03</pdfrwt>
<totfact> 0.81133418E+04</totfact>
</mgrwt>
</event>
<event>
 4    1  0.3876841E+000  0.1901956E+03  0.7546771E-02  0.1158285E+00
         21   -1    0    0  501  502  0.00000000000E+00  0.00000000000E+00  0.12962573773E+03  0.12962573773E+03  0.00000000000E+00 0.  1.
         21   -1    0    0  502  503 -0.00000000000E+00 -0.00000000000E+00 -0.44387201364E+03  0.44387201364E+03  0.00000000000E+00 0.  1.
          6    1    1    2  501    0  0.52801953826E+02  0.58799098619E+02  0.17602601521E+02  0.19100846030E+03  0.17300000000E+03 0.  1.
         -6    1    1    2    0  503 -0.52801953826E+02 -0.58799098619E+02 -0.33184887743E+03  0.38248929106E+03  0.17300000000E+03 0.  1.
<mgrwt>
<rscale>  2 0.19019564E+03</rscale>
<asrwt>0</asrwt>
<pdfrwt beam="1">  1       21 0.19942421E-01 0.19019564E+03</pdfrwt>
<pdfrwt beam="2">  1       21 0.68288003E-01 0.19019564E+03</pdfrwt>
<totfact> 0.45464894E+04</totfact>
</mgrwt>
</event>
<event>
 4    1  0.3876841E+000  0.1816528E+03  0.7546771E-02  0.1166213E+00
         21   -1    0    0  501  502  0.00000000000E+00  0.00000000000E+00  0.94032260251E+03  0.94032260251E+03  0.00000000000E+00 0.  1.
         21   -1    0    0  502  503 -0.00000000000E+00 -0.00000000000E+00 -0.41686959467E+02  0.41686959467E+02  0.00000000000E+00 0. -1.
          6    1    1    2  501    0  0.50583217178E+02 -0.22584533441E+02  0.64461429400E+03  0.66972032300E+03  0.17300000000E+03 0.  1.
         -6    1    1    2    0  503 -0.50583217178E+02  0.22584533441E+02  0.25402134904E+03  0.31228923898E+03  0.17300000000E+03 0. -1.
<mgrwt>
<rscale>  2 0.18165275E+03</rscale>
<asrwt>0</asrwt>
<pdfrwt beam="1">  1       21 0.14466500E+00 0.18165275E+03</pdfrwt>
<pdfrwt beam="2">  1       21 0.64133791E-02 0.18165275E+03</pdfrwt>
<totfact> 0.58143714E+04</totfact>
</mgrwt>
</event>
<event>
 4    1  0.3876841E+000  0.2119764E+03  0.7546771E-02  0.1140010E+00
         21   -1    0    0  503  502  0.00000000000E+00  0.00000000000E+00  0.32259071092E+03  0.32259071092E+03  0.00000000000E+00 0. -1.
         21   -1    0    0  501  503 -0.00000000000E+00 -0.00000000000E+00 -0.19558996387E+03  0.19558996387E+03  0.00000000000E+00 0. -1.
          6    1    1    2  501    0  0.10055467648E+03 -0.69955371076E+02 -0.75503839963E+02  0.22502183617E+03  0.17300000000E+03 0. -1.
         -6    1    1    2    0  502 -0.10055467648E+03  0.69955371076E+02  0.20250458701E+03  0.29315883862E+03  0.17300000000E+03 0. -1.
<mgrwt>
<rscale>  2 0.21197641E+03</rscale>
<asrwt>0</asrwt>
<pdfrwt beam="1">  1       21 0.49629340E-01 0.21197641E+03</pdfrwt>
<pdfrwt beam="2">  1       21 0.30090764E-01 0.21197641E+03</pdfrwt>
<totfact> 0.40597448E+04</totfact>
</mgrwt>
</event>
<event>
 4    1  0.3876841E+000  0.2395223E+03  0.7546771E-02  0.1120111E+00
         21   -1    0    0  501  502  0.00000000000E+00  0.00000000000E+00  0.69010074521E+03  0.69010074521E+03  0.00000000000E+00 0. -1.
         21   -1    0    0  502  503 -0.00000000000E+00 -0.00000000000E+00 -0.11652280889E+03  0.11652280889E+03  0.00000000000E+00 0. -1.
          6    1    1    2  501    0  0.10245695133E+03  0.13017097886E+03  0.70897646380E+02  0.24979468945E+03  0.17300000000E+03 0. -1.
         -6    1    1    2    0  503 -0.10245695133E+03 -0.13017097886E+03  0.50268028994E+03  0.55682886465E+03  0.17300000000E+03 0. -1.
<mgrwt>
<rscale>  2 0.23952225E+03</rscale>
<asrwt>0</asrwt>
<pdfrwt beam="1">  1       21 0.10616934E+00 0.23952225E+03</pdfrwt>
<pdfrwt beam="2">  1       21 0.17926586E-01 0.23952225E+03</pdfrwt>
<totfact> 0.19581590E+04</totfact>
</mgrwt>
</event>
<event>
 4    1  0.3876841E+000  0.1914838E+03  0.7546771E-02  0.1157130E+00
         21   -1    0    0  503  502  0.00000000000E+00  0.00000000000E+00  0.61234375045E+03  0.61234375045E+03  0.00000000000E+00 0. -1.
         21   -1    0    0  501  503 -0.00000000000E+00 -0.00000000000E+00 -0.36780769746E+03  0.36780769746E+03  0.00000000000E+00 0.  1.
          6    1    1    2  501    0 -0.78796129194E+02  0.22982685584E+02 -0.32614522537E+03  0.37820198551E+03  0.17300000000E+03 0.  1.
         -6    1    1    2    0  502  0.78796129194E+02 -0.22982685584E+02  0.57068127836E+03  0.60194946240E+03  0.17300000000E+03 0. -1.
<mgrwt>
<rscale>  2 0.19148377E+03</rscale>
<asrwt>0</asrwt>
<pdfrwt beam="1">  1       21 0.94206731E-01 0.19148377E+03</pdfrwt>
<pdfrwt beam="2">  1       21 0.56585800E-01 0.19148377E+03</pdfrwt>
<totfact> 0.27772664E+03</totfact>
</mgrwt>
</event>
<event>
 4    1  0.3876841E+000  0.2443231E+03  0.7546771E-02  0.1116946E+00
         21   -1    0    0  501  502  0.00000000000E+00  0.00000000000E+00  0.21904139735E+03  0.21904139735E+03  0.00000000000E+00 0. -1.
         21   -1    0    0  502  503 -0.00000000000E+00 -0.00000000000E+00 -0.31206553359E+03  0.31206553359E+03  0.00000000000E+00 0. -1.
          6    1    1    2  501    0 -0.45224337586E+02 -0.16649178630E+03  0.48016460750E+02  0.24899665885E+03  0.17300000000E+03 0. -1.
         -6    1    1    2    0  503  0.45224337586E+02  0.16649178630E+03 -0.14104059699E+03  0.28211027208E+03  0.17300000000E+03 0. -1.
<mgrwt>
<rscale>  2 0.24432306E+03</rscale>
<asrwt>0</asrwt>
<pdfrwt beam="1">  1       21 0.33698677E-01 0.24432306E+03</pdfrwt>
<pdfrwt beam="2">  1       21 0.48010082E-01 0.24432306E+03</pdfrwt>
<totfact> 0.34287530E+04</totfact>
</mgrwt>
</event>
<event>
 4    1  0.3876841E+000  0.2000063E+03  0.7546771E-02  0.1149734E+00
         21   -1    0    0  501  502  0.00000000000E+00  0.00000000000E+00  0.59079976788E+03  0.59079976788E+03  0.00000000000E+00 0.  1.
         21   -1    0    0  502  503 -0.00000000000E+00 -0.00000000000E+00 -0.10075545141E+03  0.10075545141E+03  0.00000000000E+00 0.  1.
          6    1    1    2  501    0 -0.77690406145E+02 -0.63542917910E+02  0.44304922755E+03  0.48610196426E+03  0.17300000000E+03 0.  1.
         -6    1    1    2    0  503  0.77690406145E+02  0.63542917910E+02  0.46995088923E+02  0.20545325504E+03  0.17300000000E+03 0.  1.
<mgrwt>
<rscale>  2 0.20000625E+03</rscale>
<asrwt>0</asrwt>
<pdfrwt beam="1">  1       21 0.90892270E-01 0.20000625E+03</pdfrwt>
<pdfrwt beam="2">  1       21 0.15500839E-01 0.20000625E+03</pdfrwt>
<totfact> 0.37789472E+04</totfact>
</mgrwt>
</event>
<event>
 4    1  0.3876841E+000  0.2190197E+03  0.7546771E-02  0.1134616E+00
         21   -1    0    0  501  502  0.00000000000E+00  0.00000000000E+00  0.36660606393E+03  0.36660606393E+03  0.00000000000E+00 0.  1.
         21   -1    0    0  502  503 -0.00000000000E+00 -0.00000000000E+00 -0.22000189314E+03  0.22000189314E+03  0.00000000000E+00 0.  1.
          6    1    1    2  501    0  0.11681052550E+03  0.66301726636E+02  0.26001538317E+03  0.33996708268E+03  0.17300000000E+03 0.  1.
         -6    1    1    2    0  503 -0.11681052550E+03 -0.66301726636E+02 -0.11341121238E+03  0.24664087438E+03  0.17300000000E+03 0.  1.
<mgrwt>
<rscale>  2 0.21901967E+03</rscale>
<asrwt>0</asrwt>
<pdfrwt beam="1">  1       21 0.56400933E-01 0.21901967E+03</pdfrwt>
<pdfrwt beam="2">  1       21 0.33846445E-01 0.21901967E+03</pdfrwt>
<totfact> 0.24504227E+04</totfact>
</mgrwt>
</event>
<event>
 4    1  0.3876841E+000  0.2080767E+03  0.7546771E-02  0.1143098E+00
         21   -1    0    0  501  502  0.00000000000E+00  0.00000000000E+00  0.15716191905E+03  0.15716191905E+03  0.00000000000E+00 0. -1.
         21   -1    0    0  502  503 -0.00000000000E+00 -0.00000000000E+00 -0.31149347895E+03  0.31149347895E+03  0.00000000000E+00 0. -1.
          6    1    1    2  501    0  0.32395414219E+02  0.11098394637E+03  0.25044113155E+01  0.20809173768E+03  0.17300000000E+03 0. -1.
         -6    1    1    2    0  503 -0.32395414219E+02 -0.11098394637E+03 -0.15683597122E+03  0.26056366033E+03  0.17300000000E+03 0. -1.
<mgrwt>
<rscale>  2 0.20807667E+03</rscale>
<asrwt>0</asrwt>
<pdfrwt beam="1">  1       21 0.24178757E-01 0.20807667E+03</pdfrwt>
<pdfrwt beam="2">  1       21 0.47922074E-01 0.20807667E+03</pdfrwt>
<totfact> 0.66717235E+04</totfact>
</mgrwt>
</event>
<event>
 4    1  0.3876841E+000  0.2508552E+03  0.7546771E-02  0.1112766E+00
         21   -1    0    0  503  502  0.00000000000E+00  0.00000000000E+00  0.18184717554E+03  0.18184717554E+03  0.00000000000E+00 0. -1.
         21   -1    0    0  501  503 -0.00000000000E+00 -0.00000000000E+00 -0.88310423682E+03  0.88310423682E+03  0.00000000000E+00 0.  1.
          6    1    1    2  501    0  0.13723695458E+03  0.11901821032E+03 -0.76587185857E+03  0.80590819566E+03  0.17300000000E+03 0.  1.
         -6    1    1    2    0  502 -0.13723695458E+03 -0.11901821032E+03  0.64614797290E+02  0.25904321670E+03  0.17300000000E+03 0. -1.
<mgrwt>
<rscale>  2 0.25085517E+03</rscale>
<asrwt>0</asrwt>
<pdfrwt beam="1">  1       21 0.27976488E-01 0.25085517E+03</pdfrwt>
<pdfrwt beam="2">  1       21 0.13586219E+00 0.25085517E+03</pdfrwt>
<totfact> 0.45151342E+03</totfact>
</mgrwt>
</event>
<event>
 4    1  0.3876841E+000  0.1953696E+03  0.7546771E-02  0.1153706E+00
         21   -1    0    0  501  502  0.00000000000E+00  0.00000000000E+00  0.69538541311E+03  0.69538541311E+03  0.00000000000E+00 0.  1.
         21   -1    0    0  502  503 -0.00000000000E+00 -0.00000000000E+00 -0.12661372165E+03  0.12661372165E+03  0.00000000000E+00 0.  1.
          6    1    1    2  501    0 -0.81984274293E+02 -0.38972511454E+02  0.59372453906E+03  0.62504248348E+03  0.17300000000E+03 0.  1.
         -6    1    1    2    0  503  0.81984274293E+02  0.38972511454E+02 -0.24952847591E+02  0.19695665128E+03  0.17300000000E+03 0.  1.
<mgrwt>
<rscale>  2 0.19536959E+03</rscale>
<asrwt>0</asrwt>
<pdfrwt beam="1">  1       21 0.10698237E+00 0.19536959E+03</pdfrwt>
<pdfrwt beam="2">  1       21 0.19479034E-01 0.19536959E+03</pdfrwt>
<totfact> 0.16907412E+04</totfact>
</mgrwt>
</event>
<event>
 4    1  0.3876841E+000  0.1864854E+03  0.7546771E-02  0.1161670E+00
         21   -1    0    0  501  502  0.00000000000E+00  0.00000000000E+00  0.97001725330E+02  0.97001725330E+02  0.00000000000E+00 0.  1.
         21   -1    0    0  502  503 -0.00000000000E+00 -0.00000000000E+00 -0.36070701804E+03  0.36070701804E+03  0.00000000000E+00 0.  1.
          6    1    1    2  501    0  0.33415253514E+02  0.61083717069E+02 -0.11402175925E+03  0.21858124632E+03  0.17300000000E+03 0.  1.
         -6    1    1    2    0  503 -0.33415253514E+02 -0.61083717069E+02 -0.14968353346E+03  0.23912749705E+03  0.17300000000E+03 0.  1.
<mgrwt>
<rscale>  2 0.18648539E+03</rscale>
<asrwt>0</asrwt>
<pdfrwt beam="1">  1       21 0.14923342E-01 0.18648539E+03</pdfrwt>
<pdfrwt beam="2">  1       21 0.55493387E-01 0.18648539E+03</pdfrwt>
<totfact> 0.12145889E+05</totfact>
</mgrwt>
</event>
<event>
 4    1  0.3876841E+000  0.1892127E+03  0.7546771E-02  0.1159173E+00
         21   -1    0    0  501  502  0.00000000000E+00  0.00000000000E+00  0.97775786532E+02  0.97775786532E+02  0.00000000000E+00 0.  1.
         21   -1    0    0  502  503 -0.00000000000E+00 -0.00000000000E+00 -0.66681749952E+03  0.66681749952E+03  0.00000000000E+00 0.  1.
          6    1    1    2  501    0 -0.76432581234E+02  0.55224230845E+01 -0.27816000268E+02  0.19124635030E+03  0.17300000000E+03 0.  1.
         -6    1    1    2    0  503  0.76432581234E+02 -0.55224230845E+01 -0.54122571272E+03  0.57334693576E+03  0.17300000000E+03 0.  1.
<mgrwt>
<rscale>  2 0.18921268E+03</rscale>
<asrwt>0</asrwt>
<pdfrwt beam="1">  1       21 0.15042428E-01 0.18921268E+03</pdfrwt>
<pdfrwt beam="2">  1       21 0.10258731E+00 0.18921268E+03</pdfrwt>
<totfact> 0.30205581E+04</totfact>
</mgrwt>
</event>
<event>
 4    1  0.3876841E+000  0.1811126E+03  0.7546771E-02  0.1166731E+00
         21   -1    0    0  501  502  0.00000000000E+00  0.00000000000E+00  0.10257357747E+03  0.10257357747E+03  0.00000000000E+00 0. -1.
         21   -1    0    0  502  503 -0.00000000000E+00 -0.00000000000E+00 -0.35382120136E+03  0.35382120136E+03  0.00000000000E+00 0. -1.
          6    1    1    2  501    0 -0.18302742420E+01  0.53566881306E+02 -0.54850007338E+02  0.18923605360E+03  0.17300000000E+03 0. -1.
         -6    1    1    2    0  503  0.18302742420E+01 -0.53566881306E+02 -0.19639761655E+03  0.26715872523E+03  0.17300000000E+03 0. -1.
<mgrwt>
<rscale>  2 0.18111256E+03</rscale>
<asrwt>0</asrwt>
<pdfrwt beam="1">  1       21 0.15780551E-01 0.18111256E+03</pdfrwt>
<pdfrwt beam="2">  1       21 0.54434031E-01 0.18111256E+03</pdfrwt>
<totfact> 0.11448615E+05</totfact>
</mgrwt>
</event>
<event>
 4    1  0.3876841E+000  0.2619802E+03  0.7546771E-02  0.1105959E+00
         21   -1    0    0  501  502  0.00000000000E+00  0.00000000000E+00  0.47865197318E+03  0.47865197318E+03  0.00000000000E+00 0. -1.
         21   -1    0    0  502  503 -0.00000000000E+00 -0.00000000000E+00 -0.27771429436E+03  0.27771429436E+03  0.00000000000E+00 0.  1.
          6    1    1    2  501    0 -0.19415730680E+03  0.31742378815E+02  0.36348426996E+03  0.44805630551E+03  0.17300000000E+03 0. -1.
         -6    1    1    2    0  503  0.19415730680E+03 -0.31742378815E+02 -0.16254659114E+03  0.30830996203E+03  0.17300000000E+03 0.  1.
<mgrwt>
<rscale>  2 0.26198023E+03</rscale>
<asrwt>0</asrwt>
<pdfrwt beam="1">  1       21 0.73638765E-01 0.26198023E+03</pdfrwt>
<pdfrwt beam="2">  1       21 0.42725276E-01 0.26198023E+03</pdfrwt>
<totfact> 0.83545508E+03</totfact>
</mgrwt>
</event>
<event>
 4    1  0.3876841E+000  0.1973009E+03  0.7546771E-02  0.1152036E+00
         21   -1    0    0  501  502  0.00000000000E+00  0.00000000000E+00  0.89486747649E+02  0.89486747649E+02  0.00000000000E+00 0.  1.
         21   -1    0    0  502  503 -0.00000000000E+00 -0.00000000000E+00 -0.86489864236E+03  0.86489864236E+03  0.00000000000E+00 0.  1.
          6    1    1    2  501    0 -0.91760783371E+02 -0.24053838580E+02 -0.51280240487E+02  0.20385605603E+03  0.17300000000E+03 0.  1.
         -6    1    1    2    0  503  0.91760783371E+02  0.24053838580E+02 -0.72413165422E+03  0.75052933398E+03  0.17300000000E+03 0.  1.
<mgrwt>
<rscale>  2 0.19730086E+03</rscale>
<asrwt>0</asrwt>
<pdfrwt beam="1">  1       21 0.13767192E-01 0.19730086E+03</pdfrwt>
<pdfrwt beam="2">  1       21 0.13306133E+00 0.19730086E+03</pdfrwt>
<totfact> 0.18621871E+04</totfact>
</mgrwt>
</event>
<event>
 4    1  0.3876841E+000  0.1804373E+03  0.7546771E-02  0.1167381E+00
         21   -1    0    0  501  502  0.00000000000E+00  0.00000000000E+00  0.11294092766E+03  0.11294092766E+03  0.00000000000E+00 0. -1.
         21   -1    0    0  502  503 -0.00000000000E+00 -0.00000000000E+00 -0.65000274391E+03  0.65000274391E+03  0.00000000000E+00 0. -1.
          6    1    1    2  501    0  0.91321485347E+01 -0.50450138597E+02  0.16044978289E+02  0.18114925876E+03  0.17300000000E+03 0. -1.
         -6    1    1    2    0  503 -0.91321485347E+01  0.50450138597E+02 -0.55310679454E+03  0.58179441282E+03  0.17300000000E+03 0. -1.
<mgrwt>
<rscale>  2 0.18043728E+03</rscale>
<asrwt>0</asrwt>
<pdfrwt beam="1">  1       21 0.17375528E-01 0.18043728E+03</pdfrwt>
<pdfrwt beam="2">  1       21 0.10000042E+00 0.18043728E+03</pdfrwt>
<totfact> 0.24779668E+04</totfact>
</mgrwt>
</event>
<event>
 4    1  0.3876841E+000  0.2983455E+03  0.7546771E-02  0.1086071E+00
         21   -1    0    0  501  502  0.00000000000E+00  0.00000000000E+00  0.50591582814E+03  0.50591582814E+03  0.00000000000E+00 0. -1.
         21   -1    0    0  502  503 -0.00000000000E+00 -0.00000000000E+00 -0.21126124305E+03  0.21126124305E+03  0.00000000000E+00 0. -1.
          6    1    1    2  501    0  0.11635814568E+03  0.21340530109E+03  0.29395433577E+03  0.41883074400E+03  0.17300000000E+03 0. -1.
         -6    1    1    2    0  503 -0.11635814568E+03 -0.21340530109E+03  0.70024931506E+00  0.29834632719E+03  0.17300000000E+03 0. -1.
<mgrwt>
<rscale>  2 0.29834551E+03</rscale>
<asrwt>0</asrwt>
<pdfrwt beam="1">  1       21 0.77833204E-01 0.29834551E+03</pdfrwt>
<pdfrwt beam="2">  1       21 0.32501730E-01 0.29834551E+03</pdfrwt>
<totfact> 0.12582182E+04</totfact>
</mgrwt>
</event>
<event>
 4    1  0.3876841E+000  0.2125836E+03  0.7546771E-02  0.1139536E+00
         21   -1    0    0  501  502  0.00000000000E+00  0.00000000000E+00  0.69715390250E+03  0.69715390250E+03  0.00000000000E+00 0. -1.
         21   -1    0    0  502  503 -0.00000000000E+00 -0.00000000000E+00 -0.78210469596E+02  0.78210469596E+02  0.00000000000E+00 0.  1.
          6    1    1    2  501    0  0.10389490150E+03 -0.66847728376E+02  0.46986599789E+03  0.51571874633E+03  0.17300000000E+03 0. -1.
         -6    1    1    2    0  503 -0.10389490150E+03  0.66847728376E+02  0.14907743502E+03  0.25964562577E+03  0.17300000000E+03 0.  1.
<mgrwt>
<rscale>  2 0.21258356E+03</rscale>
<asrwt>0</asrwt>
<pdfrwt beam="1">  1       21 0.10725444E+00 0.21258356E+03</pdfrwt>
<pdfrwt beam="2">  1       21 0.12032380E-01 0.21258356E+03</pdfrwt>
<totfact> 0.40110369E+04</totfact>
</mgrwt>
</event>
<event>
 4    1  0.3876841E+000  0.1907898E+03  0.7546771E-02  0.1157751E+00
         21   -1    0    0  501  502  0.00000000000E+00  0.00000000000E+00  0.70946971958E+02  0.70946971958E+02  0.00000000000E+00 0. -1.
         21   -1    0    0  502  503 -0.00000000000E+00 -0.00000000000E+00 -0.52925122958E+03  0.52925122958E+03  0.00000000000E+00 0. -1.
          6    1    1    2  501    0 -0.37528837791E+02 -0.71157093254E+02 -0.17667829549E+03  0.26003070143E+03  0.17300000000E+03 0. -1.
         -6    1    1    2    0  503  0.37528837791E+02  0.71157093254E+02 -0.28162596213E+03  0.34016750011E+03  0.17300000000E+03 0. -1.
<mgrwt>
<rscale>  2 0.19078979E+03</rscale>
<asrwt>0</asrwt>
<pdfrwt beam="1">  1       21 0.10914919E-01 0.19078979E+03</pdfrwt>
<pdfrwt beam="2">  1       21 0.81423266E-01 0.19078979E+03</pdfrwt>
<totfact> 0.91899437E+04</totfact>
</mgrwt>
</event>
<event>
 4    1  0.3876841E+000  0.3488180E+03  0.7546771E-02  0.1063101E+00
         21   -1    0    0  501  502  0.00000000000E+00  0.00000000000E+00  0.20429089461E+04  0.20429089461E+04  0.00000000000E+00 0. -1.
         21   -1    0    0  502  503 -0.00000000000E+00 -0.00000000000E+00 -0.10343322493E+03  0.10343322493E+03  0.00000000000E+00 0. -1.
          6    1    1    2  501    0  0.19362473314E+03  0.23292580062E+03  0.16686825446E+04  0.17047508324E+04  0.17300000000E+03 0. -1.
         -6    1    1    2    0  503 -0.19362473314E+03 -0.23292580062E+03  0.27079317655E+03  0.44159133862E+03  0.17300000000E+03 0. -1.
<mgrwt>
<rscale>  2 0.34881796E+03</rscale>
<asrwt>0</asrwt>
<pdfrwt beam="1">  1       21 0.31429365E+00 0.34881796E+03</pdfrwt>
<pdfrwt beam="2">  1       21 0.15912805E-01 0.34881796E+03</pdfrwt>
<totfact> 0.84926321E+02</totfact>
</mgrwt>
</event>
<event>
 4    1  0.3876841E+000  0.2094457E+03  0.7546771E-02  0.1142006E+00
         21   -1    0    0  501  502  0.00000000000E+00  0.00000000000E+00  0.13269986574E+03  0.13269986574E+03  0.00000000000E+00 0. -1.
         21   -1    0    0  502  503 -0.00000000000E+00 -0.00000000000E+00 -0.38327437374E+03  0.38327437374E+03  0.00000000000E+00 0. -1.
          6    1    1    2  501    0 -0.11015637420E+03 -0.42474264703E+02 -0.22094907884E+03  0.30444373106E+03  0.17300000000E+03 0. -1.
         -6    1    1    2    0  503  0.11015637420E+03  0.42474264703E+02 -0.29625429161E+02  0.21153050842E+03  0.17300000000E+03 0. -1.
<mgrwt>
<rscale>  2 0.20944567E+03</rscale>
<asrwt>0</asrwt>
<pdfrwt beam="1">  1       21 0.20415364E-01 0.20944567E+03</pdfrwt>
<pdfrwt beam="2">  1       21 0.58965288E-01 0.20944567E+03</pdfrwt>
<totfact> 0.59278933E+04</totfact>
</mgrwt>
</event>
<event>
 4    1  0.3876841E+000  0.1776823E+03  0.7546771E-02  0.1170065E+00
         21   -1    0    0  501  502  0.00000000000E+00  0.00000000000E+00  0.76330902023E+03  0.76330902023E+03  0.00000000000E+00 0. -1.
         21   -1    0    0  502  503 -0.00000000000E+00 -0.00000000000E+00 -0.41421766076E+02  0.41421766076E+02  0.00000000000E+00 0. -1.
          6    1    1    2  501    0  0.31385480151E+02  0.25631327124E+02  0.34549738243E+03  0.38850927217E+03  0.17300000000E+03 0. -1.
         -6    1    1    2    0  503 -0.31385480151E+02 -0.25631327124E+02  0.37638987172E+03  0.41622151414E+03  0.17300000000E+03 0. -1.
<mgrwt>
<rscale>  2 0.17768234E+03</rscale>
<asrwt>0</asrwt>
<pdfrwt beam="1">  1       21 0.11743215E+00 0.17768234E+03</pdfrwt>
<pdfrwt beam="2">  1       21 0.63725799E-02 0.17768234E+03</pdfrwt>
<totfact> 0.99698614E+04</totfact>
</mgrwt>
</event>
<event>
 4    1  0.3876841E+000  0.1824850E+03  0.7546771E-02  0.1165419E+00
         21   -1    0    0  501  502  0.00000000000E+00  0.00000000000E+00  0.41554926855E+03  0.41554926855E+03  0.00000000000E+00 0. -1.
         21   -1    0    0  502  503 -0.00000000000E+00 -0.00000000000E+00 -0.27081432810E+03  0.27081432810E+03  0.00000000000E+00 0. -1.
          6    1    1    2  501    0  0.55723916260E+02  0.16328880563E+02  0.36033146336E+03  0.40390537341E+03  0.17300000000E+03 0. -1.
         -6    1    1    2    0  503 -0.55723916260E+02 -0.16328880563E+02 -0.21559652291E+03  0.28245822324E+03  0.17300000000E+03 0. -1.
<mgrwt>
<rscale>  2 0.18248503E+03</rscale>
<asrwt>0</asrwt>
<pdfrwt beam="1">  1       21 0.63930656E-01 0.18248503E+03</pdfrwt>
<pdfrwt beam="2">  1       21 0.41663743E-01 0.18248503E+03</pdfrwt>
<totfact> 0.12615715E+04</totfact>
</mgrwt>
</event>
<event>
 4    1  0.3876841E+000  0.2002113E+03  0.7546771E-02  0.1149561E+00
         21   -1    0    0  503  502  0.00000000000E+00  0.00000000000E+00  0.66673776686E+03  0.66673776686E+03  0.00000000000E+00 0. -1.
         21   -1    0    0  501  503 -0.00000000000E+00 -0.00000000000E+00 -0.21302160892E+03  0.21302160892E+03  0.00000000000E+00 0. -1.
          6    1    1    2  501    0  0.99065475757E+02 -0.18481922933E+02 -0.14581456882E+03  0.24768213186E+03  0.17300000000E+03 0. -1.
         -6    1    1    2    0  502 -0.99065475757E+02  0.18481922933E+02  0.59953072676E+03  0.63207724392E+03  0.17300000000E+03 0. -1.
<mgrwt>
<rscale>  2 0.20021126E+03</rscale>
<asrwt>0</asrwt>
<pdfrwt beam="1">  1       21 0.10257504E+00 0.20021126E+03</pdfrwt>
<pdfrwt beam="2">  1       21 0.32772555E-01 0.20021126E+03</pdfrwt>
<totfact> 0.68852681E+03</totfact>
</mgrwt>
</event>
<event>
 4    1  0.3876841E+000  0.1873598E+03  0.7546771E-02  0.1160864E+00
         21   -1    0    0  503  502  0.00000000000E+00  0.00000000000E+00  0.61772111301E+03  0.61772111301E+03  0.00000000000E+00 0. -1.
         21   -1    0    0  501  503 -0.00000000000E+00 -0.00000000000E+00 -0.79963493593E+02  0.79963493593E+02  0.00000000000E+00 0. -1.
          6    1    1    2  501    0  0.51610497704E+02 -0.50110377806E+02  0.81238945008E+02  0.20421424931E+03  0.17300000000E+03 0. -1.
         -6    1    1    2    0  502 -0.51610497704E+02  0.50110377806E+02  0.45651867441E+03  0.49347035729E+03  0.17300000000E+03 0. -1.
<mgrwt>
<rscale>  2 0.18735980E+03</rscale>
<asrwt>0</asrwt>
<pdfrwt beam="1">  1       21 0.95034014E-01 0.18735980E+03</pdfrwt>
<pdfrwt beam="2">  1       21 0.12302076E-01 0.18735980E+03</pdfrwt>
<totfact> 0.52083552E+04</totfact>
</mgrwt>
</event>
<event>
 4    1  0.3876841E+000  0.1936120E+03  0.7546771E-02  0.1155243E+00
         21   -1    0    0  503  502  0.00000000000E+00  0.00000000000E+00  0.22774479730E+03  0.22774479730E+03  0.00000000000E+00 0.  1.
         21   -1    0    0  501  503 -0.00000000000E+00 -0.00000000000E+00 -0.16931646782E+03  0.16931646782E+03  0.00000000000E+00 0.  1.
          6    1    1    2  501    0  0.30855841420E+01 -0.86874045272E+02 -0.39388768216E+01  0.19365209868E+03  0.17300000000E+03 0.  1.
         -6    1    1    2    0  502 -0.30855841420E+01  0.86874045272E+02  0.62367206307E+02  0.20340916644E+03  0.17300000000E+03 0.  1.
<mgrwt>
<rscale>  2 0.19361204E+03</rscale>
<asrwt>0</asrwt>
<pdfrwt beam="1">  1       21 0.35037661E-01 0.19361204E+03</pdfrwt>
<pdfrwt beam="2">  1       21 0.26048687E-01 0.19361204E+03</pdfrwt>
<totfact> 0.10991574E+05</totfact>
</mgrwt>
</event>
<event>
 4    1  0.3876841E+000  0.2045058E+03  0.7546771E-02  0.1145992E+00
         21   -1    0    0  501  502  0.00000000000E+00  0.00000000000E+00  0.43373928478E+02  0.43373928478E+02  0.00000000000E+00 0. -1.
         21   -1    0    0  502  503 -0.00000000000E+00 -0.00000000000E+00 -0.98629787542E+03  0.98629787542E+03  0.00000000000E+00 0. -1.
          6    1    1    2  501    0 -0.10885659788E+03 -0.66230051745E+01 -0.39445958641E+03  0.44432081699E+03  0.17300000000E+03 0. -1.
         -6    1    1    2    0  503  0.10885659788E+03  0.66230051745E+01 -0.54846436054E+03  0.58535098691E+03  0.17300000000E+03 0. -1.
<mgrwt>
<rscale>  2 0.20450580E+03</rscale>
<asrwt>0</asrwt>
<pdfrwt beam="1">  1       21 0.66729128E-02 0.20450580E+03</pdfrwt>
<pdfrwt beam="2">  1       21 0.15173812E+00 0.20450580E+03</pdfrwt>
<totfact> 0.47310678E+04</totfact>
</mgrwt>
</event>
<event>
 4    1  0.3876841E+000  0.1983256E+03  0.7546771E-02  0.1151159E+00
         21   -1    0    0  503  502  0.00000000000E+00  0.00000000000E+00  0.23596664548E+03  0.23596664548E+03  0.00000000000E+00 0. -1.
         21   -1    0    0  501  503 -0.00000000000E+00 -0.00000000000E+00 -0.36127125674E+03  0.36127125674E+03  0.00000000000E+00 0. -1.
          6    1    1    2  501    0 -0.95900090122E+02  0.14395423544E+02 -0.28180773034E+03  0.34459926347E+03  0.17300000000E+03 0. -1.
         -6    1    1    2    0  502  0.95900090122E+02 -0.14395423544E+02  0.15650311909E+03  0.25263863875E+03  0.17300000000E+03 0. -1.
<mgrwt>
<rscale>  2 0.19832563E+03</rscale>
<asrwt>0</asrwt>
<pdfrwt beam="1">  1       21 0.36302561E-01 0.19832563E+03</pdfrwt>
<pdfrwt beam="2">  1       21 0.55580193E-01 0.19832563E+03</pdfrwt>
<totfact> 0.22249090E+04</totfact>
</mgrwt>
</event>
<event>
 4    1  0.3876841E+000  0.1801291E+03  0.7546771E-02  0.1167678E+00
         21   -1    0    0  503  502  0.00000000000E+00  0.00000000000E+00  0.22309101020E+03  0.22309101020E+03  0.00000000000E+00 0.  1.
         21   -1    0    0  501  503 -0.00000000000E+00 -0.00000000000E+00 -0.17523731077E+03  0.17523731077E+03  0.00000000000E+00 0.  1.
          6    1    1    2  501    0  0.28573013729E+02 -0.41244250143E+02 -0.58199321447E+02  0.18929782434E+03  0.17300000000E+03 0.  1.
         -6    1    1    2    0  502 -0.28573013729E+02  0.41244250143E+02  0.10605302088E+03  0.20903049663E+03  0.17300000000E+03 0.  1.
<mgrwt>
<rscale>  2 0.18012914E+03</rscale>
<asrwt>0</asrwt>
<pdfrwt beam="1">  1       21 0.34321694E-01 0.18012914E+03</pdfrwt>
<pdfrwt beam="2">  1       21 0.26959586E-01 0.18012914E+03</pdfrwt>
<totfact> 0.10771617E+05</totfact>
</mgrwt>
</event>
<event>
 4    1  0.3876841E+000  0.2187151E+03  0.7546771E-02  0.1134845E+00
         21   -1    0    0  501  502  0.00000000000E+00  0.00000000000E+00  0.42778198838E+03  0.42778198838E+03  0.00000000000E+00 0.  1.
         21   -1    0    0  502  503 -0.00000000000E+00 -0.00000000000E+00 -0.37874305207E+03  0.37874305207E+03  0.00000000000E+00 0.  1.
          6    1    1    2  501    0  0.54566541113E+02  0.12218751706E+03 -0.31401687807E+03  0.38267858111E+03  0.17300000000E+03 0.  1.
         -6    1    1    2    0  503 -0.54566541113E+02 -0.12218751706E+03  0.36305581438E+03  0.42384645934E+03  0.17300000000E+03 0.  1.
<mgrwt>
<rscale>  2 0.21871510E+03</rscale>
<asrwt>0</asrwt>
<pdfrwt beam="1">  1       21 0.65812614E-01 0.21871510E+03</pdfrwt>
<pdfrwt beam="2">  1       21 0.58268162E-01 0.21871510E+03</pdfrwt>
<totfact> 0.57412848E+03</totfact>
</mgrwt>
</event>
<event>
 4    1  0.3876841E+000  0.1777097E+03  0.7546771E-02  0.1170038E+00
         21   -1    0    0  503  502  0.00000000000E+00  0.00000000000E+00  0.50239672718E+03  0.50239672718E+03  0.00000000000E+00 0. -1.
         21   -1    0    0  501  503 -0.00000000000E+00 -0.00000000000E+00 -0.22087638638E+03  0.22087638638E+03  0.00000000000E+00 0. -1.
          6    1    1    2  501    0 -0.24268514203E+02 -0.32600498490E+02 -0.16511800040E+03  0.24257928053E+03  0.17300000000E+03 0. -1.
         -6    1    1    2    0  502  0.24268514203E+02  0.32600498490E+02  0.44663834120E+03  0.48069383303E+03  0.17300000000E+03 0. -1.
<mgrwt>
<rscale>  2 0.17770974E+03</rscale>
<asrwt>0</asrwt>
<pdfrwt beam="1">  1       21 0.77291804E-01 0.17770974E+03</pdfrwt>
<pdfrwt beam="2">  1       21 0.33980983E-01 0.17770974E+03</pdfrwt>
<totfact> 0.12526401E+04</totfact>
</mgrwt>
</event>
<event>
 4    1  0.3876841E+000  0.2293181E+03  0.7546771E-02  0.1127121E+00
         21   -1    0    0  503  502  0.00000000000E+00  0.00000000000E+00  0.48681800595E+02  0.48681800595E+02  0.00000000000E+00 0. -1.
         21   -1    0    0  501  503 -0.00000000000E+00 -0.00000000000E+00 -0.13940167703E+04  0.13940167703E+04  0.00000000000E+00 0.  1.
          6    1    1    2  501    0  0.70341732920E+02  0.13307823735E+03 -0.33042037217E+03  0.40219945175E+03  0.17300000000E+03 0.  1.
         -6    1    1    2    0  502 -0.70341732920E+02 -0.13307823735E+03 -0.10149145975E+04  0.10404991191E+04  0.17300000000E+03 0.  1.
<mgrwt>
<rscale>  2 0.22931807E+03</rscale>
<asrwt>0</asrwt>
<pdfrwt beam="1">  1       21 0.74895081E-02 0.22931807E+03</pdfrwt>
<pdfrwt beam="2">  1       21 0.21446411E+00 0.22931807E+03</pdfrwt>
<totfact> 0.14230187E+04</totfact>
</mgrwt>
</event>
<event>
 4    1  0.3876841E+000  0.1839230E+03  0.7546771E-02  0.1164059E+00
         21   -1    0    0  503  502  0.00000000000E+00  0.00000000000E+00  0.54210498756E+03  0.54210498756E+03  0.00000000000E+00 0.  1.
         21   -1    0    0  501  503 -0.00000000000E+00 -0.00000000000E+00 -0.74800261939E+02  0.74800261939E+02  0.00000000000E+00 0.  1.
          6    1    1    2  501    0  0.62324568062E+02  0.37862338917E+01  0.10806628931E+03  0.21332137782E+03  0.17300000000E+03 0.  1.
         -6    1    1    2    0  502 -0.62324568062E+02 -0.37862338917E+01  0.35923843631E+03  0.40358387167E+03  0.17300000000E+03 0.  1.
<mgrwt>
<rscale>  2 0.18392305E+03</rscale>
<asrwt>0</asrwt>
<pdfrwt beam="1">  1       21 0.83400765E-01 0.18392305E+03</pdfrwt>
<pdfrwt beam="2">  1       21 0.11507733E-01 0.18392305E+03</pdfrwt>
<totfact> 0.79431556E+04</totfact>
</mgrwt>
</event>
<event>
 4    1  0.3876841E+000  0.1789956E+03  0.7546771E-02  0.1168779E+00
         21   -1    0    0  501  502  0.00000000000E+00  0.00000000000E+00  0.23970053258E+03  0.23970053258E+03  0.00000000000E+00 0.  1.
         21   -1    0    0  502  503 -0.00000000000E+00 -0.00000000000E+00 -0.13374285729E+03  0.13374285729E+03  0.00000000000E+00 0.  1.
          6    1    1    2  501    0  0.44614117100E+02 -0.10953972448E+02  0.57503585424E+02  0.18800550868E+03  0.17300000000E+03 0.  1.
         -6    1    1    2    0  503 -0.44614117100E+02  0.10953972448E+02  0.48454089860E+02  0.18543788119E+03  0.17300000000E+03 0.  1.
<mgrwt>
<rscale>  2 0.17899556E+03</rscale>
<asrwt>0</asrwt>
<pdfrwt beam="1">  1       21 0.36877005E-01 0.17899556E+03</pdfrwt>
<pdfrwt beam="2">  1       21 0.20575824E-01 0.17899556E+03</pdfrwt>
<totfact> 0.15591186E+05</totfact>
</mgrwt>
</event>
<event>
 4    1  0.3876841E+000  0.2256977E+03  0.7546771E-02  0.1129705E+00
         21   -1    0    0  501  502  0.00000000000E+00  0.00000000000E+00  0.55759898897E+03  0.55759898897E+03  0.00000000000E+00 0. -1.
         21   -1    0    0  502  503 -0.00000000000E+00 -0.00000000000E+00 -0.96826182659E+02  0.96826182659E+02  0.00000000000E+00 0. -1.
          6    1    1    2  501    0  0.12868416380E+02  0.14437744804E+03  0.30816767773E+03  0.38197743551E+03  0.17300000000E+03 0. -1.
         -6    1    1    2    0  503 -0.12868416380E+02 -0.14437744804E+03  0.15260512858E+03  0.27244773611E+03  0.17300000000E+03 0. -1.
<mgrwt>
<rscale>  2 0.22569768E+03</rscale>
<asrwt>0</asrwt>
<pdfrwt beam="1">  1       21 0.85784458E-01 0.22569768E+03</pdfrwt>
<pdfrwt beam="2">  1       21 0.14896336E-01 0.22569768E+03</pdfrwt>
<totfact> 0.45859076E+04</totfact>
</mgrwt>
</event>
<event>
 4    1  0.3876841E+000  0.2137717E+03  0.7546771E-02  0.1138614E+00
         21   -1    0    0  501  502  0.00000000000E+00  0.00000000000E+00  0.20103781380E+03  0.20103781380E+03  0.00000000000E+00 0.  1.
         21   -1    0    0  502  503 -0.00000000000E+00 -0.00000000000E+00 -0.34501099499E+03  0.34501099499E+03  0.00000000000E+00 0.  1.
          6    1    1    2  501    0  0.31168113005E+02 -0.12164651960E+03 -0.23145372832E+03  0.31507008006E+03  0.17300000000E+03 0.  1.
         -6    1    1    2    0  503 -0.31168113005E+02  0.12164651960E+03  0.87480547124E+02  0.23097872873E+03  0.17300000000E+03 0.  1.
<mgrwt>
<rscale>  2 0.21377167E+03</rscale>
<asrwt>0</asrwt>
<pdfrwt beam="1">  1       21 0.30928894E-01 0.21377167E+03</pdfrwt>
<pdfrwt beam="2">  1       21 0.53078615E-01 0.21377167E+03</pdfrwt>
<totfact> 0.33382366E+04</totfact>
</mgrwt>
</event>
<event>
 4    1  0.3876841E+000  0.1982340E+03  0.7546771E-02  0.1151238E+00
         21   -1    0    0  501  502  0.00000000000E+00  0.00000000000E+00  0.20148503729E+03  0.20148503729E+03  0.00000000000E+00 0. -1.
         21   -1    0    0  502  503 -0.00000000000E+00 -0.00000000000E+00 -0.15865567472E+04  0.15865567472E+04  0.00000000000E+00 0. -1.
          6    1    1    2  501    0 -0.61432905407E+02  0.74791216266E+02  0.14473271608E+03  0.24544711651E+03  0.17300000000E+03 0. -1.
         -6    1    1    2    0  503  0.61432905407E+02 -0.74791216266E+02 -0.15298044260E+04  0.15425946680E+04  0.17300000000E+03 0. -1.
<mgrwt>
<rscale>  2 0.19823402E+03</rscale>
<asrwt>0</asrwt>
<pdfrwt beam="1">  1       21 0.30997697E-01 0.19823402E+03</pdfrwt>
<pdfrwt beam="2">  1       21 0.24408566E+00 0.19823402E+03</pdfrwt>
<totfact> 0.71529712E+02</totfact>
</mgrwt>
</event>
<event>
 4    1  0.3876841E+000  0.2086074E+03  0.7546771E-02  0.1142674E+00
         21   -1    0    0  503  502  0.00000000000E+00  0.00000000000E+00  0.19671035325E+03  0.19671035325E+03  0.00000000000E+00 0. -1.
         21   -1    0    0  501  503 -0.00000000000E+00 -0.00000000000E+00 -0.23164624590E+03  0.23164624590E+03  0.00000000000E+00 0.  1.
          6    1    1    2  501    0 -0.58793741697E+02 -0.10065461908E+03  0.27962074741E+02  0.21047311949E+03  0.17300000000E+03 0.  1.
         -6    1    1    2    0  502  0.58793741697E+02  0.10065461908E+03 -0.62897967390E+02  0.21788347965E+03  0.17300000000E+03 0.  1.
<mgrwt>
<rscale>  2 0.20860742E+03</rscale>
<asrwt>0</asrwt>
<pdfrwt beam="1">  1       21 0.30263131E-01 0.20860742E+03</pdfrwt>
<pdfrwt beam="2">  1       21 0.35637884E-01 0.20860742E+03</pdfrwt>
<totfact> 0.78993789E+04</totfact>
</mgrwt>
</event>
<event>
 4    1  0.3876841E+000  0.1781309E+03  0.7546771E-02  0.1169624E+00
         21   -1    0    0  501  502  0.00000000000E+00  0.00000000000E+00  0.70367927544E+03  0.70367927544E+03  0.00000000000E+00 0.  1.
         21   -1    0    0  502  503 -0.00000000000E+00 -0.00000000000E+00 -0.73542592977E+02  0.73542592977E+02  0.00000000000E+00 0.  1.
          6    1    1    2  501    0  0.42374379323E+02 -0.24579337100E+01  0.55677448997E+03  0.58457545462E+03  0.17300000000E+03 0.  1.
         -6    1    1    2    0  503 -0.42374379323E+02  0.24579337100E+01  0.73362192489E+02  0.19264641379E+03  0.17300000000E+03 0.  1.
<mgrwt>
<rscale>  2 0.17813093E+03</rscale>
<asrwt>0</asrwt>
<pdfrwt beam="1">  1       21 0.10825835E+00 0.17813093E+03</pdfrwt>
<pdfrwt beam="2">  1       21 0.11314246E-01 0.17813093E+03</pdfrwt>
<totfact> 0.44583097E+04</totfact>
</mgrwt>
</event>
<event>
 4    1  0.3876841E+000  0.2140385E+03  0.7546771E-02  0.1138407E+00
         21   -1    0    0  501  502  0.00000000000E+00  0.00000000000E+00  0.59710632969E+02  0.59710632969E+02  0.00000000000E+00 0. -1.
         21   -1    0    0  502  503 -0.00000000000E+00 -0.00000000000E+00 -0.10111704091E+04  0.10111704091E+04  0.00000000000E+00 0. -1.
          6    1    1    2  501    0  0.12344265421E+03 -0.25404844267E+02 -0.21274523428E+03  0.30178308386E+03  0.17300000000E+03 0. -1.
         -6    1    1    2    0  503 -0.12344265421E+03  0.25404844267E+02 -0.73871454185E+03  0.76909795822E+03  0.17300000000E+03 0. -1.
<mgrwt>
<rscale>  2 0.21403854E+03</rscale>
<asrwt>0</asrwt>
<pdfrwt beam="1">  1       21 0.91862510E-02 0.21403854E+03</pdfrwt>
<pdfrwt beam="2">  1       21 0.15556468E+00 0.21403854E+03</pdfrwt>
<totfact> 0.25228518E+04</totfact>
</mgrwt>
</event>
<event>
 4    1  0.3876841E+000  0.1935731E+03  0.7546771E-02  0.1155278E+00
         21   -1    0    0  501  502  0.00000000000E+00  0.00000000000E+00  0.42082511263E+02  0.42082511263E+02  0.00000000000E+00 0.  1.
         21   -1    0    0  502  503 -0.00000000000E+00 -0.00000000000E+00 -0.19204903793E+04  0.19204903793E+04  0.00000000000E+00 0.  1.
          6    1    1    2  501    0  0.86289611003E+02  0.97803864818E+01 -0.22053980166E+03  0.29344225504E+03  0.17300000000E+03 0.  1.
         -6    1    1    2    0  503 -0.86289611003E+02 -0.97803864818E+01 -0.16578680664E+04  0.16691306356E+04  0.17300000000E+03 0.  1.
<mgrwt>
<rscale>  2 0.19357312E+03</rscale>
<asrwt>0</asrwt>
<pdfrwt beam="1">  1       21 0.64742327E-02 0.19357312E+03</pdfrwt>
<pdfrwt beam="2">  1       21 0.29546005E+00 0.19357312E+03</pdfrwt>
<totfact> 0.62669188E+03</totfact>
</mgrwt>
</event>
<event>
 4    1  0.3876841E+000  0.2297728E+03  0.7546771E-02  0.1126800E+00
         21   -1    0    0  501  502  0.00000000000E+00  0.00000000000E+00  0.28116627939E+03  0.28116627939E+03  0.00000000000E+00 0. -1.
         21   -1    0    0  502  503 -0.00000000000E+00 -0.00000000000E+00 -0.19227683068E+03  0.19227683068E+03  0.00000000000E+00 0. -1.
          6    1    1    2  501    0  0.71704295676E+02 -0.13313535474E+03  0.82163021439E+01  0.22991963014E+03  0.17300000000E+03 0. -1.
         -6    1    1    2    0  503 -0.71704295676E+02  0.13313535474E+03  0.80673146571E+02  0.24352347993E+03  0.17300000000E+03 0. -1.
<mgrwt>
<rscale>  2 0.22977278E+03</rscale>
<asrwt>0</asrwt>
<pdfrwt beam="1">  1       21 0.43256351E-01 0.22977278E+03</pdfrwt>
<pdfrwt beam="2">  1       21 0.29581051E-01 0.22977278E+03</pdfrwt>
<totfact> 0.55336365E+04</totfact>
</mgrwt>
</event>
<event>
 4    1  0.3876841E+000  0.1740209E+03  0.7546771E-02  0.1173718E+00
         21   -1    0    0  503  502  0.00000000000E+00  0.00000000000E+00  0.35530846227E+03  0.35530846227E+03  0.00000000000E+00 0. -1.
         21   -1    0    0  501  503 -0.00000000000E+00 -0.00000000000E+00 -0.16707603651E+03  0.16707603651E+03  0.00000000000E+00 0. -1.
          6    1    1    2  501    0 -0.10854102447E+02  0.15377292042E+02 -0.88693618420E+02  0.19531981620E+03  0.17300000000E+03 0. -1.
         -6    1    1    2    0  502  0.10854102447E+02 -0.15377292042E+02  0.27692604418E+03  0.32706468258E+03  0.17300000000E+03 0. -1.
<mgrwt>
<rscale>  2 0.17402090E+03</rscale>
<asrwt>0</asrwt>
<pdfrwt beam="1">  1       21 0.54662840E-01 0.17402090E+03</pdfrwt>
<pdfrwt beam="2">  1       21 0.25704006E-01 0.17402090E+03</pdfrwt>
<totfact> 0.45805583E+04</totfact>
</mgrwt>
</event>
<event>
 4    1  0.3876841E+000  0.1942997E+03  0.7546771E-02  0.1154639E+00
         21   -1    0    0  503  502  0.00000000000E+00  0.00000000000E+00  0.93313003036E+02  0.93313003036E+02  0.00000000000E+00 0. -1.
         21   -1    0    0  501  503 -0.00000000000E+00 -0.00000000000E+00 -0.54406181233E+03  0.54406181233E+03  0.00000000000E+00 0. -1.
          6    1    1    2  501    0  0.77690582532E+02  0.42279564086E+02 -0.38673693141E+03  0.43280231315E+03  0.17300000000E+03 0. -1.
         -6    1    1    2    0  502 -0.77690582532E+02 -0.42279564086E+02 -0.64011877889E+02  0.20457250222E+03  0.17300000000E+03 0. -1.
<mgrwt>
<rscale>  2 0.19429974E+03</rscale>
<asrwt>0</asrwt>
<pdfrwt beam="1">  1       21 0.14355846E-01 0.19429974E+03</pdfrwt>
<pdfrwt beam="2">  1       21 0.83701819E-01 0.19429974E+03</pdfrwt>
<totfact> 0.52690698E+04</totfact>
</mgrwt>
</event>
<event>
 4    1  0.3876841E+000  0.1895012E+03  0.7546771E-02  0.1158912E+00
         21   -1    0    0  503  502  0.00000000000E+00  0.00000000000E+00  0.18766773851E+04  0.18766773851E+04  0.00000000000E+00 0.  1.
         21   -1    0    0  501  503 -0.00000000000E+00 -0.00000000000E+00 -0.25942823763E+02  0.25942823763E+02  0.00000000000E+00 0. -1.
          6    1    1    2  501    0 -0.62142806894E+02  0.46043103908E+02  0.43805250344E+03  0.47728470710E+03  0.17300000000E+03 0. -1.
         -6    1    1    2    0  502  0.62142806894E+02 -0.46043103908E+02  0.14126820579E+04  0.14253355017E+04  0.17300000000E+03 0.  1.
<mgrwt>
<rscale>  2 0.18950118E+03</rscale>
<asrwt>0</asrwt>
<pdfrwt beam="1">  1       21 0.28871949E+00 0.18950118E+03</pdfrwt>
<pdfrwt beam="2">  1       21 0.39912051E-02 0.18950118E+03</pdfrwt>
<totfact> 0.15639893E+04</totfact>
</mgrwt>
</event>
<event>
 4    1  0.3876841E+000  0.1740820E+03  0.7546771E-02  0.1173657E+00
         21   -1    0    0  503  502  0.00000000000E+00  0.00000000000E+00  0.95840565086E+02  0.95840565086E+02  0.00000000000E+00 0. -1.
         21   -1    0    0  501  503 -0.00000000000E+00 -0.00000000000E+00 -0.34592911473E+03  0.34592911473E+03  0.00000000000E+00 0. -1.
          6    1    1    2  501    0 -0.49089866806E+01 -0.18746514340E+02 -0.18980070591E+03  0.25754385629E+03  0.17300000000E+03 0.  1.
         -6    1    1    2    0  502  0.49089866806E+01  0.18746514340E+02 -0.60287843731E+02  0.18422582352E+03  0.17300000000E+03 0.  1.
<mgrwt>
<rscale>  2 0.17408196E+03</rscale>
<asrwt>0</asrwt>
<pdfrwt beam="1">  1       21 0.14744703E-01 0.17408196E+03</pdfrwt>
<pdfrwt beam="2">  1       21 0.53219863E-01 0.17408196E+03</pdfrwt>
<totfact> 0.13618476E+05</totfact>
</mgrwt>
</event>
<event>
 4    1  0.3876841E+000  0.2167775E+03  0.7546771E-02  0.1136309E+00
         21   -1    0    0  501  502  0.00000000000E+00  0.00000000000E+00  0.15857035672E+04  0.15857035672E+04  0.00000000000E+00 0. -1.
         21   -1    0    0  502  503 -0.00000000000E+00 -0.00000000000E+00 -0.10386940714E+03  0.10386940714E+03  0.00000000000E+00 0.  1.
          6    1    1    2  501    0  0.48101424234E+02  0.12144843497E+03  0.14550934694E+04  0.14711524306E+04  0.17300000000E+03 0. -1.
         -6    1    1    2    0  503 -0.48101424234E+02 -0.12144843497E+03  0.26740690607E+02  0.21842054369E+03  0.17300000000E+03 0.  1.
<mgrwt>
<rscale>  2 0.21677747E+03</rscale>
<asrwt>0</asrwt>
<pdfrwt beam="1">  1       21 0.24395438E+00 0.21677747E+03</pdfrwt>
<pdfrwt beam="2">  1       21 0.15979910E-01 0.21677747E+03</pdfrwt>
<totfact> 0.24589431E+03</totfact>
</mgrwt>
</event>
<event>
 4    1  0.3876841E+000  0.2432971E+03  0.7546771E-02  0.1117616E+00
         21   -1    0    0  503  502  0.00000000000E+00  0.00000000000E+00  0.18298615106E+03  0.18298615106E+03  0.00000000000E+00 0. -1.
         21   -1    0    0  501  503 -0.00000000000E+00 -0.00000000000E+00 -0.34382520832E+03  0.34382520832E+03  0.00000000000E+00 0.  1.
          6    1    1    2  501    0  0.11765610765E+03  0.12418331609E+03 -0.14448491359E+03  0.28296527334E+03  0.17300000000E+03 0.  1.
         -6    1    1    2    0  502 -0.11765610765E+03 -0.12418331609E+03 -0.16354143677E+02  0.24384608604E+03  0.17300000000E+03 0. -1.
<mgrwt>
<rscale>  2 0.24329705E+03</rscale>
<asrwt>0</asrwt>
<pdfrwt beam="1">  1       21 0.28151716E-01 0.24329705E+03</pdfrwt>
<pdfrwt beam="2">  1       21 0.52896185E-01 0.24329705E+03</pdfrwt>
<totfact> 0.39857789E+04</totfact>
</mgrwt>
</event>
<event>
 4    1  0.3876841E+000  0.2099857E+03  0.7546771E-02  0.1141577E+00
         21   -1    0    0  503  502  0.00000000000E+00  0.00000000000E+00  0.96611790847E+03  0.96611790847E+03  0.00000000000E+00 0. -1.
         21   -1    0    0  501  503 -0.00000000000E+00 -0.00000000000E+00 -0.64465129477E+02  0.64465129477E+02  0.00000000000E+00 0. -1.
          6    1    1    2  501    0  0.41121985620E+02  0.11168699726E+03  0.17237140695E+03  0.27167242221E+03  0.17300000000E+03 0. -1.
         -6    1    1    2    0  502 -0.41121985620E+02 -0.11168699726E+03  0.72928137204E+03  0.75891061573E+03  0.17300000000E+03 0. -1.
<mgrwt>
<rscale>  2 0.20998572E+03</rscale>
<asrwt>0</asrwt>
<pdfrwt beam="1">  1       21 0.14863351E+00 0.20998572E+03</pdfrwt>
<pdfrwt beam="2">  1       21 0.99177129E-02 0.20998572E+03</pdfrwt>
<totfact> 0.24932564E+04</totfact>
</mgrwt>
</event>
<event>
 4    1  0.3876841E+000  0.2660414E+03  0.7546771E-02  0.1103567E+00
         21   -1    0    0  503  502  0.00000000000E+00  0.00000000000E+00  0.30782116102E+03  0.30782116102E+03  0.00000000000E+00 0.  1.
         21   -1    0    0  501  503 -0.00000000000E+00 -0.00000000000E+00 -0.26268064077E+03  0.26268064077E+03  0.00000000000E+00 0. -1.
          6    1    1    2  501    0  0.15067037612E+03 -0.13471247039E+03 -0.78147945131E+02  0.27728164967E+03  0.17300000000E+03 0. -1.
         -6    1    1    2    0  502 -0.15067037612E+03  0.13471247039E+03  0.12328846538E+03  0.29322015212E+03  0.17300000000E+03 0.  1.
<mgrwt>
<rscale>  2 0.26604137E+03</rscale>
<asrwt>0</asrwt>
<pdfrwt beam="1">  1       21 0.47357102E-01 0.26604137E+03</pdfrwt>
<pdfrwt beam="2">  1       21 0.40412406E-01 0.26604137E+03</pdfrwt>
<totfact> 0.24247520E+04</totfact>
</mgrwt>
</event>
<event>
 4    1  0.3876841E+000  0.1735604E+03  0.7546771E-02  0.1174185E+00
         21   -1    0    0  503  502  0.00000000000E+00  0.00000000000E+00  0.15131441723E+04  0.15131441723E+04  0.00000000000E+00 0. -1.
         21   -1    0    0  501  503 -0.00000000000E+00 -0.00000000000E+00 -0.19916147666E+02  0.19916147666E+02  0.00000000000E+00 0. -1.
          6    1    1    2  501    0  0.45894282495E+01  0.13158002337E+02  0.73081214448E+03  0.75113885960E+03  0.17300000000E+03 0. -1.
         -6    1    1    2    0  502 -0.45894282495E+01 -0.13158002337E+02  0.76241588020E+03  0.78192146041E+03  0.17300000000E+03 0. -1.
<mgrwt>
<rscale>  2 0.17356035E+03</rscale>
<asrwt>0</asrwt>
<pdfrwt beam="1">  1       21 0.23279132E+00 0.17356035E+03</pdfrwt>
<pdfrwt beam="2">  1       21 0.30640239E-02 0.17356035E+03</pdfrwt>
<totfact> 0.52141424E+04</totfact>
</mgrwt>
</event>
<event>
 4    1  0.3876841E+000  0.1779409E+03  0.7546771E-02  0.1169811E+00
         21   -1    0    0  503  502  0.00000000000E+00  0.00000000000E+00  0.18417548022E+03  0.18417548022E+03  0.00000000000E+00 0.  1.
         21   -1    0    0  501  503 -0.00000000000E+00 -0.00000000000E+00 -0.64786670558E+03  0.64786670558E+03  0.00000000000E+00 0.  1.
          6    1    1    2  501    0  0.40015498530E+02  0.11520451912E+02 -0.58842225419E+03  0.61473873326E+03  0.17300000000E+03 0.  1.
         -6    1    1    2    0  502 -0.40015498530E+02 -0.11520451912E+02  0.12473102883E+03  0.21730345255E+03  0.17300000000E+03 0.  1.
<mgrwt>
<rscale>  2 0.17794089E+03</rscale>
<asrwt>0</asrwt>
<pdfrwt beam="1">  1       21 0.28334689E-01 0.17794089E+03</pdfrwt>
<pdfrwt beam="2">  1       21 0.99671802E-01 0.17794089E+03</pdfrwt>
<totfact> 0.99555471E+03</totfact>
</mgrwt>
</event>
<event>
 4    1  0.3876841E+000  0.1790463E+03  0.7546771E-02  0.1168729E+00
         21   -1    0    0  501  502  0.00000000000E+00  0.00000000000E+00  0.98115277307E+03  0.98115277307E+03  0.00000000000E+00 0.  1.
         21   -1    0    0  502  503 -0.00000000000E+00 -0.00000000000E+00 -0.33775095644E+02  0.33775095644E+02  0.00000000000E+00 0.  1.
          6    1    1    2  501    0  0.19540369330E+02 -0.41794111505E+02  0.38203674927E+03  0.42191190026E+03  0.17300000000E+03 0.  1.
         -6    1    1    2    0  503 -0.19540369330E+02  0.41794111505E+02  0.56534092816E+03  0.59301596845E+03  0.17300000000E+03 0.  1.
<mgrwt>
<rscale>  2 0.17904629E+03</rscale>
<asrwt>0</asrwt>
<pdfrwt beam="1">  1       21 0.15094656E+00 0.17904629E+03</pdfrwt>
<pdfrwt beam="2">  1       21 0.51961693E-02 0.17904629E+03</pdfrwt>
<totfact> 0.74601618E+04</totfact>
</mgrwt>
</event>
<event>
 4    1  0.3876841E+000  0.1986911E+03  0.7546771E-02  0.1150848E+00
         21   -1    0    0  503  502  0.00000000000E+00  0.00000000000E+00  0.29199246285E+03  0.29199246285E+03  0.00000000000E+00 0. -1.
         21   -1    0    0  501  503 -0.00000000000E+00 -0.00000000000E+00 -0.13526963519E+03  0.13526963519E+03  0.00000000000E+00 0. -1.
          6    1    1    2  501    0  0.58017361394E+02 -0.78632956770E+02  0.83115188218E+02  0.21537476785E+03  0.17300000000E+03 0. -1.
         -6    1    1    2    0  502 -0.58017361394E+02  0.78632956770E+02  0.73607639438E+02  0.21188733020E+03  0.17300000000E+03 0. -1.
<mgrwt>
<rscale>  2 0.19869111E+03</rscale>
<asrwt>0</asrwt>
<pdfrwt beam="1">  1       21 0.44921917E-01 0.19869111E+03</pdfrwt>
<pdfrwt beam="2">  1       21 0.20810713E-01 0.19869111E+03</pdfrwt>
<totfact> 0.10166058E+05</totfact>
</mgrwt>
</event>
<event>
 4    1  0.3876841E+000  0.2125423E+03  0.7546771E-02  0.1139568E+00
         21   -1    0    0  501  502  0.00000000000E+00  0.00000000000E+00  0.59793967443E+03  0.59793967443E+03  0.00000000000E+00 0. -1.
         21   -1    0    0  502  503 -0.00000000000E+00 -0.00000000000E+00 -0.18921058138E+03  0.18921058138E+03  0.00000000000E+00 0.  1.
          6    1    1    2  501    0  0.88689645008E+02 -0.85903308063E+02  0.50940695848E+03  0.55196891290E+03  0.17300000000E+03 0. -1.
         -6    1    1    2    0  503 -0.88689645008E+02  0.85903308063E+02 -0.10067786543E+03  0.23518134291E+03  0.17300000000E+03 0.  1.
<mgrwt>
<rscale>  2 0.21254231E+03</rscale>
<asrwt>0</asrwt>
<pdfrwt beam="1">  1       21 0.91990718E-01 0.21254231E+03</pdfrwt>
<pdfrwt beam="2">  1       21 0.29109321E-01 0.21254231E+03</pdfrwt>
<totfact> 0.11133359E+04</totfact>
</mgrwt>
</event>
<event>
 4    1  0.3876841E+000  0.1851187E+03  0.7546771E-02  0.1162939E+00
         21   -1    0    0  501  502  0.00000000000E+00  0.00000000000E+00  0.27187641974E+03  0.27187641974E+03  0.00000000000E+00 0.  1.
         21   -1    0    0  502  503 -0.00000000000E+00 -0.00000000000E+00 -0.15866603364E+03  0.15866603364E+03  0.00000000000E+00 0. -1.
          6    1    1    2  501    0  0.63557503253E+02  0.17331133710E+02  0.15421343021E+03  0.24093714216E+03  0.17300000000E+03 0.  1.
         -6    1    1    2    0  503 -0.63557503253E+02 -0.17331133710E+02 -0.41003044111E+02  0.18960531122E+03  0.17300000000E+03 0.  1.
<mgrwt>
<rscale>  2 0.18511868E+03</rscale>
<asrwt>0</asrwt>
<pdfrwt beam="1">  1       21 0.41827141E-01 0.18511868E+03</pdfrwt>
<pdfrwt beam="2">  1       21 0.24410159E-01 0.18511868E+03</pdfrwt>
<totfact> 0.87480463E+04</totfact>
</mgrwt>
</event>
<event>
 4    1  0.3876841E+000  0.1770670E+03  0.7546771E-02  0.1170672E+00
         21   -1    0    0  501  502  0.00000000000E+00  0.00000000000E+00  0.20343738171E+03  0.20343738171E+03  0.00000000000E+00 0. -1.
         21   -1    0    0  502  503 -0.00000000000E+00 -0.00000000000E+00 -0.15411754185E+03  0.15411754185E+03  0.00000000000E+00 0. -1.
          6    1    1    2  501    0 -0.26220187694E+02 -0.27133753224E+02  0.23924617370E+02  0.17867603679E+03  0.17300000000E+03 0. -1.
         -6    1    1    2    0  503  0.26220187694E+02  0.27133753224E+02  0.25395222493E+02  0.17887888677E+03  0.17300000000E+03 0. -1.
<mgrwt>
<rscale>  2 0.17706705E+03</rscale>
<asrwt>0</asrwt>
<pdfrwt beam="1">  1       21 0.31298059E-01 0.17706705E+03</pdfrwt>
<pdfrwt beam="2">  1       21 0.23710391E-01 0.17706705E+03</pdfrwt>
<totfact> 0.16514603E+05</totfact>
</mgrwt>
</event>
<event>
 4    1  0.3876841E+000  0.1778194E+03  0.7546771E-02  0.1169930E+00
         21   -1    0    0  501  502  0.00000000000E+00  0.00000000000E+00  0.14470218602E+04  0.14470218602E+04  0.00000000000E+00 0.  1.
         21   -1    0    0  502  503 -0.00000000000E+00 -0.00000000000E+00 -0.33398580365E+02  0.33398580365E+02  0.00000000000E+00 0.  1.
          6    1    1    2  501    0 -0.34914655829E+02  0.21719187826E+02  0.11420479430E+04  0.11558084878E+04  0.17300000000E+03 0.  1.
         -6    1    1    2    0  503  0.34914655829E+02 -0.21719187826E+02  0.27157533681E+03  0.32461195276E+03  0.17300000000E+03 0.  1.
<mgrwt>
<rscale>  2 0.17781945E+03</rscale>
<asrwt>0</asrwt>
<pdfrwt beam="1">  1       21 0.22261870E+00 0.17781945E+03</pdfrwt>
<pdfrwt beam="2">  1       21 0.51382442E-02 0.17781945E+03</pdfrwt>
<totfact> 0.25197237E+04</totfact>
</mgrwt>
</event>
<event>
 4    1  0.3876841E+000  0.1731852E+03  0.7546771E-02  0.1174566E+00
         21   -1    0    0  501  502  0.00000000000E+00  0.00000000000E+00  0.76808205895E+03  0.76808205895E+03  0.00000000000E+00 0. -1.
         21   -1    0    0  502  503 -0.00000000000E+00 -0.00000000000E+00 -0.40810309510E+02  0.40810309510E+02  0.00000000000E+00 0. -1.
          6    1    1    2  501    0  0.78183324585E+01  0.17242215656E+01  0.44764982941E+03  0.47998277994E+03  0.17300000000E+03 0.  1.
         -6    1    1    2    0  503 -0.78183324585E+01 -0.17242215656E+01  0.27962192002E+03  0.32890958852E+03  0.17300000000E+03 0.  1.
<mgrwt>
<rscale>  2 0.17318516E+03</rscale>
<asrwt>0</asrwt>
<pdfrwt beam="1">  1       21 0.11816646E+00 0.17318516E+03</pdfrwt>
<pdfrwt beam="2">  1       21 0.62785098E-02 0.17318516E+03</pdfrwt>
<totfact> 0.10093026E+05</totfact>
</mgrwt>
</event>
<event>
 4    1  0.3876841E+000  0.1821188E+03  0.7546771E-02  0.1165768E+00
         21   -1    0    0  501  502  0.00000000000E+00  0.00000000000E+00  0.15235921303E+02  0.15235921303E+02  0.00000000000E+00 0. -1.
         21   -1    0    0  502  503 -0.00000000000E+00 -0.00000000000E+00 -0.24078636160E+04  0.24078636160E+04  0.00000000000E+00 0. -1.
          6    1    1    2  501    0 -0.84883406393E+01  0.56269058625E+02 -0.82109393033E+03  0.84104845360E+03  0.17300000000E+03 0. -1.
         -6    1    1    2    0  503  0.84883406393E+01 -0.56269058625E+02 -0.15715337643E+04  0.15820510837E+04  0.17300000000E+03 0. -1.
<mgrwt>
<rscale>  2 0.18211880E+03</rscale>
<asrwt>0</asrwt>
<pdfrwt beam="1">  1       21 0.23439863E-02 0.18211880E+03</pdfrwt>
<pdfrwt beam="2">  1       21 0.37044081E+00 0.18211880E+03</pdfrwt>
<totfact> 0.12714774E+04</totfact>
</mgrwt>
</event>
<event>
 4    1  0.3876841E+000  0.1826363E+03  0.7546771E-02  0.1165276E+00
         21   -1    0    0  501  502  0.00000000000E+00  0.00000000000E+00  0.43233815281E+03  0.43233815281E+03  0.00000000000E+00 0.  1.
         21   -1    0    0  502  503 -0.00000000000E+00 -0.00000000000E+00 -0.77926017684E+02  0.77926017684E+02  0.00000000000E+00 0.  1.
          6    1    1    2  501    0 -0.57063032311E+02 -0.13069623148E+02  0.15178838260E+03  0.23747782591E+03  0.17300000000E+03 0. -1.
         -6    1    1    2    0  503  0.57063032311E+02  0.13069623148E+02  0.20262375253E+03  0.27278634459E+03  0.17300000000E+03 0. -1.
<mgrwt>
<rscale>  2 0.18263626E+03</rscale>
<asrwt>0</asrwt>
<pdfrwt beam="1">  1       21 0.66513561E-01 0.18263626E+03</pdfrwt>
<pdfrwt beam="2">  1       21 0.11988618E-01 0.18263626E+03</pdfrwt>
<totfact> 0.12228065E+05</totfact>
</mgrwt>
</event>
<event>
 4    1  0.3876841E+000  0.2204305E+03  0.7546771E-02  0.1133563E+00
         21   -1    0    0  501  502  0.00000000000E+00  0.00000000000E+00  0.38193409761E+03  0.38193409761E+03  0.00000000000E+00 0. -1.
         21   -1    0    0  502  503 -0.00000000000E+00 -0.00000000000E+00 -0.13495154622E+03  0.13495154622E+03  0.00000000000E+00 0. -1.
          6    1    1    2  501    0 -0.11137002034E+03 -0.79103249842E+02  0.18535163260E+03  0.28800144665E+03  0.17300000000E+03 0. -1.
         -6    1    1    2    0  503  0.11137002034E+03  0.79103249842E+02  0.61630918798E+02  0.22888419718E+03  0.17300000000E+03 0. -1.
<mgrwt>
<rscale>  2 0.22043050E+03</rscale>
<asrwt>0</asrwt>
<pdfrwt beam="1">  1       21 0.58759092E-01 0.22043050E+03</pdfrwt>
<pdfrwt beam="2">  1       21 0.20761776E-01 0.22043050E+03</pdfrwt>
<totfact> 0.57586989E+04</totfact>
</mgrwt>
</event>
<event>
 4    1  0.3876841E+000  0.1864780E+03  0.7546771E-02  0.1161677E+00
         21   -1    0    0  501  502  0.00000000000E+00  0.00000000000E+00  0.97641805589E+02  0.97641805589E+02  0.00000000000E+00 0. -1.
         21   -1    0    0  502  503 -0.00000000000E+00 -0.00000000000E+00 -0.42285068340E+03  0.42285068340E+03  0.00000000000E+00 0.  1.
          6    1    1    2  501    0  0.26987168065E+02 -0.64161850818E+02 -0.26597385377E+03  0.32483248179E+03  0.17300000000E+03 0.  1.
         -6    1    1    2    0  503 -0.26987168065E+02  0.64161850818E+02 -0.59235024038E+02  0.19566000719E+03  0.17300000000E+03 0. -1.
<mgrwt>
<rscale>  2 0.18647802E+03</rscale>
<asrwt>0</asrwt>
<pdfrwt beam="1">  1       21 0.15021816E-01 0.18647802E+03</pdfrwt>
<pdfrwt beam="2">  1       21 0.65053950E-01 0.18647802E+03</pdfrwt>
<totfact> 0.85330732E+04</totfact>
</mgrwt>
</event>
<event>
 4    1  0.3876841E+000  0.1823101E+03  0.7546771E-02  0.1165586E+00
         21   -1    0    0  501  502  0.00000000000E+00  0.00000000000E+00  0.82593468940E+02  0.82593468940E+02  0.00000000000E+00 0. -1.
         21   -1    0    0  502  503 -0.00000000000E+00 -0.00000000000E+00 -0.40373328528E+03  0.40373328528E+03  0.00000000000E+00 0. -1.
          6    1    1    2  501    0  0.50264694158E+02  0.27954123413E+02 -0.17445704647E+03  0.25233357596E+03  0.17300000000E+03 0. -1.
         -6    1    1    2    0  503 -0.50264694158E+02 -0.27954123413E+02 -0.14668276987E+03  0.23399317826E+03  0.17300000000E+03 0. -1.
<mgrwt>
<rscale>  2 0.18231010E+03</rscale>
<asrwt>0</asrwt>
<pdfrwt beam="1">  1       21 0.12706688E-01 0.18231010E+03</pdfrwt>
<pdfrwt beam="2">  1       21 0.62112813E-01 0.18231010E+03</pdfrwt>
<totfact> 0.12783885E+05</totfact>
</mgrwt>
</event>
<event>
 4    1  0.3876841E+000  0.2019760E+03  0.7546771E-02  0.1148083E+00
         21   -1    0    0  501  502  0.00000000000E+00  0.00000000000E+00  0.91018811854E+02  0.91018811854E+02  0.00000000000E+00 0.  1.
         21   -1    0    0  502  503 -0.00000000000E+00 -0.00000000000E+00 -0.44883679817E+03  0.44883679817E+03  0.00000000000E+00 0.  1.
          6    1    1    2  501    0  0.15130051860E+02  0.10313282007E+03 -0.16871243448E+03  0.26316949404E+03  0.17300000000E+03 0.  1.
         -6    1    1    2    0  503 -0.15130051860E+02 -0.10313282007E+03 -0.18910555184E+03  0.27668611599E+03  0.17300000000E+03 0.  1.
<mgrwt>
<rscale>  2 0.20197598E+03</rscale>
<asrwt>0</asrwt>
<pdfrwt beam="1">  1       21 0.14002894E-01 0.20197598E+03</pdfrwt>
<pdfrwt beam="2">  1       21 0.69051815E-01 0.20197598E+03</pdfrwt>
<totfact> 0.84526513E+04</totfact>
</mgrwt>
</event>
<event>
 4    1  0.3876841E+000  0.2310854E+03  0.7546771E-02  0.1125878E+00
         21   -1    0    0  503  502  0.00000000000E+00  0.00000000000E+00  0.14105001113E+03  0.14105001113E+03  0.00000000000E+00 0.  1.
         21   -1    0    0  501  503 -0.00000000000E+00 -0.00000000000E+00 -0.37941122290E+03  0.37941122290E+03  0.00000000000E+00 0.  1.
          6    1    1    2  501    0  0.30946779314E+02 -0.15004579924E+03 -0.10709048460E+03  0.25469357454E+03  0.17300000000E+03 0.  1.
         -6    1    1    2    0  502 -0.30946779314E+02  0.15004579924E+03 -0.13127072718E+03  0.26576765949E+03  0.17300000000E+03 0.  1.
<mgrwt>
<rscale>  2 0.23108536E+03</rscale>
<asrwt>0</asrwt>
<pdfrwt beam="1">  1       21 0.21700002E-01 0.23108536E+03</pdfrwt>
<pdfrwt beam="2">  1       21 0.58370957E-01 0.23108536E+03</pdfrwt>
<totfact> 0.53496704E+04</totfact>
</mgrwt>
</event>
<event>
 4    1  0.3876841E+000  0.2330757E+03  0.7546771E-02  0.1124493E+00
         21   -1    0    0  503  502  0.00000000000E+00  0.00000000000E+00  0.30679932504E+03  0.30679932504E+03  0.00000000000E+00 0.  1.
         21   -1    0    0  501  503 -0.00000000000E+00 -0.00000000000E+00 -0.46474711121E+03  0.46474711121E+03  0.00000000000E+00 0.  1.
          6    1    1    2  501    0 -0.15351114825E+03 -0.28803160359E+02 -0.38248738914E+03  0.44790724211E+03  0.17300000000E+03 0.  1.
         -6    1    1    2    0  502  0.15351114825E+03  0.28803160359E+02  0.22453960296E+03  0.32363919414E+03  0.17300000000E+03 0.  1.
<mgrwt>
<rscale>  2 0.23307573E+03</rscale>
<asrwt>0</asrwt>
<pdfrwt beam="1">  1       21 0.47199896E-01 0.23307573E+03</pdfrwt>
<pdfrwt beam="2">  1       21 0.71499555E-01 0.23307573E+03</pdfrwt>
<totfact> 0.73862027E+03</totfact>
</mgrwt>
</event>
<event>
 4    1  0.3876841E+000  0.3304721E+03  0.7546771E-02  0.1070928E+00
         21   -1    0    0  503  502  0.00000000000E+00  0.00000000000E+00  0.10652083321E+04  0.10652083321E+04  0.00000000000E+00 0. -1.
         21   -1    0    0  501  503 -0.00000000000E+00 -0.00000000000E+00 -0.17790602266E+03  0.17790602266E+03  0.00000000000E+00 0.  1.
          6    1    1    2  501    0  0.86158699994E+02  0.26806622724E+03  0.39063012193E+02  0.33277280943E+03  0.17300000000E+03 0.  1.
         -6    1    1    2    0  502 -0.86158699994E+02 -0.26806622724E+03  0.84823929729E+03  0.91034154538E+03  0.17300000000E+03 0. -1.
<mgrwt>
<rscale>  2 0.33047212E+03</rscale>
<asrwt>0</asrwt>
<pdfrwt beam="1">  1       21 0.16387820E+00 0.33047212E+03</pdfrwt>
<pdfrwt beam="2">  1       21 0.27370158E-01 0.33047212E+03</pdfrwt>
<totfact> 0.27212661E+03</totfact>
</mgrwt>
</event>
<event>
 4    1  0.3876841E+000  0.2516719E+03  0.7546771E-02  0.1112253E+00
         21   -1    0    0  501  502  0.00000000000E+00  0.00000000000E+00  0.53229740748E+03  0.53229740748E+03  0.00000000000E+00 0. -1.
         21   -1    0    0  502  503 -0.00000000000E+00 -0.00000000000E+00 -0.11911104679E+03  0.11911104679E+03  0.00000000000E+00 0. -1.
          6    1    1    2  501    0 -0.16353066355E+03 -0.81654618982E+02  0.19626559010E+03  0.31915346870E+03  0.17300000000E+03 0. -1.
         -6    1    1    2    0  503  0.16353066355E+03  0.81654618982E+02  0.21692077059E+03  0.33225498557E+03  0.17300000000E+03 0. -1.
<mgrwt>
<rscale>  2 0.25167192E+03</rscale>
<asrwt>0</asrwt>
<pdfrwt beam="1">  1       21 0.81891908E-01 0.25167192E+03</pdfrwt>
<pdfrwt beam="2">  1       21 0.18324777E-01 0.25167192E+03</pdfrwt>
<totfact> 0.34413131E+04</totfact>
</mgrwt>
</event>
<event>
 4    1  0.3876841E+000  0.2396440E+03  0.7546771E-02  0.1120030E+00
         21   -1    0    0  503  502  0.00000000000E+00  0.00000000000E+00  0.20251934635E+03  0.20251934635E+03  0.00000000000E+00 0.  1.
         21   -1    0    0  501  503 -0.00000000000E+00 -0.00000000000E+00 -0.28378410923E+03  0.28378410923E+03  0.00000000000E+00 0.  1.
          6    1    1    2  501    0 -0.23173175864E+02  0.16420487551E+03 -0.34017475026E+02  0.24204632992E+03  0.17300000000E+03 0.  1.
         -6    1    1    2    0  502  0.23173175864E+02 -0.16420487551E+03 -0.47247287855E+02  0.24425712565E+03  0.17300000000E+03 0.  1.
<mgrwt>
<rscale>  2 0.23964398E+03</rscale>
<asrwt>0</asrwt>
<pdfrwt beam="1">  1       21 0.31156823E-01 0.23964398E+03</pdfrwt>
<pdfrwt beam="2">  1       21 0.43659094E-01 0.23964398E+03</pdfrwt>
<totfact> 0.48839026E+04</totfact>
</mgrwt>
</event>
<event>
 4    1  0.3876841E+000  0.1764146E+03  0.7546771E-02  0.1171319E+00
         21   -1    0    0  501  502  0.00000000000E+00  0.00000000000E+00  0.25090254983E+03  0.25090254983E+03  0.00000000000E+00 0. -1.
         21   -1    0    0  502  503 -0.00000000000E+00 -0.00000000000E+00 -0.76936319021E+03  0.76936319021E+03  0.00000000000E+00 0. -1.
          6    1    1    2  501    0 -0.13268286338E+02  0.31891317076E+02  0.20797312770E+03  0.27271766604E+03  0.17300000000E+03 0. -1.
         -6    1    1    2    0  503  0.13268286338E+02 -0.31891317076E+02 -0.72643376808E+03  0.74754807400E+03  0.17300000000E+03 0. -1.
<mgrwt>
<rscale>  2 0.17641458E+03</rscale>
<asrwt>0</asrwt>
<pdfrwt beam="1">  1       21 0.38600393E-01 0.17641458E+03</pdfrwt>
<pdfrwt beam="2">  1       21 0.11836357E+00 0.17641458E+03</pdfrwt>
<totfact> 0.35864353E+03</totfact>
</mgrwt>
</event>
<event>
 4    1  0.3876841E+000  0.2309060E+03  0.7546771E-02  0.1126004E+00
         21   -1    0    0  501  502  0.00000000000E+00  0.00000000000E+00  0.71601612002E+03  0.71601612002E+03  0.00000000000E+00 0.  1.
         21   -1    0    0  502  503 -0.00000000000E+00 -0.00000000000E+00 -0.22948611444E+03  0.22948611444E+03  0.00000000000E+00 0.  1.
          6    1    1    2  501    0 -0.44567410922E+02  0.14629527161E+03  0.63181858663E+03  0.67269033516E+03  0.17300000000E+03 0.  1.
         -6    1    1    2    0  503  0.44567410922E+02 -0.14629527161E+03 -0.14528858105E+03  0.27281189929E+03  0.17300000000E+03 0.  1.
<mgrwt>
<rscale>  2 0.23090596E+03</rscale>
<asrwt>0</asrwt>
<pdfrwt beam="1">  1       21 0.11015632E+00 0.23090596E+03</pdfrwt>
<pdfrwt beam="2">  1       21 0.35305556E-01 0.23090596E+03</pdfrwt>
<totfact> 0.48907199E+03</totfact>
</mgrwt>
</event>
<event>
 4    1  0.3876841E+000  0.1856978E+03  0.7546771E-02  0.1162400E+00
         21   -1    0    0  503  502  0.00000000000E+00  0.00000000000E+00  0.42549648496E+03  0.42549648496E+03  0.00000000000E+00 0. -1.
         21   -1    0    0  501  503 -0.00000000000E+00 -0.00000000000E+00 -0.50569933792E+03  0.50569933792E+03  0.00000000000E+00 0. -1.
          6    1    1    2  501    0 -0.63735146768E+02  0.22192731515E+02 -0.46676289738E+03  0.50234578592E+03  0.17300000000E+03 0. -1.
         -6    1    1    2    0  502  0.63735146768E+02 -0.22192731515E+02  0.38656004442E+03  0.42885003697E+03  0.17300000000E+03 0. -1.
<mgrwt>
<rscale>  2 0.18569784E+03</rscale>
<asrwt>0</asrwt>
<pdfrwt beam="1">  1       21 0.65460998E-01 0.18569784E+03</pdfrwt>
<pdfrwt beam="2">  1       21 0.77799898E-01 0.18569784E+03</pdfrwt>
<totfact> 0.31619725E+03</totfact>
</mgrwt>
</event>
<event>
 4    1  0.3876841E+000  0.1830322E+03  0.7546771E-02  0.1164900E+00
         21   -1    0    0  501  502  0.00000000000E+00  0.00000000000E+00  0.22573967681E+02  0.22573967681E+02  0.00000000000E+00 0. -1.
         21   -1    0    0  502  503 -0.00000000000E+00 -0.00000000000E+00 -0.16678820036E+04  0.16678820036E+04  0.00000000000E+00 0. -1.
          6    1    1    2  501    0  0.28243837767E+02  0.52669434191E+02 -0.54204108468E+03  0.57210953597E+03  0.17300000000E+03 0. -1.
         -6    1    1    2    0  503 -0.28243837767E+02 -0.52669434191E+02 -0.11032669513E+04  0.11183464353E+04  0.17300000000E+03 0. -1.
<mgrwt>
<rscale>  2 0.18303219E+03</rscale>
<asrwt>0</asrwt>
<pdfrwt beam="1">  1       21 0.34729176E-02 0.18303219E+03</pdfrwt>
<pdfrwt beam="2">  1       21 0.25659727E+00 0.18303219E+03</pdfrwt>
<totfact> 0.30433087E+04</totfact>
</mgrwt>
</event>
<event>
 4    1  0.3876841E+000  0.1847556E+03  0.7546771E-02  0.1163278E+00
         21   -1    0    0  501  502  0.00000000000E+00  0.00000000000E+00  0.21755295945E+03  0.21755295945E+03  0.00000000000E+00 0. -1.
         21   -1    0    0  502  503 -0.00000000000E+00 -0.00000000000E+00 -0.20405787133E+03  0.20405787133E+03  0.00000000000E+00 0. -1.
          6    1    1    2  501    0 -0.56625010719E+02  0.31610613185E+02  0.10808506120E+03  0.21404906718E+03  0.17300000000E+03 0. -1.
         -6    1    1    2    0  503  0.56625010719E+02 -0.31610613185E+02 -0.94589973079E+02  0.20756176361E+03  0.17300000000E+03 0. -1.
<mgrwt>
<rscale>  2 0.18475558E+03</rscale>
<asrwt>0</asrwt>
<pdfrwt beam="1">  1       21 0.33469686E-01 0.18475558E+03</pdfrwt>
<pdfrwt beam="2">  1       21 0.31393519E-01 0.18475558E+03</pdfrwt>
<totfact> 0.84102002E+04</totfact>
</mgrwt>
</event>
<event>
 4    1  0.3876841E+000  0.1955945E+03  0.7546771E-02  0.1153510E+00
         21   -1    0    0  501  502  0.00000000000E+00  0.00000000000E+00  0.54131218871E+02  0.54131218871E+02  0.00000000000E+00 0. -1.
         21   -1    0    0  502  503 -0.00000000000E+00 -0.00000000000E+00 -0.70858878211E+03  0.70858878211E+03  0.00000000000E+00 0. -1.
          6    1    1    2  501    0  0.83615857434E+02  0.36559243866E+02 -0.34666044746E+03  0.39803348573E+03  0.17300000000E+03 0.  1.
         -6    1    1    2    0  503 -0.83615857434E+02 -0.36559243866E+02 -0.30779711578E+03  0.36468651525E+03  0.17300000000E+03 0.  1.
<mgrwt>
<rscale>  2 0.19559445E+03</rscale>
<asrwt>0</asrwt>
<pdfrwt beam="1">  1       21 0.83278809E-02 0.19559445E+03</pdfrwt>
<pdfrwt beam="2">  1       21 0.10901364E+00 0.19559445E+03</pdfrwt>
<totfact> 0.74581978E+04</totfact>
</mgrwt>
</event>
<event>
 4    1  0.3876841E+000  0.1855992E+03  0.7546771E-02  0.1162492E+00
         21   -1    0    0  503  502  0.00000000000E+00  0.00000000000E+00  0.13847798811E+03  0.13847798811E+03  0.00000000000E+00 0.  1.
         21   -1    0    0  501  503 -0.00000000000E+00 -0.00000000000E+00 -0.30739470420E+03  0.30739470420E+03  0.00000000000E+00 0.  1.
          6    1    1    2  501    0 -0.47088512189E+02  0.47965858674E+02 -0.18182936312E+03  0.25982488116E+03  0.17300000000E+03 0.  1.
         -6    1    1    2    0  502  0.47088512189E+02 -0.47965858674E+02  0.12912647027E+02  0.18604781114E+03  0.17300000000E+03 0.  1.
<mgrwt>
<rscale>  2 0.18559917E+03</rscale>
<asrwt>0</asrwt>
<pdfrwt beam="1">  1       21 0.21304306E-01 0.18559917E+03</pdfrwt>
<pdfrwt beam="2">  1       21 0.47291492E-01 0.18559917E+03</pdfrwt>
<totfact> 0.87962192E+04</totfact>
</mgrwt>
</event>
<event>
 4    1  0.3876841E+000  0.2180131E+03  0.7546771E-02  0.1135373E+00
         21   -1    0    0  503  502  0.00000000000E+00  0.00000000000E+00  0.56353793768E+03  0.56353793768E+03  0.00000000000E+00 0. -1.
         21   -1    0    0  501  503 -0.00000000000E+00 -0.00000000000E+00 -0.10463340133E+03  0.10463340133E+03  0.00000000000E+00 0.  1.
          6    1    1    2  501    0  0.13030045595E+03 -0.24949917142E+02  0.82328555731E+02  0.23304012160E+03  0.17300000000E+03 0.  1.
         -6    1    1    2    0  502 -0.13030045595E+03  0.24949917142E+02  0.37657598062E+03  0.43513121741E+03  0.17300000000E+03 0. -1.
<mgrwt>
<rscale>  2 0.21801309E+03</rscale>
<asrwt>0</asrwt>
<pdfrwt beam="1">  1       21 0.86698142E-01 0.21801309E+03</pdfrwt>
<pdfrwt beam="2">  1       21 0.16097447E-01 0.21801309E+03</pdfrwt>
<totfact> 0.38970484E+04</totfact>
</mgrwt>
</event>
<event>
 4    1  0.3876841E+000  0.2091815E+03  0.7546771E-02  0.1142216E+00
         21   -1    0    0  501  502  0.00000000000E+00  0.00000000000E+00  0.28470940536E+03  0.28470940536E+03  0.00000000000E+00 0.  1.
         21   -1    0    0  502  503 -0.00000000000E+00 -0.00000000000E+00 -0.23508063318E+03  0.23508063318E+03  0.00000000000E+00 0. -1.
          6    1    1    2  501    0 -0.83299339783E+02 -0.83000699924E+02  0.17773907627E+03  0.27449603901E+03  0.17300000000E+03 0.  1.
         -6    1    1    2    0  503  0.83299339783E+02  0.83000699924E+02 -0.12811030409E+03  0.24529399954E+03  0.17300000000E+03 0. -1.
<mgrwt>
<rscale>  2 0.20918149E+03</rscale>
<asrwt>0</asrwt>
<pdfrwt beam="1">  1       21 0.43801446E-01 0.20918149E+03</pdfrwt>
<pdfrwt beam="2">  1       21 0.36166252E-01 0.20918149E+03</pdfrwt>
<totfact> 0.36607717E+04</totfact>
</mgrwt>
</event>
<event>
 4    1  0.3876841E+000  0.2439703E+03  0.7546771E-02  0.1117176E+00
         21   -1    0    0  503  502  0.00000000000E+00  0.00000000000E+00  0.11034141362E+04  0.11034141362E+04  0.00000000000E+00 0.  1.
         21   -1    0    0  501  503 -0.00000000000E+00 -0.00000000000E+00 -0.63479031998E+02  0.63479031998E+02  0.00000000000E+00 0.  1.
          6    1    1    2  501    0  0.11468200472E+03  0.12822078032E+03  0.29383216709E+03  0.38191474590E+03  0.17300000000E+03 0.  1.
         -6    1    1    2    0  502 -0.11468200472E+03 -0.12822078032E+03  0.74610293708E+03  0.78497842227E+03  0.17300000000E+03 0.  1.
<mgrwt>
<rscale>  2 0.24397035E+03</rscale>
<asrwt>0</asrwt>
<pdfrwt beam="1">  1       21 0.16975601E+00 0.24397035E+03</pdfrwt>
<pdfrwt beam="2">  1       21 0.97660058E-02 0.24397035E+03</pdfrwt>
<totfact> 0.17521185E+04</totfact>
</mgrwt>
</event>
<event>
 4    1  0.3876841E+000  0.1731766E+03  0.7546771E-02  0.1174575E+00
         21   -1    0    0  501  502  0.00000000000E+00  0.00000000000E+00  0.14131226369E+03  0.14131226369E+03  0.00000000000E+00 0.  1.
         21   -1    0    0  502  503 -0.00000000000E+00 -0.00000000000E+00 -0.28949904798E+03  0.28949904798E+03  0.00000000000E+00 0.  1.
          6    1    1    2  501    0  0.37865594958E+01  0.68408874781E+01  0.37194410570E+02  0.17712583084E+03  0.17300000000E+03 0.  1.
         -6    1    1    2    0  503 -0.37865594958E+01 -0.68408874781E+01 -0.18538119487E+03  0.25368548083E+03  0.17300000000E+03 0.  1.
<mgrwt>
<rscale>  2 0.17317660E+03</rscale>
<asrwt>0</asrwt>
<pdfrwt beam="1">  1       21 0.21740349E-01 0.17317660E+03</pdfrwt>
<pdfrwt beam="2">  1       21 0.44538314E-01 0.17317660E+03</pdfrwt>
<totfact> 0.96264710E+04</totfact>
</mgrwt>
</event>
<event>
 4    1  0.3876841E+000  0.2173377E+03  0.7546771E-02  0.1135884E+00
         21   -1    0    0  503  502  0.00000000000E+00  0.00000000000E+00  0.14619600283E+04  0.14619600283E+04  0.00000000000E+00 0.  1.
         21   -1    0    0  501  503 -0.00000000000E+00 -0.00000000000E+00 -0.34403186061E+02  0.34403186061E+02  0.00000000000E+00 0.  1.
          6    1    1    2  501    0 -0.39019558419E+02  0.12563493582E+03  0.89833539034E+03  0.92425220398E+03  0.17300000000E+03 0.  1.
         -6    1    1    2    0  502  0.39019558419E+02 -0.12563493582E+03  0.52922145187E+03  0.57211101034E+03  0.17300000000E+03 0.  1.
<mgrwt>
<rscale>  2 0.21733767E+03</rscale>
<asrwt>0</asrwt>
<pdfrwt beam="1">  1       21 0.22491688E+00 0.21733767E+03</pdfrwt>
<pdfrwt beam="2">  1       21 0.52927990E-02 0.21733767E+03</pdfrwt>
<totfact> 0.22492401E+04</totfact>
</mgrwt>
</event>
<event>
 4    1  0.3876841E+000  0.1903801E+03  0.7546771E-02  0.1158119E+00
         21   -1    0    0  503  502  0.00000000000E+00  0.00000000000E+00  0.42946586944E+03  0.42946586944E+03  0.00000000000E+00 0.  1.
         21   -1    0    0  501  503 -0.00000000000E+00 -0.00000000000E+00 -0.13715860793E+03  0.13715860793E+03  0.00000000000E+00 0.  1.
          6    1    1    2  501    0  0.61044210171E+02 -0.50884068428E+02 -0.29567037303E+02  0.19266238271E+03  0.17300000000E+03 0.  1.
         -6    1    1    2    0  502 -0.61044210171E+02  0.50884068428E+02  0.32187429880E+03  0.37396209466E+03  0.17300000000E+03 0.  1.
<mgrwt>
<rscale>  2 0.19038010E+03</rscale>
<asrwt>0</asrwt>
<pdfrwt beam="1">  1       21 0.66071672E-01 0.19038010E+03</pdfrwt>
<pdfrwt beam="2">  1       21 0.21101325E-01 0.19038010E+03</pdfrwt>
<totfact> 0.43961635E+04</totfact>
</mgrwt>
</event>
<event>
 4    1  0.3876841E+000  0.3602656E+03  0.7546771E-02  0.1058479E+00
         21   -1    0    0  501  502  0.00000000000E+00  0.00000000000E+00  0.88756644193E+02  0.88756644193E+02  0.00000000000E+00 0. -1.
         21   -1    0    0  502  503 -0.00000000000E+00 -0.00000000000E+00 -0.14623605359E+04  0.14623605359E+04  0.00000000000E+00 0.  1.
          6    1    1    2  501    0  0.60198155928E+02  0.31022325784E+03 -0.69048433787E+03  0.77881956096E+03  0.17300000000E+03 0.  1.
         -6    1    1    2    0  503 -0.60198155928E+02 -0.31022325784E+03 -0.68311955379E+03  0.77229761909E+03  0.17300000000E+03 0. -1.
<mgrwt>
<rscale>  2 0.36026558E+03</rscale>
<asrwt>0</asrwt>
<pdfrwt beam="1">  1       21 0.13654869E-01 0.36026558E+03</pdfrwt>
<pdfrwt beam="2">  1       21 0.22497853E+00 0.36026558E+03</pdfrwt>
<totfact> 0.38625304E+03</totfact>
</mgrwt>
</event>
<event>
 4    1  0.3876841E+000  0.2883343E+03  0.7546771E-02  0.1091222E+00
         21   -1    0    0  501  502  0.00000000000E+00  0.00000000000E+00  0.42590431904E+03  0.42590431904E+03  0.00000000000E+00 0. -1.
         21   -1    0    0  502  503 -0.00000000000E+00 -0.00000000000E+00 -0.25447069738E+03  0.25447069738E+03  0.00000000000E+00 0.  1.
          6    1    1    2  501    0  0.19982045235E+03  0.11523663346E+03  0.24989596465E+03  0.38155561589E+03  0.17300000000E+03 0. -1.
         -6    1    1    2    0  503 -0.19982045235E+03 -0.11523663346E+03 -0.78462342998E+02  0.29881940053E+03  0.17300000000E+03 0.  1.
<mgrwt>
<rscale>  2 0.28833435E+03</rscale>
<asrwt>0</asrwt>
<pdfrwt beam="1">  1       21 0.65523741E-01 0.28833435E+03</pdfrwt>
<pdfrwt beam="2">  1       21 0.39149338E-01 0.28833435E+03</pdfrwt>
<totfact> 0.12780321E+04</totfact>
</mgrwt>
</event>
<event>
 4    1  0.3876841E+000  0.1783053E+03  0.7546771E-02  0.1169453E+00
         21   -1    0    0  503  502  0.00000000000E+00  0.00000000000E+00  0.25500168556E+03  0.25500168556E+03  0.00000000000E+00 0.  1.
         21   -1    0    0  501  503 -0.00000000000E+00 -0.00000000000E+00 -0.16643759457E+03  0.16643759457E+03  0.00000000000E+00 0.  1.
          6    1    1    2  501    0 -0.14513978865E+02  0.40658542546E+02 -0.61269382997E+02  0.18853835142E+03  0.17300000000E+03 0.  1.
         -6    1    1    2    0  502  0.14513978865E+02 -0.40658542546E+02  0.14983347399E+03  0.23290092871E+03  0.17300000000E+03 0.  1.
<mgrwt>
<rscale>  2 0.17830528E+03</rscale>
<asrwt>0</asrwt>
<pdfrwt beam="1">  1       21 0.39231028E-01 0.17830528E+03</pdfrwt>
<pdfrwt beam="2">  1       21 0.25605784E-01 0.17830528E+03</pdfrwt>
<totfact> 0.91144584E+04</totfact>
</mgrwt>
</event>
<event>
 4    1  0.3876841E+000  0.1961063E+03  0.7546771E-02  0.1153066E+00
         21   -1    0    0  501  502  0.00000000000E+00  0.00000000000E+00  0.47269317245E+03  0.47269317245E+03  0.00000000000E+00 0. -1.
         21   -1    0    0  502  503 -0.00000000000E+00 -0.00000000000E+00 -0.35626268532E+03  0.35626268532E+03  0.00000000000E+00 0. -1.
          6    1    1    2  501    0  0.89382596389E+02 -0.23225735893E+02  0.42230359946E+03  0.46561573584E+03  0.17300000000E+03 0. -1.
         -6    1    1    2    0  503 -0.89382596389E+02  0.23225735893E+02 -0.30587311234E+03  0.36334012192E+03  0.17300000000E+03 0. -1.
<mgrwt>
<rscale>  2 0.19610631E+03</rscale>
<asrwt>0</asrwt>
<pdfrwt beam="1">  1       21 0.72722026E-01 0.19610631E+03</pdfrwt>
<pdfrwt beam="2">  1       21 0.54809644E-01 0.19610631E+03</pdfrwt>
<totfact> 0.53367042E+03</totfact>
</mgrwt>
</event>
<event>
 4    1  0.3876841E+000  0.1902753E+03  0.7546771E-02  0.1158213E+00
         21   -1    0    0  501  502  0.00000000000E+00  0.00000000000E+00  0.75875465722E+02  0.75875465722E+02  0.00000000000E+00 0.  1.
         21   -1    0    0  502  503 -0.00000000000E+00 -0.00000000000E+00 -0.58154667458E+03  0.58154667458E+03  0.00000000000E+00 0.  1.
          6    1    1    2  501    0  0.57472607200E+02  0.54521551564E+02 -0.11356944816E+03  0.22159133493E+03  0.17300000000E+03 0.  1.
         -6    1    1    2    0  503 -0.57472607200E+02 -0.54521551564E+02 -0.39210176070E+03  0.43583080537E+03  0.17300000000E+03 0.  1.
<mgrwt>
<rscale>  2 0.19027533E+03</rscale>
<asrwt>0</asrwt>
<pdfrwt beam="1">  1       21 0.11673149E-01 0.19027533E+03</pdfrwt>
<pdfrwt beam="2">  1       21 0.89468715E-01 0.19027533E+03</pdfrwt>
<totfact> 0.65735031E+04</totfact>
</mgrwt>
</event>
<event>
 4    1  0.3876841E+000  0.1959081E+03  0.7546771E-02  0.1153238E+00
         21   -1    0    0  503  502  0.00000000000E+00  0.00000000000E+00  0.27828966852E+02  0.27828966852E+02  0.00000000000E+00 0. -1.
         21   -1    0    0  501  503 -0.00000000000E+00 -0.00000000000E+00 -0.13791979688E+04  0.13791979688E+04  0.00000000000E+00 0. -1.
          6    1    1    2  501    0  0.17703848879E+02 -0.90208417381E+02 -0.67104434257E+03  0.69905686072E+03  0.17300000000E+03 0. -1.
         -6    1    1    2    0  502 -0.17703848879E+02  0.90208417381E+02 -0.68032465935E+03  0.70797007490E+03  0.17300000000E+03 0. -1.
<mgrwt>
<rscale>  2 0.19590810E+03</rscale>
<asrwt>0</asrwt>
<pdfrwt beam="1">  1       21 0.42813803E-02 0.19590810E+03</pdfrwt>
<pdfrwt beam="2">  1       21 0.21218426E+00 0.19590810E+03</pdfrwt>
<totfact> 0.39218639E+04</totfact>
</mgrwt>
</event>
<event>
 4    1  0.3876841E+000  0.1749434E+03  0.7546771E-02  0.1172789E+00
         21   -1    0    0  501  502  0.00000000000E+00  0.00000000000E+00  0.21379791633E+03  0.21379791633E+03  0.00000000000E+00 0. -1.
         21   -1    0    0  502  503 -0.00000000000E+00 -0.00000000000E+00 -0.15644091051E+03  0.15644091051E+03  0.00000000000E+00 0. -1.
          6    1    1    2  501    0  0.13075904069E+02  0.22476629168E+02  0.82636233518E+02  0.19347848773E+03  0.17300000000E+03 0. -1.
         -6    1    1    2    0  503 -0.13075904069E+02 -0.22476629168E+02 -0.25279227700E+02  0.17676033910E+03  0.17300000000E+03 0. -1.
<mgrwt>
<rscale>  2 0.17494336E+03</rscale>
<asrwt>0</asrwt>
<pdfrwt beam="1">  1       21 0.32891987E-01 0.17494336E+03</pdfrwt>
<pdfrwt beam="2">  1       21 0.24067832E-01 0.17494336E+03</pdfrwt>
<totfact> 0.14573813E+05</totfact>
</mgrwt>
</event>
<event>
 4    1  0.3876841E+000  0.1794812E+03  0.7546771E-02  0.1168306E+00
         21   -1    0    0  503  502  0.00000000000E+00  0.00000000000E+00  0.18732454045E+03  0.18732454045E+03  0.00000000000E+00 0. -1.
         21   -1    0    0  501  503 -0.00000000000E+00 -0.00000000000E+00 -0.20768410649E+03  0.20768410649E+03  0.00000000000E+00 0. -1.
          6    1    1    2  501    0 -0.27101606622E+02 -0.39370020896E+02 -0.92086170433E+02  0.20172594878E+03  0.17300000000E+03 0. -1.
         -6    1    1    2    0  502  0.27101606622E+02  0.39370020896E+02  0.71726604393E+02  0.19328269815E+03  0.17300000000E+03 0. -1.
<mgrwt>
<rscale>  2 0.17948118E+03</rscale>
<asrwt>0</asrwt>
<pdfrwt beam="1">  1       21 0.28819160E-01 0.17948118E+03</pdfrwt>
<pdfrwt beam="2">  1       21 0.31951401E-01 0.17948118E+03</pdfrwt>
<totfact> 0.10905948E+05</totfact>
</mgrwt>
</event>
<event>
 4    1  0.3876841E+000  0.1757733E+03  0.7546771E-02  0.1171957E+00
         21   -1    0    0  503  502  0.00000000000E+00  0.00000000000E+00  0.27921881885E+02  0.27921881885E+02  0.00000000000E+00 0. -1.
         21   -1    0    0  501  503 -0.00000000000E+00 -0.00000000000E+00 -0.15904837508E+04  0.15904837508E+04  0.00000000000E+00 0. -1.
          6    1    1    2  501    0  0.27218707024E+02 -0.15046930571E+02 -0.12276528024E+04  0.12401724361E+04  0.17300000000E+03 0. -1.
         -6    1    1    2    0  502 -0.27218707024E+02  0.15046930571E+02 -0.33490906651E+03  0.37823319654E+03  0.17300000000E+03 0. -1.
<mgrwt>
<rscale>  2 0.17577334E+03</rscale>
<asrwt>0</asrwt>
<pdfrwt beam="1">  1       21 0.42956739E-02 0.17577334E+03</pdfrwt>
<pdfrwt beam="2">  1       21 0.24468982E+00 0.17577334E+03</pdfrwt>
<totfact> 0.25206150E+04</totfact>
</mgrwt>
</event>
<event>
 4    1  0.3876841E+000  0.1989536E+03  0.7546771E-02  0.1150625E+00
         21   -1    0    0  503  502  0.00000000000E+00  0.00000000000E+00  0.33183790926E+03  0.33183790926E+03  0.00000000000E+00 0.  1.
         21   -1    0    0  501  503 -0.00000000000E+00 -0.00000000000E+00 -0.32241283208E+03  0.32241283208E+03  0.00000000000E+00 0. -1.
          6    1    1    2  501    0  0.91631623511E+02  0.35456598966E+02 -0.25494159102E+03  0.32338481670E+03  0.17300000000E+03 0. -1.
         -6    1    1    2    0  502 -0.91631623511E+02 -0.35456598966E+02  0.26436666820E+03  0.33086592465E+03  0.17300000000E+03 0.  1.
<mgrwt>
<rscale>  2 0.19895357E+03</rscale>
<asrwt>0</asrwt>
<pdfrwt beam="1">  1       21 0.51051986E-01 0.19895357E+03</pdfrwt>
<pdfrwt beam="2">  1       21 0.49601974E-01 0.19895357E+03</pdfrwt>
<totfact> 0.14077541E+04</totfact>
</mgrwt>
</event>
<event>
 4    1  0.3876841E+000  0.1833056E+03  0.7546771E-02  0.1164642E+00
         21   -1    0    0  501  502  0.00000000000E+00  0.00000000000E+00  0.14798400996E+03  0.14798400996E+03  0.00000000000E+00 0. -1.
         21   -1    0    0  502  503 -0.00000000000E+00 -0.00000000000E+00 -0.80486666039E+03  0.80486666039E+03  0.00000000000E+00 0.  1.
          6    1    1    2  501    0  0.47882125401E+02  0.37138356795E+02  0.75227208472E+02  0.19814158668E+03  0.17300000000E+03 0. -1.
         -6    1    1    2    0  503 -0.47882125401E+02 -0.37138356795E+02 -0.73210985890E+03  0.75470908368E+03  0.17300000000E+03 0.  1.
<mgrwt>
<rscale>  2 0.18330563E+03</rscale>
<asrwt>0</asrwt>
<pdfrwt beam="1">  1       21 0.22766771E-01 0.18330563E+03</pdfrwt>
<pdfrwt beam="2">  1       21 0.12382564E+00 0.18330563E+03</pdfrwt>
<totfact> 0.88991610E+03</totfact>
</mgrwt>
</event>
<event>
 4    1  0.3876841E+000  0.2074669E+03  0.7546771E-02  0.1143588E+00
         21   -1    0    0  501  502  0.00000000000E+00  0.00000000000E+00  0.76943396624E+03  0.76943396624E+03  0.00000000000E+00 0. -1.
         21   -1    0    0  502  503 -0.00000000000E+00 -0.00000000000E+00 -0.12444503999E+03  0.12444503999E+03  0.00000000000E+00 0. -1.
          6    1    1    2  501    0  0.10646261892E+03 -0.42180867874E+02  0.65409837691E+03  0.68621221318E+03  0.17300000000E+03 0. -1.
         -6    1    1    2    0  503 -0.10646261892E+03  0.42180867874E+02 -0.91094506627E+01  0.20766679304E+03  0.17300000000E+03 0. -1.
<mgrwt>
<rscale>  2 0.20746690E+03</rscale>
<asrwt>0</asrwt>
<pdfrwt beam="1">  1       21 0.11837445E+00 0.20746690E+03</pdfrwt>
<pdfrwt beam="2">  1       21 0.19145391E-01 0.20746690E+03</pdfrwt>
<totfact> 0.13541622E+04</totfact>
</mgrwt>
</event>
<event>
 4    1  0.3876841E+000  0.1834074E+03  0.7546771E-02  0.1164545E+00
         21   -1    0    0  503  502  0.00000000000E+00  0.00000000000E+00  0.14258760631E+03  0.14258760631E+03  0.00000000000E+00 0.  1.
         21   -1    0    0  501  503 -0.00000000000E+00 -0.00000000000E+00 -0.23690333792E+03  0.23690333792E+03  0.00000000000E+00 0. -1.
          6    1    1    2  501    0  0.19373826339E+02 -0.57740339917E+02 -0.34890716498E+02  0.18669669011E+03  0.17300000000E+03 0.  1.
         -6    1    1    2    0  502 -0.19373826339E+02  0.57740339917E+02 -0.59425015103E+02  0.19279425412E+03  0.17300000000E+03 0.  1.
<mgrwt>
<rscale>  2 0.18340745E+03</rscale>
<asrwt>0</asrwt>
<pdfrwt beam="1">  1       21 0.21936555E-01 0.18340745E+03</pdfrwt>
<pdfrwt beam="2">  1       21 0.36446667E-01 0.18340745E+03</pdfrwt>
<totfact> 0.14133477E+05</totfact>
</mgrwt>
</event>
<event>
 4    1  0.3876841E+000  0.2693355E+03  0.7546771E-02  0.1101661E+00
         21   -1    0    0  501  502  0.00000000000E+00  0.00000000000E+00  0.83213564604E+03  0.83213564604E+03  0.00000000000E+00 0. -1.
         21   -1    0    0  502  503 -0.00000000000E+00 -0.00000000000E+00 -0.15897177873E+03  0.15897177873E+03  0.00000000000E+00 0.  1.
          6    1    1    2  501    0  0.25066804169E+02 -0.20490065300E+03  0.66961126060E+03  0.72174847599E+03  0.17300000000E+03 0. -1.
         -6    1    1    2    0  503 -0.25066804169E+02  0.20490065300E+03  0.35526067009E+01  0.26935894878E+03  0.17300000000E+03 0.  1.
<mgrwt>
<rscale>  2 0.26933552E+03</rscale>
<asrwt>0</asrwt>
<pdfrwt beam="1">  1       21 0.12802087E+00 0.26933552E+03</pdfrwt>
<pdfrwt beam="2">  1       21 0.24457197E-01 0.26933552E+03</pdfrwt>
<totfact> 0.67388589E+03</totfact>
</mgrwt>
</event>
<event>
 4    1  0.3876841E+000  0.1854088E+03  0.7546771E-02  0.1162669E+00
         21   -1    0    0  503  502  0.00000000000E+00  0.00000000000E+00  0.86650556180E+03  0.86650556180E+03  0.00000000000E+00 0.  1.
         21   -1    0    0  501  503 -0.00000000000E+00 -0.00000000000E+00 -0.44779006495E+02  0.44779006495E+02  0.00000000000E+00 0. -1.
          6    1    1    2  501    0  0.22891977050E+02  0.62636767819E+02  0.25699452400E+03  0.31689523926E+03  0.17300000000E+03 0. -1.
         -6    1    1    2    0  502 -0.22891977050E+02 -0.62636767819E+02  0.56473203131E+03  0.59438932904E+03  0.17300000000E+03 0.  1.
<mgrwt>
<rscale>  2 0.18540876E+03</rscale>
<asrwt>0</asrwt>
<pdfrwt beam="1">  1       21 0.13330854E+00 0.18540876E+03</pdfrwt>
<pdfrwt beam="2">  1       21 0.68890786E-02 0.18540876E+03</pdfrwt>
<totfact> 0.63303233E+04</totfact>
</mgrwt>
</event>
<event>
 4    1  0.3876841E+000  0.2057932E+03  0.7546771E-02  0.1144941E+00
         21   -1    0    0  503  502  0.00000000000E+00  0.00000000000E+00  0.21383678823E+03  0.21383678823E+03  0.00000000000E+00 0. -1.
         21   -1    0    0  501  503 -0.00000000000E+00 -0.00000000000E+00 -0.39370494741E+03  0.39370494741E+03  0.00000000000E+00 0. -1.
          6    1    1    2  501    0 -0.11133775529E+03 -0.50747233244E+01 -0.30407696473E+03  0.36716978232E+03  0.17300000000E+03 0. -1.
         -6    1    1    2    0  502  0.11133775529E+03  0.50747233244E+01  0.12420880555E+03  0.24037195333E+03  0.17300000000E+03 0. -1.
<mgrwt>
<rscale>  2 0.20579322E+03</rscale>
<asrwt>0</asrwt>
<pdfrwt beam="1">  1       21 0.32897968E-01 0.20579322E+03</pdfrwt>
<pdfrwt beam="2">  1       21 0.60569991E-01 0.20579322E+03</pdfrwt>
<totfact> 0.22410999E+04</totfact>
</mgrwt>
</event>
<event>
 4    1  0.3876841E+000  0.1805460E+03  0.7546771E-02  0.1167276E+00
         21   -1    0    0  501  502  0.00000000000E+00  0.00000000000E+00  0.18233758154E+03  0.18233758154E+03  0.00000000000E+00 0.  1.
         21   -1    0    0  502  503 -0.00000000000E+00 -0.00000000000E+00 -0.62456572125E+03  0.62456572125E+03  0.00000000000E+00 0.  1.
          6    1    1    2  501    0 -0.27304373037E+02  0.43844181372E+02  0.11974074552E+03  0.21664414870E+03  0.17300000000E+03 0.  1.
         -6    1    1    2    0  503  0.27304373037E+02 -0.43844181372E+02 -0.56196888523E+03  0.59025915410E+03  0.17300000000E+03 0.  1.
<mgrwt>
<rscale>  2 0.18054595E+03</rscale>
<asrwt>0</asrwt>
<pdfrwt beam="1">  1       21 0.28051936E-01 0.18054595E+03</pdfrwt>
<pdfrwt beam="2">  1       21 0.96087033E-01 0.18054595E+03</pdfrwt>
<totfact> 0.11042340E+04</totfact>
</mgrwt>
</event>
<event>
 4    1  0.3876841E+000  0.1903343E+03  0.7546771E-02  0.1158160E+00
         21   -1    0    0  501  502  0.00000000000E+00  0.00000000000E+00  0.56352332541E+02  0.56352332541E+02  0.00000000000E+00 0.  1.
         21   -1    0    0  502  503 -0.00000000000E+00 -0.00000000000E+00 -0.65001746878E+03  0.65001746878E+03  0.00000000000E+00 0.  1.
          6    1    1    2  501    0 -0.59864456864E+02 -0.52099949856E+02 -0.33387089449E+03  0.38431358571E+03  0.17300000000E+03 0.  1.
         -6    1    1    2    0  503  0.59864456864E+02  0.52099949856E+02 -0.25979424175E+03  0.32205621562E+03  0.17300000000E+03 0.  1.
<mgrwt>
<rscale>  2 0.19033433E+03</rscale>
<asrwt>0</asrwt>
<pdfrwt beam="1">  1       21 0.86695899E-02 0.19033433E+03</pdfrwt>
<pdfrwt beam="2">  1       21 0.10000268E+00 0.19033433E+03</pdfrwt>
<totfact> 0.85706756E+04</totfact>
</mgrwt>
</event>
<event>
 4    1  0.3876841E+000  0.1922042E+03  0.7546771E-02  0.1156488E+00
         21   -1    0    0  501  502  0.00000000000E+00  0.00000000000E+00  0.91214436495E+02  0.91214436495E+02  0.00000000000E+00 0.  1.
         21   -1    0    0  502  503 -0.00000000000E+00 -0.00000000000E+00 -0.46355824779E+03  0.46355824779E+03  0.00000000000E+00 0.  1.
          6    1    1    2  501    0  0.36507155763E+02  0.75370206114E+02 -0.87588726376E+02  0.21122079770E+03  0.17300000000E+03 0.  1.
         -6    1    1    2    0  503 -0.36507155763E+02 -0.75370206114E+02 -0.28475508492E+03  0.34355188659E+03  0.17300000000E+03 0.  1.
<mgrwt>
<rscale>  2 0.19220416E+03</rscale>
<asrwt>0</asrwt>
<pdfrwt beam="1">  1       21 0.14032990E-01 0.19220416E+03</pdfrwt>
<pdfrwt beam="2">  1       21 0.71316653E-01 0.19220416E+03</pdfrwt>
<totfact> 0.78748807E+04</totfact>
</mgrwt>
</event>
<event>
 4    1  0.3876841E+000  0.2447113E+03  0.7546771E-02  0.1116693E+00
         21   -1    0    0  503  502  0.00000000000E+00  0.00000000000E+00  0.26932960245E+03  0.26932960245E+03  0.00000000000E+00 0.  1.
         21   -1    0    0  501  503 -0.00000000000E+00 -0.00000000000E+00 -0.33195884916E+03  0.33195884916E+03  0.00000000000E+00 0. -1.
          6    1    1    2  501    0  0.52844167531E+02 -0.16480939948E+03 -0.20407603287E+03  0.31863877885E+03  0.17300000000E+03 0. -1.
         -6    1    1    2    0  502 -0.52844167531E+02  0.16480939948E+03  0.14144678616E+03  0.28264967276E+03  0.17300000000E+03 0.  1.
<mgrwt>
<rscale>  2 0.24471135E+03</rscale>
<asrwt>0</asrwt>
<pdfrwt beam="1">  1       21 0.41435323E-01 0.24471135E+03</pdfrwt>
<pdfrwt beam="2">  1       21 0.51070592E-01 0.24471135E+03</pdfrwt>
<totfact> 0.19866210E+04</totfact>
</mgrwt>
</event>
<event>
 4    1  0.3876841E+000  0.1818433E+03  0.7546771E-02  0.1166031E+00
         21   -1    0    0  501  502  0.00000000000E+00  0.00000000000E+00  0.46323159973E+03  0.46323159973E+03  0.00000000000E+00 0. -1.
         21   -1    0    0  502  503 -0.00000000000E+00 -0.00000000000E+00 -0.98727661530E+02  0.98727661530E+02  0.00000000000E+00 0.  1.
          6    1    1    2  501    0  0.17139304870E+02 -0.53331166003E+02  0.33012529497E+03  0.37689478561E+03  0.17300000000E+03 0. -1.
         -6    1    1    2    0  503 -0.17139304870E+02  0.53331166003E+02  0.34378643231E+02  0.18506447565E+03  0.17300000000E+03 0.  1.
<mgrwt>
<rscale>  2 0.18184325E+03</rscale>
<asrwt>0</asrwt>
<pdfrwt beam="1">  1       21 0.71266399E-01 0.18184325E+03</pdfrwt>
<pdfrwt beam="2">  1       21 0.15188871E-01 0.18184325E+03</pdfrwt>
<totfact> 0.68612954E+04</totfact>
</mgrwt>
</event>
<event>
 4    1  0.3876841E+000  0.3715822E+03  0.7546771E-02  0.1054090E+00
         21   -1    0    0  503  502  0.00000000000E+00  0.00000000000E+00  0.16099758734E+03  0.16099758734E+03  0.00000000000E+00 0.  1.
         21   -1    0    0  501  503 -0.00000000000E+00 -0.00000000000E+00 -0.10691833802E+04  0.10691833802E+04  0.00000000000E+00 0.  1.
          6    1    1    2  501    0 -0.32037385586E+03  0.74195379138E+02 -0.72770922563E+03  0.81708878274E+03  0.17300000000E+03 0.  1.
         -6    1    1    2    0  502  0.32037385586E+03 -0.74195379138E+02 -0.18047656719E+03  0.41309218476E+03  0.17300000000E+03 0.  1.
<mgrwt>
<rscale>  2 0.37158224E+03</rscale>
<asrwt>0</asrwt>
<pdfrwt beam="1">  1       21 0.24768859E-01 0.37158224E+03</pdfrwt>
<pdfrwt beam="2">  1       21 0.16448975E+00 0.37158224E+03</pdfrwt>
<totfact> 0.32031202E+03</totfact>
</mgrwt>
</event>
<event>
 4    1  0.3876841E+000  0.3001534E+03  0.7546771E-02  0.1085164E+00
         21   -1    0    0  503  502  0.00000000000E+00  0.00000000000E+00  0.41946919393E+03  0.41946919393E+03  0.00000000000E+00 0. -1.
         21   -1    0    0  501  503 -0.00000000000E+00 -0.00000000000E+00 -0.31363859835E+03  0.31363859835E+03  0.00000000000E+00 0. -1.
          6    1    1    2  501    0 -0.20943675246E+02  0.24438577647E+03 -0.15288140820E+03  0.33684532096E+03  0.17300000000E+03 0. -1.
         -6    1    1    2    0  502  0.20943675246E+02 -0.24438577647E+03  0.25871200378E+03  0.39626247132E+03  0.17300000000E+03 0. -1.
<mgrwt>
<rscale>  2 0.30015337E+03</rscale>
<asrwt>0</asrwt>
<pdfrwt beam="1">  1       21 0.64533722E-01 0.30015337E+03</pdfrwt>
<pdfrwt beam="2">  1       21 0.48252092E-01 0.30015337E+03</pdfrwt>
<totfact> 0.85362353E+03</totfact>
</mgrwt>
</event>
<event>
 4    1  0.3876841E+000  0.2065468E+03  0.7546771E-02  0.1144330E+00
         21   -1    0    0  503  502  0.00000000000E+00  0.00000000000E+00  0.69735824380E+02  0.69735824380E+02  0.00000000000E+00 0. -1.
         21   -1    0    0  501  503 -0.00000000000E+00 -0.00000000000E+00 -0.62342850949E+03  0.62342850949E+03  0.00000000000E+00 0. -1.
          6    1    1    2  501    0  0.11210003765E+03  0.12889882398E+02 -0.32426246361E+03  0.38445768664E+03  0.17300000000E+03 0. -1.
         -6    1    1    2    0  502 -0.11210003765E+03 -0.12889882398E+02 -0.22943022150E+03  0.30870664723E+03  0.17300000000E+03 0. -1.
<mgrwt>
<rscale>  2 0.20654677E+03</rscale>
<asrwt>0</asrwt>
<pdfrwt beam="1">  1       21 0.10728589E-01 0.20654677E+03</pdfrwt>
<pdfrwt beam="2">  1       21 0.95912076E-01 0.20654677E+03</pdfrwt>
<totfact> 0.64467070E+04</totfact>
</mgrwt>
</event>
<event>
 4    1  0.3876841E+000  0.2028617E+03  0.7546771E-02  0.1147347E+00
         21   -1    0    0  501  502  0.00000000000E+00  0.00000000000E+00  0.15154774215E+03  0.15154774215E+03  0.00000000000E+00 0.  1.
         21   -1    0    0  502  503 -0.00000000000E+00 -0.00000000000E+00 -0.30346480390E+03  0.30346480390E+03  0.00000000000E+00 0.  1.
          6    1    1    2  501    0 -0.85061557301E+01  0.10560068930E+03 -0.21796404923E+01  0.20287338687E+03  0.17300000000E+03 0.  1.
         -6    1    1    2    0  503  0.85061557301E+01 -0.10560068930E+03 -0.14973742126E+03  0.25213915918E+03  0.17300000000E+03 0.  1.
<mgrwt>
<rscale>  2 0.20286168E+03</rscale>
<asrwt>0</asrwt>
<pdfrwt beam="1">  1       21 0.23315037E-01 0.20286168E+03</pdfrwt>
<pdfrwt beam="2">  1       21 0.46686893E-01 0.20286168E+03</pdfrwt>
<totfact> 0.75643578E+04</totfact>
</mgrwt>
</event>
<event>
 4    1  0.3876841E+000  0.2479926E+03  0.7546771E-02  0.1114580E+00
         21   -1    0    0  503  502  0.00000000000E+00  0.00000000000E+00  0.31941877642E+03  0.31941877642E+03  0.00000000000E+00 0. -1.
         21   -1    0    0  501  503 -0.00000000000E+00 -0.00000000000E+00 -0.36585378069E+03  0.36585378069E+03  0.00000000000E+00 0.  1.
          6    1    1    2  501    0 -0.51127415282E+02 -0.17016856798E+03 -0.25904705391E+03  0.35861641103E+03  0.17300000000E+03 0.  1.
         -6    1    1    2    0  502  0.51127415282E+02  0.17016856798E+03  0.21261204964E+03  0.32665614608E+03  0.17300000000E+03 0. -1.
<mgrwt>
<rscale>  2 0.24799265E+03</rscale>
<asrwt>0</asrwt>
<pdfrwt beam="1">  1       21 0.49141350E-01 0.24799265E+03</pdfrwt>
<pdfrwt beam="2">  1       21 0.56285197E-01 0.24799265E+03</pdfrwt>
<totfact> 0.11343091E+04</totfact>
</mgrwt>
</event>
<event>
 4    1  0.3876841E+000  0.2376516E+03  0.7546771E-02  0.1121367E+00
         21   -1    0    0  501  502  0.00000000000E+00  0.00000000000E+00  0.94412614852E+03  0.94412614852E+03  0.00000000000E+00 0.  1.
         21   -1    0    0  502  503 -0.00000000000E+00 -0.00000000000E+00 -0.12090763128E+03  0.12090763128E+03  0.00000000000E+00 0. -1.
          6    1    1    2  501    0  0.72390565663E+02  0.14597570030E+03  0.79012211900E+03  0.82508863888E+03  0.17300000000E+03 0.  1.
         -6    1    1    2    0  503 -0.72390565663E+02 -0.14597570030E+03  0.33096398236E+02  0.23994514092E+03  0.17300000000E+03 0. -1.
<mgrwt>
<rscale>  2 0.23765163E+03</rscale>
<asrwt>0</asrwt>
<pdfrwt beam="1">  1       21 0.14525017E+00 0.23765163E+03</pdfrwt>
<pdfrwt beam="2">  1       21 0.18601175E-01 0.23765163E+03</pdfrwt>
<totfact> 0.83183053E+03</totfact>
</mgrwt>
</event>
<event>
 4    1  0.3876841E+000  0.1772078E+03  0.7546771E-02  0.1170533E+00
         21   -1    0    0  501  502  0.00000000000E+00  0.00000000000E+00  0.41838404226E+03  0.41838404226E+03  0.00000000000E+00 0. -1.
         21   -1    0    0  502  503 -0.00000000000E+00 -0.00000000000E+00 -0.91088538337E+02  0.91088538337E+02  0.00000000000E+00 0. -1.
          6    1    1    2  501    0 -0.25587182341E+02 -0.28616585328E+02  0.27051577837E+03  0.32339047482E+03  0.17300000000E+03 0. -1.
         -6    1    1    2    0  503  0.25587182341E+02  0.28616585328E+02  0.56779725547E+02  0.18608210577E+03  0.17300000000E+03 0. -1.
<mgrwt>
<rscale>  2 0.17720782E+03</rscale>
<asrwt>0</asrwt>
<pdfrwt beam="1">  1       21 0.64366775E-01 0.17720782E+03</pdfrwt>
<pdfrwt beam="2">  1       21 0.14013622E-01 0.17720782E+03</pdfrwt>
<totfact> 0.99413711E+04</totfact>
</mgrwt>
</event>
<event>
 4    1  0.3876841E+000  0.1756412E+03  0.7546771E-02  0.1172089E+00
         21   -1    0    0  501  502  0.00000000000E+00  0.00000000000E+00  0.13314388561E+04  0.13314388561E+04  0.00000000000E+00 0. -1.
         21   -1    0    0  502  503 -0.00000000000E+00 -0.00000000000E+00 -0.62843987485E+02  0.62843987485E+02  0.00000000000E+00 0. -1.
          6    1    1    2  501    0  0.11756479125E+02 -0.27975517718E+02  0.11882088014E+04  0.12011203105E+04  0.17300000000E+03 0. -1.
         -6    1    1    2    0  503 -0.11756479125E+02  0.27975517718E+02  0.80386067121E+02  0.19316253307E+03  0.17300000000E+03 0. -1.
<mgrwt>
<rscale>  2 0.17564124E+03</rscale>
<asrwt>0</asrwt>
<pdfrwt beam="1">  1       21 0.20483673E+00 0.17564124E+03</pdfrwt>
<pdfrwt beam="2">  1       21 0.96683068E-02 0.17564124E+03</pdfrwt>
<totfact> 0.10930720E+04</totfact>
</mgrwt>
</event>
<event>
 4    1  0.3876841E+000  0.1946226E+03  0.7546771E-02  0.1154357E+00
         21   -1    0    0  501  502  0.00000000000E+00  0.00000000000E+00  0.30800900666E+03  0.30800900666E+03  0.00000000000E+00 0.  1.
         21   -1    0    0  502  503 -0.00000000000E+00 -0.00000000000E+00 -0.42100392045E+03  0.42100392045E+03  0.00000000000E+00 0.  1.
          6    1    1    2  501    0 -0.50713604983E+02 -0.73328673057E+02  0.25018578984E+03  0.31697143950E+03  0.17300000000E+03 0.  1.
         -6    1    1    2    0  503  0.50713604983E+02  0.73328673057E+02 -0.36318070362E+03  0.41204148760E+03  0.17300000000E+03 0.  1.
<mgrwt>
<rscale>  2 0.19462262E+03</rscale>
<asrwt>0</asrwt>
<pdfrwt beam="1">  1       21 0.47386001E-01 0.19462262E+03</pdfrwt>
<pdfrwt beam="2">  1       21 0.64769834E-01 0.19462262E+03</pdfrwt>
<totfact> 0.93440382E+03</totfact>
</mgrwt>
</event>
<event>
 4    1  0.3876841E+000  0.2679740E+03  0.7546771E-02  0.1102445E+00
         21   -1    0    0  503  502  0.00000000000E+00  0.00000000000E+00  0.10739414779E+03  0.10739414779E+03  0.00000000000E+00 0.  1.
         21   -1    0    0  501  503 -0.00000000000E+00 -0.00000000000E+00 -0.24636108715E+04  0.24636108715E+04  0.00000000000E+00 0.  1.
          6    1    1    2  501    0  0.16166219753E+03 -0.12548473826E+03 -0.22753777214E+04  0.22911031973E+04  0.17300000000E+03 0.  1.
         -6    1    1    2    0  502 -0.16166219753E+03  0.12548473826E+03 -0.80839002276E+02  0.27990182196E+03  0.17300000000E+03 0.  1.
<mgrwt>
<rscale>  2 0.26797404E+03</rscale>
<asrwt>0</asrwt>
<pdfrwt beam="1">  1       21 0.16522177E-01 0.26797404E+03</pdfrwt>
<pdfrwt beam="2">  1       21 0.37901705E+00 0.26797404E+03</pdfrwt>
<totfact> 0.34746184E+02</totfact>
</mgrwt>
</event>
<event>
 4    1  0.3876841E+000  0.1773231E+03  0.7546771E-02  0.1170419E+00
         21   -1    0    0  503  502  0.00000000000E+00  0.00000000000E+00  0.21626068300E+04  0.21626068300E+04  0.00000000000E+00 0. -1.
         21   -1    0    0  501  503 -0.00000000000E+00 -0.00000000000E+00 -0.21584151890E+02  0.21584151890E+02  0.00000000000E+00 0. -1.
          6    1    1    2  501    0 -0.38122709425E+02 -0.78198235212E+01  0.44660548612E+03  0.48052049992E+03  0.17300000000E+03 0. -1.
         -6    1    1    2    0  502  0.38122709425E+02  0.78198235212E+01  0.16944171920E+04  0.17036704819E+04  0.17300000000E+03 0. -1.
<mgrwt>
<rscale>  2 0.17732312E+03</rscale>
<asrwt>0</asrwt>
<pdfrwt beam="1">  1       21 0.33270857E+00 0.17732312E+03</pdfrwt>
<pdfrwt beam="2">  1       21 0.33206405E-02 0.17732312E+03</pdfrwt>
<totfact> 0.12023068E+04</totfact>
</mgrwt>
</event>
<event>
 4    1  0.3876841E+000  0.3087710E+03  0.7546771E-02  0.1080936E+00
         21   -1    0    0  501  502  0.00000000000E+00  0.00000000000E+00  0.54776046726E+03  0.54776046726E+03  0.00000000000E+00 0.  1.
         21   -1    0    0  502  503 -0.00000000000E+00 -0.00000000000E+00 -0.26910978899E+03  0.26910978899E+03  0.00000000000E+00 0. -1.
          6    1    1    2  501    0  0.24619686447E+03  0.69264842591E+02  0.38206974718E+03  0.49124006983E+03  0.17300000000E+03 0.  1.
         -6    1    1    2    0  503 -0.24619686447E+03 -0.69264842591E+02 -0.10341906891E+03  0.32563018642E+03  0.17300000000E+03 0. -1.
<mgrwt>
<rscale>  2 0.30877097E+03</rscale>
<asrwt>0</asrwt>
<pdfrwt beam="1">  1       21 0.84270841E-01 0.30877097E+03</pdfrwt>
<pdfrwt beam="2">  1       21 0.41401506E-01 0.30877097E+03</pdfrwt>
<totfact> 0.64020735E+03</totfact>
</mgrwt>
</event>
<event>
 4    1  0.3876841E+000  0.2394771E+03  0.7546771E-02  0.1120142E+00
         21   -1    0    0  501  502  0.00000000000E+00  0.00000000000E+00  0.80437406439E+02  0.80437406439E+02  0.00000000000E+00 0.  1.
         21   -1    0    0  502  503 -0.00000000000E+00 -0.00000000000E+00 -0.76304471307E+03  0.76304471307E+03  0.00000000000E+00 0.  1.
          6    1    1    2  501    0  0.76756501027E+02  0.14672672781E+03 -0.23326255323E+03  0.33430631440E+03  0.17300000000E+03 0.  1.
         -6    1    1    2    0  503 -0.76756501027E+02 -0.14672672781E+03 -0.44934475340E+03  0.50917580511E+03  0.17300000000E+03 0.  1.
<mgrwt>
<rscale>  2 0.23947712E+03</rscale>
<asrwt>0</asrwt>
<pdfrwt beam="1">  1       21 0.12374985E-01 0.23947712E+03</pdfrwt>
<pdfrwt beam="2">  1       21 0.11739150E+00 0.23947712E+03</pdfrwt>
<totfact> 0.30179426E+04</totfact>
</mgrwt>
</event>
<event>
 4    1  0.3876841E+000  0.1932114E+03  0.7546771E-02  0.1155596E+00
         21   -1    0    0  501  502  0.00000000000E+00  0.00000000000E+00  0.14473625505E+03  0.14473625505E+03  0.00000000000E+00 0. -1.
         21   -1    0    0  502  503 -0.00000000000E+00 -0.00000000000E+00 -0.40781261173E+03  0.40781261173E+03  0.00000000000E+00 0. -1.
          6    1    1    2  501    0  0.48549553860E+02 -0.71025335021E+02  0.35955205490E+02  0.19652845646E+03  0.17300000000E+03 0. -1.
         -6    1    1    2    0  503 -0.48549553860E+02  0.71025335021E+02 -0.29903156217E+03  0.35602041033E+03  0.17300000000E+03 0. -1.
<mgrwt>
<rscale>  2 0.19321143E+03</rscale>
<asrwt>0</asrwt>
<pdfrwt beam="1">  1       21 0.22267116E-01 0.19321143E+03</pdfrwt>
<pdfrwt beam="2">  1       21 0.62740402E-01 0.19321143E+03</pdfrwt>
<totfact> 0.44396675E+04</totfact>
</mgrwt>
</event>
<event>
 4    1  0.3876841E+000  0.1821646E+03  0.7546771E-02  0.1165724E+00
         21   -1    0    0  503  502  0.00000000000E+00  0.00000000000E+00  0.17906112276E+03  0.17906112276E+03  0.00000000000E+00 0.  1.
         21   -1    0    0  501  503 -0.00000000000E+00 -0.00000000000E+00 -0.22037456985E+03  0.22037456985E+03  0.00000000000E+00 0.  1.
          6    1    1    2  501    0  0.86719853010E+01 -0.56389105420E+02 -0.10030880595E+03  0.20795622398E+03  0.17300000000E+03 0.  1.
         -6    1    1    2    0  502 -0.86719853010E+01  0.56389105420E+02  0.58995358866E+02  0.19147946863E+03  0.17300000000E+03 0.  1.
<mgrwt>
<rscale>  2 0.18216458E+03</rscale>
<asrwt>0</asrwt>
<pdfrwt beam="1">  1       21 0.27547865E-01 0.18216458E+03</pdfrwt>
<pdfrwt beam="2">  1       21 0.33903780E-01 0.18216458E+03</pdfrwt>
<totfact> 0.10578440E+05</totfact>
</mgrwt>
</event>
<event>
 4    1  0.3876841E+000  0.2446107E+03  0.7546771E-02  0.1116759E+00
         21   -1    0    0  503  502  0.00000000000E+00  0.00000000000E+00  0.77919186277E+03  0.77919186277E+03  0.00000000000E+00 0. -1.
         21   -1    0    0  501  503 -0.00000000000E+00 -0.00000000000E+00 -0.33542968236E+03  0.33542968236E+03  0.00000000000E+00 0. -1.
          6    1    1    2  501    0 -0.56976309639E+02  0.16327608292E+03 -0.26749643147E+03  0.36247581983E+03  0.17300000000E+03 0. -1.
         -6    1    1    2    0  502  0.56976309639E+02 -0.16327608292E+03  0.71125861188E+03  0.75214572530E+03  0.17300000000E+03 0. -1.
<mgrwt>
<rscale>  2 0.24461067E+03</rscale>
<asrwt>0</asrwt>
<pdfrwt beam="1">  1       21 0.11987567E+00 0.24461067E+03</pdfrwt>
<pdfrwt beam="2">  1       21 0.51604567E-01 0.24461067E+03</pdfrwt>
<totfact> 0.18069927E+03</totfact>
</mgrwt>
</event>
<event>
 4    1  0.3876841E+000  0.2170251E+03  0.7546771E-02  0.1136121E+00
         21   -1    0    0  503  502  0.00000000000E+00  0.00000000000E+00  0.10935978673E+03  0.10935978673E+03  0.00000000000E+00 0.  1.
         21   -1    0    0  501  503 -0.00000000000E+00 -0.00000000000E+00 -0.54878899647E+03  0.54878899647E+03  0.00000000000E+00 0. -1.
          6    1    1    2  501    0 -0.32008679082E+02 -0.12706823135E+03 -0.37237244965E+03  0.43100015338E+03  0.17300000000E+03 0. -1.
         -6    1    1    2    0  502  0.32008679082E+02  0.12706823135E+03 -0.67056760086E+02  0.22714862982E+03  0.17300000000E+03 0.  1.
<mgrwt>
<rscale>  2 0.21702509E+03</rscale>
<asrwt>0</asrwt>
<pdfrwt beam="1">  1       21 0.16824583E-01 0.21702509E+03</pdfrwt>
<pdfrwt beam="2">  1       21 0.84429076E-01 0.21702509E+03</pdfrwt>
<totfact> 0.38204779E+04</totfact>
</mgrwt>
</event>
<event>
 4    1  0.3876841E+000  0.1858430E+03  0.7546771E-02  0.1162265E+00
         21   -1    0    0  501  502  0.00000000000E+00  0.00000000000E+00  0.45711506523E+02  0.45711506523E+02  0.00000000000E+00 0. -1.
         21   -1    0    0  502  503 -0.00000000000E+00 -0.00000000000E+00 -0.22086478760E+04  0.22086478760E+04  0.00000000000E+00 0. -1.
          6    1    1    2  501    0  0.62192255613E+02  0.27216352393E+02 -0.16719403561E+03  0.24998290349E+03  0.17300000000E+03 0. -1.
         -6    1    1    2    0  503 -0.62192255613E+02 -0.27216352393E+02 -0.19957423339E+04  0.20043764790E+04  0.17300000000E+03 0. -1.
<mgrwt>
<rscale>  2 0.18584296E+03</rscale>
<asrwt>0</asrwt>
<pdfrwt beam="1">  1       21 0.70325384E-02 0.18584296E+03</pdfrwt>
<pdfrwt beam="2">  1       21 0.33979203E+00 0.18584296E+03</pdfrwt>
<totfact> 0.30404909E+03</totfact>
</mgrwt>
</event>
<event>
 4    1  0.3876841E+000  0.1838543E+03  0.7546771E-02  0.1164124E+00
         21   -1    0    0  503  502  0.00000000000E+00  0.00000000000E+00  0.24636311824E+03  0.24636311824E+03  0.00000000000E+00 0.  1.
         21   -1    0    0  501  503 -0.00000000000E+00 -0.00000000000E+00 -0.41047043216E+03  0.41047043216E+03  0.00000000000E+00 0.  1.
          6    1    1    2  501    0 -0.62227644829E+02  0.10686061449E+01 -0.35001749722E+03  0.39536650093E+03  0.17300000000E+03 0.  1.
         -6    1    1    2    0  502  0.62227644829E+02 -0.10686061449E+01  0.18591018330E+03  0.26146704946E+03  0.17300000000E+03 0.  1.
<mgrwt>
<rscale>  2 0.18385435E+03</rscale>
<asrwt>0</asrwt>
<pdfrwt beam="1">  1       21 0.37902019E-01 0.18385435E+03</pdfrwt>
<pdfrwt beam="2">  1       21 0.63149296E-01 0.18385435E+03</pdfrwt>
<totfact> 0.15664754E+04</totfact>
</mgrwt>
</event>
<event>
 4    1  0.3876841E+000  0.2815401E+03  0.7546771E-02  0.1094851E+00
         21   -1    0    0  501  502  0.00000000000E+00  0.00000000000E+00  0.16542002787E+04  0.16542002787E+04  0.00000000000E+00 0. -1.
         21   -1    0    0  502  503 -0.00000000000E+00 -0.00000000000E+00 -0.32883723192E+03  0.32883723192E+03  0.00000000000E+00 0. -1.
          6    1    1    2  501    0 -0.11259038695E+03 -0.19146598686E+03  0.15791166245E+04  0.16040181212E+04  0.17300000000E+03 0. -1.
         -6    1    1    2    0  503  0.11259038695E+03  0.19146598686E+03 -0.25375357772E+03  0.37901938943E+03  0.17300000000E+03 0. -1.
<mgrwt>
<rscale>  2 0.28154008E+03</rscale>
<asrwt>0</asrwt>
<pdfrwt beam="1">  1       21 0.25449235E+00 0.28154008E+03</pdfrwt>
<pdfrwt beam="2">  1       21 0.50590344E-01 0.28154008E+03</pdfrwt>
<totfact> 0.20935303E+02</totfact>
</mgrwt>
</event>
<event>
 4    1  0.3876841E+000  0.2522326E+03  0.7546771E-02  0.1111902E+00
         21   -1    0    0  503  502  0.00000000000E+00  0.00000000000E+00  0.83556385839E+02  0.83556385839E+02  0.00000000000E+00 0.  1.
         21   -1    0    0  501  503 -0.00000000000E+00 -0.00000000000E+00 -0.85567897499E+03  0.85567897499E+03  0.00000000000E+00 0.  1.
          6    1    1    2  501    0  0.30533924230E+02  0.18099717105E+03 -0.23019361579E+03  0.34148264554E+03  0.17300000000E+03 0.  1.
         -6    1    1    2    0  502 -0.30533924230E+02 -0.18099717105E+03 -0.54192897336E+03  0.59775271528E+03  0.17300000000E+03 0.  1.
<mgrwt>
<rscale>  2 0.25223262E+03</rscale>
<asrwt>0</asrwt>
<pdfrwt beam="1">  1       21 0.12854827E-01 0.25223262E+03</pdfrwt>
<pdfrwt beam="2">  1       21 0.13164293E+00 0.25223262E+03</pdfrwt>
<totfact> 0.20979292E+04</totfact>
</mgrwt>
</event>
<event>
 4    1  0.3876841E+000  0.1838852E+03  0.7546771E-02  0.1164095E+00
         21   -1    0    0  501  502  0.00000000000E+00  0.00000000000E+00  0.51870152177E+02  0.51870152177E+02  0.00000000000E+00 0. -1.
         21   -1    0    0  502  503 -0.00000000000E+00 -0.00000000000E+00 -0.81893082693E+03  0.81893082693E+03  0.00000000000E+00 0. -1.
          6    1    1    2  501    0  0.27419506428E+02  0.55972616218E+02 -0.18688965576E+03  0.26218601513E+03  0.17300000000E+03 0. -1.
         -6    1    1    2    0  503 -0.27419506428E+02 -0.55972616218E+02 -0.58017101899E+03  0.60861496397E+03  0.17300000000E+03 0. -1.
<mgrwt>
<rscale>  2 0.18388519E+03</rscale>
<asrwt>0</asrwt>
<pdfrwt beam="1">  1       21 0.79800241E-02 0.18388519E+03</pdfrwt>
<pdfrwt beam="2">  1       21 0.12598935E+00 0.18388519E+03</pdfrwt>
<totfact> 0.56621494E+04</totfact>
</mgrwt>
</event>
<event>
 4    1  0.3876841E+000  0.2025109E+03  0.7546771E-02  0.1147638E+00
         21   -1    0    0  503  502  0.00000000000E+00  0.00000000000E+00  0.26707094293E+03  0.26707094293E+03  0.00000000000E+00 0. -1.
         21   -1    0    0  501  503 -0.00000000000E+00 -0.00000000000E+00 -0.32891201772E+03  0.32891201772E+03  0.00000000000E+00 0. -1.
          6    1    1    2  501    0  0.17570941848E+02  0.10379261533E+03 -0.24850251818E+03  0.32056847402E+03  0.17300000000E+03 0. -1.
         -6    1    1    2    0  502 -0.17570941848E+02 -0.10379261533E+03  0.18666144339E+03  0.27541448663E+03  0.17300000000E+03 0. -1.
<mgrwt>
<rscale>  2 0.20251085E+03</rscale>
<asrwt>0</asrwt>
<pdfrwt beam="1">  1       21 0.41087838E-01 0.20251085E+03</pdfrwt>
<pdfrwt beam="2">  1       21 0.50601849E-01 0.20251085E+03</pdfrwt>
<totfact> 0.21078607E+04</totfact>
</mgrwt>
</event>
<event>
 4    1  0.3876841E+000  0.3396588E+03  0.7546771E-02  0.1066941E+00
         21   -1    0    0  501  502  0.00000000000E+00  0.00000000000E+00  0.49231435186E+03  0.49231435186E+03  0.00000000000E+00 0.  1.
         21   -1    0    0  502  503 -0.00000000000E+00 -0.00000000000E+00 -0.25514321526E+03  0.25514321526E+03  0.00000000000E+00 0. -1.
          6    1    1    2  501    0  0.98036425715E+02  0.27536881995E+03  0.22530588309E+03  0.40759154643E+03  0.17300000000E+03 0.  1.
         -6    1    1    2    0  503 -0.98036425715E+02 -0.27536881995E+03  0.11865253509E+02  0.33986602068E+03  0.17300000000E+03 0. -1.
<mgrwt>
<rscale>  2 0.33965884E+03</rscale>
<asrwt>0</asrwt>
<pdfrwt beam="1">  1       21 0.75740669E-01 0.33965884E+03</pdfrwt>
<pdfrwt beam="2">  1       21 0.39252802E-01 0.33965884E+03</pdfrwt>
<totfact> 0.89947909E+03</totfact>
</mgrwt>
</event>
<event>
 4    1  0.3876841E+000  0.1822046E+03  0.7546771E-02  0.1165686E+00
         21   -1    0    0  501  502  0.00000000000E+00  0.00000000000E+00  0.41039404240E+02  0.41039404240E+02  0.00000000000E+00 0. -1.
         21   -1    0    0  502  503 -0.00000000000E+00 -0.00000000000E+00 -0.17061010282E+04  0.17061010282E+04  0.00000000000E+00 0. -1.
          6    1    1    2  501    0  0.65707906016E+01  0.56800740396E+02 -0.19905483139E+03  0.26985426678E+03  0.17300000000E+03 0. -1.
         -6    1    1    2    0  503 -0.65707906016E+01 -0.56800740396E+02 -0.14660067926E+04  0.14772861657E+04  0.17300000000E+03 0. -1.
<mgrwt>
<rscale>  2 0.18220455E+03</rscale>
<asrwt>0</asrwt>
<pdfrwt beam="1">  1       21 0.63137540E-02 0.18220455E+03</pdfrwt>
<pdfrwt beam="2">  1       21 0.26247710E+00 0.18220455E+03</pdfrwt>
<totfact> 0.10263447E+04</totfact>
</mgrwt>
</event>
<event>
 4    1  0.3876841E+000  0.2018178E+03  0.7546771E-02  0.1148214E+00
         21   -1    0    0  501  502  0.00000000000E+00  0.00000000000E+00  0.31139809215E+03  0.31139809215E+03  0.00000000000E+00 0. -1.
         21   -1    0    0  502  503 -0.00000000000E+00 -0.00000000000E+00 -0.14768640676E+03  0.14768640676E+03  0.00000000000E+00 0. -1.
          6    1    1    2  501    0 -0.66359276720E+02  0.79986806559E+02  0.15947673885E+03  0.25722222506E+03  0.17300000000E+03 0. -1.
         -6    1    1    2    0  503  0.66359276720E+02 -0.79986806559E+02  0.42349465404E+01  0.20186227385E+03  0.17300000000E+03 0. -1.
<mgrwt>
<rscale>  2 0.20181785E+03</rscale>
<asrwt>0</asrwt>
<pdfrwt beam="1">  1       21 0.47907399E-01 0.20181785E+03</pdfrwt>
<pdfrwt beam="2">  1       21 0.22720986E-01 0.20181785E+03</pdfrwt>
<totfact> 0.75337005E+04</totfact>
</mgrwt>
</event>
<event>
 4    1  0.3876841E+000  0.2791718E+03  0.7546771E-02  0.1096142E+00
         21   -1    0    0  501  502  0.00000000000E+00  0.00000000000E+00  0.10469082689E+04  0.10469082689E+04  0.00000000000E+00 0. -1.
         21   -1    0    0  502  503 -0.00000000000E+00 -0.00000000000E+00 -0.11133385518E+03  0.11133385518E+03  0.00000000000E+00 0.  1.
          6    1    1    2  501    0 -0.94484122615E+02 -0.19768823924E+03  0.80114025532E+03  0.84838823546E+03  0.17300000000E+03 0.  1.
         -6    1    1    2    0  503  0.94484122615E+02  0.19768823924E+03  0.13443415843E+03  0.30985388865E+03  0.17300000000E+03 0.  1.
<mgrwt>
<rscale>  2 0.27917179E+03</rscale>
<asrwt>0</asrwt>
<pdfrwt beam="1">  1       21 0.16106280E+00 0.27917179E+03</pdfrwt>
<pdfrwt beam="2">  1       21 0.17128286E-01 0.27917179E+03</pdfrwt>
<totfact> 0.71662775E+03</totfact>
</mgrwt>
</event>
<event>
 4    1  0.3876841E+000  0.2038336E+03  0.7546771E-02  0.1146544E+00
         21   -1    0    0  503  502  0.00000000000E+00  0.00000000000E+00  0.11700237307E+03  0.11700237307E+03  0.00000000000E+00 0.  1.
         21   -1    0    0  501  503 -0.00000000000E+00 -0.00000000000E+00 -0.62162079751E+03  0.62162079751E+03  0.00000000000E+00 0.  1.
          6    1    1    2  501    0 -0.59417816865E+01  0.10762829866E+03 -0.49412878446E+03  0.53451979484E+03  0.17300000000E+03 0.  1.
         -6    1    1    2    0  502  0.59417816865E+01 -0.10762829866E+03 -0.10489639978E+02  0.20410337574E+03  0.17300000000E+03 0.  1.
<mgrwt>
<rscale>  2 0.20383365E+03</rscale>
<asrwt>0</asrwt>
<pdfrwt beam="1">  1       21 0.18000365E-01 0.20383365E+03</pdfrwt>
<pdfrwt beam="2">  1       21 0.95633967E-01 0.20383365E+03</pdfrwt>
<totfact> 0.25436643E+04</totfact>
</mgrwt>
</event>
<event>
 4    1  0.3876841E+000  0.1731294E+03  0.7546771E-02  0.1174623E+00
         21   -1    0    0  501  502  0.00000000000E+00  0.00000000000E+00  0.41649850154E+03  0.41649850154E+03  0.00000000000E+00 0.  1.
         21   -1    0    0  502  503 -0.00000000000E+00 -0.00000000000E+00 -0.83081840209E+02  0.83081840209E+02  0.00000000000E+00 0.  1.
          6    1    1    2  501    0  0.55759367158E+01 -0.37019416685E+01  0.25807555342E+03  0.31076805935E+03  0.17300000000E+03 0.  1.
         -6    1    1    2    0  503 -0.55759367158E+01  0.37019416685E+01  0.75341107917E+02  0.18881228240E+03  0.17300000000E+03 0.  1.
<mgrwt>
<rscale>  2 0.17312942E+03</rscale>
<asrwt>0</asrwt>
<pdfrwt beam="1">  1       21 0.64076691E-01 0.17312942E+03</pdfrwt>
<pdfrwt beam="2">  1       21 0.12781822E-01 0.17312942E+03</pdfrwt>
<totfact> 0.11866675E+05</totfact>
</mgrwt>
</event>
<event>
 4    1  0.3876841E+000  0.2126614E+03  0.7546771E-02  0.1139476E+00
         21   -1    0    0  501  502  0.00000000000E+00  0.00000000000E+00  0.50850718274E+03  0.50850718274E+03  0.00000000000E+00 0.  1.
         21   -1    0    0  502  503 -0.00000000000E+00 -0.00000000000E+00 -0.29446484308E+03  0.29446484308E+03  0.00000000000E+00 0. -1.
          6    1    1    2  501    0  0.96031396407E+02  0.77934973427E+02  0.44244156915E+03  0.49089655865E+03  0.17300000000E+03 0.  1.
         -6    1    1    2    0  503 -0.96031396407E+02 -0.77934973427E+02 -0.22839922949E+03  0.31207546717E+03  0.17300000000E+03 0. -1.
<mgrwt>
<rscale>  2 0.21266144E+03</rscale>
<asrwt>0</asrwt>
<pdfrwt beam="1">  1       21 0.78231874E-01 0.21266144E+03</pdfrwt>
<pdfrwt beam="2">  1       21 0.45302284E-01 0.21266144E+03</pdfrwt>
<totfact> 0.66625314E+03</totfact>
</mgrwt>
</event>
<event>
 4    1  0.3876841E+000  0.1814402E+03  0.7546771E-02  0.1166416E+00
         21   -1    0    0  503  502  0.00000000000E+00  0.00000000000E+00  0.88041682356E+03  0.88041682356E+03  0.00000000000E+00 0. -1.
         21   -1    0    0  501  503 -0.00000000000E+00 -0.00000000000E+00 -0.76651513506E+02  0.76651513506E+02  0.00000000000E+00 0. -1.
          6    1    1    2  501    0 -0.49469647171E+02  0.23330165178E+02  0.59410660553E+02  0.19091927400E+03  0.17300000000E+03 0. -1.
         -6    1    1    2    0  502  0.49469647171E+02 -0.23330165178E+02  0.74435464950E+03  0.76614906306E+03  0.17300000000E+03 0. -1.
<mgrwt>
<rscale>  2 0.18144019E+03</rscale>
<asrwt>0</asrwt>
<pdfrwt beam="1">  1       21 0.13544874E+00 0.18144019E+03</pdfrwt>
<pdfrwt beam="2">  1       21 0.11792541E-01 0.18144019E+03</pdfrwt>
<totfact> 0.23750437E+04</totfact>
</mgrwt>
</event>
<event>
 4    1  0.3876841E+000  0.1981744E+03  0.7546771E-02  0.1151288E+00
         21   -1    0    0  503  502  0.00000000000E+00  0.00000000000E+00  0.76387112600E+03  0.76387112600E+03  0.00000000000E+00 0.  1.
         21   -1    0    0  501  503 -0.00000000000E+00 -0.00000000000E+00 -0.51776391161E+02  0.51776391161E+02  0.00000000000E+00 0.  1.
          6    1    1    2  501    0 -0.19477404554E+02  0.94682272196E+02  0.39020129282E+03  0.43764157809E+03  0.17300000000E+03 0.  1.
         -6    1    1    2    0  502  0.19477404554E+02 -0.94682272196E+02  0.32189344202E+03  0.37800593907E+03  0.17300000000E+03 0.  1.
<mgrwt>
<rscale>  2 0.19817442E+03</rscale>
<asrwt>0</asrwt>
<pdfrwt beam="1">  1       21 0.11751863E+00 0.19817442E+03</pdfrwt>
<pdfrwt beam="2">  1       21 0.79655992E-02 0.19817442E+03</pdfrwt>
<totfact> 0.67044944E+04</totfact>
</mgrwt>
</event>
<event>
 4    1  0.3876841E+000  0.2000248E+03  0.7546771E-02  0.1149718E+00
         21   -1    0    0  501  502  0.00000000000E+00  0.00000000000E+00  0.63937478507E+03  0.63937478507E+03  0.00000000000E+00 0. -1.
         21   -1    0    0  502  503 -0.00000000000E+00 -0.00000000000E+00 -0.65821664318E+02  0.65821664318E+02  0.00000000000E+00 0. -1.
          6    1    1    2  501    0  0.92943344218E+02  0.37979834092E+02  0.20848699043E+03  0.28892344698E+03  0.17300000000E+03 0. -1.
         -6    1    1    2    0  503 -0.92943344218E+02 -0.37979834092E+02  0.36506613032E+03  0.41627300242E+03  0.17300000000E+03 0. -1.
<mgrwt>
<rscale>  2 0.20002483E+03</rscale>
<asrwt>0</asrwt>
<pdfrwt beam="1">  1       21 0.98365348E-01 0.20002483E+03</pdfrwt>
<pdfrwt beam="2">  1       21 0.10126410E-01 0.20002483E+03</pdfrwt>
<totfact> 0.67505047E+04</totfact>
</mgrwt>
</event>
<event>
 4    1  0.3876841E+000  0.1966287E+03  0.7546771E-02  0.1152615E+00
         21   -1    0    0  501  502  0.00000000000E+00  0.00000000000E+00  0.44695154072E+02  0.44695154072E+02  0.00000000000E+00 0.  1.
         21   -1    0    0  502  503 -0.00000000000E+00 -0.00000000000E+00 -0.87301565662E+03  0.87301565662E+03  0.00000000000E+00 0. -1.
          6    1    1    2  501    0  0.28572970258E+01 -0.93411356223E+02 -0.37028692361E+03  0.41925559199E+03  0.17300000000E+03 0.  1.
         -6    1    1    2    0  503 -0.28572970258E+01  0.93411356223E+02 -0.45803357893E+03  0.49845521870E+03  0.17300000000E+03 0. -1.
<mgrwt>
<rscale>  2 0.19662870E+03</rscale>
<asrwt>0</asrwt>
<pdfrwt beam="1">  1       21 0.68761776E-02 0.19662870E+03</pdfrwt>
<pdfrwt beam="2">  1       21 0.13431010E+00 0.19662870E+03</pdfrwt>
<totfact> 0.61957395E+04</totfact>
</mgrwt>
</event>
<event>
 4    1  0.3876841E+000  0.1880592E+03  0.7546771E-02  0.1160224E+00
         21   -1    0    0  503  502  0.00000000000E+00  0.00000000000E+00  0.17106760460E+03  0.17106760460E+03  0.00000000000E+00 0.  1.
         21   -1    0    0  501  503 -0.00000000000E+00 -0.00000000000E+00 -0.20809598573E+03  0.20809598573E+03  0.00000000000E+00 0.  1.
          6    1    1    2  501    0 -0.66280598643E+01  0.73439223359E+02 -0.33826513636E+02  0.19107716695E+03  0.17300000000E+03 0. -1.
         -6    1    1    2    0  502  0.66280598643E+01 -0.73439223359E+02 -0.32018675014E+01  0.18808642338E+03  0.17300000000E+03 0. -1.
<mgrwt>
<rscale>  2 0.18805917E+03</rscale>
<asrwt>0</asrwt>
<pdfrwt beam="1">  1       21 0.26318093E-01 0.18805917E+03</pdfrwt>
<pdfrwt beam="2">  1       21 0.32014767E-01 0.18805917E+03</pdfrwt>
<totfact> 0.12902240E+05</totfact>
</mgrwt>
</event>
<event>
 4    1  0.3876841E+000  0.2647107E+03  0.7546771E-02  0.1104346E+00
         21   -1    0    0  501  502  0.00000000000E+00  0.00000000000E+00  0.49889683647E+02  0.49889683647E+02  0.00000000000E+00 0. -1.
         21   -1    0    0  502  503 -0.00000000000E+00 -0.00000000000E+00 -0.15173958647E+04  0.15173958647E+04  0.00000000000E+00 0.  1.
          6    1    1    2  501    0  0.10564848358E+03  0.17023846088E+03 -0.94747208244E+03  0.98375560108E+03  0.17300000000E+03 0. -1.
         -6    1    1    2    0  503 -0.10564848358E+03 -0.17023846088E+03 -0.52003409865E+03  0.58352994731E+03  0.17300000000E+03 0. -1.
<mgrwt>
<rscale>  2 0.26471066E+03</rscale>
<asrwt>0</asrwt>
<pdfrwt beam="1">  1       21 0.76753356E-02 0.26471066E+03</pdfrwt>
<pdfrwt beam="2">  1       21 0.23344553E+00 0.26471066E+03</pdfrwt>
<totfact> 0.10156793E+04</totfact>
</mgrwt>
</event>
<event>
 4    1  0.3876841E+000  0.2503421E+03  0.7546771E-02  0.1113089E+00
         21   -1    0    0  503  502  0.00000000000E+00  0.00000000000E+00  0.79569561002E+02  0.79569561002E+02  0.00000000000E+00 0.  1.
         21   -1    0    0  501  503 -0.00000000000E+00 -0.00000000000E+00 -0.14837971587E+04  0.14837971587E+04  0.00000000000E+00 0. -1.
          6    1    1    2  501    0  0.18064161769E+03 -0.10526041118E+02 -0.12375417977E+04  0.12626087647E+04  0.17300000000E+03 0. -1.
         -6    1    1    2    0  502 -0.18064161769E+03  0.10526041118E+02 -0.16668579997E+03  0.30075795500E+03  0.17300000000E+03 0.  1.
<mgrwt>
<rscale>  2 0.25034215E+03</rscale>
<asrwt>0</asrwt>
<pdfrwt beam="1">  1       21 0.12241472E-01 0.25034215E+03</pdfrwt>
<pdfrwt beam="2">  1       21 0.22827647E+00 0.25034215E+03</pdfrwt>
<totfact> 0.48206990E+03</totfact>
</mgrwt>
</event>
<event>
 4    1  0.3876841E+000  0.1973271E+03  0.7546771E-02  0.1152014E+00
         21   -1    0    0  503  502  0.00000000000E+00  0.00000000000E+00  0.86146614909E+02  0.86146614909E+02  0.00000000000E+00 0.  1.
         21   -1    0    0  501  503 -0.00000000000E+00 -0.00000000000E+00 -0.45235416450E+03  0.45235416450E+03  0.00000000000E+00 0.  1.
          6    1    1    2  501    0 -0.94303120242E+02 -0.10766563618E+02 -0.17553630305E+03  0.26410412922E+03  0.17300000000E+03 0. -1.
         -6    1    1    2    0  502  0.94303120242E+02  0.10766563618E+02 -0.19067124653E+03  0.27439665019E+03  0.17300000000E+03 0. -1.
<mgrwt>
<rscale>  2 0.19732713E+03</rscale>
<asrwt>0</asrwt>
<pdfrwt beam="1">  1       21 0.13253326E-01 0.19732713E+03</pdfrwt>
<pdfrwt beam="2">  1       21 0.69592947E-01 0.19732713E+03</pdfrwt>
<totfact> 0.91962531E+04</totfact>
</mgrwt>
</event>
<event>
 4    1  0.3876841E+000  0.3158902E+03  0.7546771E-02  0.1077556E+00
         21   -1    0    0  503  502  0.00000000000E+00  0.00000000000E+00  0.46358645606E+03  0.46358645606E+03  0.00000000000E+00 0. -1.
         21   -1    0    0  501  503 -0.00000000000E+00 -0.00000000000E+00 -0.22292393297E+03  0.22292393297E+03  0.00000000000E+00 0.  1.
          6    1    1    2  501    0 -0.25635138678E+03 -0.64354927053E+02  0.18402134980E+03  0.36558234000E+03  0.17300000000E+03 0.  1.
         -6    1    1    2    0  502  0.25635138678E+03  0.64354927053E+02  0.56641173284E+02  0.32092804902E+03  0.17300000000E+03 0.  1.
<mgrwt>
<rscale>  2 0.31589016E+03</rscale>
<asrwt>0</asrwt>
<pdfrwt beam="1">  1       21 0.71320993E-01 0.31589016E+03</pdfrwt>
<pdfrwt beam="2">  1       21 0.34295990E-01 0.31589016E+03</pdfrwt>
<totfact> 0.13665630E+04</totfact>
</mgrwt>
</event>
<event>
 4    1  0.3876841E+000  0.1835977E+03  0.7546771E-02  0.1164366E+00
         21   -1    0    0  503  502  0.00000000000E+00  0.00000000000E+00  0.14091020963E+03  0.14091020963E+03  0.00000000000E+00 0.  1.
         21   -1    0    0  501  503 -0.00000000000E+00 -0.00000000000E+00 -0.31275077536E+03  0.31275077536E+03  0.00000000000E+00 0. -1.
          6    1    1    2  501    0  0.58183820620E+02 -0.19843800812E+02 -0.19590829152E+03  0.26849244328E+03  0.17300000000E+03 0. -1.
         -6    1    1    2    0  502 -0.58183820620E+02  0.19843800812E+02  0.24067725789E+02  0.18516854171E+03  0.17300000000E+03 0.  1.
<mgrwt>
<rscale>  2 0.18359775E+03</rscale>
<asrwt>0</asrwt>
<pdfrwt beam="1">  1       21 0.21678494E-01 0.18359775E+03</pdfrwt>
<pdfrwt beam="2">  1       21 0.48115504E-01 0.18359775E+03</pdfrwt>
<totfact> 0.82208762E+04</totfact>
</mgrwt>
</event>
<event>
 4    1  0.3876841E+000  0.1774501E+03  0.7546771E-02  0.1170294E+00
         21   -1    0    0  501  502  0.00000000000E+00  0.00000000000E+00  0.17920911259E+03  0.17920911259E+03  0.00000000000E+00 0. -1.
         21   -1    0    0  502  503 -0.00000000000E+00 -0.00000000000E+00 -0.48486416017E+03  0.48486416017E+03  0.00000000000E+00 0. -1.
          6    1    1    2  501    0 -0.13393471310E+02 -0.37150248053E+02  0.11230604364E+03  0.21000279389E+03  0.17300000000E+03 0. -1.
         -6    1    1    2    0  503  0.13393471310E+02  0.37150248053E+02 -0.41796109122E+03  0.45407047887E+03  0.17300000000E+03 0. -1.
<mgrwt>
<rscale>  2 0.17745007E+03</rscale>
<asrwt>0</asrwt>
<pdfrwt beam="1">  1       21 0.27570633E-01 0.17745007E+03</pdfrwt>
<pdfrwt beam="2">  1       21 0.74594486E-01 0.17745007E+03</pdfrwt>
<totfact> 0.20387133E+04</totfact>
</mgrwt>
</event>
<event>
 4    1  0.3876841E+000  0.2101067E+03  0.7546771E-02  0.1141481E+00
         21   -1    0    0  501  502  0.00000000000E+00  0.00000000000E+00  0.33718302520E+03  0.33718302520E+03  0.00000000000E+00 0.  1.
         21   -1    0    0  502  503 -0.00000000000E+00 -0.00000000000E+00 -0.15266030555E+03  0.15266030555E+03  0.00000000000E+00 0.  1.
          6    1    1    2  501    0  0.27105004540E+02 -0.11610839971E+03  0.18468266018E+03  0.27973653091E+03  0.17300000000E+03 0.  1.
         -6    1    1    2    0  503 -0.27105004540E+02  0.11610839971E+03 -0.15994052732E+00  0.21010679983E+03  0.17300000000E+03 0.  1.
<mgrwt>
<rscale>  2 0.21010674E+03</rscale>
<asrwt>0</asrwt>
<pdfrwt beam="1">  1       21 0.51874311E-01 0.21010674E+03</pdfrwt>
<pdfrwt beam="2">  1       21 0.23486201E-01 0.21010674E+03</pdfrwt>
<totfact> 0.59701985E+04</totfact>
</mgrwt>
</event>
<event>
 4    1  0.3876841E+000  0.1805668E+03  0.7546771E-02  0.1167256E+00
         21   -1    0    0  503  502  0.00000000000E+00  0.00000000000E+00  0.22487180555E+03  0.22487180555E+03  0.00000000000E+00 0. -1.
         21   -1    0    0  501  503 -0.00000000000E+00 -0.00000000000E+00 -0.16841872339E+03  0.16841872339E+03  0.00000000000E+00 0. -1.
          6    1    1    2  501    0  0.41030505574E+02  0.31494110108E+02  0.10156868866E+03  0.20717282610E+03  0.17300000000E+03 0. -1.
         -6    1    1    2    0  502 -0.41030505574E+02 -0.31494110108E+02 -0.45115606506E+02  0.18611770284E+03  0.17300000000E+03 0. -1.
<mgrwt>
<rscale>  2 0.18056683E+03</rscale>
<asrwt>0</asrwt>
<pdfrwt beam="1">  1       21 0.34595662E-01 0.18056683E+03</pdfrwt>
<pdfrwt beam="2">  1       21 0.25910573E-01 0.18056683E+03</pdfrwt>
<totfact> 0.11440011E+05</totfact>
</mgrwt>
</event>
<event>
 4    1  0.3876841E+000  0.1935438E+03  0.7546771E-02  0.1155303E+00
         21   -1    0    0  501  502  0.00000000000E+00  0.00000000000E+00  0.18748868566E+03  0.18748868566E+03  0.00000000000E+00 0. -1.
         21   -1    0    0  502  503 -0.00000000000E+00 -0.00000000000E+00 -0.23905794971E+03  0.23905794971E+03  0.00000000000E+00 0. -1.
          6    1    1    2  501    0 -0.75953960507E+02 -0.41966754374E+02  0.60648256608E+02  0.20282362688E+03  0.17300000000E+03 0. -1.
         -6    1    1    2    0  503  0.75953960507E+02  0.41966754374E+02 -0.11221752066E+03  0.22372300850E+03  0.17300000000E+03 0. -1.
<mgrwt>
<rscale>  2 0.19354383E+03</rscale>
<asrwt>0</asrwt>
<pdfrwt beam="1">  1       21 0.28844413E-01 0.19354383E+03</pdfrwt>
<pdfrwt beam="2">  1       21 0.36778146E-01 0.19354383E+03</pdfrwt>
<totfact> 0.81985234E+04</totfact>
</mgrwt>
</event>
<event>
 4    1  0.3876841E+000  0.2900085E+03  0.7546771E-02  0.1090345E+00
         21   -1    0    0  503  502  0.00000000000E+00  0.00000000000E+00  0.39747288788E+03  0.39747288788E+03  0.00000000000E+00 0. -1.
         21   -1    0    0  501  503 -0.00000000000E+00 -0.00000000000E+00 -0.23061720240E+03  0.23061720240E+03  0.00000000000E+00 0.  1.
          6    1    1    2  501    0  0.15111174009E+02  0.23226622475E+03 -0.67559503646E+01  0.29008721035E+03  0.17300000000E+03 0.  1.
         -6    1    1    2    0  502 -0.15111174009E+02 -0.23226622475E+03  0.17361163585E+03  0.33800287994E+03  0.17300000000E+03 0. -1.
<mgrwt>
<rscale>  2 0.29000853E+03</rscale>
<asrwt>0</asrwt>
<pdfrwt beam="1">  1       21 0.61149675E-01 0.29000853E+03</pdfrwt>
<pdfrwt beam="2">  1       21 0.35479570E-01 0.29000853E+03</pdfrwt>
<totfact> 0.18124203E+04</totfact>
</mgrwt>
</event>
<event>
 4    1  0.3876841E+000  0.2644994E+03  0.7546771E-02  0.1104470E+00
         21   -1    0    0  503  502  0.00000000000E+00  0.00000000000E+00  0.38450466247E+03  0.38450466247E+03  0.00000000000E+00 0.  1.
         21   -1    0    0  501  503 -0.00000000000E+00 -0.00000000000E+00 -0.29214781257E+03  0.29214781257E+03  0.00000000000E+00 0. -1.
          6    1    1    2  501    0  0.17034078795E+03 -0.10495207675E+03 -0.16161147710E+03  0.30996482379E+03  0.17300000000E+03 0. -1.
         -6    1    1    2    0  502 -0.17034078795E+03  0.10495207675E+03  0.25396832700E+03  0.36668765124E+03  0.17300000000E+03 0.  1.
<mgrwt>
<rscale>  2 0.26449938E+03</rscale>
<asrwt>0</asrwt>
<pdfrwt beam="1">  1       21 0.59154564E-01 0.26449938E+03</pdfrwt>
<pdfrwt beam="2">  1       21 0.44945817E-01 0.26449938E+03</pdfrwt>
<totfact> 0.12169535E+04</totfact>
</mgrwt>
</event>
<event>
 4    1  0.3876841E+000  0.6128829E+03  0.7546771E-02  0.9879033E-01
         21   -1    0    0  501  502  0.00000000000E+00  0.00000000000E+00  0.12521951971E+04  0.12521951971E+04  0.00000000000E+00 0. -1.
         21   -1    0    0  502  503 -0.00000000000E+00 -0.00000000000E+00 -0.32861109521E+03  0.32861109521E+03  0.00000000000E+00 0.  1.
          6    1    1    2  501    0  0.34125432842E+02  0.58696835744E+03  0.22845930628E+03  0.65407878151E+03  0.17300000000E+03 0.  1.
         -6    1    1    2    0  503 -0.34125432842E+02 -0.58696835744E+03  0.69512479565E+03  0.92672751083E+03  0.17300000000E+03 0. -1.
<mgrwt>
<rscale>  2 0.61288286E+03</rscale>
<asrwt>0</asrwt>
<pdfrwt beam="1">  1       21 0.19264541E+00 0.61288286E+03</pdfrwt>
<pdfrwt beam="2">  1       21 0.50555554E-01 0.61288286E+03</pdfrwt>
<totfact> 0.42951482E+02</totfact>
</mgrwt>
</event>
<event>
 4    1  0.3876841E+000  0.1792639E+03  0.7546771E-02  0.1168517E+00
         21   -1    0    0  501  502  0.00000000000E+00  0.00000000000E+00  0.88836337232E+03  0.88836337232E+03  0.00000000000E+00 0. -1.
         21   -1    0    0  502  503 -0.00000000000E+00 -0.00000000000E+00 -0.37420669466E+02  0.37420669466E+02  0.00000000000E+00 0.  1.
          6    1    1    2  501    0 -0.34627660498E+02  0.31740565589E+02  0.34097795565E+03  0.38522915857E+03  0.17300000000E+03 0.  1.
         -6    1    1    2    0  503  0.34627660498E+02 -0.31740565589E+02  0.50996474720E+03  0.54055488321E+03  0.17300000000E+03 0. -1.
<mgrwt>
<rscale>  2 0.17926388E+03</rscale>
<asrwt>0</asrwt>
<pdfrwt beam="1">  1       21 0.13667127E+00 0.17926388E+03</pdfrwt>
<pdfrwt beam="2">  1       21 0.57570268E-02 0.17926388E+03</pdfrwt>
<totfact> 0.81087350E+04</totfact>
</mgrwt>
</event>
<event>
 4    1  0.3876841E+000  0.1748062E+03  0.7546771E-02  0.1172926E+00
         21   -1    0    0  501  502  0.00000000000E+00  0.00000000000E+00  0.25673748361E+03  0.25673748361E+03  0.00000000000E+00 0. -1.
         21   -1    0    0  502  503 -0.00000000000E+00 -0.00000000000E+00 -0.18005242080E+03  0.18005242080E+03  0.00000000000E+00 0. -1.
          6    1    1    2  501    0  0.24848169022E+02 -0.32817700121E+01  0.16549335227E+03  0.24071819866E+03  0.17300000000E+03 0. -1.
         -6    1    1    2    0  503 -0.24848169022E+02  0.32817700121E+01 -0.88808289467E+02  0.19607170575E+03  0.17300000000E+03 0. -1.
<mgrwt>
<rscale>  2 0.17480618E+03</rscale>
<asrwt>0</asrwt>
<pdfrwt beam="1">  1       21 0.39498074E-01 0.17480618E+03</pdfrwt>
<pdfrwt beam="2">  1       21 0.27700373E-01 0.17480618E+03</pdfrwt>
<totfact> 0.77435579E+04</totfact>
</mgrwt>
</event>
<event>
 4    1  0.3876841E+000  0.2365095E+03  0.7546771E-02  0.1122140E+00
         21   -1    0    0  501  502  0.00000000000E+00  0.00000000000E+00  0.56263371793E+03  0.56263371793E+03  0.00000000000E+00 0. -1.
         21   -1    0    0  502  503 -0.00000000000E+00 -0.00000000000E+00 -0.11921883815E+03  0.11921883815E+03  0.00000000000E+00 0.  1.
          6    1    1    2  501    0  0.13813181305E+03 -0.83230552066E+02  0.36064323718E+03  0.43127748272E+03  0.17300000000E+03 0. -1.
         -6    1    1    2    0  503 -0.13813181305E+03  0.83230552066E+02  0.82771642597E+02  0.25057507337E+03  0.17300000000E+03 0.  1.
<mgrwt>
<rscale>  2 0.23650946E+03</rscale>
<asrwt>0</asrwt>
<pdfrwt beam="1">  1       21 0.86559032E-01 0.23650946E+03</pdfrwt>
<pdfrwt beam="2">  1       21 0.18341360E-01 0.23650946E+03</pdfrwt>
<totfact> 0.30455180E+04</totfact>
</mgrwt>
</event>
<event>
 4    1  0.3876841E+000  0.1868676E+03  0.7546771E-02  0.1161317E+00
         21   -1    0    0  501  502  0.00000000000E+00  0.00000000000E+00  0.68923040859E+03  0.68923040859E+03  0.00000000000E+00 0. -1.
         21   -1    0    0  502  503 -0.00000000000E+00 -0.00000000000E+00 -0.76038701638E+02  0.76038701638E+02  0.00000000000E+00 0. -1.
          6    1    1    2  501    0  0.19629541638E+02 -0.67861457803E+02  0.52763197647E+03  0.55974547694E+03  0.17300000000E+03 0. -1.
         -6    1    1    2    0  503 -0.19629541638E+02  0.67861457803E+02  0.85559730483E+02  0.20552363329E+03  0.17300000000E+03 0. -1.
<mgrwt>
<rscale>  2 0.18686759E+03</rscale>
<asrwt>0</asrwt>
<pdfrwt beam="1">  1       21 0.10603544E+00 0.18686759E+03</pdfrwt>
<pdfrwt beam="2">  1       21 0.11698262E-01 0.18686759E+03</pdfrwt>
<totfact> 0.43956284E+04</totfact>
</mgrwt>
</event>
<event>
 4    1  0.3876841E+000  0.1735198E+03  0.7546771E-02  0.1174226E+00
         21   -1    0    0  503  502  0.00000000000E+00  0.00000000000E+00  0.12269820118E+03  0.12269820118E+03  0.00000000000E+00 0. -1.
         21   -1    0    0  501  503 -0.00000000000E+00 -0.00000000000E+00 -0.80476479912E+03  0.80476479912E+03  0.00000000000E+00 0. -1.
          6    1    1    2  501    0 -0.12702859922E+02 -0.43291309764E+01 -0.72765208342E+03  0.74805525099E+03  0.17300000000E+03 0. -1.
         -6    1    1    2    0  502  0.12702859922E+02  0.43291309764E+01  0.45585485481E+02  0.17940774931E+03  0.17300000000E+03 0. -1.
<mgrwt>
<rscale>  2 0.17351975E+03</rscale>
<asrwt>0</asrwt>
<pdfrwt beam="1">  1       21 0.18876646E-01 0.17351975E+03</pdfrwt>
<pdfrwt beam="2">  1       21 0.12380997E+00 0.17351975E+03</pdfrwt>
<totfact> 0.12732318E+04</totfact>
</mgrwt>
</event>
<event>
 4    1  0.3876841E+000  0.2271887E+03  0.7546771E-02  0.1128634E+00
         21   -1    0    0  503  502  0.00000000000E+00  0.00000000000E+00  0.31376114291E+03  0.31376114291E+03  0.00000000000E+00 0.  1.
         21   -1    0    0  501  503 -0.00000000000E+00 -0.00000000000E+00 -0.20201868742E+03  0.20201868742E+03  0.00000000000E+00 0.  1.
          6    1    1    2  501    0 -0.13030199345E+03 -0.68608429511E+02 -0.55261922220E+02  0.23381318642E+03  0.17300000000E+03 0.  1.
         -6    1    1    2    0  502  0.13030199345E+03  0.68608429511E+02  0.16700437772E+03  0.28196664391E+03  0.17300000000E+03 0.  1.
<mgrwt>
<rscale>  2 0.22718875E+03</rscale>
<asrwt>0</asrwt>
<pdfrwt beam="1">  1       21 0.48270945E-01 0.22718875E+03</pdfrwt>
<pdfrwt beam="2">  1       21 0.31079798E-01 0.22718875E+03</pdfrwt>
<totfact> 0.40085234E+04</totfact>
</mgrwt>
</event>
<event>
 4    1  0.3876841E+000  0.1767536E+03  0.7546771E-02  0.1170982E+00
         21   -1    0    0  503  502  0.00000000000E+00  0.00000000000E+00  0.13179065296E+03  0.13179065296E+03  0.00000000000E+00 0. -1.
         21   -1    0    0  501  503 -0.00000000000E+00 -0.00000000000E+00 -0.59078575231E+03  0.59078575231E+03  0.00000000000E+00 0. -1.
          6    1    1    2  501    0 -0.27377030531E+02 -0.23734637834E+02 -0.50905704243E+03  0.53887002819E+03  0.17300000000E+03 0. -1.
         -6    1    1    2    0  502  0.27377030531E+02  0.23734637834E+02  0.50061943076E+02  0.18370637708E+03  0.17300000000E+03 0. -1.
<mgrwt>
<rscale>  2 0.17675360E+03</rscale>
<asrwt>0</asrwt>
<pdfrwt beam="1">  1       21 0.20275485E-01 0.17675360E+03</pdfrwt>
<pdfrwt beam="2">  1       21 0.90890117E-01 0.17675360E+03</pdfrwt>
<totfact> 0.23325584E+04</totfact>
</mgrwt>
</event>
<event>
 4    1  0.3876841E+000  0.1984569E+03  0.7546771E-02  0.1151048E+00
         21   -1    0    0  501  502  0.00000000000E+00  0.00000000000E+00  0.15479248997E+03  0.15479248997E+03  0.00000000000E+00 0.  1.
         21   -1    0    0  502  503 -0.00000000000E+00 -0.00000000000E+00 -0.26317955781E+03  0.26317955781E+03  0.00000000000E+00 0. -1.
          6    1    1    2  501    0 -0.88220264534E+02 -0.40906238129E+02 -0.16106377461E+02  0.19910939402E+03  0.17300000000E+03 0.  1.
         -6    1    1    2    0  503  0.88220264534E+02  0.40906238129E+02 -0.92280690380E+02  0.21886265376E+03  0.17300000000E+03 0.  1.
<mgrwt>
<rscale>  2 0.19845689E+03</rscale>
<asrwt>0</asrwt>
<pdfrwt beam="1">  1       21 0.23814229E-01 0.19845689E+03</pdfrwt>
<pdfrwt beam="2">  1       21 0.40489162E-01 0.19845689E+03</pdfrwt>
<totfact> 0.97423734E+04</totfact>
</mgrwt>
</event>
<event>
 4    1  0.3876841E+000  0.2204211E+03  0.7546771E-02  0.1133570E+00
         21   -1    0    0  501  502  0.00000000000E+00  0.00000000000E+00  0.29434778964E+03  0.29434778964E+03  0.00000000000E+00 0. -1.
         21   -1    0    0  502  503 -0.00000000000E+00 -0.00000000000E+00 -0.29626150499E+03  0.29626150499E+03  0.00000000000E+00 0. -1.
          6    1    1    2  501    0 -0.92990992964E+02  0.10004562887E+03  0.19555999143E+03  0.29466788573E+03  0.17300000000E+03 0. -1.
         -6    1    1    2    0  503  0.92990992964E+02 -0.10004562887E+03 -0.19747370679E+03  0.29594140890E+03  0.17300000000E+03 0. -1.
<mgrwt>
<rscale>  2 0.22042108E+03</rscale>
<asrwt>0</asrwt>
<pdfrwt beam="1">  1       21 0.45284275E-01 0.22042108E+03</pdfrwt>
<pdfrwt beam="2">  1       21 0.45578693E-01 0.22042108E+03</pdfrwt>
<totfact> 0.21249883E+04</totfact>
</mgrwt>
</event>
<event>
 4    1  0.3876841E+000  0.2094408E+03  0.7546771E-02  0.1142010E+00
         21   -1    0    0  503  502  0.00000000000E+00  0.00000000000E+00  0.41175000773E+02  0.41175000773E+02  0.00000000000E+00 0.  1.
         21   -1    0    0  501  503 -0.00000000000E+00 -0.00000000000E+00 -0.12440944482E+04  0.12440944482E+04  0.00000000000E+00 0.  1.
          6    1    1    2  501    0 -0.11467922269E+03  0.28019756527E+02 -0.84505244255E+03  0.87061992944E+03  0.17300000000E+03 0.  1.
         -6    1    1    2    0  502  0.11467922269E+03 -0.28019756527E+02 -0.35786700488E+03  0.41464951954E+03  0.17300000000E+03 0.  1.
<mgrwt>
<rscale>  2 0.20944076E+03</rscale>
<asrwt>0</asrwt>
<pdfrwt beam="1">  1       21 0.63346169E-02 0.20944076E+03</pdfrwt>
<pdfrwt beam="2">  1       21 0.19139910E+00 0.20944076E+03</pdfrwt>
<totfact> 0.27114647E+04</totfact>
</mgrwt>
</event>
<event>
 4    1  0.3876841E+000  0.1835701E+03  0.7546771E-02  0.1164392E+00
         21   -1    0    0  501  502  0.00000000000E+00  0.00000000000E+00  0.43019233382E+02  0.43019233382E+02  0.00000000000E+00 0.  1.
         21   -1    0    0  502  503 -0.00000000000E+00 -0.00000000000E+00 -0.78449796334E+03  0.78449796334E+03  0.00000000000E+00 0.  1.
          6    1    1    2  501    0  0.50050254720E+02 -0.35552150246E+02 -0.35473121696E+03  0.39941484659E+03  0.17300000000E+03 0.  1.
         -6    1    1    2    0  503 -0.50050254720E+02  0.35552150246E+02 -0.38674751300E+03  0.42810235014E+03  0.17300000000E+03 0.  1.
<mgrwt>
<rscale>  2 0.18357010E+03</rscale>
<asrwt>0</asrwt>
<pdfrwt beam="1">  1       21 0.66183436E-02 0.18357010E+03</pdfrwt>
<pdfrwt beam="2">  1       21 0.12069199E+00 0.18357010E+03</pdfrwt>
<totfact> 0.87099646E+04</totfact>
</mgrwt>
</event>
<event>
 4    1  0.3876841E+000  0.2184055E+03  0.7546771E-02  0.1135077E+00
         21   -1    0    0  501  502  0.00000000000E+00  0.00000000000E+00  0.24803063102E+03  0.24803063102E+03  0.00000000000E+00 0.  1.
         21   -1    0    0  502  503 -0.00000000000E+00 -0.00000000000E+00 -0.25882203380E+03  0.25882203380E+03  0.00000000000E+00 0. -1.
          6    1    1    2  501    0 -0.13310217298E+03  0.74669172411E+01  0.12306569235E+03  0.25069126019E+03  0.17300000000E+03 0.  1.
         -6    1    1    2    0  503  0.13310217298E+03 -0.74669172411E+01 -0.13385709513E+03  0.25616140463E+03  0.17300000000E+03 0. -1.
<mgrwt>
<rscale>  2 0.21840546E+03</rscale>
<asrwt>0</asrwt>
<pdfrwt beam="1">  1       21 0.38158558E-01 0.21840546E+03</pdfrwt>
<pdfrwt beam="2">  1       21 0.39818775E-01 0.21840546E+03</pdfrwt>
<totfact> 0.39744836E+04</totfact>
</mgrwt>
</event>
<event>
 4    1  0.3876841E+000  0.2361974E+03  0.7546771E-02  0.1122352E+00
         21   -1    0    0  501  502  0.00000000000E+00  0.00000000000E+00  0.73343867762E+02  0.73343867762E+02  0.00000000000E+00 0.  1.
         21   -1    0    0  502  503 -0.00000000000E+00 -0.00000000000E+00 -0.90526145244E+03  0.90526145244E+03  0.00000000000E+00 0. -1.
          6    1    1    2  501    0  0.10367070212E+03  0.12293326840E+03 -0.22039519466E+03  0.32305300616E+03  0.17300000000E+03 0. -1.
         -6    1    1    2    0  503 -0.10367070212E+03 -0.12293326840E+03 -0.61152239002E+03  0.65555231405E+03  0.17300000000E+03 0. -1.
<mgrwt>
<rscale>  2 0.23619738E+03</rscale>
<asrwt>0</asrwt>
<pdfrwt beam="1">  1       21 0.11283671E-01 0.23619738E+03</pdfrwt>
<pdfrwt beam="2">  1       21 0.13927100E+00 0.23619738E+03</pdfrwt>
<totfact> 0.23140081E+04</totfact>
</mgrwt>
</event>
<event>
 4    1  0.3876841E+000  0.2354016E+03  0.7546771E-02  0.1122895E+00
         21   -1    0    0  501  502  0.00000000000E+00  0.00000000000E+00  0.87925897053E+02  0.87925897053E+02  0.00000000000E+00 0. -1.
         21   -1    0    0  502  503 -0.00000000000E+00 -0.00000000000E+00 -0.86767649666E+03  0.86767649666E+03  0.00000000000E+00 0.  1.
          6    1    1    2  501    0  0.72187343821E+02 -0.14238645014E+03 -0.13992866608E+03  0.27385022436E+03  0.17300000000E+03 0. -1.
         -6    1    1    2    0  503 -0.72187343821E+02  0.14238645014E+03 -0.63982193352E+03  0.68175216934E+03  0.17300000000E+03 0.  1.
<mgrwt>
<rscale>  2 0.23540160E+03</rscale>
<asrwt>0</asrwt>
<pdfrwt beam="1">  1       21 0.13527061E-01 0.23540160E+03</pdfrwt>
<pdfrwt beam="2">  1       21 0.13348870E+00 0.23540160E+03</pdfrwt>
<totfact> 0.18626011E+04</totfact>
</mgrwt>
</event>
<event>
 4    1  0.3876841E+000  0.4432817E+03  0.7546771E-02  0.1029745E+00
         21   -1    0    0  501  502  0.00000000000E+00  0.00000000000E+00  0.16741826342E+03  0.16741826342E+03  0.00000000000E+00 0. -1.
         21   -1    0    0  502  503 -0.00000000000E+00 -0.00000000000E+00 -0.12728907870E+04  0.12728907870E+04  0.00000000000E+00 0. -1.
          6    1    1    2  501    0 -0.29699262529E+03  0.27993750463E+03 -0.75376968708E+03  0.87445261000E+03  0.17300000000E+03 0. -1.
         -6    1    1    2    0  503  0.29699262529E+03 -0.27993750463E+03 -0.35170283652E+03  0.56585644044E+03  0.17300000000E+03 0. -1.
<mgrwt>
<rscale>  2 0.44328166E+03</rscale>
<asrwt>0</asrwt>
<pdfrwt beam="1">  1       21 0.25756657E-01 0.44328166E+03</pdfrwt>
<pdfrwt beam="2">  1       21 0.19582934E+00 0.44328166E+03</pdfrwt>
<totfact> 0.17305242E+03</totfact>
</mgrwt>
</event>
<event>
 4    1  0.3876841E+000  0.1767614E+03  0.7546771E-02  0.1170975E+00
         21   -1    0    0  501  502  0.00000000000E+00  0.00000000000E+00  0.15532949752E+04  0.15532949752E+04  0.00000000000E+00 0. -1.
         21   -1    0    0  502  503 -0.00000000000E+00 -0.00000000000E+00 -0.34637849616E+02  0.34637849616E+02  0.00000000000E+00 0. -1.
          6    1    1    2  501    0  0.59270766479E+01  0.35783670235E+02  0.12734336344E+04  0.12856429607E+04  0.17300000000E+03 0. -1.
         -6    1    1    2    0  503 -0.59270766479E+01 -0.35783670235E+02  0.24522349120E+03  0.30228986409E+03  0.17300000000E+03 0. -1.
<mgrwt>
<rscale>  2 0.17676142E+03</rscale>
<asrwt>0</asrwt>
<pdfrwt beam="1">  1       21 0.23896840E+00 0.17676142E+03</pdfrwt>
<pdfrwt beam="2">  1       21 0.53289012E-02 0.17676142E+03</pdfrwt>
<totfact> 0.18916548E+04</totfact>
</mgrwt>
</event>
<event>
 4    1  0.3876841E+000  0.1945645E+03  0.7546771E-02  0.1154408E+00
         21   -1    0    0  501  502  0.00000000000E+00  0.00000000000E+00  0.13072234181E+03  0.13072234181E+03  0.00000000000E+00 0. -1.
         21   -1    0    0  502  503 -0.00000000000E+00 -0.00000000000E+00 -0.31814584973E+03  0.31814584973E+03  0.00000000000E+00 0. -1.
          6    1    1    2  501    0 -0.65005593567E+02 -0.60832614941E+02 -0.26467502129E+02  0.19635646897E+03  0.17300000000E+03 0. -1.
         -6    1    1    2    0  503  0.65005593567E+02  0.60832614941E+02 -0.16095600579E+03  0.25251172257E+03  0.17300000000E+03 0. -1.
<mgrwt>
<rscale>  2 0.19456447E+03</rscale>
<asrwt>0</asrwt>
<pdfrwt beam="1">  1       21 0.20111130E-01 0.19456447E+03</pdfrwt>
<pdfrwt beam="2">  1       21 0.48945515E-01 0.19456447E+03</pdfrwt>
<totfact> 0.90932898E+04</totfact>
</mgrwt>
</event>
<event>
 4    1  0.3876841E+000  0.1968479E+03  0.7546771E-02  0.1152426E+00
         21   -1    0    0  501  502  0.00000000000E+00  0.00000000000E+00  0.13752188474E+03  0.13752188474E+03  0.00000000000E+00 0. -1.
         21   -1    0    0  502  503 -0.00000000000E+00 -0.00000000000E+00 -0.76464336107E+03  0.76464336107E+03  0.00000000000E+00 0. -1.
          6    1    1    2  501    0 -0.22374421084E+02 -0.91211123011E+02  0.44902609624E+02  0.20190425461E+03  0.17300000000E+03 0. -1.
         -6    1    1    2    0  503  0.22374421084E+02  0.91211123011E+02 -0.67202408596E+03  0.70026099120E+03  0.17300000000E+03 0. -1.
<mgrwt>
<rscale>  2 0.19684787E+03</rscale>
<asrwt>0</asrwt>
<pdfrwt beam="1">  1       21 0.21157213E-01 0.19684787E+03</pdfrwt>
<pdfrwt beam="2">  1       21 0.11763744E+00 0.19684787E+03</pdfrwt>
<totfact> 0.11489350E+04</totfact>
</mgrwt>
</event>
<event>
 4    1  0.3876841E+000  0.3912586E+03  0.7546771E-02  0.1046849E+00
         21   -1    0    0  503  502  0.00000000000E+00  0.00000000000E+00  0.18434291629E+03  0.18434291629E+03  0.00000000000E+00 0.  1.
         21   -1    0    0  501  503 -0.00000000000E+00 -0.00000000000E+00 -0.83628302464E+03  0.83628302464E+03  0.00000000000E+00 0.  1.
          6    1    1    2  501    0 -0.31304384649E+03  0.15861234357E+03 -0.28326656692E+03  0.48303547830E+03  0.17300000000E+03 0.  1.
         -6    1    1    2    0  502  0.31304384649E+03 -0.15861234357E+03 -0.36867354144E+03  0.53759046263E+03  0.17300000000E+03 0.  1.
<mgrwt>
<rscale>  2 0.39125864E+03</rscale>
<asrwt>0</asrwt>
<pdfrwt beam="1">  1       21 0.28360448E-01 0.39125864E+03</pdfrwt>
<pdfrwt beam="2">  1       21 0.12865893E+00 0.39125864E+03</pdfrwt>
<totfact> 0.47080666E+03</totfact>
</mgrwt>
</event>
<event>
 4    1  0.3876841E+000  0.1733918E+03  0.7546771E-02  0.1174356E+00
         21   -1    0    0  501  502  0.00000000000E+00  0.00000000000E+00  0.37973430965E+03  0.37973430965E+03  0.00000000000E+00 0. -1.
         21   -1    0    0  502  503 -0.00000000000E+00 -0.00000000000E+00 -0.12836293567E+03  0.12836293567E+03  0.00000000000E+00 0. -1.
          6    1    1    2  501    0  0.62539780031E+01  0.98284535021E+01  0.28295177324E+03  0.33185300468E+03  0.17300000000E+03 0. -1.
         -6    1    1    2    0  503 -0.62539780031E+01 -0.98284535021E+01 -0.31580399259E+02  0.17624424063E+03  0.17300000000E+03 0. -1.
<mgrwt>
<rscale>  2 0.17339178E+03</rscale>
<asrwt>0</asrwt>
<pdfrwt beam="1">  1       21 0.58420663E-01 0.17339178E+03</pdfrwt>
<pdfrwt beam="2">  1       21 0.19748144E-01 0.17339178E+03</pdfrwt>
<totfact> 0.65404217E+04</totfact>
</mgrwt>
</event>
<event>
 4    1  0.3876841E+000  0.4630575E+03  0.7546771E-02  0.1023898E+00
         21   -1    0    0  501  502  0.00000000000E+00  0.00000000000E+00  0.17322761802E+03  0.17322761802E+03  0.00000000000E+00 0.  1.
         21   -1    0    0  502  503 -0.00000000000E+00 -0.00000000000E+00 -0.16947119908E+04  0.16947119908E+04  0.00000000000E+00 0. -1.
          6    1    1    2  501    0 -0.35788545029E+03  0.23751057548E+03 -0.27579093978E+03  0.53896466624E+03  0.17300000000E+03 0.  1.
         -6    1    1    2    0  503  0.35788545029E+03 -0.23751057548E+03 -0.12456934330E+04  0.13289749426E+04  0.17300000000E+03 0. -1.
<mgrwt>
<rscale>  2 0.46305752E+03</rscale>
<asrwt>0</asrwt>
<pdfrwt beam="1">  1       21 0.26650403E-01 0.46305752E+03</pdfrwt>
<pdfrwt beam="2">  1       21 0.26072492E+00 0.46305752E+03</pdfrwt>
<totfact> 0.62133339E+02</totfact>
</mgrwt>
</event>
<event>
 4    1  0.3876841E+000  0.1946207E+03  0.7546771E-02  0.1154359E+00
         21   -1    0    0  503  502  0.00000000000E+00  0.00000000000E+00  0.53848644524E+02  0.53848644524E+02  0.00000000000E+00 0. -1.
         21   -1    0    0  501  503 -0.00000000000E+00 -0.00000000000E+00 -0.96079572415E+03  0.96079572415E+03  0.00000000000E+00 0. -1.
          6    1    1    2  501    0  0.59589603330E+02  0.66312096006E+02 -0.71605723738E+03  0.74203448849E+03  0.17300000000E+03 0.  1.
         -6    1    1    2    0  502 -0.59589603330E+02 -0.66312096006E+02 -0.19088984225E+03  0.27260988018E+03  0.17300000000E+03 0.  1.
<mgrwt>
<rscale>  2 0.19462069E+03</rscale>
<asrwt>0</asrwt>
<pdfrwt beam="1">  1       21 0.82844085E-02 0.19462069E+03</pdfrwt>
<pdfrwt beam="2">  1       21 0.14781470E+00 0.19462069E+03</pdfrwt>
<totfact> 0.35036149E+04</totfact>
</mgrwt>
</event>
<event>
 4    1  0.3876841E+000  0.1739972E+03  0.7546771E-02  0.1173742E+00
         21   -1    0    0  503  502  0.00000000000E+00  0.00000000000E+00  0.71140319275E+03  0.71140319275E+03  0.00000000000E+00 0. -1.
         21   -1    0    0  501  503 -0.00000000000E+00 -0.00000000000E+00 -0.56699522343E+02  0.56699522343E+02  0.00000000000E+00 0. -1.
          6    1    1    2  501    0 -0.42340351415E+01 -0.18113451297E+02  0.13554391913E+03  0.22056105319E+03  0.17300000000E+03 0. -1.
         -6    1    1    2    0  502  0.42340351415E+01  0.18113451297E+02  0.51915975128E+03  0.54754166190E+03  0.17300000000E+03 0. -1.
<mgrwt>
<rscale>  2 0.17399720E+03</rscale>
<asrwt>0</asrwt>
<pdfrwt beam="1">  1       21 0.10944664E+00 0.17399720E+03</pdfrwt>
<pdfrwt beam="2">  1       21 0.87230040E-02 0.17399720E+03</pdfrwt>
<totfact> 0.68821514E+04</totfact>
</mgrwt>
</event>
<event>
 4    1  0.3876841E+000  0.1771797E+03  0.7546771E-02  0.1170561E+00
         21   -1    0    0  501  502  0.00000000000E+00  0.00000000000E+00  0.82678279496E+02  0.82678279496E+02  0.00000000000E+00 0.  1.
         21   -1    0    0  502  503 -0.00000000000E+00 -0.00000000000E+00 -0.38313034121E+03  0.38313034121E+03  0.00000000000E+00 0. -1.
          6    1    1    2  501    0  0.38169904871E+02 -0.25904472794E+01 -0.12817670336E+03  0.21868223371E+03  0.17300000000E+03 0.  1.
         -6    1    1    2    0  503 -0.38169904871E+02  0.25904472794E+01 -0.17227535836E+03  0.24712638700E+03  0.17300000000E+03 0. -1.
<mgrwt>
<rscale>  2 0.17717972E+03</rscale>
<asrwt>0</asrwt>
<pdfrwt beam="1">  1       21 0.12719735E-01 0.17717972E+03</pdfrwt>
<pdfrwt beam="2">  1       21 0.58943129E-01 0.17717972E+03</pdfrwt>
<totfact> 0.14304327E+05</totfact>
</mgrwt>
</event>
<event>
 4    1  0.3876841E+000  0.2791356E+03  0.7546771E-02  0.1096162E+00
         21   -1    0    0  503  502  0.00000000000E+00  0.00000000000E+00  0.17154935348E+03  0.17154935348E+03  0.00000000000E+00 0. -1.
         21   -1    0    0  501  503 -0.00000000000E+00 -0.00000000000E+00 -0.59747166900E+03  0.59747166900E+03  0.00000000000E+00 0. -1.
          6    1    1    2  501    0  0.10746809995E+02 -0.21879708972E+03 -0.40125627025E+03  0.48879776473E+03  0.17300000000E+03 0. -1.
         -6    1    1    2    0  502 -0.10746809995E+02  0.21879708972E+03 -0.24666045269E+02  0.28022325775E+03  0.17300000000E+03 0. -1.
<mgrwt>
<rscale>  2 0.27913556E+03</rscale>
<asrwt>0</asrwt>
<pdfrwt beam="1">  1       21 0.26392209E-01 0.27913556E+03</pdfrwt>
<pdfrwt beam="2">  1       21 0.91918717E-01 0.27913556E+03</pdfrwt>
<totfact> 0.13002987E+04</totfact>
</mgrwt>
</event>
<event>
 4    1  0.3876841E+000  0.1758415E+03  0.7546771E-02  0.1171889E+00
         21   -1    0    0  503  502  0.00000000000E+00  0.00000000000E+00  0.28258775054E+02  0.28258775054E+02  0.00000000000E+00 0. -1.
         21   -1    0    0  501  503 -0.00000000000E+00 -0.00000000000E+00 -0.13428232401E+04  0.13428232401E+04  0.00000000000E+00 0. -1.
          6    1    1    2  501    0 -0.25961918105E+02  0.17810241802E+02 -0.95227483421E+03  0.96837368085E+03  0.17300000000E+03 0.  1.
         -6    1    1    2    0  502  0.25961918105E+02 -0.17810241802E+02 -0.36228963087E+03  0.40270833433E+03  0.17300000000E+03 0.  1.
<mgrwt>
<rscale>  2 0.17584148E+03</rscale>
<asrwt>0</asrwt>
<pdfrwt beam="1">  1       21 0.43475027E-02 0.17584148E+03</pdfrwt>
<pdfrwt beam="2">  1       21 0.20658825E+00 0.17584148E+03</pdfrwt>
<totfact> 0.42025774E+04</totfact>
</mgrwt>
</event>
<event>
 4    1  0.3876841E+000  0.1991128E+03  0.7546771E-02  0.1150490E+00
         21   -1    0    0  503  502  0.00000000000E+00  0.00000000000E+00  0.41387675750E+03  0.41387675750E+03  0.00000000000E+00 0.  1.
         21   -1    0    0  501  503 -0.00000000000E+00 -0.00000000000E+00 -0.20063816236E+03  0.20063816236E+03  0.00000000000E+00 0. -1.
          6    1    1    2  501    0 -0.97992312408E+02  0.10695688686E+02  0.32873174212E+03  0.38433117142E+03  0.17300000000E+03 0.  1.
         -6    1    1    2    0  502  0.97992312408E+02 -0.10695688686E+02 -0.11549314697E+03  0.23018374844E+03  0.17300000000E+03 0. -1.
<mgrwt>
<rscale>  2 0.19911276E+03</rscale>
<asrwt>0</asrwt>
<pdfrwt beam="1">  1       21 0.63673347E-01 0.19911276E+03</pdfrwt>
<pdfrwt beam="2">  1       21 0.30867410E-01 0.19911276E+03</pdfrwt>
<totfact> 0.22887598E+04</totfact>
</mgrwt>
</event>
<event>
 4    1  0.3876841E+000  0.2164418E+03  0.7546771E-02  0.1136564E+00
         21   -1    0    0  503  502  0.00000000000E+00  0.00000000000E+00  0.14941840866E+04  0.14941840866E+04  0.00000000000E+00 0. -1.
         21   -1    0    0  501  503 -0.00000000000E+00 -0.00000000000E+00 -0.53858299704E+02  0.53858299704E+02  0.00000000000E+00 0.  1.
          6    1    1    2  501    0 -0.12704253080E+03 -0.27897240932E+02  0.21981792871E+03  0.30849146255E+03  0.17300000000E+03 0.  1.
         -6    1    1    2    0  502  0.12704253080E+03  0.27897240932E+02  0.12205078582E+04  0.12395509237E+04  0.17300000000E+03 0. -1.
<mgrwt>
<rscale>  2 0.21644182E+03</rscale>
<asrwt>0</asrwt>
<pdfrwt beam="1">  1       21 0.22987444E+00 0.21644182E+03</pdfrwt>
<pdfrwt beam="2">  1       21 0.82858934E-02 0.21644182E+03</pdfrwt>
<totfact> 0.96847631E+03</totfact>
</mgrwt>
</event>
<event>
 4    1  0.3876841E+000  0.2668436E+03  0.7546771E-02  0.1103100E+00
         21   -1    0    0  503  502  0.00000000000E+00  0.00000000000E+00  0.48671988335E+03  0.48671988335E+03  0.00000000000E+00 0. -1.
         21   -1    0    0  501  503 -0.00000000000E+00 -0.00000000000E+00 -0.16683102554E+03  0.16683102554E+03  0.00000000000E+00 0.  1.
          6    1    1    2  501    0  0.17015335009E+03 -0.11101514686E+03  0.45300525454E+02  0.27066152845E+03  0.17300000000E+03 0.  1.
         -6    1    1    2    0  502 -0.17015335009E+03  0.11101514686E+03  0.27458833236E+03  0.38288938043E+03  0.17300000000E+03 0. -1.
<mgrwt>
<rscale>  2 0.26684363E+03</rscale>
<asrwt>0</asrwt>
<pdfrwt beam="1">  1       21 0.74879981E-01 0.26684363E+03</pdfrwt>
<pdfrwt beam="2">  1       21 0.25666312E-01 0.26684363E+03</pdfrwt>
<totfact> 0.22111611E+04</totfact>
</mgrwt>
</event>
<event>
 4    1  0.3876841E+000  0.1934127E+03  0.7546771E-02  0.1155419E+00
         21   -1    0    0  503  502  0.00000000000E+00  0.00000000000E+00  0.22204769970E+03  0.22204769970E+03  0.00000000000E+00 0. -1.
         21   -1    0    0  501  503 -0.00000000000E+00 -0.00000000000E+00 -0.18190091032E+03  0.18190091032E+03  0.00000000000E+00 0. -1.
          6    1    1    2  501    0  0.75935987842E+02  0.41390807009E+02 -0.34807898259E+02  0.19651987924E+03  0.17300000000E+03 0. -1.
         -6    1    1    2    0  502 -0.75935987842E+02 -0.41390807009E+02  0.74954687642E+02  0.20742873078E+03  0.17300000000E+03 0. -1.
<mgrwt>
<rscale>  2 0.19341270E+03</rscale>
<asrwt>0</asrwt>
<pdfrwt beam="1">  1       21 0.34161185E-01 0.19341270E+03</pdfrwt>
<pdfrwt beam="2">  1       21 0.27984755E-01 0.19341270E+03</pdfrwt>
<totfact> 0.10068205E+05</totfact>
</mgrwt>
</event>
<event>
 4    1  0.3876841E+000  0.1772825E+03  0.7546771E-02  0.1170459E+00
         21   -1    0    0  501  502  0.00000000000E+00  0.00000000000E+00  0.63449784062E+02  0.63449784062E+02  0.00000000000E+00 0.  1.
         21   -1    0    0  502  503 -0.00000000000E+00 -0.00000000000E+00 -0.51485743305E+03  0.51485743305E+03  0.00000000000E+00 0.  1.
          6    1    1    2  501    0  0.34425056375E+02  0.17748394785E+02 -0.16940250577E+03  0.24520664548E+03  0.17300000000E+03 0.  1.
         -6    1    1    2    0  503 -0.34425056375E+02 -0.17748394785E+02 -0.28200514321E+03  0.33310057163E+03  0.17300000000E+03 0.  1.
<mgrwt>
<rscale>  2 0.17728251E+03</rscale>
<asrwt>0</asrwt>
<pdfrwt beam="1">  1       21 0.97615048E-02 0.17728251E+03</pdfrwt>
<pdfrwt beam="2">  1       21 0.79208840E-01 0.17728251E+03</pdfrwt>
<totfact> 0.11978802E+05</totfact>
</mgrwt>
</event>
<event>
 4    1  0.3876841E+000  0.2021894E+03  0.7546771E-02  0.1147905E+00
         21   -1    0    0  503  502  0.00000000000E+00  0.00000000000E+00  0.33852273072E+02  0.33852273072E+02  0.00000000000E+00 0.  1.
         21   -1    0    0  501  503 -0.00000000000E+00 -0.00000000000E+00 -0.20650159186E+04  0.20650159186E+04  0.00000000000E+00 0.  1.
          6    1    1    2  501    0  0.72694240709E+02  0.75280211333E+02 -0.16917972361E+04  0.17038363921E+04  0.17300000000E+03 0.  1.
         -6    1    1    2    0  502 -0.72694240709E+02 -0.75280211333E+02 -0.33936640941E+03  0.39503179959E+03  0.17300000000E+03 0.  1.
<mgrwt>
<rscale>  2 0.20218942E+03</rscale>
<asrwt>0</asrwt>
<pdfrwt beam="1">  1       21 0.52080435E-02 0.20218942E+03</pdfrwt>
<pdfrwt beam="2">  1       21 0.31769467E+00 0.20218942E+03</pdfrwt>
<totfact> 0.67010651E+03</totfact>
</mgrwt>
</event>
<event>
 4    1  0.3876841E+000  0.1865503E+03  0.7546771E-02  0.1161610E+00
         21   -1    0    0  501  502  0.00000000000E+00  0.00000000000E+00  0.11311142095E+03  0.11311142095E+03  0.00000000000E+00 0.  1.
         21   -1    0    0  502  503 -0.00000000000E+00 -0.00000000000E+00 -0.31819830426E+03  0.31819830426E+03  0.00000000000E+00 0.  1.
          6    1    1    2  501    0 -0.53908895196E+02 -0.44337925412E+02 -0.63316529998E+02  0.19700254715E+03  0.17300000000E+03 0.  1.
         -6    1    1    2    0  503  0.53908895196E+02  0.44337925412E+02 -0.14177035331E+03  0.23430717806E+03  0.17300000000E+03 0.  1.
<mgrwt>
<rscale>  2 0.18655032E+03</rscale>
<asrwt>0</asrwt>
<pdfrwt beam="1">  1       21 0.17401757E-01 0.18655032E+03</pdfrwt>
<pdfrwt beam="2">  1       21 0.48953585E-01 0.18655032E+03</pdfrwt>
<totfact> 0.11925238E+05</totfact>
</mgrwt>
</event>
<event>
 4    1  0.3876841E+000  0.1792581E+03  0.7546771E-02  0.1168523E+00
         21   -1    0    0  501  502  0.00000000000E+00  0.00000000000E+00  0.15974938489E+04  0.15974938489E+04  0.00000000000E+00 0.  1.
         21   -1    0    0  502  503 -0.00000000000E+00 -0.00000000000E+00 -0.21664594797E+02  0.21664594797E+02  0.00000000000E+00 0. -1.
          6    1    1    2  501    0 -0.39440821684E+02 -0.25472965555E+02  0.10044382480E+04  0.10203086025E+04  0.17300000000E+03 0.  1.
         -6    1    1    2    0  503  0.39440821684E+02  0.25472965555E+02  0.57139100612E+03  0.59884984117E+03  0.17300000000E+03 0. -1.
<mgrwt>
<rscale>  2 0.17925806E+03</rscale>
<asrwt>0</asrwt>
<pdfrwt beam="1">  1       21 0.24576819E+00 0.17925806E+03</pdfrwt>
<pdfrwt beam="2">  1       21 0.33330158E-02 0.17925806E+03</pdfrwt>
<totfact> 0.37827762E+04</totfact>
</mgrwt>
</event>
<event>
 4    1  0.3876841E+000  0.1890883E+03  0.7546771E-02  0.1159286E+00
         21   -1    0    0  501  502  0.00000000000E+00  0.00000000000E+00  0.23116573617E+03  0.23116573617E+03  0.00000000000E+00 0. -1.
         21   -1    0    0  502  503 -0.00000000000E+00 -0.00000000000E+00 -0.24502271450E+03  0.24502271450E+03  0.00000000000E+00 0. -1.
          6    1    1    2  501    0  0.52027234180E+02  0.55843963495E+02  0.13765427750E+03  0.23388689888E+03  0.17300000000E+03 0. -1.
         -6    1    1    2    0  503 -0.52027234180E+02 -0.55843963495E+02 -0.15151125583E+03  0.24230155179E+03  0.17300000000E+03 0. -1.
<mgrwt>
<rscale>  2 0.18908829E+03</rscale>
<asrwt>0</asrwt>
<pdfrwt beam="1">  1       21 0.35563960E-01 0.18908829E+03</pdfrwt>
<pdfrwt beam="2">  1       21 0.37695802E-01 0.18908829E+03</pdfrwt>
<totfact> 0.51826631E+04</totfact>
</mgrwt>
</event>
<event>
 4    1  0.3876841E+000  0.2675283E+03  0.7546771E-02  0.1102703E+00
         21   -1    0    0  503  502  0.00000000000E+00  0.00000000000E+00  0.89728327841E+02  0.89728327841E+02  0.00000000000E+00 0. -1.
         21   -1    0    0  501  503 -0.00000000000E+00 -0.00000000000E+00 -0.91091194047E+03  0.91091194047E+03  0.00000000000E+00 0. -1.
          6    1    1    2  501    0 -0.15558308316E+03  0.13204652493E+03 -0.58701706375E+03  0.64510496327E+03  0.17300000000E+03 0. -1.
         -6    1    1    2    0  502  0.15558308316E+03 -0.13204652493E+03 -0.23416654889E+03  0.35553530504E+03  0.17300000000E+03 0. -1.
<mgrwt>
<rscale>  2 0.26752828E+03</rscale>
<asrwt>0</asrwt>
<pdfrwt beam="1">  1       21 0.13804358E-01 0.26752828E+03</pdfrwt>
<pdfrwt beam="2">  1       21 0.14014030E+00 0.26752828E+03</pdfrwt>
<totfact> 0.15560213E+04</totfact>
</mgrwt>
</event>
<event>
 4    1  0.3876841E+000  0.1989404E+03  0.7546771E-02  0.1150636E+00
         21   -1    0    0  503  502  0.00000000000E+00  0.00000000000E+00  0.20620730257E+03  0.20620730257E+03  0.00000000000E+00 0. -1.
         21   -1    0    0  501  503 -0.00000000000E+00 -0.00000000000E+00 -0.19721635813E+03  0.19721635813E+03  0.00000000000E+00 0. -1.
          6    1    1    2  501    0  0.23533750617E+02  0.95364864259E+02 -0.28530278663E+02  0.20097579843E+03  0.17300000000E+03 0. -1.
         -6    1    1    2    0  502 -0.23533750617E+02 -0.95364864259E+02  0.37521223103E+02  0.20244786227E+03  0.17300000000E+03 0. -1.
<mgrwt>
<rscale>  2 0.19894043E+03</rscale>
<asrwt>0</asrwt>
<pdfrwt beam="1">  1       21 0.31724200E-01 0.19894043E+03</pdfrwt>
<pdfrwt beam="2">  1       21 0.30340978E-01 0.19894043E+03</pdfrwt>
<totfact> 0.99330289E+04</totfact>
</mgrwt>
</event>
<event>
 4    1  0.3876841E+000  0.1978839E+03  0.7546771E-02  0.1151537E+00
         21   -1    0    0  501  502  0.00000000000E+00  0.00000000000E+00  0.23078921192E+03  0.23078921192E+03  0.00000000000E+00 0. -1.
         21   -1    0    0  502  503 -0.00000000000E+00 -0.00000000000E+00 -0.26758262630E+03  0.26758262630E+03  0.00000000000E+00 0. -1.
          6    1    1    2  501    0  0.71635039199E+02  0.64011428509E+02 -0.16913151220E+03  0.26031425285E+03  0.17300000000E+03 0. -1.
         -6    1    1    2    0  503 -0.71635039199E+02 -0.64011428509E+02  0.13233809782E+03  0.23805758538E+03  0.17300000000E+03 0. -1.
<mgrwt>
<rscale>  2 0.19788391E+03</rscale>
<asrwt>0</asrwt>
<pdfrwt beam="1">  1       21 0.35506032E-01 0.19788391E+03</pdfrwt>
<pdfrwt beam="2">  1       21 0.41166558E-01 0.19788391E+03</pdfrwt>
<totfact> 0.43349877E+04</totfact>
</mgrwt>
</event>
<event>
 4    1  0.3876841E+000  0.1794786E+03  0.7546771E-02  0.1168309E+00
         21   -1    0    0  503  502  0.00000000000E+00  0.00000000000E+00  0.10754948776E+03  0.10754948776E+03  0.00000000000E+00 0.  1.
         21   -1    0    0  501  503 -0.00000000000E+00 -0.00000000000E+00 -0.47561017820E+03  0.47561017820E+03  0.00000000000E+00 0.  1.
          6    1    1    2  501    0 -0.43128636269E+02  0.20578734317E+02 -0.66085230571E+01  0.17960021200E+03  0.17300000000E+03 0.  1.
         -6    1    1    2    0  502  0.43128636269E+02 -0.20578734317E+02 -0.36145216739E+03  0.40355945396E+03  0.17300000000E+03 0.  1.
<mgrwt>
<rscale>  2 0.17947859E+03</rscale>
<asrwt>0</asrwt>
<pdfrwt beam="1">  1       21 0.16546075E-01 0.17947859E+03</pdfrwt>
<pdfrwt beam="2">  1       21 0.73170797E-01 0.17947859E+03</pdfrwt>
<totfact> 0.55417810E+04</totfact>
</mgrwt>
</event>
<event>
 4    1  0.3876841E+000  0.2497595E+03  0.7546771E-02  0.1113457E+00
         21   -1    0    0  501  502  0.00000000000E+00  0.00000000000E+00  0.66804587764E+02  0.66804587764E+02  0.00000000000E+00 0. -1.
         21   -1    0    0  502  503 -0.00000000000E+00 -0.00000000000E+00 -0.93714069735E+03  0.93714069735E+03  0.00000000000E+00 0. -1.
          6    1    1    2  501    0 -0.47945025949E+02 -0.17364357039E+03 -0.40504275877E+03  0.47585654506E+03  0.17300000000E+03 0. -1.
         -6    1    1    2    0  503  0.47945025949E+02  0.17364357039E+03 -0.46529335082E+03  0.52808874005E+03  0.17300000000E+03 0. -1.
<mgrwt>
<rscale>  2 0.24975951E+03</rscale>
<asrwt>0</asrwt>
<pdfrwt beam="1">  1       21 0.10277629E-01 0.24975951E+03</pdfrwt>
<pdfrwt beam="2">  1       21 0.14417549E+00 0.24975951E+03</pdfrwt>
<totfact> 0.24794300E+04</totfact>
</mgrwt>
</event>
<event>
 4    1  0.3876841E+000  0.2293443E+03  0.7546771E-02  0.1127102E+00
         21   -1    0    0  503  502  0.00000000000E+00  0.00000000000E+00  0.13273688993E+03  0.13273688993E+03  0.00000000000E+00 0. -1.
         21   -1    0    0  501  503 -0.00000000000E+00 -0.00000000000E+00 -0.63111807404E+03  0.63111807404E+03  0.00000000000E+00 0.  1.
          6    1    1    2  501    0 -0.14983277335E+03 -0.14830761280E+02 -0.48217396325E+03  0.53393870649E+03  0.17300000000E+03 0.  1.
         -6    1    1    2    0  502  0.14983277335E+03  0.14830761280E+02 -0.16207220863E+02  0.22991625749E+03  0.17300000000E+03 0. -1.
<mgrwt>
<rscale>  2 0.22934431E+03</rscale>
<asrwt>0</asrwt>
<pdfrwt beam="1">  1       21 0.20421060E-01 0.22934431E+03</pdfrwt>
<pdfrwt beam="2">  1       21 0.97095088E-01 0.22934431E+03</pdfrwt>
<totfact> 0.19118506E+04</totfact>
</mgrwt>
</event>
<event>
 4    1  0.3876841E+000  0.1932266E+03  0.7546771E-02  0.1155583E+00
         21   -1    0    0  503  502  0.00000000000E+00  0.00000000000E+00  0.24215639325E+03  0.24215639325E+03  0.00000000000E+00 0.  1.
         21   -1    0    0  501  503 -0.00000000000E+00 -0.00000000000E+00 -0.15423231758E+03  0.15423231758E+03  0.00000000000E+00 0.  1.
          6    1    1    2  501    0  0.71785916350E+02 -0.47479530313E+02  0.47487617987E+02  0.19897637409E+03  0.17300000000E+03 0.  1.
         -6    1    1    2    0  502 -0.71785916350E+02  0.47479530313E+02  0.40436457689E+02  0.19741233674E+03  0.17300000000E+03 0.  1.
<mgrwt>
<rscale>  2 0.19322661E+03</rscale>
<asrwt>0</asrwt>
<pdfrwt beam="1">  1       21 0.37254830E-01 0.19322661E+03</pdfrwt>
<pdfrwt beam="2">  1       21 0.23728049E-01 0.19322661E+03</pdfrwt>
<totfact> 0.11623886E+05</totfact>
</mgrwt>
</event>
<event>
 4    1  0.3876841E+000  0.2009627E+03  0.7546771E-02  0.1148929E+00
         21   -1    0    0  503  502  0.00000000000E+00  0.00000000000E+00  0.21721279227E+03  0.21721279227E+03  0.00000000000E+00 0. -1.
         21   -1    0    0  501  503 -0.00000000000E+00 -0.00000000000E+00 -0.58805833436E+03  0.58805833436E+03  0.00000000000E+00 0. -1.
          6    1    1    2  501    0 -0.16197166846E+02  0.10096870078E+03 -0.51837745516E+03  0.55596871564E+03  0.17300000000E+03 0. -1.
         -6    1    1    2    0  502  0.16197166846E+02 -0.10096870078E+03  0.14753191307E+03  0.24930241099E+03  0.17300000000E+03 0. -1.
<mgrwt>
<rscale>  2 0.20096275E+03</rscale>
<asrwt>0</asrwt>
<pdfrwt beam="1">  1       21 0.33417353E-01 0.20096275E+03</pdfrwt>
<pdfrwt beam="2">  1       21 0.90470513E-01 0.20096275E+03</pdfrwt>
<totfact> 0.88986307E+03</totfact>
</mgrwt>
</event>
<event>
 4    1  0.3876841E+000  0.1887963E+03  0.7546771E-02  0.1159551E+00
         21   -1    0    0  501  502  0.00000000000E+00  0.00000000000E+00  0.60535129943E+02  0.60535129943E+02  0.00000000000E+00 0.  1.
         21   -1    0    0  502  503 -0.00000000000E+00 -0.00000000000E+00 -0.59169402543E+03  0.59169402543E+03  0.00000000000E+00 0.  1.
          6    1    1    2  501    0 -0.51314227477E+01 -0.75423634847E+02 -0.24283554213E+03  0.30759251732E+03  0.17300000000E+03 0.  1.
         -6    1    1    2    0  503  0.51314227477E+01  0.75423634847E+02 -0.28832335336E+03  0.34463663805E+03  0.17300000000E+03 0.  1.
<mgrwt>
<rscale>  2 0.18879634E+03</rscale>
<asrwt>0</asrwt>
<pdfrwt beam="1">  1       21 0.93130968E-02 0.18879634E+03</pdfrwt>
<pdfrwt beam="2">  1       21 0.91029851E-01 0.18879634E+03</pdfrwt>
<totfact> 0.94276227E+04</totfact>
</mgrwt>
</event>
<event>
 4    1  0.3876841E+000  0.2265583E+03  0.7546771E-02  0.1129086E+00
         21   -1    0    0  501  502  0.00000000000E+00  0.00000000000E+00  0.71977873950E+03  0.71977873950E+03  0.00000000000E+00 0.  1.
         21   -1    0    0  502  503 -0.00000000000E+00 -0.00000000000E+00 -0.71356072833E+02  0.71356072833E+02  0.00000000000E+00 0.  1.
          6    1    1    2  501    0  0.13202809932E+03  0.62994125550E+02  0.33407042522E+03  0.40364802473E+03  0.17300000000E+03 0.  1.
         -6    1    1    2    0  503 -0.13202809932E+03 -0.62994125550E+02  0.31435224145E+03  0.38748678760E+03  0.17300000000E+03 0.  1.
<mgrwt>
<rscale>  2 0.22655833E+03</rscale>
<asrwt>0</asrwt>
<pdfrwt beam="1">  1       21 0.11073519E+00 0.22655833E+03</pdfrwt>
<pdfrwt beam="2">  1       21 0.10977858E-01 0.22655833E+03</pdfrwt>
<totfact> 0.43433875E+04</totfact>
</mgrwt>
</event>
<event>
 4    1  0.3876841E+000  0.1769590E+03  0.7546771E-02  0.1170779E+00
         21   -1    0    0  501  502  0.00000000000E+00  0.00000000000E+00  0.22284250783E+03  0.22284250783E+03  0.00000000000E+00 0.  1.
         21   -1    0    0  502  503 -0.00000000000E+00 -0.00000000000E+00 -0.25866891742E+03  0.25866891742E+03  0.00000000000E+00 0.  1.
          6    1    1    2  501    0 -0.36498781342E+02 -0.73026770511E+01  0.14479666601E+03  0.22864943608E+03  0.17300000000E+03 0.  1.
         -6    1    1    2    0  503  0.36498781342E+02  0.73026770511E+01 -0.18062307559E+03  0.25286198917E+03  0.17300000000E+03 0.  1.
<mgrwt>
<rscale>  2 0.17695901E+03</rscale>
<asrwt>0</asrwt>
<pdfrwt beam="1">  1       21 0.34283463E-01 0.17695901E+03</pdfrwt>
<pdfrwt beam="2">  1       21 0.39795218E-01 0.17695901E+03</pdfrwt>
<totfact> 0.50271128E+04</totfact>
</mgrwt>
</event>
<event>
 4    1  0.3876841E+000  0.1880361E+03  0.7546771E-02  0.1160245E+00
         21   -1    0    0  503  502  0.00000000000E+00  0.00000000000E+00  0.37997895487E+03  0.37997895487E+03  0.00000000000E+00 0. -1.
         21   -1    0    0  501  503 -0.00000000000E+00 -0.00000000000E+00 -0.13608232028E+03  0.13608232028E+03  0.00000000000E+00 0. -1.
          6    1    1    2  501    0  0.59231475295E+02  0.43820323123E+02 -0.23149388291E+02  0.18945575357E+03  0.17300000000E+03 0. -1.
         -6    1    1    2    0  502 -0.59231475295E+02 -0.43820323123E+02  0.26704602288E+03  0.32660552157E+03  0.17300000000E+03 0. -1.
<mgrwt>
<rscale>  2 0.18803614E+03</rscale>
<asrwt>0</asrwt>
<pdfrwt beam="1">  1       21 0.58458300E-01 0.18803614E+03</pdfrwt>
<pdfrwt beam="2">  1       21 0.20935742E-01 0.18803614E+03</pdfrwt>
<totfact> 0.58177142E+04</totfact>
</mgrwt>
</event>
<event>
 4    1  0.3876841E+000  0.2441651E+03  0.7546771E-02  0.1117049E+00
         21   -1    0    0  501  502  0.00000000000E+00  0.00000000000E+00  0.38051515990E+02  0.38051515990E+02  0.00000000000E+00 0. -1.
         21   -1    0    0  502  503 -0.00000000000E+00 -0.00000000000E+00 -0.17576951998E+04  0.17576951998E+04  0.00000000000E+00 0.  1.
          6    1    1    2  501    0  0.76983318779E+02 -0.15414660892E+03 -0.56387362142E+03  0.61446730535E+03  0.17300000000E+03 0. -1.
         -6    1    1    2    0  503 -0.76983318779E+02  0.15414660892E+03 -0.11557700624E+04  0.11812794105E+04  0.17300000000E+03 0.  1.
<mgrwt>
<rscale>  2 0.24416513E+03</rscale>
<asrwt>0</asrwt>
<pdfrwt beam="1">  1       21 0.58540787E-02 0.24416513E+03</pdfrwt>
<pdfrwt beam="2">  1       21 0.27041468E+00 0.24416513E+03</pdfrwt>
<totfact> 0.99227391E+03</totfact>
</mgrwt>
</event>
<event>
 4    1  0.3876841E+000  0.2083725E+03  0.7546771E-02  0.1142861E+00
         21   -1    0    0  501  502  0.00000000000E+00  0.00000000000E+00  0.14464923156E+03  0.14464923156E+03  0.00000000000E+00 0. -1.
         21   -1    0    0  502  503 -0.00000000000E+00 -0.00000000000E+00 -0.31235819374E+03  0.31235819374E+03  0.00000000000E+00 0. -1.
          6    1    1    2  501    0  0.94110953503E+02  0.68067711800E+02 -0.38713568212E+02  0.21193825828E+03  0.17300000000E+03 0. -1.
         -6    1    1    2    0  503 -0.94110953503E+02 -0.68067711800E+02 -0.12899539397E+03  0.24506916702E+03  0.17300000000E+03 0. -1.
<mgrwt>
<rscale>  2 0.20837247E+03</rscale>
<asrwt>0</asrwt>
<pdfrwt beam="1">  1       21 0.22253728E-01 0.20837247E+03</pdfrwt>
<pdfrwt beam="2">  1       21 0.48055106E-01 0.20837247E+03</pdfrwt>
<totfact> 0.77638743E+04</totfact>
</mgrwt>
</event>
<event>
 4    1  0.3876841E+000  0.1940235E+03  0.7546771E-02  0.1154882E+00
         21   -1    0    0  501  502  0.00000000000E+00  0.00000000000E+00  0.42725550066E+03  0.42725550066E+03  0.00000000000E+00 0.  1.
         21   -1    0    0  502  503 -0.00000000000E+00 -0.00000000000E+00 -0.27048446037E+03  0.27048446037E+03  0.00000000000E+00 0.  1.
          6    1    1    2  501    0 -0.60764917966E+02 -0.63432842571E+02  0.36485312307E+03  0.41323468173E+03  0.17300000000E+03 0.  1.
         -6    1    1    2    0  503  0.60764917966E+02  0.63432842571E+02 -0.20808208278E+03  0.28450527930E+03  0.17300000000E+03 0.  1.
<mgrwt>
<rscale>  2 0.19402345E+03</rscale>
<asrwt>0</asrwt>
<pdfrwt beam="1">  1       21 0.65731615E-01 0.19402345E+03</pdfrwt>
<pdfrwt beam="2">  1       21 0.41612994E-01 0.19402345E+03</pdfrwt>
<totfact> 0.11815613E+04</totfact>
</mgrwt>
</event>
<event>
 4    1  0.3876841E+000  0.2080085E+03  0.7546771E-02  0.1143153E+00
         21   -1    0    0  503  502  0.00000000000E+00  0.00000000000E+00  0.11876173712E+03  0.11876173712E+03  0.00000000000E+00 0.  1.
         21   -1    0    0  501  503 -0.00000000000E+00 -0.00000000000E+00 -0.36658848945E+03  0.36658848945E+03  0.00000000000E+00 0. -1.
          6    1    1    2  501    0  0.68118480215E+02 -0.93265347395E+02 -0.10483324335E+03  0.23293252517E+03  0.17300000000E+03 0. -1.
         -6    1    1    2    0  502 -0.68118480215E+02  0.93265347395E+02 -0.14299350898E+03  0.25241770140E+03  0.17300000000E+03 0. -1.
<mgrwt>
<rscale>  2 0.20800854E+03</rscale>
<asrwt>0</asrwt>
<pdfrwt beam="1">  1       21 0.18271037E-01 0.20800854E+03</pdfrwt>
<pdfrwt beam="2">  1       21 0.56398229E-01 0.20800854E+03</pdfrwt>
<totfact> 0.80237271E+04</totfact>
</mgrwt>
</event>
<event>
 4    1  0.3876841E+000  0.2397655E+03  0.7546771E-02  0.1119949E+00
         21   -1    0    0  503  502  0.00000000000E+00  0.00000000000E+00  0.49179087533E+02  0.49179087533E+02  0.00000000000E+00 0.  1.
         21   -1    0    0  501  503 -0.00000000000E+00 -0.00000000000E+00 -0.15115529654E+04  0.15115529654E+04  0.00000000000E+00 0.  1.
          6    1    1    2  501    0  0.30303008236E+02  0.16321836558E+03 -0.11027112334E+04  0.11284766597E+04  0.17300000000E+03 0.  1.
         -6    1    1    2    0  502 -0.30303008236E+02 -0.16321836558E+03 -0.35966264445E+03  0.43225539323E+03  0.17300000000E+03 0.  1.
<mgrwt>
<rscale>  2 0.23976553E+03</rscale>
<asrwt>0</asrwt>
<pdfrwt beam="1">  1       21 0.75660133E-02 0.23976553E+03</pdfrwt>
<pdfrwt beam="2">  1       21 0.23254661E+00 0.23976553E+03</pdfrwt>
<totfact> 0.10733752E+04</totfact>
</mgrwt>
</event>
<event>
 4    1  0.3876841E+000  0.1773349E+03  0.7546771E-02  0.1170408E+00
         21   -1    0    0  503  502  0.00000000000E+00  0.00000000000E+00  0.80667322746E+02  0.80667322746E+02  0.00000000000E+00 0. -1.
         21   -1    0    0  501  503 -0.00000000000E+00 -0.00000000000E+00 -0.65877980026E+03  0.65877980026E+03  0.00000000000E+00 0. -1.
          6    1    1    2  501    0  0.91856935423E+01 -0.37871803824E+02 -0.52528431490E+03  0.55441073400E+03  0.17300000000E+03 0. -1.
         -6    1    1    2    0  502 -0.91856935423E+01  0.37871803824E+02 -0.52828162608E+02  0.18503638900E+03  0.17300000000E+03 0. -1.
<mgrwt>
<rscale>  2 0.17733485E+03</rscale>
<asrwt>0</asrwt>
<pdfrwt beam="1">  1       21 0.12410358E-01 0.17733485E+03</pdfrwt>
<pdfrwt beam="2">  1       21 0.10135074E+00 0.17733485E+03</pdfrwt>
<totfact> 0.44284557E+04</totfact>
</mgrwt>
</event>
<event>
 4    1  0.3876841E+000  0.1895794E+03  0.7546771E-02  0.1158841E+00
         21   -1    0    0  501  502  0.00000000000E+00  0.00000000000E+00  0.29254396063E+03  0.29254396063E+03  0.00000000000E+00 0.  1.
         21   -1    0    0  502  503 -0.00000000000E+00 -0.00000000000E+00 -0.20325156126E+03  0.20325156126E+03  0.00000000000E+00 0.  1.
          6    1    1    2  501    0  0.73463838851E+02 -0.24787065948E+02  0.20055686248E+03  0.27597715366E+03  0.17300000000E+03 0.  1.
         -6    1    1    2    0  503 -0.73463838851E+02  0.24787065948E+02 -0.11126446311E+03  0.21981836822E+03  0.17300000000E+03 0.  1.
<mgrwt>
<rscale>  2 0.18957936E+03</rscale>
<asrwt>0</asrwt>
<pdfrwt beam="1">  1       21 0.45006763E-01 0.18957936E+03</pdfrwt>
<pdfrwt beam="2">  1       21 0.31269471E-01 0.18957936E+03</pdfrwt>
<totfact> 0.46623496E+04</totfact>
</mgrwt>
</event>
<event>
 4    1  0.3876841E+000  0.2787662E+03  0.7546771E-02  0.1096365E+00
         21   -1    0    0  501  502  0.00000000000E+00  0.00000000000E+00  0.11710979479E+03  0.11710979479E+03  0.00000000000E+00 0. -1.
         21   -1    0    0  502  503 -0.00000000000E+00 -0.00000000000E+00 -0.66465259836E+03  0.66465259836E+03  0.00000000000E+00 0. -1.
          6    1    1    2  501    0 -0.21816752394E+03 -0.13583277097E+02 -0.25799767953E+03  0.37983335368E+03  0.17300000000E+03 0. -1.
         -6    1    1    2    0  503  0.21816752394E+03  0.13583277097E+02 -0.28954512403E+03  0.40192903947E+03  0.17300000000E+03 0. -1.
<mgrwt>
<rscale>  2 0.27876616E+03</rscale>
<asrwt>0</asrwt>
<pdfrwt beam="1">  1       21 0.18016892E-01 0.27876616E+03</pdfrwt>
<pdfrwt beam="2">  1       21 0.10225425E+00 0.27876616E+03</pdfrwt>
<totfact> 0.20846708E+04</totfact>
</mgrwt>
</event>
<event>
 4    1  0.3876841E+000  0.2012042E+03  0.7546771E-02  0.1148727E+00
         21   -1    0    0  501  502  0.00000000000E+00  0.00000000000E+00  0.88137879038E+03  0.88137879038E+03  0.00000000000E+00 0.  1.
         21   -1    0    0  502  503 -0.00000000000E+00 -0.00000000000E+00 -0.88837669207E+02  0.88837669207E+02  0.00000000000E+00 0.  1.
          6    1    1    2  501    0 -0.87640768948E+02 -0.53602481234E+02  0.73340216946E+03  0.76050106676E+03  0.17300000000E+03 0.  1.
         -6    1    1    2    0  503  0.87640768948E+02  0.53602481234E+02  0.59138951705E+02  0.20971539282E+03  0.17300000000E+03 0.  1.
<mgrwt>
<rscale>  2 0.20120420E+03</rscale>
<asrwt>0</asrwt>
<pdfrwt beam="1">  1       21 0.13559673E+00 0.20120420E+03</pdfrwt>
<pdfrwt beam="2">  1       21 0.13667334E-01 0.20120420E+03</pdfrwt>
<totfact> 0.17937273E+04</totfact>
</mgrwt>
</event>
<event>
 4    1  0.3876841E+000  0.1777642E+03  0.7546771E-02  0.1169985E+00
         21   -1    0    0  501  502  0.00000000000E+00  0.00000000000E+00  0.31652104223E+03  0.31652104223E+03  0.00000000000E+00 0.  1.
         21   -1    0    0  502  503 -0.00000000000E+00 -0.00000000000E+00 -0.11531048142E+03  0.11531048142E+03  0.00000000000E+00 0.  1.
          6    1    1    2  501    0  0.35970706497E+02  0.19422329451E+02  0.17970253009E+03  0.25277088030E+03  0.17300000000E+03 0.  1.
         -6    1    1    2    0  503 -0.35970706497E+02 -0.19422329451E+02  0.21508030716E+02  0.17906064334E+03  0.17300000000E+03 0.  1.
<mgrwt>
<rscale>  2 0.17776422E+03</rscale>
<asrwt>0</asrwt>
<pdfrwt beam="1">  1       21 0.48695545E-01 0.17776422E+03</pdfrwt>
<pdfrwt beam="2">  1       21 0.17740074E-01 0.17776422E+03</pdfrwt>
<totfact> 0.11673269E+05</totfact>
</mgrwt>
</event>
<event>
 4    1  0.3876841E+000  0.2227218E+03  0.7546771E-02  0.1131870E+00
         21   -1    0    0  501  502  0.00000000000E+00  0.00000000000E+00  0.11690727227E+04  0.11690727227E+04  0.00000000000E+00 0.  1.
         21   -1    0    0  502  503 -0.00000000000E+00 -0.00000000000E+00 -0.58853455768E+02  0.58853455768E+02  0.00000000000E+00 0.  1.
          6    1    1    2  501    0 -0.13757376568E+03  0.27375982217E+02  0.87943031353E+03  0.90719494143E+03  0.17300000000E+03 0.  1.
         -6    1    1    2    0  503  0.13757376568E+03 -0.27375982217E+02  0.23078895344E+03  0.32073123708E+03  0.17300000000E+03 0.  1.
<mgrwt>
<rscale>  2 0.22272177E+03</rscale>
<asrwt>0</asrwt>
<pdfrwt beam="1">  1       21 0.17985733E+00 0.22272177E+03</pdfrwt>
<pdfrwt beam="2">  1       21 0.90543787E-02 0.22272177E+03</pdfrwt>
<totfact> 0.17254330E+04</totfact>
</mgrwt>
</event>
<event>
 4    1  0.3876841E+000  0.1982545E+03  0.7546771E-02  0.1151220E+00
         21   -1    0    0  501  502  0.00000000000E+00  0.00000000000E+00  0.11678885879E+03  0.11678885879E+03  0.00000000000E+00 0.  1.
         21   -1    0    0  502  503 -0.00000000000E+00 -0.00000000000E+00 -0.34589441460E+03  0.34589441460E+03  0.00000000000E+00 0.  1.
          6    1    1    2  501    0 -0.54721787427E+02 -0.79883397746E+02 -0.76520755197E+02  0.21250942857E+03  0.17300000000E+03 0.  1.
         -6    1    1    2    0  503  0.54721787427E+02  0.79883397746E+02 -0.15258480062E+03  0.25017384482E+03  0.17300000000E+03 0.  1.
<mgrwt>
<rscale>  2 0.19825446E+03</rscale>
<asrwt>0</asrwt>
<pdfrwt beam="1">  1       21 0.17967517E-01 0.19825446E+03</pdfrwt>
<pdfrwt beam="2">  1       21 0.53214524E-01 0.19825446E+03</pdfrwt>
<totfact> 0.93986262E+04</totfact>
</mgrwt>
</event>
<event>
 4    1  0.3876841E+000  0.2022919E+03  0.7546771E-02  0.1147820E+00
         21   -1    0    0  503  502  0.00000000000E+00  0.00000000000E+00  0.37536891817E+03  0.37536891817E+03  0.00000000000E+00 0.  1.
         21   -1    0    0  501  503 -0.00000000000E+00 -0.00000000000E+00 -0.17481491909E+03  0.17481491909E+03  0.00000000000E+00 0.  1.
          6    1    1    2  501    0  0.64653125142E+02  0.82540927808E+02 -0.68491276496E+02  0.21357220397E+03  0.17300000000E+03 0. -1.
         -6    1    1    2    0  502 -0.64653125142E+02 -0.82540927808E+02  0.26904527557E+03  0.33661163328E+03  0.17300000000E+03 0. -1.
<mgrwt>
<rscale>  2 0.20229195E+03</rscale>
<asrwt>0</asrwt>
<pdfrwt beam="1">  1       21 0.57749064E-01 0.20229195E+03</pdfrwt>
<pdfrwt beam="2">  1       21 0.26894603E-01 0.20229195E+03</pdfrwt>
<totfact> 0.36843226E+04</totfact>
</mgrwt>
</event>
<event>
 4    1  0.3876841E+000  0.2002652E+03  0.7546771E-02  0.1149515E+00
         21   -1    0    0  503  502  0.00000000000E+00  0.00000000000E+00  0.10379767748E+03  0.10379767748E+03  0.00000000000E+00 0.  1.
         21   -1    0    0  501  503 -0.00000000000E+00 -0.00000000000E+00 -0.94191339113E+03  0.94191339113E+03  0.00000000000E+00 0. -1.
          6    1    1    2  501    0  0.43153794801E+02  0.91185973203E+02 -0.82059742825E+03  0.84468116527E+03  0.17300000000E+03 0. -1.
         -6    1    1    2    0  502 -0.43153794801E+02 -0.91185973203E+02 -0.17518285397E+02  0.20102990334E+03  0.17300000000E+03 0.  1.
<mgrwt>
<rscale>  2 0.20026515E+03</rscale>
<asrwt>0</asrwt>
<pdfrwt beam="1">  1       21 0.15968874E-01 0.20026515E+03</pdfrwt>
<pdfrwt beam="2">  1       21 0.14490975E+00 0.20026515E+03</pdfrwt>
<totfact> 0.11385605E+04</totfact>
</mgrwt>
</event>
<event>
 4    1  0.3876841E+000  0.2285698E+03  0.7546771E-02  0.1127650E+00
         21   -1    0    0  503  502  0.00000000000E+00  0.00000000000E+00  0.46761724873E+03  0.46761724873E+03  0.00000000000E+00 0.  1.
         21   -1    0    0  501  503 -0.00000000000E+00 -0.00000000000E+00 -0.17862496555E+03  0.17862496555E+03  0.00000000000E+00 0.  1.
          6    1    1    2  501    0 -0.14870774089E+03  0.14182978635E+02 -0.53250852083E+02  0.23469086546E+03  0.17300000000E+03 0.  1.
         -6    1    1    2    0  502  0.14870774089E+03 -0.14182978635E+02  0.34224313526E+03  0.41155134882E+03  0.17300000000E+03 0.  1.
<mgrwt>
<rscale>  2 0.22856979E+03</rscale>
<asrwt>0</asrwt>
<pdfrwt beam="1">  1       21 0.71941115E-01 0.22856979E+03</pdfrwt>
<pdfrwt beam="2">  1       21 0.27480764E-01 0.22856979E+03</pdfrwt>
<totfact> 0.21588190E+04</totfact>
</mgrwt>
</event>
<event>
 4    1  0.3876841E+000  0.2308068E+03  0.7546771E-02  0.1126073E+00
         21   -1    0    0  501  502  0.00000000000E+00  0.00000000000E+00  0.12696494441E+03  0.12696494441E+03  0.00000000000E+00 0.  1.
         21   -1    0    0  502  503 -0.00000000000E+00 -0.00000000000E+00 -0.71873243411E+03  0.71873243411E+03  0.00000000000E+00 0.  1.
          6    1    1    2  501    0  0.14626137950E+03 -0.44162987116E+02 -0.23081004698E+02  0.23195795598E+03  0.17300000000E+03 0.  1.
         -6    1    1    2    0  503 -0.14626137950E+03  0.44162987116E+02 -0.56868648500E+03  0.61373942254E+03  0.17300000000E+03 0.  1.
<mgrwt>
<rscale>  2 0.23080676E+03</rscale>
<asrwt>0</asrwt>
<pdfrwt beam="1">  1       21 0.19533069E-01 0.23080676E+03</pdfrwt>
<pdfrwt beam="2">  1       21 0.11057422E+00 0.23080676E+03</pdfrwt>
<totfact> 0.15189359E+04</totfact>
</mgrwt>
</event>
<event>
 4    1  0.3876841E+000  0.2786219E+03  0.7546771E-02  0.1096444E+00
         21   -1    0    0  503  502  0.00000000000E+00  0.00000000000E+00  0.17848367376E+03  0.17848367376E+03  0.00000000000E+00 0.  1.
         21   -1    0    0  501  503 -0.00000000000E+00 -0.00000000000E+00 -0.71501606394E+03  0.71501606394E+03  0.00000000000E+00 0. -1.
          6    1    1    2  501    0 -0.21725561812E+03  0.22386201753E+02 -0.54786965942E+03  0.61464730484E+03  0.17300000000E+03 0. -1.
         -6    1    1    2    0  502  0.21725561812E+03 -0.22386201753E+02  0.11337269241E+02  0.27885243285E+03  0.17300000000E+03 0.  1.
<mgrwt>
<rscale>  2 0.27862187E+03</rscale>
<asrwt>0</asrwt>
<pdfrwt beam="1">  1       21 0.27459026E-01 0.27862187E+03</pdfrwt>
<pdfrwt beam="2">  1       21 0.11000248E+00 0.27862187E+03</pdfrwt>
<totfact> 0.78249793E+03</totfact>
</mgrwt>
</event>
<event>
 4    1  0.3876841E+000  0.1961081E+03  0.7546771E-02  0.1153065E+00
         21   -1    0    0  503  502  0.00000000000E+00  0.00000000000E+00  0.20144008220E+04  0.20144008220E+04  0.00000000000E+00 0.  1.
         21   -1    0    0  501  503 -0.00000000000E+00 -0.00000000000E+00 -0.20668175390E+02  0.20668175390E+02  0.00000000000E+00 0.  1.
          6    1    1    2  501    0  0.85585227958E+02  0.34706929966E+02  0.12778862745E+04  0.12928463686E+04  0.17300000000E+03 0.  1.
         -6    1    1    2    0  502 -0.85585227958E+02 -0.34706929966E+02  0.71584637211E+03  0.74222262879E+03  0.17300000000E+03 0.  1.
<mgrwt>
<rscale>  2 0.19610814E+03</rscale>
<asrwt>0</asrwt>
<pdfrwt beam="1">  1       21 0.30990766E+00 0.19610814E+03</pdfrwt>
<pdfrwt beam="2">  1       21 0.31797209E-02 0.19610814E+03</pdfrwt>
<totfact> 0.17136598E+04</totfact>
</mgrwt>
</event>
<event>
 4    1  0.3876841E+000  0.2062429E+03  0.7546771E-02  0.1144576E+00
         21   -1    0    0  503  502  0.00000000000E+00  0.00000000000E+00  0.54242197673E+03  0.54242197673E+03  0.00000000000E+00 0. -1.
         21   -1    0    0  501  503 -0.00000000000E+00 -0.00000000000E+00 -0.79084610303E+02  0.79084610303E+02  0.00000000000E+00 0. -1.
          6    1    1    2  501    0 -0.11193044169E+03 -0.88722574537E+01  0.20315792318E+03  0.28949832898E+03  0.17300000000E+03 0. -1.
         -6    1    1    2    0  502  0.11193044169E+03  0.88722574537E+01  0.26017944325E+03  0.33200825806E+03  0.17300000000E+03 0. -1.
<mgrwt>
<rscale>  2 0.20624292E+03</rscale>
<asrwt>0</asrwt>
<pdfrwt beam="1">  1       21 0.83449532E-01 0.20624292E+03</pdfrwt>
<pdfrwt beam="2">  1       21 0.12166863E-01 0.20624292E+03</pdfrwt>
<totfact> 0.71099663E+04</totfact>
</mgrwt>
</event>
<event>
 4    1  0.3876841E+000  0.1872515E+03  0.7546771E-02  0.1160964E+00
         21   -1    0    0  501  502  0.00000000000E+00  0.00000000000E+00  0.26131825342E+02  0.26131825342E+02  0.00000000000E+00 0.  1.
         21   -1    0    0  502  503 -0.00000000000E+00 -0.00000000000E+00 -0.19965031680E+04  0.19965031680E+04  0.00000000000E+00 0.  1.
          6    1    1    2  501    0  0.39889557074E+02 -0.59522709235E+02 -0.40604806570E+03  0.44714445242E+03  0.17300000000E+03 0.  1.
         -6    1    1    2    0  503 -0.39889557074E+02  0.59522709235E+02 -0.15643232769E+04  0.15754905409E+04  0.17300000000E+03 0.  1.
<mgrwt>
<rscale>  2 0.18725151E+03</rscale>
<asrwt>0</asrwt>
<pdfrwt beam="1">  1       21 0.40202813E-02 0.18725151E+03</pdfrwt>
<pdfrwt beam="2">  1       21 0.30715429E+00 0.18725151E+03</pdfrwt>
<totfact> 0.12133933E+04</totfact>
</mgrwt>
</event>
<event>
 4    1  0.3876841E+000  0.1793434E+03  0.7546771E-02  0.1168440E+00
         21   -1    0    0  501  502  0.00000000000E+00  0.00000000000E+00  0.23112717087E+03  0.23112717087E+03  0.00000000000E+00 0.  1.
         21   -1    0    0  502  503 -0.00000000000E+00 -0.00000000000E+00 -0.14061054197E+03  0.14061054197E+03  0.00000000000E+00 0.  1.
          6    1    1    2  501    0  0.39233383092E+02  0.26377882476E+02  0.64125517970E+02  0.19046294413E+03  0.17300000000E+03 0.  1.
         -6    1    1    2    0  503 -0.39233383092E+02 -0.26377882476E+02  0.26391110932E+02  0.18127476870E+03  0.17300000000E+03 0.  1.
<mgrwt>
<rscale>  2 0.17934339E+03</rscale>
<asrwt>0</asrwt>
<pdfrwt beam="1">  1       21 0.35558026E-01 0.17934339E+03</pdfrwt>
<pdfrwt beam="2">  1       21 0.21632391E-01 0.17934339E+03</pdfrwt>
<totfact> 0.15259781E+05</totfact>
</mgrwt>
</event>
<event>
 4    1  0.3876841E+000  0.1756376E+03  0.7546771E-02  0.1172093E+00
         21   -1    0    0  501  502  0.00000000000E+00  0.00000000000E+00  0.25856948670E+03  0.25856948670E+03  0.00000000000E+00 0. -1.
         21   -1    0    0  502  503 -0.00000000000E+00 -0.00000000000E+00 -0.12715781769E+03  0.12715781769E+03  0.00000000000E+00 0. -1.
          6    1    1    2  501    0  0.29424023558E+02 -0.73337075655E+01  0.11363498794E+03  0.20919241601E+03  0.17300000000E+03 0. -1.
         -6    1    1    2    0  503 -0.29424023558E+02  0.73337075655E+01  0.17776681062E+02  0.17653488839E+03  0.17300000000E+03 0. -1.
<mgrwt>
<rscale>  2 0.17563757E+03</rscale>
<asrwt>0</asrwt>
<pdfrwt beam="1">  1       21 0.39779921E-01 0.17563757E+03</pdfrwt>
<pdfrwt beam="2">  1       21 0.19562741E-01 0.17563757E+03</pdfrwt>
<totfact> 0.14733812E+05</totfact>
</mgrwt>
</event>
<event>
 4    1  0.3876841E+000  0.2552112E+03  0.7546771E-02  0.1110055E+00
         21   -1    0    0  503  502  0.00000000000E+00  0.00000000000E+00  0.15626694693E+04  0.15626694693E+04  0.00000000000E+00 0. -1.
         21   -1    0    0  501  503 -0.00000000000E+00 -0.00000000000E+00 -0.42519258875E+02  0.42519258875E+02  0.00000000000E+00 0. -1.
          6    1    1    2  501    0 -0.13514704797E+03  0.13015000925E+03  0.64734559481E+03  0.69583695548E+03  0.17300000000E+03 0. -1.
         -6    1    1    2    0  502  0.13514704797E+03 -0.13015000925E+03  0.87280461564E+03  0.90935177272E+03  0.17300000000E+03 0. -1.
<mgrwt>
<rscale>  2 0.25521119E+03</rscale>
<asrwt>0</asrwt>
<pdfrwt beam="1">  1       21 0.24041064E+00 0.25521119E+03</pdfrwt>
<pdfrwt beam="2">  1       21 0.65414256E-02 0.25521119E+03</pdfrwt>
<totfact> 0.12249646E+04</totfact>
</mgrwt>
</event>
<event>
 4    1  0.3876841E+000  0.2305011E+03  0.7546771E-02  0.1126288E+00
         21   -1    0    0  503  502  0.00000000000E+00  0.00000000000E+00  0.23615169189E+03  0.23615169189E+03  0.00000000000E+00 0. -1.
         21   -1    0    0  501  503 -0.00000000000E+00 -0.00000000000E+00 -0.22586473805E+03  0.22586473805E+03  0.00000000000E+00 0. -1.
          6    1    1    2  501    0 -0.90883244938E+02 -0.12223748973E+03 -0.92674521158E+01  0.23068735070E+03  0.17300000000E+03 0. -1.
         -6    1    1    2    0  502  0.90883244938E+02  0.12223748973E+03  0.19554405959E+02  0.23132907923E+03  0.17300000000E+03 0. -1.
<mgrwt>
<rscale>  2 0.23050112E+03</rscale>
<asrwt>0</asrwt>
<pdfrwt beam="1">  1       21 0.36331029E-01 0.23050112E+03</pdfrwt>
<pdfrwt beam="2">  1       21 0.34748421E-01 0.23050112E+03</pdfrwt>
<totfact> 0.57346165E+04</totfact>
</mgrwt>
</event>
<event>
 4    1  0.3876841E+000  0.1937053E+03  0.7546771E-02  0.1155161E+00
         21   -1    0    0  501  502  0.00000000000E+00  0.00000000000E+00  0.67326011488E+03  0.67326011488E+03  0.00000000000E+00 0. -1.
         21   -1    0    0  502  503 -0.00000000000E+00 -0.00000000000E+00 -0.20781845540E+03  0.20781845540E+03  0.00000000000E+00 0. -1.
          6    1    1    2  501    0 -0.77473068876E+02  0.39883024646E+02  0.60958834576E+03  0.63962464254E+03  0.17300000000E+03 0. -1.
         -6    1    1    2    0  503  0.77473068876E+02 -0.39883024646E+02 -0.14414668628E+03  0.24145392774E+03  0.17300000000E+03 0. -1.
<mgrwt>
<rscale>  2 0.19370527E+03</rscale>
<asrwt>0</asrwt>
<pdfrwt beam="1">  1       21 0.10357848E+00 0.19370527E+03</pdfrwt>
<pdfrwt beam="2">  1       21 0.31972070E-01 0.19370527E+03</pdfrwt>
<totfact> 0.70970673E+03</totfact>
</mgrwt>
</event>
<event>
 4    1  0.3876841E+000  0.2426994E+03  0.7546771E-02  0.1118008E+00
         21   -1    0    0  501  502  0.00000000000E+00  0.00000000000E+00  0.31570145300E+02  0.31570145300E+02  0.00000000000E+00 0. -1.
         21   -1    0    0  502  503 -0.00000000000E+00 -0.00000000000E+00 -0.19039027398E+04  0.19039027398E+04  0.00000000000E+00 0. -1.
          6    1    1    2  501    0  0.16389555963E+03 -0.45959183876E+02 -0.79923056708E+03  0.83526792133E+03  0.17300000000E+03 0. -1.
         -6    1    1    2    0  503 -0.16389555963E+03  0.45959183876E+02 -0.10731020274E+04  0.11002049638E+04  0.17300000000E+03 0. -1.
<mgrwt>
<rscale>  2 0.24269940E+03</rscale>
<asrwt>0</asrwt>
<pdfrwt beam="1">  1       21 0.48569459E-02 0.24269940E+03</pdfrwt>
<pdfrwt beam="2">  1       21 0.29290809E+00 0.24269940E+03</pdfrwt>
<totfact> 0.10100810E+04</totfact>
</mgrwt>
</event>
<event>
 4    1  0.3876841E+000  0.2127433E+03  0.7546771E-02  0.1139412E+00
         21   -1    0    0  501  502  0.00000000000E+00  0.00000000000E+00  0.89293181192E+03  0.89293181192E+03  0.00000000000E+00 0. -1.
         21   -1    0    0  502  503 -0.00000000000E+00 -0.00000000000E+00 -0.50826110472E+02  0.50826110472E+02  0.00000000000E+00 0. -1.
          6    1    1    2  501    0  0.99400277046E+02 -0.73826040590E+02  0.44577308789E+03  0.49393658017E+03  0.17300000000E+03 0. -1.
         -6    1    1    2    0  503 -0.99400277046E+02  0.73826040590E+02  0.39633261355E+03  0.44982134222E+03  0.17300000000E+03 0. -1.
<mgrwt>
<rscale>  2 0.21274327E+03</rscale>
<asrwt>0</asrwt>
<pdfrwt beam="1">  1       21 0.13737411E+00 0.21274327E+03</pdfrwt>
<pdfrwt beam="2">  1       21 0.78194023E-02 0.21274327E+03</pdfrwt>
<totfact> 0.46398717E+04</totfact>
</mgrwt>
</event>
<event>
 4    1  0.3876841E+000  0.2530371E+03  0.7546771E-02  0.1111400E+00
         21   -1    0    0  503  502  0.00000000000E+00  0.00000000000E+00  0.85363198579E+02  0.85363198579E+02  0.00000000000E+00 0.  1.
         21   -1    0    0  501  503 -0.00000000000E+00 -0.00000000000E+00 -0.11953443080E+04  0.11953443080E+04  0.00000000000E+00 0. -1.
          6    1    1    2  501    0  0.53761928533E+02  0.17665908295E+03 -0.94582306705E+03  0.97908582398E+03  0.17300000000E+03 0. -1.
         -6    1    1    2    0  502 -0.53761928533E+02 -0.17665908295E+03 -0.16415804240E+03  0.30162168263E+03  0.17300000000E+03 0.  1.
<mgrwt>
<rscale>  2 0.25303711E+03</rscale>
<asrwt>0</asrwt>
<pdfrwt beam="1">  1       21 0.13132799E-01 0.25303711E+03</pdfrwt>
<pdfrwt beam="2">  1       21 0.18389913E+00 0.25303711E+03</pdfrwt>
<totfact> 0.81700140E+03</totfact>
</mgrwt>
</event>
<event>
 4    1  0.3876841E+000  0.1739910E+03  0.7546771E-02  0.1173749E+00
         21   -1    0    0  503  502  0.00000000000E+00  0.00000000000E+00  0.37251790820E+03  0.37251790820E+03  0.00000000000E+00 0. -1.
         21   -1    0    0  501  503 -0.00000000000E+00 -0.00000000000E+00 -0.13369378998E+03  0.13369378998E+03  0.00000000000E+00 0. -1.
          6    1    1    2  501    0  0.12582784707E+02  0.13621597084E+02 -0.39087910999E+02  0.17832761750E+03  0.17300000000E+03 0. -1.
         -6    1    1    2    0  502 -0.12582784707E+02 -0.13621597084E+02  0.27791202922E+03  0.32788408068E+03  0.17300000000E+03 0. -1.
<mgrwt>
<rscale>  2 0.17399102E+03</rscale>
<asrwt>0</asrwt>
<pdfrwt beam="1">  1       21 0.57310447E-01 0.17399102E+03</pdfrwt>
<pdfrwt beam="2">  1       21 0.20568276E-01 0.17399102E+03</pdfrwt>
<totfact> 0.63135557E+04</totfact>
</mgrwt>
</event>
<event>
 4    1  0.3876841E+000  0.3435888E+03  0.7546771E-02  0.1065278E+00
         21   -1    0    0  503  502  0.00000000000E+00  0.00000000000E+00  0.45018264850E+03  0.45018264850E+03  0.00000000000E+00 0. -1.
         21   -1    0    0  501  503 -0.00000000000E+00 -0.00000000000E+00 -0.29650585088E+03  0.29650585088E+03  0.00000000000E+00 0. -1.
          6    1    1    2  501    0 -0.24623576644E+03  0.16580771198E+03 -0.50090602007E+02  0.34722084966E+03  0.17300000000E+03 0. -1.
         -6    1    1    2    0  502  0.24623576644E+03 -0.16580771198E+03  0.20376739963E+03  0.39946764973E+03  0.17300000000E+03 0. -1.
<mgrwt>
<rscale>  2 0.34358878E+03</rscale>
<asrwt>0</asrwt>
<pdfrwt beam="1">  1       21 0.69258869E-01 0.34358878E+03</pdfrwt>
<pdfrwt beam="2">  1       21 0.45616285E-01 0.34358878E+03</pdfrwt>
<totfact> 0.80554423E+03</totfact>
</mgrwt>
</event>
<event>
 4    1  0.3876841E+000  0.1743323E+03  0.7546771E-02  0.1173404E+00
         21   -1    0    0  501  502  0.00000000000E+00  0.00000000000E+00  0.65866440629E+02  0.65866440629E+02  0.00000000000E+00 0. -1.
         21   -1    0    0  502  503 -0.00000000000E+00 -0.00000000000E+00 -0.79802116326E+03  0.79802116326E+03  0.00000000000E+00 0. -1.
          6    1    1    2  501    0 -0.14555356025E+02  0.15839754849E+02 -0.85546175656E+02  0.19419038182E+03  0.17300000000E+03 0. -1.
         -6    1    1    2    0  503  0.14555356025E+02 -0.15839754849E+02 -0.64660854698E+03  0.66969722207E+03  0.17300000000E+03 0. -1.
<mgrwt>
<rscale>  2 0.17433232E+03</rscale>
<asrwt>0</asrwt>
<pdfrwt beam="1">  1       21 0.10133299E-01 0.17433232E+03</pdfrwt>
<pdfrwt beam="2">  1       21 0.12277248E+00 0.17433232E+03</pdfrwt>
<totfact> 0.39956587E+04</totfact>
</mgrwt>
</event>
<event>
 4    1  0.3876841E+000  0.2925272E+03  0.7546771E-02  0.1089037E+00
         21   -1    0    0  503  502  0.00000000000E+00  0.00000000000E+00  0.66511160408E+03  0.66511160408E+03  0.00000000000E+00 0.  1.
         21   -1    0    0  501  503 -0.00000000000E+00 -0.00000000000E+00 -0.26803922615E+03  0.26803922615E+03  0.00000000000E+00 0.  1.
          6    1    1    2  501    0 -0.96546396019E+02  0.21522536429E+03 -0.13791670075E+03  0.32340868938E+03  0.17300000000E+03 0.  1.
         -6    1    1    2    0  502  0.96546396019E+02 -0.21522536429E+03  0.53498907868E+03  0.60974214085E+03  0.17300000000E+03 0.  1.
<mgrwt>
<rscale>  2 0.29252720E+03</rscale>
<asrwt>0</asrwt>
<pdfrwt beam="1">  1       21 0.10232486E+00 0.29252720E+03</pdfrwt>
<pdfrwt beam="2">  1       21 0.41236804E-01 0.29252720E+03</pdfrwt>
<totfact> 0.41151667E+03</totfact>
</mgrwt>
</event>
<event>
 4    1  0.3876841E+000  0.2078581E+03  0.7546771E-02  0.1143273E+00
         21   -1    0    0  503  502  0.00000000000E+00  0.00000000000E+00  0.23629586639E+03  0.23629586639E+03  0.00000000000E+00 0.  1.
         21   -1    0    0  501  503 -0.00000000000E+00 -0.00000000000E+00 -0.18324397541E+03  0.18324397541E+03  0.00000000000E+00 0.  1.
          6    1    1    2  501    0  0.10141680831E+03 -0.54686662997E+02  0.16710945629E+02  0.20852878895E+03  0.17300000000E+03 0.  1.
         -6    1    1    2    0  502 -0.10141680831E+03  0.54686662997E+02  0.36340945350E+02  0.21101105285E+03  0.17300000000E+03 0.  1.
<mgrwt>
<rscale>  2 0.20785812E+03</rscale>
<asrwt>0</asrwt>
<pdfrwt beam="1">  1       21 0.36353210E-01 0.20785812E+03</pdfrwt>
<pdfrwt beam="2">  1       21 0.28191381E-01 0.20785812E+03</pdfrwt>
<totfact> 0.87188501E+04</totfact>
</mgrwt>
</event>
<event>
 4    1  0.3876841E+000  0.1771456E+03  0.7546771E-02  0.1170594E+00
         21   -1    0    0  503  502  0.00000000000E+00  0.00000000000E+00  0.62085377813E+03  0.62085377813E+03  0.00000000000E+00 0.  1.
         21   -1    0    0  501  503 -0.00000000000E+00 -0.00000000000E+00 -0.60864144884E+02  0.60864144884E+02  0.00000000000E+00 0.  1.
          6    1    1    2  501    0  0.28401157163E+02 -0.25395722354E+02  0.42035123370E+03  0.45615318492E+03  0.17300000000E+03 0.  1.
         -6    1    1    2    0  502 -0.28401157163E+02  0.25395722354E+02  0.13963839955E+03  0.22556473809E+03  0.17300000000E+03 0.  1.
<mgrwt>
<rscale>  2 0.17714561E+03</rscale>
<asrwt>0</asrwt>
<pdfrwt beam="1">  1       21 0.95515961E-01 0.17714561E+03</pdfrwt>
<pdfrwt beam="2">  1       21 0.93637150E-02 0.17714561E+03</pdfrwt>
<totfact> 0.83899883E+04</totfact>
</mgrwt>
</event>
<event>
 4    1  0.3876841E+000  0.4683957E+03  0.7546771E-02  0.1022374E+00
         21   -1    0    0  501  502  0.00000000000E+00  0.00000000000E+00  0.11309091852E+04  0.11309091852E+04  0.00000000000E+00 0. -1.
         21   -1    0    0  502  503 -0.00000000000E+00 -0.00000000000E+00 -0.28958205520E+03  0.28958205520E+03  0.00000000000E+00 0.  1.
          6    1    1    2  501    0  0.14928408580E+03  0.40887622065E+03  0.82871480300E+03  0.95192579900E+03  0.17300000000E+03 0. -1.
         -6    1    1    2    0  503 -0.14928408580E+03 -0.40887622065E+03  0.12612326999E+02  0.46856544140E+03  0.17300000000E+03 0.  1.
<mgrwt>
<rscale>  2 0.46839567E+03</rscale>
<asrwt>0</asrwt>
<pdfrwt beam="1">  1       21 0.17398603E+00 0.46839567E+03</pdfrwt>
<pdfrwt beam="2">  1       21 0.44551086E-01 0.46839567E+03</pdfrwt>
<totfact> 0.80350076E+02</totfact>
</mgrwt>
</event>
<event>
 4    1  0.3876841E+000  0.3068287E+03  0.7546771E-02  0.1081876E+00
         21   -1    0    0  503  502  0.00000000000E+00  0.00000000000E+00  0.12924884664E+03  0.12924884664E+03  0.00000000000E+00 0.  1.
         21   -1    0    0  501  503 -0.00000000000E+00 -0.00000000000E+00 -0.77937503121E+03  0.77937503121E+03  0.00000000000E+00 0. -1.
          6    1    1    2  501    0  0.22231199245E+03 -0.12162329167E+03 -0.20886659548E+03  0.37117260375E+03  0.17300000000E+03 0.  1.
         -6    1    1    2    0  502 -0.22231199245E+03  0.12162329167E+03 -0.44125958909E+03  0.53745127410E+03  0.17300000000E+03 0. -1.
<mgrwt>
<rscale>  2 0.30682869E+03</rscale>
<asrwt>0</asrwt>
<pdfrwt beam="1">  1       21 0.19884439E-01 0.30682869E+03</pdfrwt>
<pdfrwt beam="2">  1       21 0.11990385E+00 0.30682869E+03</pdfrwt>
<totfact> 0.11572235E+04</totfact>
</mgrwt>
</event>
<event>
 4    1  0.3876841E+000  0.1971002E+03  0.7546771E-02  0.1152209E+00
         21   -1    0    0  501  502  0.00000000000E+00  0.00000000000E+00  0.40410585489E+03  0.40410585489E+03  0.00000000000E+00 0.  1.
         21   -1    0    0  502  503 -0.00000000000E+00 -0.00000000000E+00 -0.10816842533E+03  0.10816842533E+03  0.00000000000E+00 0. -1.
          6    1    1    2  501    0 -0.94097906457E+02  0.80662592470E+01  0.23340207075E+03  0.30549141914E+03  0.17300000000E+03 0.  1.
         -6    1    1    2    0  503  0.94097906457E+02 -0.80662592470E+01  0.62535358810E+02  0.20678286109E+03  0.17300000000E+03 0. -1.
<mgrwt>
<rscale>  2 0.19710018E+03</rscale>
<asrwt>0</asrwt>
<pdfrwt beam="1">  1       21 0.62170131E-01 0.19710018E+03</pdfrwt>
<pdfrwt beam="2">  1       21 0.16641296E-01 0.19710018E+03</pdfrwt>
<totfact> 0.77726127E+04</totfact>
</mgrwt>
</event>
<event>
 4    1  0.3876841E+000  0.1946490E+03  0.7546771E-02  0.1154334E+00
         21   -1    0    0  501  502  0.00000000000E+00  0.00000000000E+00  0.31253576024E+03  0.31253576024E+03  0.00000000000E+00 0.  1.
         21   -1    0    0  502  503 -0.00000000000E+00 -0.00000000000E+00 -0.34928700491E+03  0.34928700491E+03  0.00000000000E+00 0.  1.
          6    1    1    2  501    0 -0.59918726870E+02 -0.66098266879E+02  0.24901344652E+03  0.31606317606E+03  0.17300000000E+03 0.  1.
         -6    1    1    2    0  503  0.59918726870E+02  0.66098266879E+02 -0.28576469119E+03  0.34575958908E+03  0.17300000000E+03 0.  1.
<mgrwt>
<rscale>  2 0.19464900E+03</rscale>
<asrwt>0</asrwt>
<pdfrwt beam="1">  1       21 0.48082425E-01 0.19464900E+03</pdfrwt>
<pdfrwt beam="2">  1       21 0.53736462E-01 0.19464900E+03</pdfrwt>
<totfact> 0.13523688E+04</totfact>
</mgrwt>
</event>
<event>
 4    1  0.3876841E+000  0.2307701E+03  0.7546771E-02  0.1126099E+00
         21   -1    0    0  501  502  0.00000000000E+00  0.00000000000E+00  0.46783661842E+03  0.46783661842E+03  0.00000000000E+00 0. -1.
         21   -1    0    0  502  503 -0.00000000000E+00 -0.00000000000E+00 -0.22723928690E+03  0.22723928690E+03  0.00000000000E+00 0. -1.
          6    1    1    2  501    0 -0.15007135612E+03 -0.28362677158E+02  0.36581517525E+03  0.43252236454E+03  0.17300000000E+03 0. -1.
         -6    1    1    2    0  503  0.15007135612E+03  0.28362677158E+02 -0.12521784373E+03  0.26255354077E+03  0.17300000000E+03 0. -1.
<mgrwt>
<rscale>  2 0.23077013E+03</rscale>
<asrwt>0</asrwt>
<pdfrwt beam="1">  1       21 0.71974864E-01 0.23077013E+03</pdfrwt>
<pdfrwt beam="2">  1       21 0.34959890E-01 0.23077013E+03</pdfrwt>
<totfact> 0.13421966E+04</totfact>
</mgrwt>
</event>
<event>
 4    1  0.3876841E+000  0.1988363E+03  0.7546771E-02  0.1150725E+00
         21   -1    0    0  503  502  0.00000000000E+00  0.00000000000E+00  0.13252118902E+04  0.13252118902E+04  0.00000000000E+00 0.  1.
         21   -1    0    0  501  503 -0.00000000000E+00 -0.00000000000E+00 -0.47262751606E+02  0.47262751606E+02  0.00000000000E+00 0.  1.
          6    1    1    2  501    0  0.60069470588E+02  0.77450286082E+02  0.22224672707E+03  0.29821048909E+03  0.17300000000E+03 0.  1.
         -6    1    1    2    0  502 -0.60069470588E+02 -0.77450286082E+02  0.10557024116E+04  0.10742641527E+04  0.17300000000E+03 0.  1.
<mgrwt>
<rscale>  2 0.19883633E+03</rscale>
<asrwt>0</asrwt>
<pdfrwt beam="1">  1       21 0.20387872E+00 0.19883633E+03</pdfrwt>
<pdfrwt beam="2">  1       21 0.72711936E-02 0.19883633E+03</pdfrwt>
<totfact> 0.17877493E+04</totfact>
</mgrwt>
</event>
<event>
 4    1  0.3876841E+000  0.3024931E+03  0.7546771E-02  0.1084001E+00
         21   -1    0    0  503  502  0.00000000000E+00  0.00000000000E+00  0.22620740552E+03  0.22620740552E+03  0.00000000000E+00 0. -1.
         21   -1    0    0  501  503 -0.00000000000E+00 -0.00000000000E+00 -0.68345118364E+03  0.68345118364E+03  0.00000000000E+00 0.  1.
          6    1    1    2  501    0  0.13384268322E+03  0.20894788252E+03 -0.51919451757E+03  0.60088686834E+03  0.17300000000E+03 0.  1.
         -6    1    1    2    0  502 -0.13384268322E+03 -0.20894788252E+03  0.61950739454E+02  0.30877172083E+03  0.17300000000E+03 0. -1.
<mgrwt>
<rscale>  2 0.30249311E+03</rscale>
<asrwt>0</asrwt>
<pdfrwt beam="1">  1       21 0.34801140E-01 0.30249311E+03</pdfrwt>
<pdfrwt beam="2">  1       21 0.10514634E+00 0.30249311E+03</pdfrwt>
<totfact> 0.54046635E+03</totfact>
</mgrwt>
</event>
<event>
 4    1  0.3876841E+000  0.2194879E+03  0.7546771E-02  0.1134265E+00
         21   -1    0    0  503  502  0.00000000000E+00  0.00000000000E+00  0.13134563433E+03  0.13134563433E+03  0.00000000000E+00 0.  1.
         21   -1    0    0  501  503 -0.00000000000E+00 -0.00000000000E+00 -0.40322684529E+03  0.40322684529E+03  0.00000000000E+00 0. -1.
          6    1    1    2  501    0  0.60028392968E+02 -0.12100639583E+03 -0.21629907764E+03  0.30815620517E+03  0.17300000000E+03 0. -1.
         -6    1    1    2    0  502 -0.60028392968E+02  0.12100639583E+03 -0.55582133308E+02  0.22641627445E+03  0.17300000000E+03 0.  1.
<mgrwt>
<rscale>  2 0.21948794E+03</rscale>
<asrwt>0</asrwt>
<pdfrwt beam="1">  1       21 0.20207021E-01 0.21948794E+03</pdfrwt>
<pdfrwt beam="2">  1       21 0.62034898E-01 0.21948794E+03</pdfrwt>
<totfact> 0.53923372E+04</totfact>
</mgrwt>
</event>
<event>
 4    1  0.3876841E+000  0.2844926E+03  0.7546771E-02  0.1093260E+00
         21   -1    0    0  501  502  0.00000000000E+00  0.00000000000E+00  0.49441632383E+03  0.49441632383E+03  0.00000000000E+00 0. -1.
         21   -1    0    0  502  503 -0.00000000000E+00 -0.00000000000E+00 -0.17125300985E+03  0.17125300985E+03  0.00000000000E+00 0. -1.
          6    1    1    2  501    0 -0.38231862311E+02  0.22258789038E+03  0.23147955602E+03  0.36676808626E+03  0.17300000000E+03 0. -1.
         -6    1    1    2    0  503  0.38231862311E+02 -0.22258789038E+03  0.91683757959E+02  0.29890124743E+03  0.17300000000E+03 0. -1.
<mgrwt>
<rscale>  2 0.28449261E+03</rscale>
<asrwt>0</asrwt>
<pdfrwt beam="1">  1       21 0.76064049E-01 0.28449261E+03</pdfrwt>
<pdfrwt beam="2">  1       21 0.26346617E-01 0.28449261E+03</pdfrwt>
<totfact> 0.20134422E+04</totfact>
</mgrwt>
</event>
<event>
 4    1  0.3876841E+000  0.1749778E+03  0.7546771E-02  0.1172754E+00
         21   -1    0    0  501  502  0.00000000000E+00  0.00000000000E+00  0.68477383511E+03  0.68477383511E+03  0.00000000000E+00 0.  1.
         21   -1    0    0  502  503 -0.00000000000E+00 -0.00000000000E+00 -0.63373559697E+02  0.63373559697E+02  0.00000000000E+00 0.  1.
          6    1    1    2  501    0 -0.24003990065E+02  0.10584733040E+02  0.51369429632E+03  0.54267767430E+03  0.17300000000E+03 0.  1.
         -6    1    1    2    0  503  0.24003990065E+02 -0.10584733040E+02  0.10770597909E+03  0.20546972051E+03  0.17300000000E+03 0.  1.
<mgrwt>
<rscale>  2 0.17497779E+03</rscale>
<asrwt>0</asrwt>
<pdfrwt beam="1">  1       21 0.10534982E+00 0.17497779E+03</pdfrwt>
<pdfrwt beam="2">  1       21 0.97497789E-02 0.17497779E+03</pdfrwt>
<totfact> 0.62030418E+04</totfact>
</mgrwt>
</event>
<event>
 4    1  0.3876841E+000  0.1946936E+03  0.7546771E-02  0.1154295E+00
         21   -1    0    0  503  502  0.00000000000E+00  0.00000000000E+00  0.41694546274E+02  0.41694546274E+02  0.00000000000E+00 0.  1.
         21   -1    0    0  501  503 -0.00000000000E+00 -0.00000000000E+00 -0.94214479456E+03  0.94214479456E+03  0.00000000000E+00 0.  1.
          6    1    1    2  501    0  0.51802621898E+02  0.72753616746E+02 -0.54231572146E+03  0.57620477447E+03  0.17300000000E+03 0.  1.
         -6    1    1    2    0  502 -0.51802621898E+02 -0.72753616746E+02 -0.35813452683E+03  0.40763456636E+03  0.17300000000E+03 0.  1.
<mgrwt>
<rscale>  2 0.19469361E+03</rscale>
<asrwt>0</asrwt>
<pdfrwt beam="1">  1       21 0.64145458E-02 0.19469361E+03</pdfrwt>
<pdfrwt beam="2">  1       21 0.14494535E+00 0.19469361E+03</pdfrwt>
<totfact> 0.57432275E+04</totfact>
</mgrwt>
</event>
<event>
 4    1  0.3876841E+000  0.3149506E+03  0.7546771E-02  0.1077997E+00
         21   -1    0    0  503  502  0.00000000000E+00  0.00000000000E+00  0.10870126595E+04  0.10870126595E+04  0.00000000000E+00 0. -1.
         21   -1    0    0  501  503 -0.00000000000E+00 -0.00000000000E+00 -0.96184276190E+02  0.96184276190E+02  0.00000000000E+00 0. -1.
          6    1    1    2  501    0  0.19880713802E+03  0.17245466328E+03  0.62935884455E+03  0.70376590158E+03  0.17300000000E+03 0. -1.
         -6    1    1    2    0  502 -0.19880713802E+03 -0.17245466328E+03  0.36146953873E+03  0.47943103409E+03  0.17300000000E+03 0. -1.
<mgrwt>
<rscale>  2 0.31495061E+03</rscale>
<asrwt>0</asrwt>
<pdfrwt beam="1">  1       21 0.16723271E+00 0.31495061E+03</pdfrwt>
<pdfrwt beam="2">  1       21 0.14797582E-01 0.31495061E+03</pdfrwt>
<totfact> 0.83030579E+03</totfact>
</mgrwt>
</event>
<event>
 4    1  0.3876841E+000  0.2288883E+03  0.7546771E-02  0.1127425E+00
         21   -1    0    0  503  502  0.00000000000E+00  0.00000000000E+00  0.31315573185E+03  0.31315573185E+03  0.00000000000E+00 0.  1.
         21   -1    0    0  501  503 -0.00000000000E+00 -0.00000000000E+00 -0.21854558879E+03  0.21854558879E+03  0.00000000000E+00 0.  1.
          6    1    1    2  501    0 -0.82659354698E+02 -0.12501308478E+03  0.17604404241E+03  0.28875828153E+03  0.17300000000E+03 0.  1.
         -6    1    1    2    0  502  0.82659354698E+02  0.12501308478E+03 -0.81433899354E+02  0.24294303911E+03  0.17300000000E+03 0.  1.
<mgrwt>
<rscale>  2 0.22888827E+03</rscale>
<asrwt>0</asrwt>
<pdfrwt beam="1">  1       21 0.48177805E-01 0.22888827E+03</pdfrwt>
<pdfrwt beam="2">  1       21 0.33622398E-01 0.22888827E+03</pdfrwt>
<totfact> 0.34432874E+04</totfact>
</mgrwt>
</event>
<event>
 4    1  0.3876841E+000  0.2042141E+03  0.7546771E-02  0.1146231E+00
         21   -1    0    0  501  502  0.00000000000E+00  0.00000000000E+00  0.81270964471E+02  0.81270964471E+02  0.00000000000E+00 0. -1.
         21   -1    0    0  502  503 -0.00000000000E+00 -0.00000000000E+00 -0.75169527173E+03  0.75169527173E+03  0.00000000000E+00 0.  1.
          6    1    1    2  501    0 -0.10037593598E+03  0.41219779761E+02 -0.10058902468E+03  0.22764347268E+03  0.17300000000E+03 0. -1.
         -6    1    1    2    0  503  0.10037593598E+03 -0.41219779761E+02 -0.56983528257E+03  0.60532276352E+03  0.17300000000E+03 0.  1.
<mgrwt>
<rscale>  2 0.20421410E+03</rscale>
<asrwt>0</asrwt>
<pdfrwt beam="1">  1       21 0.12503225E-01 0.20421410E+03</pdfrwt>
<pdfrwt beam="2">  1       21 0.11564543E+00 0.20421410E+03</pdfrwt>
<totfact> 0.31317337E+04</totfact>
</mgrwt>
</event>
<event>
 4    1  0.3876841E+000  0.2171730E+03  0.7546771E-02  0.1136008E+00
         21   -1    0    0  501  502  0.00000000000E+00  0.00000000000E+00  0.14556399441E+03  0.14556399441E+03  0.00000000000E+00 0. -1.
         21   -1    0    0  502  503 -0.00000000000E+00 -0.00000000000E+00 -0.38649448570E+03  0.38649448570E+03  0.00000000000E+00 0. -1.
          6    1    1    2  501    0 -0.17498694503E+02  0.13011107401E+03 -0.22743132194E+03  0.31446637672E+03  0.17300000000E+03 0. -1.
         -6    1    1    2    0  503  0.17498694503E+02 -0.13011107401E+03 -0.13499169351E+02  0.21759210340E+03  0.17300000000E+03 0. -1.
<mgrwt>
<rscale>  2 0.21717296E+03</rscale>
<asrwt>0</asrwt>
<pdfrwt beam="1">  1       21 0.22394461E-01 0.21717296E+03</pdfrwt>
<pdfrwt beam="2">  1       21 0.59460690E-01 0.21717296E+03</pdfrwt>
<totfact> 0.48735315E+04</totfact>
</mgrwt>
</event>
<event>
 4    1  0.3876841E+000  0.2107551E+03  0.7546771E-02  0.1140969E+00
         21   -1    0    0  501  502  0.00000000000E+00  0.00000000000E+00  0.57479277383E+02  0.57479277383E+02  0.00000000000E+00 0. -1.
         21   -1    0    0  502  503 -0.00000000000E+00 -0.00000000000E+00 -0.30637836543E+04  0.30637836543E+04  0.00000000000E+00 0.  1.
          6    1    1    2  501    0 -0.74748274307E+01  0.12013677787E+03 -0.15361130624E+03  0.26079522972E+03  0.17300000000E+03 0. -1.
         -6    1    1    2    0  503  0.74748274307E+01 -0.12013677787E+03 -0.28526930707E+04  0.28604677020E+04  0.17300000000E+03 0.  1.
<mgrwt>
<rscale>  2 0.21075511E+03</rscale>
<asrwt>0</asrwt>
<pdfrwt beam="1">  1       21 0.88429619E-02 0.21075511E+03</pdfrwt>
<pdfrwt beam="2">  1       21 0.47135154E+00 0.21075511E+03</pdfrwt>
<totfact> 0.29234079E+02</totfact>
</mgrwt>
</event>
<event>
 4    1  0.3876841E+000  0.1921416E+03  0.7546771E-02  0.1156544E+00
         21   -1    0    0  503  502  0.00000000000E+00  0.00000000000E+00  0.17257975981E+03  0.17257975981E+03  0.00000000000E+00 0. -1.
         21   -1    0    0  501  503 -0.00000000000E+00 -0.00000000000E+00 -0.37306520954E+03  0.37306520954E+03  0.00000000000E+00 0. -1.
          6    1    1    2  501    0 -0.76556327159E+02 -0.33593314595E+02 -0.27843284583E+03  0.33829459300E+03  0.17300000000E+03 0. -1.
         -6    1    1    2    0  502  0.76556327159E+02  0.33593314595E+02  0.77947396105E+02  0.20735037635E+03  0.17300000000E+03 0. -1.
<mgrwt>
<rscale>  2 0.19214157E+03</rscale>
<asrwt>0</asrwt>
<pdfrwt beam="1">  1       21 0.26550733E-01 0.19214157E+03</pdfrwt>
<pdfrwt beam="2">  1       21 0.57394646E-01 0.19214157E+03</pdfrwt>
<totfact> 0.38472455E+04</totfact>
</mgrwt>
</event>
<event>
 4    1  0.3876841E+000  0.1882346E+03  0.7546771E-02  0.1160063E+00
         21   -1    0    0  503  502  0.00000000000E+00  0.00000000000E+00  0.35807896189E+02  0.35807896189E+02  0.00000000000E+00 0.  1.
         21   -1    0    0  501  503 -0.00000000000E+00 -0.00000000000E+00 -0.98971763978E+03  0.98971763978E+03  0.00000000000E+00 0.  1.
          6    1    1    2  501    0  0.57306191749E+02  0.47108912049E+02 -0.46951677077E+03  0.50584409381E+03  0.17300000000E+03 0.  1.
         -6    1    1    2    0  502 -0.57306191749E+02 -0.47108912049E+02 -0.48439297283E+03  0.51968144216E+03  0.17300000000E+03 0.  1.
<mgrwt>
<rscale>  2 0.18823456E+03</rscale>
<asrwt>0</asrwt>
<pdfrwt beam="1">  1       21 0.55089066E-02 0.18823456E+03</pdfrwt>
<pdfrwt beam="2">  1       21 0.15226427E+00 0.18823456E+03</pdfrwt>
<totfact> 0.65700879E+04</totfact>
</mgrwt>
</event>
<event>
 4    1  0.3876841E+000  0.1956739E+03  0.7546771E-02  0.1153441E+00
         21   -1    0    0  503  502  0.00000000000E+00  0.00000000000E+00  0.90654272652E+02  0.90654272652E+02  0.00000000000E+00 0.  1.
         21   -1    0    0  501  503 -0.00000000000E+00 -0.00000000000E+00 -0.82038548383E+03  0.82038548383E+03  0.00000000000E+00 0.  1.
          6    1    1    2  501    0  0.88283197240E+02  0.23777240602E+02 -0.68215572556E+03  0.70966521262E+03  0.17300000000E+03 0.  1.
         -6    1    1    2    0  502 -0.88283197240E+02 -0.23777240602E+02 -0.47575485622E+02  0.20137454387E+03  0.17300000000E+03 0.  1.
<mgrwt>
<rscale>  2 0.19567391E+03</rscale>
<asrwt>0</asrwt>
<pdfrwt beam="1">  1       21 0.13946811E-01 0.19567391E+03</pdfrwt>
<pdfrwt beam="2">  1       21 0.12621315E+00 0.19567391E+03</pdfrwt>
<totfact> 0.20806710E+04</totfact>
</mgrwt>
</event>
<event>
 4    1  0.3876841E+000  0.1970793E+03  0.7546771E-02  0.1152227E+00
         21   -1    0    0  503  502  0.00000000000E+00  0.00000000000E+00  0.77415823672E+02  0.77415823672E+02  0.00000000000E+00 0.  1.
         21   -1    0    0  501  503 -0.00000000000E+00 -0.00000000000E+00 -0.96749717251E+03  0.96749717251E+03  0.00000000000E+00 0.  1.
          6    1    1    2  501    0 -0.27173706742E+02 -0.90403674797E+02 -0.80755017676E+03  0.83125057759E+03  0.17300000000E+03 0.  1.
         -6    1    1    2    0  502  0.27173706742E+02  0.90403674797E+02 -0.82531172077E+02  0.21366241859E+03  0.17300000000E+03 0.  1.
<mgrwt>
<rscale>  2 0.19707926E+03</rscale>
<asrwt>0</asrwt>
<pdfrwt beam="1">  1       21 0.11910128E-01 0.19707926E+03</pdfrwt>
<pdfrwt beam="2">  1       21 0.14884571E+00 0.19707926E+03</pdfrwt>
<totfact> 0.18087424E+04</totfact>
</mgrwt>
</event>
<event>
 4    1  0.3876841E+000  0.2560780E+03  0.7546771E-02  0.1109523E+00
         21   -1    0    0  503  502  0.00000000000E+00  0.00000000000E+00  0.10496914051E+03  0.10496914051E+03  0.00000000000E+00 0. -1.
         21   -1    0    0  501  503 -0.00000000000E+00 -0.00000000000E+00 -0.10862232270E+04  0.10862232270E+04  0.00000000000E+00 0. -1.
          6    1    1    2  501    0 -0.18603212173E+03  0.32233779865E+02 -0.87885009948E+03  0.91539798134E+03  0.17300000000E+03 0. -1.
         -6    1    1    2    0  502  0.18603212173E+03 -0.32233779865E+02 -0.10240398697E+03  0.27579438614E+03  0.17300000000E+03 0. -1.
<mgrwt>
<rscale>  2 0.25607805E+03</rscale>
<asrwt>0</asrwt>
<pdfrwt beam="1">  1       21 0.16149098E-01 0.25607805E+03</pdfrwt>
<pdfrwt beam="2">  1       21 0.16711127E+00 0.25607805E+03</pdfrwt>
<totfact> 0.73207937E+03</totfact>
</mgrwt>
</event>
<event>
 4    1  0.3876841E+000  0.3013151E+03  0.7546771E-02  0.1084585E+00
         21   -1    0    0  501  502  0.00000000000E+00  0.00000000000E+00  0.40776104827E+03  0.40776104827E+03  0.00000000000E+00 0. -1.
         21   -1    0    0  502  503 -0.00000000000E+00 -0.00000000000E+00 -0.23081431034E+03  0.23081431034E+03  0.00000000000E+00 0.  1.
          6    1    1    2  501    0 -0.20012402570E+02  0.24588873179E+03  0.14849806502E+03  0.33592028816E+03  0.17300000000E+03 0. -1.
         -6    1    1    2    0  503  0.20012402570E+02 -0.24588873179E+03  0.28448672901E+02  0.30265507045E+03  0.17300000000E+03 0. -1.
<mgrwt>
<rscale>  2 0.30131506E+03</rscale>
<asrwt>0</asrwt>
<pdfrwt beam="1">  1       21 0.62732469E-01 0.30131506E+03</pdfrwt>
<pdfrwt beam="2">  1       21 0.35509894E-01 0.30131506E+03</pdfrwt>
<totfact> 0.17032070E+04</totfact>
</mgrwt>
</event>
<event>
 4    1  0.3876841E+000  0.1804010E+03  0.7546771E-02  0.1167416E+00
         21   -1    0    0  501  502  0.00000000000E+00  0.00000000000E+00  0.70470679193E+02  0.70470679193E+02  0.00000000000E+00 0. -1.
         21   -1    0    0  502  503 -0.00000000000E+00 -0.00000000000E+00 -0.47486836760E+03  0.47486836760E+03  0.00000000000E+00 0.  1.
          6    1    1    2  501    0 -0.17591771367E+02  0.48021350158E+02 -0.15699381406E+03  0.23914760744E+03  0.17300000000E+03 0. -1.
         -6    1    1    2    0  503  0.17591771367E+02 -0.48021350158E+02 -0.24740387435E+03  0.30619143935E+03  0.17300000000E+03 0. -1.
<mgrwt>
<rscale>  2 0.18040100E+03</rscale>
<asrwt>0</asrwt>
<pdfrwt beam="1">  1       21 0.10841643E-01 0.18040100E+03</pdfrwt>
<pdfrwt beam="2">  1       21 0.73056670E-01 0.18040100E+03</pdfrwt>
<totfact> 0.11907407E+05</totfact>
</mgrwt>
</event>
<event>
 4    1  0.3876841E+000  0.1847174E+03  0.7546771E-02  0.1163314E+00
         21   -1    0    0  503  502  0.00000000000E+00  0.00000000000E+00  0.92559164084E+02  0.92559164084E+02  0.00000000000E+00 0. -1.
         21   -1    0    0  501  503 -0.00000000000E+00 -0.00000000000E+00 -0.55969821109E+03  0.55969821109E+03  0.00000000000E+00 0. -1.
          6    1    1    2  501    0  0.63933886247E+02  0.10196017402E+02 -0.42411610209E+03  0.46259590209E+03  0.17300000000E+03 0. -1.
         -6    1    1    2    0  502 -0.63933886247E+02 -0.10196017402E+02 -0.43022944916E+02  0.18966147308E+03  0.17300000000E+03 0. -1.
<mgrwt>
<rscale>  2 0.18471735E+03</rscale>
<asrwt>0</asrwt>
<pdfrwt beam="1">  1       21 0.14239872E-01 0.18471735E+03</pdfrwt>
<pdfrwt beam="2">  1       21 0.86107415E-01 0.18471735E+03</pdfrwt>
<totfact> 0.50347740E+04</totfact>
</mgrwt>
</event>
