<event>
 8    1  0.2509217E-006  0.9118800E+02  0.7816164E-02  0.1184000E+00
        -11   -1    0    0    0    0  0.00000000000E+00  0.00000000000E+00  0.45593999997E+02  0.45594000000E+02  0.51100000000E-03 0.  1.
         11   -1    0    0    0    0 -0.00000000000E+00 -0.00000000000E+00 -0.45593999997E+02  0.45594000000E+02  0.51100000000E-03 0. -1.
         23    2    1    2    0    0  0.00000000000E+00 -0.35527136788E-14  0.35527136788E-14  0.91188000000E+02  0.91188000000E+02 0.  0.
    9900012    2    3    3    0    0 -0.16799772947E+02 -0.25253047310E+02 -0.20876552519E+02  0.54367092698E+02  0.40000019423E+02 0.  0.
        -12    1    3    3    0    0  0.16799772947E+02  0.25253047310E+02  0.20876552519E+02  0.36820907302E+02  0.00000000000E+00 0.  1.
         11    1    4    4    0    0 -0.71785274887E+01 -0.15837982559E+02 -0.53554342428E+01  0.18194879077E+02  0.51100000000E-03 0. -1.
        -11    1    4    4    0    0  0.12470685172E+01 -0.18628017046E+01 -0.21523547950E+02  0.21639970580E+02  0.51100000000E-03 0.  1.
         12    1    4    4    0    0 -0.10868313975E+02 -0.75522630462E+01  0.60024296742E+01  0.14532243040E+02  0.00000000000E+00 0. -1.
</event>
<event>
 8    1  0.2509217E-006  0.9118800E+02  0.7816164E-02  0.1184000E+00
        -11   -1    0    0    0    0  0.00000000000E+00  0.00000000000E+00  0.45593999997E+02  0.45594000000E+02  0.51100000000E-03 0. -1.
         11   -1    0    0    0    0 -0.00000000000E+00 -0.00000000000E+00 -0.45593999997E+02  0.45594000000E+02  0.51100000000E-03 0.  1.
         23    2    1    2    0    0  0.00000000000E+00  0.00000000000E+00  0.00000000000E+00  0.91188000000E+02  0.91188000000E+02 0.  0.
    9900012    2    3    3    0    0  0.16489447957E+02  0.15509732480E+02  0.29040076605E+02  0.54367085498E+02  0.40000003011E+02 0.  0.
        -12    1    3    3    0    0 -0.16489447957E+02 -0.15509732480E+02 -0.29040076605E+02  0.36820914502E+02  0.00000000000E+00 0.  1.
         11    1    4    4    0    0 -0.22050811367E+01  0.66573843839E+01  0.13214113494E+02  0.14959811006E+02  0.51100000000E-03 0. -1.
        -11    1    4    4    0    0  0.18965599837E+02  0.15696197298E+02  0.29127867385E+01  0.24790097088E+02  0.51100000000E-03 0.  1.
        -12    1    4    4    0    0 -0.27107074368E+00 -0.68438492012E+01  0.12913176373E+02  0.14617177404E+02  0.00000000000E+00 0.  1.
</event>
<event>
 8    1  0.2509217E-006  0.9118800E+02  0.7816164E-02  0.1184000E+00
        -11   -1    0    0    0    0  0.00000000000E+00  0.00000000000E+00  0.45593999997E+02  0.45594000000E+02  0.51100000000E-03 0.  1.
         11   -1    0    0    0    0 -0.00000000000E+00 -0.00000000000E+00 -0.45593999997E+02  0.45594000000E+02  0.51100000000E-03 0. -1.
         23    2    1    2    0    0  0.00000000000E+00 -0.35527136788E-14  0.35527136788E-14  0.91188000000E+02  0.91188000000E+02 0.  0.
    9900012    2    3    3    0    0  0.16069897164E+02  0.21403353806E+02 -0.25287045951E+02  0.54367084179E+02  0.40000000002E+02 0.  0.
        -12    1    3    3    0    0 -0.16069897164E+02 -0.21403353806E+02  0.25287045951E+02  0.36820915821E+02  0.00000000000E+00 0.  1.
         11    1    4    4    0    0  0.16913263042E+02  0.66850356333E+01 -0.14589591514E+02  0.23315324337E+02  0.51100000000E-03 0. -1.
        -11    1    4    4    0    0  0.97396256415E+00  0.19725345017E+02 -0.74488387078E+00  0.19763418008E+02  0.51100000000E-03 0.  1.
         12    1    4    4    0    0 -0.18173284417E+01 -0.50070268442E+01 -0.99525705665E+01  0.11288341834E+02  0.00000000000E+00 0. -1.
</event>
<event>
 8    1  0.2509217E-006  0.9118800E+02  0.7816164E-02  0.1184000E+00
        -11   -1    0    0    0    0  0.00000000000E+00  0.00000000000E+00  0.45593999997E+02  0.45594000000E+02  0.51100000000E-03 0.  1.
         11   -1    0    0    0    0 -0.00000000000E+00 -0.00000000000E+00 -0.45593999997E+02  0.45594000000E+02  0.51100000000E-03 0. -1.
         23    2    1    2    0    0  0.00000000000E+00  0.00000000000E+00 -0.17763568394E-14  0.91188000000E+02  0.91188000000E+02 0.  0.
    9900012    2    3    3    0    0  0.22801286136E+02  0.27989997156E+02 -0.72415607215E+01  0.54367098436E+02  0.40000032506E+02 0.  0.
        -12    1    3    3    0    0 -0.22801286136E+02 -0.27989997156E+02  0.72415607215E+01  0.36820901564E+02  0.00000000000E+00 0.  1.
         11    1    4    4    0    0  0.18596103159E+02  0.34444645643E+01  0.10633043657E+02  0.21696566699E+02  0.51100000000E-03 0. -1.
        -11    1    4    4    0    0 -0.38155736378E+01  0.81798195474E+01 -0.72264411465E+01  0.11562417650E+02  0.51100000000E-03 0.  1.
         12    1    4    4    0    0  0.80207566150E+01  0.16365713044E+02 -0.10648163232E+02  0.21108114088E+02  0.00000000000E+00 0. -1.
</event>
<event>
 8    1  0.2509217E-006  0.9118800E+02  0.7816164E-02  0.1184000E+00
        -11   -1    0    0    0    0  0.00000000000E+00  0.00000000000E+00  0.45593999997E+02  0.45594000000E+02  0.51100000000E-03 0. -1.
         11   -1    0    0    0    0 -0.00000000000E+00 -0.00000000000E+00 -0.45593999997E+02  0.45594000000E+02  0.51100000000E-03 0.  1.
         23    2    1    2    0    0  0.00000000000E+00 -0.71054273576E-14  0.00000000000E+00  0.91188000000E+02  0.91188000000E+02 0.  0.
    9900012    2    3    3    0    0  0.96069739193E+01  0.32571742067E+02 -0.14232416134E+02  0.54367163532E+02  0.40000180904E+02 0.  0.
        -12    1    3    3    0    0 -0.96069739193E+01 -0.32571742067E+02  0.14232416134E+02  0.36820836468E+02  0.00000000000E+00 0.  1.
         11    1    4    4    0    0  0.68934649075E+01  0.34840867159E+02 -0.80073829545E+01  0.36407747319E+02  0.51100000000E-03 0. -1.
        -11    1    4    4    0    0  0.56393988416E+01  0.26416319180E+01 -0.95091680708E+01  0.11366851637E+02  0.51100000000E-03 0.  1.
        -12    1    4    4    0    0 -0.29258898298E+01 -0.49107570098E+01  0.32841348913E+01  0.65925645761E+01  0.00000000000E+00 0.  1.
</event>
<event>
 8    1  0.2509217E-006  0.9118800E+02  0.7816164E-02  0.1184000E+00
        -11   -1    0    0    0    0  0.00000000000E+00  0.00000000000E+00  0.45593999997E+02  0.45594000000E+02  0.51100000000E-03 0. -1.
         11   -1    0    0    0    0 -0.00000000000E+00 -0.00000000000E+00 -0.45593999997E+02  0.45594000000E+02  0.51100000000E-03 0.  1.
         23    2    1    2    0    0 -0.88817841970E-15  0.71054273576E-14 -0.17763568394E-14  0.91188000000E+02  0.91188000000E+02 0.  0.
    9900012    2    3    3    0    0  0.23912965693E+01  0.35235125870E+02 -0.10418611239E+02  0.54367084008E+02  0.39999999613E+02 0.  0.
        -12    1    3    3    0    0 -0.23912965693E+01 -0.35235125870E+02  0.10418611239E+02  0.36820915992E+02  0.00000000000E+00 0.  1.
         11    1    4    4    0    0  0.86303114326E+01  0.21730090380E+02  0.87463812221E+01  0.24963539174E+02  0.51100000000E-03 0. -1.
        -11    1    4    4    0    0 -0.42627840195E+01  0.13251761972E+02 -0.45380509972E+01  0.14641531001E+02  0.51100000000E-03 0.  1.
         12    1    4    4    0    0 -0.19762308439E+01  0.25327351857E+00 -0.14626941463E+02  0.14762013833E+02  0.00000000000E+00 0. -1.
</event>
<event>
 8    1  0.2509217E-006  0.9118800E+02  0.7816164E-02  0.1184000E+00
        -11   -1    0    0    0    0  0.00000000000E+00  0.00000000000E+00  0.45593999997E+02  0.45594000000E+02  0.51100000000E-03 0. -1.
         11   -1    0    0    0    0 -0.00000000000E+00 -0.00000000000E+00 -0.45593999997E+02  0.45594000000E+02  0.51100000000E-03 0.  1.
         23    2    1    2    0    0  0.00000000000E+00  0.35527136788E-14  0.00000000000E+00  0.91188000000E+02  0.91188000000E+02 0.  0.
    9900012    2    3    3    0    0  0.10051856877E+02 -0.17576903774E+02  0.30753741411E+02  0.54367082253E+02  0.39999995611E+02 0.  0.
        -12    1    3    3    0    0 -0.10051856877E+02  0.17576903774E+02 -0.30753741411E+02  0.36820917747E+02  0.00000000000E+00 0.  1.
         11    1    4    4    0    0  0.54706698193E+01 -0.39683882844E+01  0.31612452186E+02  0.32326822722E+02  0.51100000000E-03 0. -1.
        -11    1    4    4    0    0 -0.33062316350E+01 -0.13562612095E+02 -0.18840198338E+01  0.14086346065E+02  0.51100000000E-03 0.  1.
         12    1    4    4    0    0  0.78874186929E+01 -0.45903394823E-01  0.10253090595E+01  0.79539134661E+01  0.00000000000E+00 0. -1.
</event>
<event>
 8    1  0.2509217E-006  0.9118800E+02  0.7816164E-02  0.1184000E+00
        -11   -1    0    0    0    0  0.00000000000E+00  0.00000000000E+00  0.45593999997E+02  0.45594000000E+02  0.51100000000E-03 0.  1.
         11   -1    0    0    0    0 -0.00000000000E+00 -0.00000000000E+00 -0.45593999997E+02  0.45594000000E+02  0.51100000000E-03 0. -1.
         23    2    1    2    0    0  0.00000000000E+00  0.00000000000E+00  0.00000000000E+00  0.91188000000E+02  0.91188000000E+02 0.  0.
    9900012    2    3    3    0    0  0.30086648595E+02 -0.60130183787E+01 -0.20357242240E+02  0.54367080330E+02  0.39999991229E+02 0.  0.
        -12    1    3    3    0    0 -0.30086648595E+02  0.60130183787E+01  0.20357242240E+02  0.36820919670E+02  0.00000000000E+00 0.  1.
         11    1    4    4    0    0  0.14685990153E+02  0.10124579626E+02 -0.41082540028E+01  0.18304730826E+02  0.51100000000E-03 0. -1.
        -11    1    4    4    0    0 -0.37801117971E+01 -0.54310656294E+01 -0.11978229271E+02  0.13684432608E+02  0.51100000000E-03 0.  1.
        -12    1    4    4    0    0  0.19180770239E+02 -0.10706532376E+02 -0.42707589662E+01  0.22377916896E+02  0.00000000000E+00 0.  1.
</event>
<event>
 8    1  0.2509217E-006  0.9118800E+02  0.7816164E-02  0.1184000E+00
        -11   -1    0    0    0    0  0.00000000000E+00  0.00000000000E+00  0.45593999997E+02  0.45594000000E+02  0.51100000000E-03 0. -1.
         11   -1    0    0    0    0 -0.00000000000E+00 -0.00000000000E+00 -0.45593999997E+02  0.45594000000E+02  0.51100000000E-03 0.  1.
         23    2    1    2    0    0  0.00000000000E+00  0.00000000000E+00 -0.44408920985E-15  0.91188000000E+02  0.91188000000E+02 0.  0.
    9900012    2    3    3    0    0 -0.32903304675E+02 -0.16247072182E+02  0.30298867460E+01  0.54367149566E+02  0.40000149065E+02 0.  0.
        -12    1    3    3    0    0  0.32903304675E+02  0.16247072182E+02 -0.30298867460E+01  0.36820850434E+02  0.00000000000E+00 0.  1.
         11    1    4    4    0    0 -0.28558255058E+02  0.34131095432E+01  0.82318507029E+01  0.29916326896E+02  0.51100000000E-03 0. -1.
        -11    1    4    4    0    0 -0.19492131659E+01 -0.65901956576E+01 -0.83308168074E+01  0.10799658315E+02  0.51100000000E-03 0.  1.
         12    1    4    4    0    0 -0.23958364512E+01 -0.13069986067E+02  0.31288528505E+01  0.13651164355E+02  0.00000000000E+00 0. -1.
</event>
<event>
 8    1  0.2509217E-006  0.9118800E+02  0.7816164E-02  0.1184000E+00
        -11   -1    0    0    0    0  0.00000000000E+00  0.00000000000E+00  0.45593999997E+02  0.45594000000E+02  0.51100000000E-03 0.  1.
         11   -1    0    0    0    0 -0.00000000000E+00 -0.00000000000E+00 -0.45593999997E+02  0.45594000000E+02  0.51100000000E-03 0. -1.
         23    2    1    2    0    0  0.17763568394E-14  0.00000000000E+00  0.00000000000E+00  0.91188000000E+02  0.91188000000E+02 0.  0.
    9900012    2    3    3    0    0  0.10212271284E+02  0.48733266742E+01 -0.35039141800E+02  0.54367064980E+02  0.39999956235E+02 0.  0.
        -12    1    3    3    0    0 -0.10212271284E+02 -0.48733266742E+01  0.35039141800E+02  0.36820935020E+02  0.00000000000E+00 0.  1.
         11    1    4    4    0    0 -0.36427485103E+01  0.10646330850E+02 -0.29779601552E+02  0.31834551138E+02  0.51100000000E-03 0. -1.
        -11    1    4    4    0    0 -0.18462843104E+01 -0.29387680858E+01 -0.55834205665E+01  0.65741698411E+01  0.51100000000E-03 0.  1.
        -12    1    4    4    0    0  0.15701304104E+02 -0.28342360903E+01  0.32388031852E+00  0.15958344001E+02  0.00000000000E+00 0.  1.
</event>
<event>
 8    1  0.2509217E-006  0.9118800E+02  0.7816164E-02  0.1184000E+00
        -11   -1    0    0    0    0  0.00000000000E+00  0.00000000000E+00  0.45593999997E+02  0.45594000000E+02  0.51100000000E-03 0. -1.
         11   -1    0    0    0    0 -0.00000000000E+00 -0.00000000000E+00 -0.45593999997E+02  0.45594000000E+02  0.51100000000E-03 0.  1.
         23    2    1    2    0    0  0.00000000000E+00  0.00000000000E+00 -0.17763568394E-14  0.91188000000E+02  0.91188000000E+02 0.  0.
    9900012    2    3    3    0    0 -0.52171081720E+01 -0.35101195074E+02 -0.98218115122E+01  0.54367080746E+02  0.39999992177E+02 0.  0.
         12    1    3    3    0    0  0.52171081720E+01  0.35101195074E+02  0.98218115122E+01  0.36820919254E+02  0.00000000000E+00 0. -1.
         11    1    4    4    0    0  0.45466679134E+00 -0.92780084897E+00  0.21111820913E+01  0.23504523799E+01  0.51100000000E-03 0. -1.
        -11    1    4    4    0    0 -0.62177960797E+01 -0.37086838723E+02 -0.20585663701E+02  0.42870317760E+02  0.51100000000E-03 0.  1.
        -12    1    4    4    0    0  0.54602111645E+00  0.29134444978E+01  0.86526700971E+01  0.91463106065E+01  0.00000000000E+00 0.  1.
</event>
<event>
 8    1  0.2509217E-006  0.9118800E+02  0.7816164E-02  0.1184000E+00
        -11   -1    0    0    0    0  0.00000000000E+00  0.00000000000E+00  0.45593999997E+02  0.45594000000E+02  0.51100000000E-03 0.  1.
         11   -1    0    0    0    0 -0.00000000000E+00 -0.00000000000E+00 -0.45593999997E+02  0.45594000000E+02  0.51100000000E-03 0. -1.
         23    2    1    2    0    0  0.00000000000E+00  0.00000000000E+00  0.00000000000E+00  0.91188000000E+02  0.91188000000E+02 0.  0.
    9900012    2    3    3    0    0 -0.32390373228E+02 -0.13900977971E+02 -0.10649227562E+02  0.54367088631E+02  0.40000010151E+02 0.  0.
         12    1    3    3    0    0  0.32390373228E+02  0.13900977971E+02  0.10649227562E+02  0.36820911369E+02  0.00000000000E+00 0. -1.
         11    1    4    4    0    0 -0.13056769814E+02 -0.36954745386E+00 -0.21575861248E+02  0.25221688923E+02  0.51100000000E-03 0. -1.
        -11    1    4    4    0    0 -0.85214560226E+01  0.12493545964E+01  0.23757450611E+01  0.89342187408E+01  0.51100000000E-03 0.  1.
         12    1    4    4    0    0 -0.10812147391E+02 -0.14780785114E+02  0.85508886248E+01  0.20211180967E+02  0.00000000000E+00 0. -1.
</event>
<event>
 8    1  0.2509217E-006  0.9118800E+02  0.7816164E-02  0.1184000E+00
        -11   -1    0    0    0    0  0.00000000000E+00  0.00000000000E+00  0.45593999997E+02  0.45594000000E+02  0.51100000000E-03 0.  1.
         11   -1    0    0    0    0 -0.00000000000E+00 -0.00000000000E+00 -0.45593999997E+02  0.45594000000E+02  0.51100000000E-03 0. -1.
         23    2    1    2    0    0 -0.17763568394E-14  0.00000000000E+00  0.71054273576E-14  0.91188000000E+02  0.91188000000E+02 0.  0.
    9900012    2    3    3    0    0  0.14366014581E+02  0.13929720691E+02 -0.30908970282E+02  0.54367028565E+02  0.39999873220E+02 0.  0.
        -12    1    3    3    0    0 -0.14366014581E+02 -0.13929720691E+02  0.30908970282E+02  0.36820971435E+02  0.00000000000E+00 0.  1.
         11    1    4    4    0    0  0.26235840164E+01  0.36712594093E+01 -0.18777050395E+02  0.19311627599E+02  0.51100000000E-03 0. -1.
        -11    1    4    4    0    0 -0.25997398432E+01 -0.83262195502E+01 -0.65971297532E+01  0.10936484832E+02  0.51100000000E-03 0.  1.
         12    1    4    4    0    0  0.14342170408E+02  0.18584680832E+02 -0.55347901348E+01  0.24118916134E+02  0.00000000000E+00 0. -1.
</event>
<event>
 8    1  0.2509217E-006  0.9118800E+02  0.7816164E-02  0.1184000E+00
        -11   -1    0    0    0    0  0.00000000000E+00  0.00000000000E+00  0.45593999997E+02  0.45594000000E+02  0.51100000000E-03 0.  1.
         11   -1    0    0    0    0 -0.00000000000E+00 -0.00000000000E+00 -0.45593999997E+02  0.45594000000E+02  0.51100000000E-03 0. -1.
         23    2    1    2    0    0  0.17763568394E-14  0.35527136788E-14 -0.35527136788E-14  0.91188000000E+02  0.91188000000E+02 0.  0.
    9900012    2    3    3    0    0 -0.41018571539E+01  0.21961655303E+02 -0.29268424875E+02  0.54367078903E+02  0.39999987976E+02 0.  0.
        -12    1    3    3    0    0  0.41018571539E+01 -0.21961655303E+02  0.29268424875E+02  0.36820921097E+02  0.00000000000E+00 0.  1.
         11    1    4    4    0    0 -0.82380653199E+01  0.56611966499E+01 -0.21827210171E+02  0.24007123356E+02  0.51100000000E-03 0. -1.
        -11    1    4    4    0    0 -0.82323081211E+01  0.90255816926E+01  0.30420337041E+01  0.12589121940E+02  0.51100000000E-03 0.  1.
        -12    1    4    4    0    0  0.12368516287E+02  0.72748769604E+01 -0.10483248408E+02  0.17770833608E+02  0.00000000000E+00 0.  1.
</event>
<event>
 8    1  0.2509217E-006  0.9118800E+02  0.7816164E-02  0.1184000E+00
        -11   -1    0    0    0    0  0.00000000000E+00  0.00000000000E+00  0.45593999997E+02  0.45594000000E+02  0.51100000000E-03 0.  1.
         11   -1    0    0    0    0 -0.00000000000E+00 -0.00000000000E+00 -0.45593999997E+02  0.45594000000E+02  0.51100000000E-03 0. -1.
         23    2    1    2    0    0  0.00000000000E+00  0.00000000000E+00  0.00000000000E+00  0.91188000000E+02  0.91188000000E+02 0.  0.
    9900012    2    3    3    0    0  0.82314670225E+01 -0.16154062637E+02  0.32047928576E+02  0.54367075038E+02  0.39999979164E+02 0.  0.
         12    1    3    3    0    0 -0.82314670225E+01  0.16154062637E+02 -0.32047928576E+02  0.36820924962E+02  0.00000000000E+00 0. -1.
         11    1    4    4    0    0  0.34459670512E+00 -0.95197153495E+01 -0.51758149913E+00  0.95400009483E+01  0.51100000000E-03 0. -1.
        -11    1    4    4    0    0  0.15520128729E+02 -0.12233230391E+02  0.14773852384E+02  0.24673731702E+02  0.51100000000E-03 0.  1.
         12    1    4    4    0    0 -0.76332584119E+01  0.55988831038E+01  0.17791657691E+02  0.20153342387E+02  0.00000000000E+00 0. -1.
</event>
<event>
 8    1  0.2509217E-006  0.9118800E+02  0.7816164E-02  0.1184000E+00
        -11   -1    0    0    0    0  0.00000000000E+00  0.00000000000E+00  0.45593999997E+02  0.45594000000E+02  0.51100000000E-03 0.  1.
         11   -1    0    0    0    0 -0.00000000000E+00 -0.00000000000E+00 -0.45593999997E+02  0.45594000000E+02  0.51100000000E-03 0. -1.
         23    2    1    2    0    0  0.88817841970E-15  0.00000000000E+00  0.00000000000E+00  0.91188000000E+02  0.91188000000E+02 0.  0.
    9900012    2    3    3    0    0 -0.74221067780E+01 -0.25613757157E+01  0.35974042077E+02  0.54367081788E+02  0.39999994553E+02 0.  0.
         12    1    3    3    0    0  0.74221067780E+01  0.25613757157E+01 -0.35974042077E+02  0.36820918212E+02  0.00000000000E+00 0. -1.
         11    1    4    4    0    0 -0.23459801767E+01  0.79752550281E+00  0.10816400763E+02  0.11096584864E+02  0.51100000000E-03 0. -1.
        -11    1    4    4    0    0  0.81884763106E+01 -0.17082049520E+01  0.28324281649E+02  0.29533608646E+02  0.51100000000E-03 0.  1.
        -12    1    4    4    0    0 -0.13264602912E+02 -0.16506962665E+01 -0.31666403349E+01  0.13736888279E+02  0.00000000000E+00 0.  1.
</event>
<event>
 8    1  0.2509217E-006  0.9118800E+02  0.7816164E-02  0.1184000E+00
        -11   -1    0    0    0    0  0.00000000000E+00  0.00000000000E+00  0.45593999997E+02  0.45594000000E+02  0.51100000000E-03 0.  1.
         11   -1    0    0    0    0 -0.00000000000E+00 -0.00000000000E+00 -0.45593999997E+02  0.45594000000E+02  0.51100000000E-03 0. -1.
         23    2    1    2    0    0  0.35527136788E-14  0.35527136788E-14  0.00000000000E+00  0.91188000000E+02  0.91188000000E+02 0.  0.
    9900012    2    3    3    0    0  0.17669823096E+02 -0.25843267657E+02 -0.19382529696E+02  0.54367087615E+02  0.40000007836E+02 0.  0.
        -12    1    3    3    0    0 -0.17669823096E+02  0.25843267657E+02  0.19382529696E+02  0.36820912385E+02  0.00000000000E+00 0.  1.
         11    1    4    4    0    0  0.31877655980E+01 -0.69036102603E+01 -0.20297774408E+02  0.21675362288E+02  0.51100000000E-03 0. -1.
        -11    1    4    4    0    0 -0.30864992772E+01 -0.91993773140E+00 -0.58090677997E+01  0.66421406324E+01  0.51100000000E-03 0.  1.
         12    1    4    4    0    0  0.17568556776E+02 -0.18019719665E+02  0.67243125122E+01  0.26049584694E+02  0.00000000000E+00 0. -1.
</event>
<event>
 8    1  0.2509217E-006  0.9118800E+02  0.7816164E-02  0.1184000E+00
        -11   -1    0    0    0    0  0.00000000000E+00  0.00000000000E+00  0.45593999997E+02  0.45594000000E+02  0.51100000000E-03 0. -1.
         11   -1    0    0    0    0 -0.00000000000E+00 -0.00000000000E+00 -0.45593999997E+02  0.45594000000E+02  0.51100000000E-03 0.  1.
         23    2    1    2    0    0 -0.17763568394E-14  0.00000000000E+00  0.00000000000E+00  0.91188000000E+02  0.91188000000E+02 0.  0.
    9900012    2    3    3    0    0 -0.14789573513E+02  0.26173554443E+02 -0.21260116514E+02  0.54367095732E+02  0.40000026341E+02 0.  0.
         12    1    3    3    0    0  0.14789573513E+02 -0.26173554443E+02  0.21260116514E+02  0.36820904268E+02  0.00000000000E+00 0. -1.
         11    1    4    4    0    0  0.11495964786E+02  0.95535192332E+01  0.16346916623E+01  0.15036593803E+02  0.51100000000E-03 0. -1.
        -11    1    4    4    0    0 -0.25573014775E+02  0.13917864670E+02 -0.20107770491E+02  0.35383731799E+02  0.51100000000E-03 0.  1.
         12    1    4    4    0    0 -0.71252352392E+00  0.27021705397E+01 -0.27870376858E+01  0.39467701301E+01  0.00000000000E+00 0. -1.
</event>
<event>
 8    1  0.2509217E-006  0.9118800E+02  0.7816164E-02  0.1184000E+00
        -11   -1    0    0    0    0  0.00000000000E+00  0.00000000000E+00  0.45593999997E+02  0.45594000000E+02  0.51100000000E-03 0. -1.
         11   -1    0    0    0    0 -0.00000000000E+00 -0.00000000000E+00 -0.45593999997E+02  0.45594000000E+02  0.51100000000E-03 0.  1.
         23    2    1    2    0    0  0.22204460493E-14  0.00000000000E+00  0.00000000000E+00  0.91188000000E+02  0.91188000000E+02 0.  0.
    9900012    2    3    3    0    0 -0.33209430855E+01  0.14391336227E+02  0.33728974460E+02  0.54367042116E+02  0.39999904112E+02 0.  0.
        -12    1    3    3    0    0  0.33209430855E+01 -0.14391336227E+02 -0.33728974460E+02  0.36820957884E+02  0.00000000000E+00 0.  1.
         11    1    4    4    0    0 -0.10019259336E+02  0.11574320862E+02  0.32304375169E+02  0.35748050526E+02  0.51100000000E-03 0. -1.
        -11    1    4    4    0    0  0.38615246821E+01  0.10058274909E+02  0.48002739045E+00  0.10784743556E+02  0.51100000000E-03 0.  1.
        -12    1    4    4    0    0  0.28367915682E+01 -0.72412595441E+01  0.94457189994E+00  0.78342480341E+01  0.00000000000E+00 0.  1.
</event>
<event>
 8    1  0.2509217E-006  0.9118800E+02  0.7816164E-02  0.1184000E+00
        -11   -1    0    0    0    0  0.00000000000E+00  0.00000000000E+00  0.45593999997E+02  0.45594000000E+02  0.51100000000E-03 0.  1.
         11   -1    0    0    0    0 -0.00000000000E+00 -0.00000000000E+00 -0.45593999997E+02  0.45594000000E+02  0.51100000000E-03 0. -1.
         23    2    1    2    0    0  0.00000000000E+00  0.00000000000E+00  0.00000000000E+00  0.91188000000E+02  0.91188000000E+02 0.  0.
    9900012    2    3    3    0    0  0.17137818483E+02 -0.17760632553E+01  0.32541061018E+02  0.54367083726E+02  0.39999998970E+02 0.  0.
         12    1    3    3    0    0 -0.17137818483E+02  0.17760632553E+01 -0.32541061018E+02  0.36820916274E+02  0.00000000000E+00 0. -1.
         11    1    4    4    0    0 -0.14359742085E+01 -0.71395512418E+01 -0.56916177306E+01  0.92428202684E+01  0.51100000000E-03 0. -1.
        -11    1    4    4    0    0  0.19776718702E+01  0.52219580274E+01  0.18581042189E+02  0.19401937036E+02  0.51100000000E-03 0.  1.
         12    1    4    4    0    0  0.16596120821E+02  0.14152995915E+00  0.19651636560E+02  0.25722326422E+02  0.00000000000E+00 0. -1.
</event>
<event>
 8    1  0.2509217E-006  0.9118800E+02  0.7816164E-02  0.1184000E+00
        -11   -1    0    0    0    0  0.00000000000E+00  0.00000000000E+00  0.45593999997E+02  0.45594000000E+02  0.51100000000E-03 0.  1.
         11   -1    0    0    0    0 -0.00000000000E+00 -0.00000000000E+00 -0.45593999997E+02  0.45594000000E+02  0.51100000000E-03 0. -1.
         23    2    1    2    0    0 -0.35527136788E-14  0.00000000000E+00 -0.35527136788E-14  0.91188000000E+02  0.91188000000E+02 0.  0.
    9900012    2    3    3    0    0  0.20861804123E+02  0.16723054583E+02  0.25315995171E+02  0.54367149421E+02  0.40000148736E+02 0.  0.
         12    1    3    3    0    0 -0.20861804123E+02 -0.16723054583E+02 -0.25315995171E+02  0.36820850579E+02  0.00000000000E+00 0. -1.
         11    1    4    4    0    0  0.18442129000E+01  0.50380360102E+01  0.14555284120E+02  0.15512550537E+02  0.51100000000E-03 0. -1.
        -11    1    4    4    0    0  0.16943797792E+02 -0.54829917008E+01 -0.11672035370E+01  0.17847068274E+02  0.51100000000E-03 0.  1.
        -12    1    4    4    0    0  0.20737934302E+01  0.17168010274E+02  0.11927914587E+02  0.21007530611E+02  0.00000000000E+00 0.  1.
</event>
<event>
 8    1  0.2509217E-006  0.9118800E+02  0.7816164E-02  0.1184000E+00
        -11   -1    0    0    0    0  0.00000000000E+00  0.00000000000E+00  0.45593999997E+02  0.45594000000E+02  0.51100000000E-03 0. -1.
         11   -1    0    0    0    0 -0.00000000000E+00 -0.00000000000E+00 -0.45593999997E+02  0.45594000000E+02  0.51100000000E-03 0.  1.
         23    2    1    2    0    0  0.00000000000E+00  0.66613381478E-15 -0.35527136788E-14  0.91188000000E+02  0.91188000000E+02 0.  0.
    9900012    2    3    3    0    0 -0.23556115669E+02  0.13935761727E+01 -0.28265650497E+02  0.54367086948E+02  0.40000006316E+02 0.  0.
         12    1    3    3    0    0  0.23556115669E+02 -0.13935761727E+01  0.28265650497E+02  0.36820913052E+02  0.00000000000E+00 0. -1.
         11    1    4    4    0    0 -0.63256981505E+01 -0.10853345002E+02 -0.15496463896E+02  0.19948682873E+02  0.51100000000E-03 0. -1.
        -11    1    4    4    0    0 -0.20180679466E+02  0.14117171460E+01 -0.11070484369E+02  0.23060971216E+02  0.51100000000E-03 0.  1.
        -12    1    4    4    0    0  0.29502619473E+01  0.10835204028E+02 -0.16987022323E+01  0.11357432860E+02  0.00000000000E+00 0.  1.
</event>
<event>
 8    1  0.2509217E-006  0.9118800E+02  0.7816164E-02  0.1184000E+00
        -11   -1    0    0    0    0  0.00000000000E+00  0.00000000000E+00  0.45593999997E+02  0.45594000000E+02  0.51100000000E-03 0.  1.
         11   -1    0    0    0    0 -0.00000000000E+00 -0.00000000000E+00 -0.45593999997E+02  0.45594000000E+02  0.51100000000E-03 0. -1.
         23    2    1    2    0    0 -0.35527136788E-14  0.00000000000E+00  0.00000000000E+00  0.91188000000E+02  0.91188000000E+02 0.  0.
    9900012    2    3    3    0    0  0.29106181596E+02 -0.17968067647E+02  0.13629272979E+02  0.54367104519E+02  0.40000046373E+02 0.  0.
         12    1    3    3    0    0 -0.29106181596E+02  0.17968067647E+02 -0.13629272979E+02  0.36820895481E+02  0.00000000000E+00 0. -1.
         11    1    4    4    0    0  0.22884731988E+02  0.28535744126E+01  0.62908867679E+01  0.23904583278E+02  0.51100000000E-03 0.  1.
        -11    1    4    4    0    0 -0.58012004808E+01 -0.46869388907E+01  0.71624378372E+01  0.10340301699E+02  0.51100000000E-03 0. -1.
        -12    1    4    4    0    0  0.12022650089E+02 -0.16134703169E+02  0.17594837352E+00  0.20122219543E+02  0.00000000000E+00 0.  1.
</event>
<event>
 8    1  0.2509217E-006  0.9118800E+02  0.7816164E-02  0.1184000E+00
        -11   -1    0    0    0    0  0.00000000000E+00  0.00000000000E+00  0.45593999997E+02  0.45594000000E+02  0.51100000000E-03 0.  1.
         11   -1    0    0    0    0 -0.00000000000E+00 -0.00000000000E+00 -0.45593999997E+02  0.45594000000E+02  0.51100000000E-03 0. -1.
         23    2    1    2    0    0  0.00000000000E+00 -0.35527136788E-14 -0.17763568394E-14  0.91188000000E+02  0.91188000000E+02 0.  0.
    9900012    2    3    3    0    0 -0.21940473215E+02  0.26353411126E+02 -0.13412419325E+02  0.54367086989E+02  0.40000006408E+02 0.  0.
        -12    1    3    3    0    0  0.21940473215E+02 -0.26353411126E+02  0.13412419325E+02  0.36820913011E+02  0.00000000000E+00 0.  1.
         11    1    4    4    0    0 -0.42525723119E+01  0.15609831820E+02 -0.90611116773E+01  0.18543326719E+02  0.51100000000E-03 0.  1.
        -11    1    4    4    0    0 -0.50869967662E+01  0.12611875739E+02 -0.14245184827E+02  0.19694218359E+02  0.51100000000E-03 0. -1.
        -12    1    4    4    0    0 -0.12600904137E+02 -0.18682964331E+01  0.98938771790E+01  0.16129541911E+02  0.00000000000E+00 0.  1.
</event>
<event>
 8    1  0.2509217E-006  0.9118800E+02  0.7816164E-02  0.1184000E+00
        -11   -1    0    0    0    0  0.00000000000E+00  0.00000000000E+00  0.45593999997E+02  0.45594000000E+02  0.51100000000E-03 0. -1.
         11   -1    0    0    0    0 -0.00000000000E+00 -0.00000000000E+00 -0.45593999997E+02  0.45594000000E+02  0.51100000000E-03 0.  1.
         23    2    1    2    0    0  0.00000000000E+00  0.00000000000E+00  0.00000000000E+00  0.91188000000E+02  0.91188000000E+02 0.  0.
    9900012    2    3    3    0    0 -0.20464388417E+02 -0.24778916804E+02  0.17972168580E+02  0.54367017467E+02  0.39999847918E+02 0.  0.
        -12    1    3    3    0    0  0.20464388417E+02  0.24778916804E+02 -0.17972168580E+02  0.36820982533E+02  0.00000000000E+00 0.  1.
         11    1    4    4    0    0 -0.74398430269E+01 -0.54662372255E+01  0.13596104365E+02  0.16434265053E+02  0.51100000000E-03 0. -1.
        -11    1    4    4    0    0  0.10226653374E+01  0.45956939979E+01  0.86765299895E+01  0.98715966608E+01  0.51100000000E-03 0.  1.
         12    1    4    4    0    0 -0.14047210727E+02 -0.23908373577E+02 -0.43004657745E+01  0.28061155753E+02  0.00000000000E+00 0. -1.
</event>
<event>
 8    1  0.2509217E-006  0.9118800E+02  0.7816164E-02  0.1184000E+00
        -11   -1    0    0    0    0  0.00000000000E+00  0.00000000000E+00  0.45593999997E+02  0.45594000000E+02  0.51100000000E-03 0.  1.
         11   -1    0    0    0    0 -0.00000000000E+00 -0.00000000000E+00 -0.45593999997E+02  0.45594000000E+02  0.51100000000E-03 0. -1.
         23    2    1    2    0    0 -0.88817841970E-15  0.00000000000E+00  0.35527136788E-14  0.91188000000E+02  0.91188000000E+02 0.  0.
    9900012    2    3    3    0    0  0.79528000974E+01 -0.24244386435E+02 -0.26546982100E+02  0.54367087985E+02  0.40000008679E+02 0.  0.
        -12    1    3    3    0    0 -0.79528000974E+01  0.24244386435E+02  0.26546982100E+02  0.36820912015E+02  0.00000000000E+00 0.  1.
         11    1    4    4    0    0 -0.73090184346E+00 -0.29714206148E+02 -0.29815070636E+02  0.42099960829E+02  0.51100000000E-03 0. -1.
        -11    1    4    4    0    0  0.46562811999E+01  0.49067224699E+01 -0.41972765489E+00  0.67773926826E+01  0.51100000000E-03 0.  1.
         12    1    4    4    0    0  0.40274207410E+01  0.56309724350E+00  0.36878161907E+01  0.54897344733E+01  0.00000000000E+00 0. -1.
</event>
<event>
 8    1  0.2509217E-006  0.9118800E+02  0.7816164E-02  0.1184000E+00
        -11   -1    0    0    0    0  0.00000000000E+00  0.00000000000E+00  0.45593999997E+02  0.45594000000E+02  0.51100000000E-03 0. -1.
         11   -1    0    0    0    0 -0.00000000000E+00 -0.00000000000E+00 -0.45593999997E+02  0.45594000000E+02  0.51100000000E-03 0.  1.
         23    2    1    2    0    0  0.35527136788E-14  0.71054273576E-14 -0.35527136788E-14  0.91188000000E+02  0.91188000000E+02 0.  0.
    9900012    2    3    3    0    0 -0.13333891279E+02 -0.34009431214E+02  0.46201530679E+01  0.54367083627E+02  0.39999998745E+02 0.  0.
        -12    1    3    3    0    0  0.13333891279E+02  0.34009431214E+02 -0.46201530679E+01  0.36820916373E+02  0.00000000000E+00 0.  1.
         11    1    4    4    0    0  0.11035204615E+01 -0.79548477674E+01 -0.35751583187E+01  0.87908542064E+01  0.51100000000E-03 0. -1.
        -11    1    4    4    0    0  0.40738234512E+00 -0.13779146647E+02 -0.11555145531E+02  0.17987557678E+02  0.51100000000E-03 0.  1.
         12    1    4    4    0    0 -0.14844794086E+02 -0.12275436800E+02  0.19750456918E+02  0.27588671743E+02  0.00000000000E+00 0. -1.
</event>
<event>
 8    1  0.2509217E-006  0.9118800E+02  0.7816164E-02  0.1184000E+00
        -11   -1    0    0    0    0  0.00000000000E+00  0.00000000000E+00  0.45593999997E+02  0.45594000000E+02  0.51100000000E-03 0. -1.
         11   -1    0    0    0    0 -0.00000000000E+00 -0.00000000000E+00 -0.45593999997E+02  0.45594000000E+02  0.51100000000E-03 0.  1.
         23    2    1    2    0    0 -0.44408920985E-15  0.00000000000E+00  0.00000000000E+00  0.91188000000E+02  0.91188000000E+02 0.  0.
    9900012    2    3    3    0    0  0.16013500538E+01  0.34527108348E+02  0.12692310666E+02  0.54367078190E+02  0.39999986351E+02 0.  0.
        -12    1    3    3    0    0 -0.16013500538E+01 -0.34527108348E+02 -0.12692310666E+02  0.36820921810E+02  0.00000000000E+00 0.  1.
         11    1    4    4    0    0  0.62184775612E+01  0.33609435257E+02  0.17371048556E+02  0.38340799805E+02  0.51100000000E-03 0. -1.
        -11    1    4    4    0    0 -0.55634059758E-01  0.11888157139E+01  0.50976249449E+01  0.52347070873E+01  0.51100000000E-03 0.  1.
        -12    1    4    4    0    0 -0.45614934476E+01 -0.27114262280E+00 -0.97763628354E+01  0.10791571298E+02  0.00000000000E+00 0.  1.
</event>
<event>
 8    1  0.2509217E-006  0.9118800E+02  0.7816164E-02  0.1184000E+00
        -11   -1    0    0    0    0  0.00000000000E+00  0.00000000000E+00  0.45593999997E+02  0.45594000000E+02  0.51100000000E-03 0. -1.
         11   -1    0    0    0    0 -0.00000000000E+00 -0.00000000000E+00 -0.45593999997E+02  0.45594000000E+02  0.51100000000E-03 0.  1.
         23    2    1    2    0    0  0.17763568394E-14  0.00000000000E+00  0.00000000000E+00  0.91188000000E+02  0.91188000000E+02 0.  0.
    9900012    2    3    3    0    0 -0.15494261407E+02  0.24238409564E+02 -0.22982760338E+02  0.54367083288E+02  0.39999997973E+02 0.  0.
         12    1    3    3    0    0  0.15494261407E+02 -0.24238409564E+02  0.22982760338E+02  0.36820916712E+02  0.00000000000E+00 0. -1.
         11    1    4    4    0    0  0.53202481553E+01  0.18711118474E+02 -0.17066681088E+02  0.25878226342E+02  0.51100000000E-03 0. -1.
        -11    1    4    4    0    0 -0.30665391149E+01  0.82854410646E+01  0.16705996612E+01  0.89912790674E+01  0.51100000000E-03 0.  1.
         12    1    4    4    0    0 -0.17747970447E+02 -0.27581499742E+01 -0.75866789108E+01  0.19497577879E+02  0.00000000000E+00 0. -1.
</event>
<event>
 8    1  0.2509217E-006  0.9118800E+02  0.7816164E-02  0.1184000E+00
        -11   -1    0    0    0    0  0.00000000000E+00  0.00000000000E+00  0.45593999997E+02  0.45594000000E+02  0.51100000000E-03 0.  1.
         11   -1    0    0    0    0 -0.00000000000E+00 -0.00000000000E+00 -0.45593999997E+02  0.45594000000E+02  0.51100000000E-03 0. -1.
         23    2    1    2    0    0  0.17763568394E-14  0.00000000000E+00  0.71054273576E-14  0.91188000000E+02  0.91188000000E+02 0.  0.
    9900012    2    3    3    0    0 -0.15174726589E+02  0.14019168253E+02 -0.30478992435E+02  0.54367103957E+02  0.40000045091E+02 0.  0.
         12    1    3    3    0    0  0.15174726589E+02 -0.14019168253E+02  0.30478992435E+02  0.36820896043E+02  0.00000000000E+00 0. -1.
         11    1    4    4    0    0 -0.88309567834E+01  0.12781378341E+02  0.16589610881E+01  0.15623750579E+02  0.51100000000E-03 0. -1.
        -11    1    4    4    0    0 -0.92593031489E+01  0.88305999973E+01 -0.14613011196E+02  0.19423034974E+02  0.51100000000E-03 0.  1.
         12    1    4    4    0    0  0.29155333435E+01 -0.75928100854E+01 -0.17524942327E+02  0.19320318404E+02  0.00000000000E+00 0. -1.
</event>
<event>
 8    1  0.2509217E-006  0.9118800E+02  0.7816164E-02  0.1184000E+00
        -11   -1    0    0    0    0  0.00000000000E+00  0.00000000000E+00  0.45593999997E+02  0.45594000000E+02  0.51100000000E-03 0.  1.
         11   -1    0    0    0    0 -0.00000000000E+00 -0.00000000000E+00 -0.45593999997E+02  0.45594000000E+02  0.51100000000E-03 0. -1.
         23    2    1    2    0    0  0.17763568394E-14  0.13322676296E-14  0.00000000000E+00  0.91188000000E+02  0.91188000000E+02 0.  0.
    9900012    2    3    3    0    0 -0.90613118721E+01 -0.29703011607E+01  0.35564723740E+02  0.54367086968E+02  0.40000006361E+02 0.  0.
         12    1    3    3    0    0  0.90613118721E+01  0.29703011607E+01 -0.35564723740E+02  0.36820913032E+02  0.00000000000E+00 0. -1.
         11    1    4    4    0    0  0.71780216541E+00  0.84753443772E+00 -0.48510807258E+00  0.12119755257E+01  0.51100000000E-03 0. -1.
        -11    1    4    4    0    0  0.69666806784E+01 -0.13590419214E+02  0.28527568396E+02  0.32358249225E+02  0.51100000000E-03 0.  1.
        -12    1    4    4    0    0 -0.16745794716E+02  0.97725836152E+01  0.75222634164E+01  0.20796862217E+02  0.00000000000E+00 0.  1.
</event>
<event>
 8    1  0.2509217E-006  0.9118800E+02  0.7816164E-02  0.1184000E+00
        -11   -1    0    0    0    0  0.00000000000E+00  0.00000000000E+00  0.45593999997E+02  0.45594000000E+02  0.51100000000E-03 0. -1.
         11   -1    0    0    0    0 -0.00000000000E+00 -0.00000000000E+00 -0.45593999997E+02  0.45594000000E+02  0.51100000000E-03 0.  1.
         23    2    1    2    0    0 -0.88817841970E-15  0.71054273576E-14 -0.17763568394E-14  0.91188000000E+02  0.91188000000E+02 0.  0.
    9900012    2    3    3    0    0  0.75533905062E+01  0.32802094731E+02 -0.14924484426E+02  0.54367199326E+02  0.40000262503E+02 0.  0.
         12    1    3    3    0    0 -0.75533905062E+01 -0.32802094731E+02  0.14924484426E+02  0.36820800674E+02  0.00000000000E+00 0. -1.
         11    1    4    4    0    0 -0.90958548588E+01 -0.31195660277E+01 -0.62531342516E+01  0.11470307583E+02  0.51100000000E-03 0. -1.
        -11    1    4    4    0    0  0.55016593850E+01  0.26801595633E+02 -0.78784504641E+01  0.28472157741E+02  0.51100000000E-03 0.  1.
         12    1    4    4    0    0  0.11147585980E+02  0.91200651260E+01 -0.79289971049E+00  0.14424734002E+02  0.00000000000E+00 0. -1.
</event>
<event>
 8    1  0.2687037E-006  0.9118800E+02  0.7816164E-02  0.1184000E+00
        -11   -1    0    0    0    0  0.00000000000E+00  0.00000000000E+00  0.45593999997E+02  0.45594000000E+02  0.51100000000E-03 0.  1.
         11   -1    0    0    0    0 -0.00000000000E+00 -0.00000000000E+00 -0.45593999997E+02  0.45594000000E+02  0.51100000000E-03 0. -1.
         23    2    1    2    0    0  0.00000000000E+00 -0.17763568394E-14 -0.71054273576E-14  0.91188000000E+02  0.91188000000E+02 0.  0.
    9900012    2    3    3    0    0  0.17973684692E+02 -0.10082130131E+02 -0.30513282127E+02  0.54367311854E+02  0.40000519031E+02 0.  0.
        -12    1    3    3    0    0 -0.17973684692E+02  0.10082130131E+02  0.30513282127E+02  0.36820688146E+02  0.00000000000E+00 0.  1.
         11    1    4    4    0    0  0.46589434977E+01 -0.55668676105E+01  0.17000250156E+01  0.74555921846E+01  0.51100000000E-03 0. -1.
        -11    1    4    4    0    0  0.51204416141E+01  0.55662134912E+01  0.39165259959E+01  0.85170905297E+01  0.51100000000E-03 0.  1.
         12    1    4    4    0    0  0.81942995799E+01 -0.10081476011E+02 -0.36129833139E+02  0.38394629140E+02  0.00000000000E+00 0. -1.
</event>
<event>
 8    1  0.2509217E-006  0.9118800E+02  0.7816164E-02  0.1184000E+00
        -11   -1    0    0    0    0  0.00000000000E+00  0.00000000000E+00  0.45593999997E+02  0.45594000000E+02  0.51100000000E-03 0.  1.
         11   -1    0    0    0    0 -0.00000000000E+00 -0.00000000000E+00 -0.45593999997E+02  0.45594000000E+02  0.51100000000E-03 0. -1.
         23    2    1    2    0    0  0.35527136788E-14  0.00000000000E+00  0.00000000000E+00  0.91188000000E+02  0.91188000000E+02 0.  0.
    9900012    2    3    3    0    0  0.16928051625E+02  0.32617907636E+02 -0.23006466024E+01  0.54367084678E+02  0.40000001141E+02 0.  0.
        -12    1    3    3    0    0 -0.16928051625E+02 -0.32617907636E+02  0.23006466024E+01  0.36820915322E+02  0.00000000000E+00 0.  1.
         11    1    4    4    0    0  0.19192207892E+02  0.36730492474E+02 -0.23933036251E+01  0.41511417991E+02  0.51100000000E-03 0. -1.
        -11    1    4    4    0    0  0.23221856486E+01 -0.24474691899E+01 -0.48515151697E+01  0.59093021014E+01  0.51100000000E-03 0.  1.
         12    1    4    4    0    0 -0.45863419152E+01 -0.16651156487E+01  0.49441721924E+01  0.69463645855E+01  0.00000000000E+00 0. -1.
</event>
<event>
 8    1  0.2509217E-006  0.9118800E+02  0.7816164E-02  0.1184000E+00
        -11   -1    0    0    0    0  0.00000000000E+00  0.00000000000E+00  0.45593999997E+02  0.45594000000E+02  0.51100000000E-03 0.  1.
         11   -1    0    0    0    0 -0.00000000000E+00 -0.00000000000E+00 -0.45593999997E+02  0.45594000000E+02  0.51100000000E-03 0. -1.
         23    2    1    2    0    0  0.00000000000E+00  0.00000000000E+00  0.44408920985E-15  0.91188000000E+02  0.91188000000E+02 0.  0.
    9900012    2    3    3    0    0  0.27039492789E+02 -0.24719802606E+02  0.36851766290E+01  0.54367036706E+02  0.39999891777E+02 0.  0.
         12    1    3    3    0    0 -0.27039492789E+02  0.24719802606E+02 -0.36851766290E+01  0.36820963294E+02  0.00000000000E+00 0. -1.
         11    1    4    4    0    0 -0.25699091549E+01  0.16032556452E+01 -0.80095516374E+01  0.85631641010E+01  0.51100000000E-03 0. -1.
        -11    1    4    4    0    0  0.92038471004E-01 -0.72698560593E+01 -0.28103616742E+01  0.77947040485E+01  0.51100000000E-03 0.  1.
        -12    1    4    4    0    0  0.29517363473E+02 -0.19053202192E+02  0.14505089940E+02  0.38009168556E+02  0.00000000000E+00 0.  1.
</event>
<event>
 8    1  0.2509217E-006  0.9118800E+02  0.7816164E-02  0.1184000E+00
        -11   -1    0    0    0    0  0.00000000000E+00  0.00000000000E+00  0.45593999997E+02  0.45594000000E+02  0.51100000000E-03 0.  1.
         11   -1    0    0    0    0 -0.00000000000E+00 -0.00000000000E+00 -0.45593999997E+02  0.45594000000E+02  0.51100000000E-03 0. -1.
         23    2    1    2    0    0  0.88817841970E-15  0.00000000000E+00  0.00000000000E+00  0.91188000000E+02  0.91188000000E+02 0.  0.
    9900012    2    3    3    0    0  0.62460943024E+01  0.18191328363E+02  0.31397994043E+02  0.54367188608E+02  0.40000238069E+02 0.  0.
         12    1    3    3    0    0 -0.62460943024E+01 -0.18191328363E+02 -0.31397994043E+02  0.36820811392E+02  0.00000000000E+00 0. -1.
         11    1    4    4    0    0  0.95716123617E+00  0.68330785395E-01 -0.41986454261E+01  0.43069072898E+01  0.51100000000E-03 0. -1.
        -11    1    4    4    0    0  0.75395715859E+01  0.19249994904E+02  0.77168598732E+01  0.22067110597E+02  0.51100000000E-03 0.  1.
        -12    1    4    4    0    0 -0.22506385197E+01 -0.11269973272E+01  0.27879779596E+02  0.27993170722E+02  0.00000000000E+00 0.  1.
</event>
<event>
 8    1  0.2509217E-006  0.9118800E+02  0.7816164E-02  0.1184000E+00
        -11   -1    0    0    0    0  0.00000000000E+00  0.00000000000E+00  0.45593999997E+02  0.45594000000E+02  0.51100000000E-03 0.  1.
         11   -1    0    0    0    0 -0.00000000000E+00 -0.00000000000E+00 -0.45593999997E+02  0.45594000000E+02  0.51100000000E-03 0. -1.
         23    2    1    2    0    0  0.55511151231E-16  0.00000000000E+00 -0.71054273576E-14  0.91188000000E+02  0.91188000000E+02 0.  0.
    9900012    2    3    3    0    0 -0.26648763638E+00 -0.10764873815E+02 -0.35211178511E+02  0.54367073667E+02  0.39999976039E+02 0.  0.
        -12    1    3    3    0    0  0.26648763638E+00  0.10764873815E+02  0.35211178511E+02  0.36820926333E+02  0.00000000000E+00 0.  1.
         11    1    4    4    0    0 -0.16301629098E+00 -0.22602618800E+02 -0.30669219850E+02  0.38098635112E+02  0.51100000000E-03 0. -1.
        -11    1    4    4    0    0 -0.13218313573E+01 -0.88414253121E+00  0.14511995599E+01  0.21528879619E+01  0.51100000000E-03 0.  1.
        -12    1    4    4    0    0  0.12183600119E+01  0.12721887516E+02 -0.59931582207E+01  0.14115550593E+02  0.00000000000E+00 0.  1.
</event>
<event>
 8    1  0.2509217E-006  0.9118800E+02  0.7816164E-02  0.1184000E+00
        -11   -1    0    0    0    0  0.00000000000E+00  0.00000000000E+00  0.45593999997E+02  0.45594000000E+02  0.51100000000E-03 0.  1.
         11   -1    0    0    0    0 -0.00000000000E+00 -0.00000000000E+00 -0.45593999997E+02  0.45594000000E+02  0.51100000000E-03 0. -1.
         23    2    1    2    0    0  0.17763568394E-14  0.00000000000E+00  0.00000000000E+00  0.91188000000E+02  0.91188000000E+02 0.  0.
    9900012    2    3    3    0    0 -0.87079762510E+01  0.86089039251E+01  0.34725175333E+02  0.54367083674E+02  0.39999998851E+02 0.  0.
         12    1    3    3    0    0  0.87079762510E+01 -0.86089039251E+01 -0.34725175333E+02  0.36820916326E+02  0.00000000000E+00 0. -1.
         11    1    4    4    0    0  0.37975136578E+01 -0.31141571399E+01  0.20041837656E+02  0.20634784748E+02  0.51100000000E-03 0. -1.
        -11    1    4    4    0    0 -0.69585554343E+01  0.44637772832E+00  0.19161798919E+02  0.20391058945E+02  0.51100000000E-03 0.  1.
         12    1    4    4    0    0 -0.55469344746E+01  0.11276683337E+02 -0.44784612425E+01  0.13341239981E+02  0.00000000000E+00 0. -1.
</event>
<event>
 8    1  0.2509217E-006  0.9118800E+02  0.7816164E-02  0.1184000E+00
        -11   -1    0    0    0    0  0.00000000000E+00  0.00000000000E+00  0.45593999997E+02  0.45594000000E+02  0.51100000000E-03 0.  1.
         11   -1    0    0    0    0 -0.00000000000E+00 -0.00000000000E+00 -0.45593999997E+02  0.45594000000E+02  0.51100000000E-03 0. -1.
         23    2    1    2    0    0  0.00000000000E+00  0.00000000000E+00  0.00000000000E+00  0.91188000000E+02  0.91188000000E+02 0.  0.
    9900012    2    3    3    0    0 -0.18407519979E+02 -0.29838694249E+02  0.11251434449E+02  0.54367092305E+02  0.40000018528E+02 0.  0.
         12    1    3    3    0    0  0.18407519979E+02  0.29838694249E+02 -0.11251434449E+02  0.36820907695E+02  0.00000000000E+00 0. -1.
         11    1    4    4    0    0 -0.73622336452E+01 -0.21633703784E+02  0.24838206124E+01  0.22986713309E+02  0.51100000000E-03 0.  1.
        -11    1    4    4    0    0 -0.69834064717E+01 -0.18046670113E+02  0.42347290044E+01  0.19808664723E+02  0.51100000000E-03 0. -1.
         12    1    4    4    0    0 -0.40618798626E+01  0.98416796477E+01  0.45328848324E+01  0.11571714273E+02  0.00000000000E+00 0. -1.
</event>
<event>
 8    1  0.2509217E-006  0.9118800E+02  0.7816164E-02  0.1184000E+00
        -11   -1    0    0    0    0  0.00000000000E+00  0.00000000000E+00  0.45593999997E+02  0.45594000000E+02  0.51100000000E-03 0. -1.
         11   -1    0    0    0    0 -0.00000000000E+00 -0.00000000000E+00 -0.45593999997E+02  0.45594000000E+02  0.51100000000E-03 0.  1.
         23    2    1    2    0    0 -0.35527136788E-14 -0.35527136788E-14  0.00000000000E+00  0.91188000000E+02  0.91188000000E+02 0.  0.
    9900012    2    3    3    0    0  0.20757060997E+02 -0.27184694079E+02  0.13635097641E+02  0.54367094781E+02  0.40000024173E+02 0.  0.
        -12    1    3    3    0    0 -0.20757060997E+02  0.27184694079E+02 -0.13635097641E+02  0.36820905219E+02  0.00000000000E+00 0.  1.
         11    1    4    4    0    0  0.25679739613E+02 -0.29345803014E+02  0.27073763301E+01  0.39089065837E+02  0.51100000000E-03 0. -1.
        -11    1    4    4    0    0 -0.61921310723E+01 -0.14950553211E+01  0.87934293144E+01  0.10858272284E+02  0.51100000000E-03 0.  1.
         12    1    4    4    0    0  0.12694524567E+01  0.36561642563E+01  0.21342919967E+01  0.44197566603E+01  0.00000000000E+00 0. -1.
</event>
<event>
 8    1  0.2509217E-006  0.9118800E+02  0.7816164E-02  0.1184000E+00
        -11   -1    0    0    0    0  0.00000000000E+00  0.00000000000E+00  0.45593999997E+02  0.45594000000E+02  0.51100000000E-03 0. -1.
         11   -1    0    0    0    0 -0.00000000000E+00 -0.00000000000E+00 -0.45593999997E+02  0.45594000000E+02  0.51100000000E-03 0.  1.
         23    2    1    2    0    0  0.00000000000E+00  0.00000000000E+00  0.44408920985E-15  0.91188000000E+02  0.91188000000E+02 0.  0.
    9900012    2    3    3    0    0 -0.13471690954E+02  0.34040423767E+02 -0.39423388318E+01  0.54367096387E+02  0.40000027833E+02 0.  0.
        -12    1    3    3    0    0  0.13471690954E+02 -0.34040423767E+02  0.39423388318E+01  0.36820903613E+02  0.00000000000E+00 0.  1.
         11    1    4    4    0    0 -0.17434506522E+02  0.18599916203E+02 -0.16236660187E+02  0.30224957151E+02  0.51100000000E-03 0. -1.
        -11    1    4    4    0    0  0.71576969348E+01  0.84453947960E+01  0.19317950940E+01  0.11237844598E+02  0.51100000000E-03 0.  1.
         12    1    4    4    0    0 -0.31948813668E+01  0.69951127677E+01  0.10362526262E+02  0.12904294638E+02  0.00000000000E+00 0. -1.
</event>
<event>
 8    1  0.2509217E-006  0.9118800E+02  0.7816164E-02  0.1184000E+00
        -11   -1    0    0    0    0  0.00000000000E+00  0.00000000000E+00  0.45593999997E+02  0.45594000000E+02  0.51100000000E-03 0.  1.
         11   -1    0    0    0    0 -0.00000000000E+00 -0.00000000000E+00 -0.45593999997E+02  0.45594000000E+02  0.51100000000E-03 0. -1.
         23    2    1    2    0    0  0.00000000000E+00 -0.44408920985E-15  0.00000000000E+00  0.91188000000E+02  0.91188000000E+02 0.  0.
    9900012    2    3    3    0    0 -0.20908072024E+02  0.22202522642E+01 -0.30227515815E+02  0.54367085994E+02  0.40000004142E+02 0.  0.
        -12    1    3    3    0    0  0.20908072024E+02 -0.22202522642E+01  0.30227515815E+02  0.36820914006E+02  0.00000000000E+00 0.  1.
         11    1    4    4    0    0 -0.56836047361E+01 -0.38115831349E+01 -0.15752194068E+02  0.17174491171E+02  0.51100000000E-03 0. -1.
        -11    1    4    4    0    0  0.65407272811E+01  0.48902134457E+01 -0.12993882311E+02  0.15347191231E+02  0.51100000000E-03 0.  1.
        -12    1    4    4    0    0 -0.21765194569E+02  0.11416219534E+01 -0.14814394364E+01  0.21845403592E+02  0.00000000000E+00 0.  1.
</event>
<event>
 8    1  0.2509217E-006  0.9118800E+02  0.7816164E-02  0.1184000E+00
        -11   -1    0    0    0    0  0.00000000000E+00  0.00000000000E+00  0.45593999997E+02  0.45594000000E+02  0.51100000000E-03 0. -1.
         11   -1    0    0    0    0 -0.00000000000E+00 -0.00000000000E+00 -0.45593999997E+02  0.45594000000E+02  0.51100000000E-03 0.  1.
         23    2    1    2    0    0  0.17763568394E-14  0.17763568394E-14  0.00000000000E+00  0.91188000000E+02  0.91188000000E+02 0.  0.
    9900012    2    3    3    0    0 -0.15224923920E+02 -0.15169349026E+02  0.29897700074E+02  0.54367083010E+02  0.39999997338E+02 0.  0.
        -12    1    3    3    0    0  0.15224923920E+02  0.15169349026E+02 -0.29897700074E+02  0.36820916990E+02  0.00000000000E+00 0.  1.
         11    1    4    4    0    0 -0.65789725273E+01 -0.22354519435E+02  0.29690649914E+02  0.37743106804E+02  0.51100000000E-03 0. -1.
        -11    1    4    4    0    0 -0.21965126056E+01 -0.24282400827E+01  0.32925096921E+01  0.46434510721E+01  0.51100000000E-03 0.  1.
        -12    1    4    4    0    0 -0.64494387875E+01  0.96134104916E+01 -0.30854595316E+01  0.11980525133E+02  0.00000000000E+00 0.  1.
</event>
<event>
 8    1  0.2509217E-006  0.9118800E+02  0.7816164E-02  0.1184000E+00
        -11   -1    0    0    0    0  0.00000000000E+00  0.00000000000E+00  0.45593999997E+02  0.45594000000E+02  0.51100000000E-03 0.  1.
         11   -1    0    0    0    0 -0.00000000000E+00 -0.00000000000E+00 -0.45593999997E+02  0.45594000000E+02  0.51100000000E-03 0. -1.
         23    2    1    2    0    0  0.00000000000E+00 -0.88817841970E-15  0.99920072216E-15  0.91188000000E+02  0.91188000000E+02 0.  0.
    9900012    2    3    3    0    0  0.36477409673E+02  0.49248652312E+01 -0.95835273859E+00  0.54367161417E+02  0.40000176081E+02 0.  0.
        -12    1    3    3    0    0 -0.36477409673E+02 -0.49248652312E+01  0.95835273859E+00  0.36820838583E+02  0.00000000000E+00 0.  1.
         11    1    4    4    0    0  0.38803905800E+02 -0.64699154483E+01  0.39699251175E+01  0.39539388171E+02  0.51100000000E-03 0. -1.
        -11    1    4    4    0    0 -0.15547100986E+01  0.64971705990E+01  0.13624002851E+01  0.68180997412E+01  0.51100000000E-03 0.  1.
         12    1    4    4    0    0 -0.77178602780E+00  0.48976100805E+01 -0.62906781412E+01  0.80096735046E+01  0.00000000000E+00 0. -1.
</event>
<event>
 8    1  0.2509217E-006  0.9118800E+02  0.7816164E-02  0.1184000E+00
        -11   -1    0    0    0    0  0.00000000000E+00  0.00000000000E+00  0.45593999997E+02  0.45594000000E+02  0.51100000000E-03 0.  1.
         11   -1    0    0    0    0 -0.00000000000E+00 -0.00000000000E+00 -0.45593999997E+02  0.45594000000E+02  0.51100000000E-03 0. -1.
         23    2    1    2    0    0  0.35527136788E-14  0.88817841970E-15  0.00000000000E+00  0.91188000000E+02  0.91188000000E+02 0.  0.
    9900012    2    3    3    0    0 -0.29467414687E+02  0.37399996085E+01 -0.21759223592E+02  0.54367082891E+02  0.39999997067E+02 0.  0.
        -12    1    3    3    0    0  0.29467414687E+02 -0.37399996085E+01  0.21759223592E+02  0.36820917109E+02  0.00000000000E+00 0.  1.
         11    1    4    4    0    0 -0.34354784282E+02  0.13155490496E+02 -0.20159332565E+02  0.41948978808E+02  0.51100000000E-03 0. -1.
        -11    1    4    4    0    0  0.49183273868E+01 -0.30108013941E+01  0.18370555399E+00  0.57696288711E+01  0.51100000000E-03 0.  1.
        -12    1    4    4    0    0 -0.30957791827E-01 -0.64046894932E+01 -0.17835965802E+01  0.66484752124E+01  0.00000000000E+00 0.  1.
</event>
<event>
 8    1  0.2509217E-006  0.9118800E+02  0.7816164E-02  0.1184000E+00
        -11   -1    0    0    0    0  0.00000000000E+00  0.00000000000E+00  0.45593999997E+02  0.45594000000E+02  0.51100000000E-03 0. -1.
         11   -1    0    0    0    0 -0.00000000000E+00 -0.00000000000E+00 -0.45593999997E+02  0.45594000000E+02  0.51100000000E-03 0.  1.
         23    2    1    2    0    0  0.00000000000E+00  0.00000000000E+00  0.00000000000E+00  0.91188000000E+02  0.91188000000E+02 0.  0.
    9900012    2    3    3    0    0  0.62143001222E+01 -0.45563464094E+01  0.36005590523E+02  0.54367077041E+02  0.39999983731E+02 0.  0.
        -12    1    3    3    0    0 -0.62143001222E+01  0.45563464094E+01 -0.36005590523E+02  0.36820922959E+02  0.00000000000E+00 0.  1.
         11    1    4    4    0    0 -0.72232272598E+01 -0.76738888242E+01  0.31506420996E+02  0.33222253777E+02  0.51100000000E-03 0. -1.
        -11    1    4    4    0    0  0.11167514097E+02  0.48714378618E+01  0.94526455032E+01  0.15420660985E+02  0.51100000000E-03 0.  1.
         12    1    4    4    0    0  0.22700132848E+01 -0.17538954470E+01 -0.49534759763E+01  0.57241622793E+01  0.00000000000E+00 0. -1.
</event>
<event>
 8    1  0.2509217E-006  0.9118800E+02  0.7816164E-02  0.1184000E+00
        -11   -1    0    0    0    0  0.00000000000E+00  0.00000000000E+00  0.45593999997E+02  0.45594000000E+02  0.51100000000E-03 0.  1.
         11   -1    0    0    0    0 -0.00000000000E+00 -0.00000000000E+00 -0.45593999997E+02  0.45594000000E+02  0.51100000000E-03 0. -1.
         23    2    1    2    0    0  0.35527136788E-14  0.71054273576E-14 -0.35527136788E-14  0.91188000000E+02  0.91188000000E+02 0.  0.
    9900012    2    3    3    0    0 -0.22176556855E+02 -0.18898831613E+02  0.22512531347E+02  0.54367087763E+02  0.40000008174E+02 0.  0.
         12    1    3    3    0    0  0.22176556855E+02  0.18898831613E+02 -0.22512531347E+02  0.36820912237E+02  0.00000000000E+00 0. -1.
         11    1    4    4    0    0 -0.11360995188E+02 -0.61759749633E+01 -0.31177523019E+01  0.13301701323E+02  0.51100000000E-03 0. -1.
        -11    1    4    4    0    0  0.51298224661E+01  0.44582296816E+01  0.12422598759E+02  0.14160220712E+02  0.51100000000E-03 0.  1.
        -12    1    4    4    0    0 -0.15945384133E+02 -0.17181086331E+02  0.13207684890E+02  0.26905165728E+02  0.00000000000E+00 0.  1.
</event>
<event>
 8    1  0.2509217E-006  0.9118800E+02  0.7816164E-02  0.1184000E+00
        -11   -1    0    0    0    0  0.00000000000E+00  0.00000000000E+00  0.45593999997E+02  0.45594000000E+02  0.51100000000E-03 0. -1.
         11   -1    0    0    0    0 -0.00000000000E+00 -0.00000000000E+00 -0.45593999997E+02  0.45594000000E+02  0.51100000000E-03 0.  1.
         23    2    1    2    0    0  0.35527136788E-14  0.00000000000E+00  0.00000000000E+00  0.91188000000E+02  0.91188000000E+02 0.  0.
    9900012    2    3    3    0    0 -0.30152928318E+02 -0.13160708378E+02  0.16534094269E+02  0.54367087403E+02  0.40000007353E+02 0.  0.
        -12    1    3    3    0    0  0.30152928318E+02  0.13160708378E+02 -0.16534094269E+02  0.36820912597E+02  0.00000000000E+00 0.  1.
         11    1    4    4    0    0 -0.12842388023E+02 -0.13594996206E+02  0.42965470594E+01  0.19188829273E+02  0.51100000000E-03 0. -1.
        -11    1    4    4    0    0 -0.11581436090E+02 -0.13446350242E+02  0.86350003014E+01  0.19735684108E+02  0.51100000000E-03 0.  1.
        -12    1    4    4    0    0 -0.57291042055E+01  0.13880638070E+02  0.36025469079E+01  0.15442574023E+02  0.00000000000E+00 0.  1.
</event>
<event>
 8    1  0.2509217E-006  0.9118800E+02  0.7816164E-02  0.1184000E+00
        -11   -1    0    0    0    0  0.00000000000E+00  0.00000000000E+00  0.45593999997E+02  0.45594000000E+02  0.51100000000E-03 0. -1.
         11   -1    0    0    0    0 -0.00000000000E+00 -0.00000000000E+00 -0.45593999997E+02  0.45594000000E+02  0.51100000000E-03 0.  1.
         23    2    1    2    0    0  0.00000000000E+00  0.17763568394E-14  0.00000000000E+00  0.91188000000E+02  0.91188000000E+02 0.  0.
    9900012    2    3    3    0    0 -0.80294295176E+01 -0.75443630798E+01  0.35133893408E+02  0.54367087210E+02  0.40000006914E+02 0.  0.
        -12    1    3    3    0    0  0.80294295176E+01  0.75443630798E+01 -0.35133893408E+02  0.36820912790E+02  0.00000000000E+00 0.  1.
         11    1    4    4    0    0  0.61154643998E+01 -0.32704853550E+01  0.35435121079E+02  0.36107378546E+02  0.51100000000E-03 0. -1.
        -11    1    4    4    0    0 -0.11324382658E+02 -0.43907022387E+01 -0.47079776480E+01  0.13026318073E+02  0.51100000000E-03 0.  1.
        -12    1    4    4    0    0 -0.28205112593E+01  0.11682451389E+00  0.44067499767E+01  0.52333905919E+01  0.00000000000E+00 0.  1.
</event>
<event>
 8    1  0.2509217E-006  0.9118800E+02  0.7816164E-02  0.1184000E+00
        -11   -1    0    0    0    0  0.00000000000E+00  0.00000000000E+00  0.45593999997E+02  0.45594000000E+02  0.51100000000E-03 0.  1.
         11   -1    0    0    0    0 -0.00000000000E+00 -0.00000000000E+00 -0.45593999997E+02  0.45594000000E+02  0.51100000000E-03 0. -1.
         23    2    1    2    0    0  0.17763568394E-14  0.35527136788E-14  0.00000000000E+00  0.91188000000E+02  0.91188000000E+02 0.  0.
    9900012    2    3    3    0    0 -0.12110230791E+02 -0.27071486155E+02 -0.21823303171E+02  0.54367087276E+02  0.40000007064E+02 0.  0.
        -12    1    3    3    0    0  0.12110230791E+02  0.27071486155E+02  0.21823303171E+02  0.36820912724E+02  0.00000000000E+00 0.  1.
         11    1    4    4    0    0  0.27836459077E+01 -0.17687016601E+01  0.80168662728E+01  0.86687447303E+01  0.51100000000E-03 0. -1.
        -11    1    4    4    0    0 -0.87573770498E+00 -0.18431080515E+02 -0.12092261785E+02  0.22061152300E+02  0.51100000000E-03 0.  1.
         12    1    4    4    0    0 -0.14018138994E+02 -0.68717039808E+01 -0.17747907659E+02  0.23637190246E+02  0.00000000000E+00 0. -1.
</event>
<event>
 8    1  0.2509217E-006  0.9118800E+02  0.7816164E-02  0.1184000E+00
        -11   -1    0    0    0    0  0.00000000000E+00  0.00000000000E+00  0.45593999997E+02  0.45594000000E+02  0.51100000000E-03 0.  1.
         11   -1    0    0    0    0 -0.00000000000E+00 -0.00000000000E+00 -0.45593999997E+02  0.45594000000E+02  0.51100000000E-03 0. -1.
         23    2    1    2    0    0 -0.35527136788E-14 -0.22204460493E-15  0.00000000000E+00  0.91188000000E+02  0.91188000000E+02 0.  0.
    9900012    2    3    3    0    0 -0.31424773120E+02  0.11583089035E+01  0.19155276126E+02  0.54367046066E+02  0.39999913116E+02 0.  0.
         12    1    3    3    0    0  0.31424773120E+02 -0.11583089035E+01 -0.19155276126E+02  0.36820953934E+02  0.00000000000E+00 0. -1.
         11    1    4    4    0    0  0.47582627701E+00  0.44348886471E+01 -0.33607174979E+01  0.55847175685E+01  0.51100000000E-03 0. -1.
        -11    1    4    4    0    0  0.46766184422E+01  0.37878062559E+01  0.33597801497E+01  0.68924857055E+01  0.51100000000E-03 0.  1.
         12    1    4    4    0    0 -0.36577217839E+02 -0.70643859995E+01  0.19156213474E+02  0.41889842792E+02  0.00000000000E+00 0. -1.
</event>
<event>
 8    1  0.2509217E-006  0.9118800E+02  0.7816164E-02  0.1184000E+00
        -11   -1    0    0    0    0  0.00000000000E+00  0.00000000000E+00  0.45593999997E+02  0.45594000000E+02  0.51100000000E-03 0.  1.
         11   -1    0    0    0    0 -0.00000000000E+00 -0.00000000000E+00 -0.45593999997E+02  0.45594000000E+02  0.51100000000E-03 0. -1.
         23    2    1    2    0    0 -0.66613381478E-15 -0.13322676296E-14  0.00000000000E+00  0.91188000000E+02  0.91188000000E+02 0.  0.
    9900012    2    3    3    0    0  0.14860320489E+01 -0.31699888469E+01  0.36654106183E+02  0.54367073605E+02  0.39999975897E+02 0.  0.
         12    1    3    3    0    0 -0.14860320489E+01  0.31699888469E+01 -0.36654106183E+02  0.36820926395E+02  0.00000000000E+00 0. -1.
         11    1    4    4    0    0 -0.17287802230E+01  0.26301848464E+01 -0.84285162098E+00  0.32583665389E+01  0.51100000000E-03 0. -1.
        -11    1    4    4    0    0 -0.18930994391E+01 -0.97387953391E+01  0.42055817869E+02  0.43210181405E+02  0.51100000000E-03 0.  1.
        -12    1    4    4    0    0  0.51079117110E+01  0.39386216459E+01 -0.45588600655E+01  0.78985256607E+01  0.00000000000E+00 0.  1.
</event>
<event>
 8    1  0.2509217E-006  0.9118800E+02  0.7816164E-02  0.1184000E+00
        -11   -1    0    0    0    0  0.00000000000E+00  0.00000000000E+00  0.45593999997E+02  0.45594000000E+02  0.51100000000E-03 0. -1.
         11   -1    0    0    0    0 -0.00000000000E+00 -0.00000000000E+00 -0.45593999997E+02  0.45594000000E+02  0.51100000000E-03 0.  1.
         23    2    1    2    0    0  0.00000000000E+00  0.00000000000E+00  0.00000000000E+00  0.91188000000E+02  0.91188000000E+02 0.  0.
    9900012    2    3    3    0    0 -0.69639522755E+01  0.43440623163E+01  0.35894406030E+02  0.54367137803E+02  0.40000122250E+02 0.  0.
        -12    1    3    3    0    0  0.69639522755E+01 -0.43440623163E+01 -0.35894406030E+02  0.36820862197E+02  0.00000000000E+00 0.  1.
         11    1    4    4    0    0 -0.11093482891E+01  0.65091634615E+01 -0.37471999462E+01  0.75921914026E+01  0.51100000000E-03 0. -1.
        -11    1    4    4    0    0  0.91660667289E+01 -0.45383954640E-01  0.10625670051E+02  0.14032950626E+02  0.51100000000E-03 0.  1.
         12    1    4    4    0    0 -0.15020670715E+02 -0.21197171906E+01  0.29015935924E+02  0.32741995774E+02  0.00000000000E+00 0. -1.
</event>
<event>
 8    1  0.2509217E-006  0.9118800E+02  0.7816164E-02  0.1184000E+00
        -11   -1    0    0    0    0  0.00000000000E+00  0.00000000000E+00  0.45593999997E+02  0.45594000000E+02  0.51100000000E-03 0.  1.
         11   -1    0    0    0    0 -0.00000000000E+00 -0.00000000000E+00 -0.45593999997E+02  0.45594000000E+02  0.51100000000E-03 0. -1.
         23    2    1    2    0    0  0.11102230246E-14  0.71054273576E-14 -0.88817841970E-15  0.91188000000E+02  0.91188000000E+02 0.  0.
    9900012    2    3    3    0    0 -0.10278458027E+01 -0.36174935262E+02  0.67894936262E+01  0.54367087031E+02  0.40000006504E+02 0.  0.
        -12    1    3    3    0    0  0.10278458027E+01  0.36174935262E+02 -0.67894936262E+01  0.36820912969E+02  0.00000000000E+00 0.  1.
         11    1    4    4    0    0 -0.96366885671E+01 -0.69708609576E+01  0.21807861234E+01  0.12091918682E+02  0.51100000000E-03 0. -1.
        -11    1    4    4    0    0 -0.16918102147E+01  0.54052405933E+01  0.22307391573E+01  0.60872855299E+01  0.51100000000E-03 0.  1.
        -12    1    4    4    0    0  0.10300652979E+02 -0.34609314898E+02  0.23779683455E+01  0.36187882819E+02  0.00000000000E+00 0.  1.
</event>
<event>
 8    1  0.2509217E-006  0.9118800E+02  0.7816164E-02  0.1184000E+00
        -11   -1    0    0    0    0  0.00000000000E+00  0.00000000000E+00  0.45593999997E+02  0.45594000000E+02  0.51100000000E-03 0.  1.
         11   -1    0    0    0    0 -0.00000000000E+00 -0.00000000000E+00 -0.45593999997E+02  0.45594000000E+02  0.51100000000E-03 0. -1.
         23    2    1    2    0    0 -0.88817841970E-15  0.00000000000E+00  0.00000000000E+00  0.91188000000E+02  0.91188000000E+02 0.  0.
    9900012    2    3    3    0    0 -0.58211840989E+01  0.35192730789E+02 -0.91304565454E+01  0.54367085815E+02  0.40000003732E+02 0.  0.
        -12    1    3    3    0    0  0.58211840989E+01 -0.35192730789E+02  0.91304565454E+01  0.36820914185E+02  0.00000000000E+00 0.  1.
         11    1    4    4    0    0 -0.18193848451E+02  0.28347095166E+02  0.74046542139E+00  0.33691574839E+02  0.51100000000E-03 0. -1.
        -11    1    4    4    0    0  0.10243434709E+02  0.46538782180E+01 -0.10027736772E+01  0.11295666975E+02  0.51100000000E-03 0.  1.
         12    1    4    4    0    0  0.21292296438E+01  0.21917574052E+01 -0.88681482896E+01  0.93798440011E+01  0.00000000000E+00 0. -1.
</event>
<event>
 8    1  0.2509217E-006  0.9118800E+02  0.7816164E-02  0.1184000E+00
        -11   -1    0    0    0    0  0.00000000000E+00  0.00000000000E+00  0.45593999997E+02  0.45594000000E+02  0.51100000000E-03 0.  1.
         11   -1    0    0    0    0 -0.00000000000E+00 -0.00000000000E+00 -0.45593999997E+02  0.45594000000E+02  0.51100000000E-03 0. -1.
         23    2    1    2    0    0  0.00000000000E+00 -0.35527136788E-14  0.00000000000E+00  0.91188000000E+02  0.91188000000E+02 0.  0.
    9900012    2    3    3    0    0 -0.76853625939E+01 -0.18736068416E+02  0.30751804923E+02  0.54367101533E+02  0.40000039566E+02 0.  0.
         12    1    3    3    0    0  0.76853625939E+01  0.18736068416E+02 -0.30751804923E+02  0.36820898467E+02  0.00000000000E+00 0. -1.
         11    1    4    4    0    0 -0.59844146323E+01  0.78235943704E+01  0.16307821091E+02  0.19051689593E+02  0.51100000000E-03 0. -1.
        -11    1    4    4    0    0  0.27942168830E+01 -0.17671033359E+02  0.17368142047E+02  0.24934422519E+02  0.51100000000E-03 0.  1.
         12    1    4    4    0    0 -0.44951648446E+01 -0.88886294279E+01 -0.29241582152E+01  0.10380989421E+02  0.00000000000E+00 0. -1.
</event>
<event>
 8    1  0.2509217E-006  0.9118800E+02  0.7816164E-02  0.1184000E+00
        -11   -1    0    0    0    0  0.00000000000E+00  0.00000000000E+00  0.45593999997E+02  0.45594000000E+02  0.51100000000E-03 0.  1.
         11   -1    0    0    0    0 -0.00000000000E+00 -0.00000000000E+00 -0.45593999997E+02  0.45594000000E+02  0.51100000000E-03 0. -1.
         23    2    1    2    0    0 -0.35527136788E-14  0.35527136788E-14  0.00000000000E+00  0.91188000000E+02  0.91188000000E+02 0.  0.
    9900012    2    3    3    0    0 -0.20542089917E+02  0.27451176323E+02  0.13424818033E+02  0.54367214038E+02  0.40000296040E+02 0.  0.
        -12    1    3    3    0    0  0.20542089917E+02 -0.27451176323E+02 -0.13424818033E+02  0.36820785962E+02  0.00000000000E+00 0.  1.
         11    1    4    4    0    0 -0.69176096680E+01  0.22078616991E+02  0.24562204577E+02  0.33743451894E+02  0.51100000000E-03 0. -1.
        -11    1    4    4    0    0  0.11180982281E+01 -0.44373400594E+00  0.82507172397E-01  0.12057575255E+01  0.51100000000E-03 0.  1.
        -12    1    4    4    0    0 -0.14742578477E+02  0.58162933373E+01 -0.11219893716E+02  0.19418004618E+02  0.00000000000E+00 0.  1.
</event>
<event>
 8    1  0.2509217E-006  0.9118800E+02  0.7816164E-02  0.1184000E+00
        -11   -1    0    0    0    0  0.00000000000E+00  0.00000000000E+00  0.45593999997E+02  0.45594000000E+02  0.51100000000E-03 0. -1.
         11   -1    0    0    0    0 -0.00000000000E+00 -0.00000000000E+00 -0.45593999997E+02  0.45594000000E+02  0.51100000000E-03 0.  1.
         23    2    1    2    0    0  0.88817841970E-15  0.88817841970E-15  0.00000000000E+00  0.91188000000E+02  0.91188000000E+02 0.  0.
    9900012    2    3    3    0    0 -0.43837307469E+01  0.54021196291E+01 -0.36157713816E+02  0.54367078499E+02  0.39999987054E+02 0.  0.
         12    1    3    3    0    0  0.43837307469E+01 -0.54021196291E+01  0.36157713816E+02  0.36820921501E+02  0.00000000000E+00 0. -1.
         11    1    4    4    0    0  0.68286227072E+01  0.21596671180E+01  0.36005429676E+01  0.80161187653E+01  0.51100000000E-03 0. -1.
        -11    1    4    4    0    0 -0.12564776601E+02 -0.51507316566E+01 -0.32312196145E+02  0.35049702818E+02  0.51100000000E-03 0.  1.
        -12    1    4    4    0    0  0.13524231470E+01  0.83931841678E+01 -0.74460606391E+01  0.11301256916E+02  0.00000000000E+00 0.  1.
</event>
<event>
 8    1  0.2509217E-006  0.9118800E+02  0.7816164E-02  0.1184000E+00
        -11   -1    0    0    0    0  0.00000000000E+00  0.00000000000E+00  0.45593999997E+02  0.45594000000E+02  0.51100000000E-03 0.  1.
         11   -1    0    0    0    0 -0.00000000000E+00 -0.00000000000E+00 -0.45593999997E+02  0.45594000000E+02  0.51100000000E-03 0. -1.
         23    2    1    2    0    0 -0.71054273576E-14  0.17763568394E-14  0.26645352591E-14  0.91188000000E+02  0.91188000000E+02 0.  0.
    9900012    2    3    3    0    0  0.33965497562E+02 -0.12347055521E+02 -0.70479524087E+01  0.54367103245E+02  0.40000043469E+02 0.  0.
        -12    1    3    3    0    0 -0.33965497562E+02  0.12347055521E+02  0.70479524087E+01  0.36820896755E+02  0.00000000000E+00 0.  1.
         11    1    4    4    0    0  0.23468895037E+02 -0.18956891242E+02 -0.38542729624E+01  0.30413947132E+02  0.51100000000E-03 0. -1.
        -11    1    4    4    0    0 -0.71239672362E+00  0.78506756797E+00  0.73947199913E+01  0.74703228972E+01  0.51100000000E-03 0.  1.
        -12    1    4    4    0    0  0.11208999249E+02  0.58247681528E+01 -0.10588399438E+02  0.16482833217E+02  0.00000000000E+00 0.  1.
</event>
<event>
 8    1  0.2509217E-006  0.9118800E+02  0.7816164E-02  0.1184000E+00
        -11   -1    0    0    0    0  0.00000000000E+00  0.00000000000E+00  0.45593999997E+02  0.45594000000E+02  0.51100000000E-03 0.  1.
         11   -1    0    0    0    0 -0.00000000000E+00 -0.00000000000E+00 -0.45593999997E+02  0.45594000000E+02  0.51100000000E-03 0. -1.
         23    2    1    2    0    0 -0.35527136788E-14  0.35527136788E-14  0.00000000000E+00  0.91188000000E+02  0.91188000000E+02 0.  0.
    9900012    2    3    3    0    0 -0.23997393135E+02  0.20166350278E+02  0.19318997502E+02  0.54367078972E+02  0.39999988134E+02 0.  0.
         12    1    3    3    0    0  0.23997393135E+02 -0.20166350278E+02 -0.19318997502E+02  0.36820921028E+02  0.00000000000E+00 0. -1.
         11    1    4    4    0    0 -0.63368833869E+01  0.16060994536E+01  0.70339489005E+00  0.65749837373E+01  0.51100000000E-03 0. -1.
        -11    1    4    4    0    0 -0.28566802577E+02  0.10519050726E+02  0.13626790472E+02  0.33352691893E+02  0.51100000000E-03 0.  1.
         12    1    4    4    0    0  0.10906292829E+02  0.80412000988E+01  0.49888121399E+01  0.14439403342E+02  0.00000000000E+00 0. -1.
</event>
<event>
 8    1  0.2509217E-006  0.9118800E+02  0.7816164E-02  0.1184000E+00
        -11   -1    0    0    0    0  0.00000000000E+00  0.00000000000E+00  0.45593999997E+02  0.45594000000E+02  0.51100000000E-03 0.  1.
         11   -1    0    0    0    0 -0.00000000000E+00 -0.00000000000E+00 -0.45593999997E+02  0.45594000000E+02  0.51100000000E-03 0. -1.
         23    2    1    2    0    0 -0.17763568394E-14  0.35527136788E-14  0.35527136788E-14  0.91188000000E+02  0.91188000000E+02 0.  0.
    9900012    2    3    3    0    0 -0.15408531247E+02  0.18510413034E+02  0.27851762760E+02  0.54367096769E+02  0.40000028705E+02 0.  0.
         12    1    3    3    0    0  0.15408531247E+02 -0.18510413034E+02 -0.27851762760E+02  0.36820903231E+02  0.00000000000E+00 0. -1.
         11    1    4    4    0    0 -0.54146811442E+01 -0.62410476893E+01  0.12807580480E+02  0.15241508002E+02  0.51100000000E-03 0.  1.
        -11    1    4    4    0    0  0.91500307741E+00 -0.44117960969E+01  0.41853045964E+01  0.61496300912E+01  0.51100000000E-03 0. -1.
         12    1    4    4    0    0 -0.10908853180E+02  0.29163256820E+02  0.10858877684E+02  0.32975958676E+02  0.00000000000E+00 0. -1.
</event>
<event>
 8    1  0.2509217E-006  0.9118800E+02  0.7816164E-02  0.1184000E+00
        -11   -1    0    0    0    0  0.00000000000E+00  0.00000000000E+00  0.45593999997E+02  0.45594000000E+02  0.51100000000E-03 0.  1.
         11   -1    0    0    0    0 -0.00000000000E+00 -0.00000000000E+00 -0.45593999997E+02  0.45594000000E+02  0.51100000000E-03 0. -1.
         23    2    1    2    0    0  0.00000000000E+00  0.00000000000E+00  0.00000000000E+00  0.91188000000E+02  0.91188000000E+02 0.  0.
    9900012    2    3    3    0    0  0.15718853499E+02  0.22692703975E+02  0.24366748800E+02  0.54367087245E+02  0.40000006993E+02 0.  0.
         12    1    3    3    0    0 -0.15718853499E+02 -0.22692703975E+02 -0.24366748800E+02  0.36820912755E+02  0.00000000000E+00 0. -1.
         11    1    4    4    0    0  0.50433921629E+01  0.32670191194E+01 -0.25378255796E+01  0.65230190379E+01  0.51100000000E-03 0. -1.
        -11    1    4    4    0    0  0.10233295378E+02  0.19182677957E+02  0.82249890416E+00  0.21757113150E+02  0.51100000000E-03 0.  1.
        -12    1    4    4    0    0  0.44216595848E+00  0.24300689876E+00  0.26082075475E+02  0.26086955058E+02  0.00000000000E+00 0.  1.
</event>
<event>
 8    1  0.2509217E-006  0.9118800E+02  0.7816164E-02  0.1184000E+00
        -11   -1    0    0    0    0  0.00000000000E+00  0.00000000000E+00  0.45593999997E+02  0.45594000000E+02  0.51100000000E-03 0.  1.
         11   -1    0    0    0    0 -0.00000000000E+00 -0.00000000000E+00 -0.45593999997E+02  0.45594000000E+02  0.51100000000E-03 0. -1.
         23    2    1    2    0    0  0.00000000000E+00  0.35527136788E-14  0.00000000000E+00  0.91188000000E+02  0.91188000000E+02 0.  0.
    9900012    2    3    3    0    0  0.13804816495E+02  0.28500960589E+02 -0.18785696873E+02  0.54367080403E+02  0.39999991395E+02 0.  0.
        -12    1    3    3    0    0 -0.13804816495E+02 -0.28500960589E+02  0.18785696873E+02  0.36820919597E+02  0.00000000000E+00 0.  1.
         11    1    4    4    0    0  0.48205801062E+01  0.72068707153E+00 -0.63582535191E+01  0.80115398326E+01  0.51100000000E-03 0. -1.
        -11    1    4    4    0    0 -0.95936187333E+01  0.23417250049E+02 -0.95902135704E+01  0.27062470634E+02  0.51100000000E-03 0.  1.
         12    1    4    4    0    0  0.18577855122E+02  0.43630234692E+01 -0.28372297833E+01  0.19293069936E+02  0.00000000000E+00 0. -1.
</event>
<event>
 8    1  0.2509217E-006  0.9118800E+02  0.7816164E-02  0.1184000E+00
        -11   -1    0    0    0    0  0.00000000000E+00  0.00000000000E+00  0.45593999997E+02  0.45594000000E+02  0.51100000000E-03 0.  1.
         11   -1    0    0    0    0 -0.00000000000E+00 -0.00000000000E+00 -0.45593999997E+02  0.45594000000E+02  0.51100000000E-03 0. -1.
         23    2    1    2    0    0  0.00000000000E+00  0.35527136788E-14  0.17763568394E-14  0.91188000000E+02  0.91188000000E+02 0.  0.
    9900012    2    3    3    0    0  0.24048829070E+02 -0.26039708311E+02 -0.99682950247E+01  0.54367088900E+02  0.40000010765E+02 0.  0.
        -12    1    3    3    0    0 -0.24048829070E+02  0.26039708311E+02  0.99682950247E+01  0.36820911100E+02  0.00000000000E+00 0.  1.
         11    1    4    4    0    0  0.56835242663E+01 -0.24696438249E+02  0.12114535517E+01  0.25370930811E+02  0.51100000000E-03 0. -1.
        -11    1    4    4    0    0  0.71202089152E+01 -0.74794283068E+01  0.21072975433E+01  0.10539446190E+02  0.51100000000E-03 0.  1.
         12    1    4    4    0    0  0.11245095888E+02  0.61361582442E+01 -0.13287046120E+02  0.18456711899E+02  0.00000000000E+00 0. -1.
</event>
<event>
 8    1  0.2509217E-006  0.9118800E+02  0.7816164E-02  0.1184000E+00
        -11   -1    0    0    0    0  0.00000000000E+00  0.00000000000E+00  0.45593999997E+02  0.45594000000E+02  0.51100000000E-03 0. -1.
         11   -1    0    0    0    0 -0.00000000000E+00 -0.00000000000E+00 -0.45593999997E+02  0.45594000000E+02  0.51100000000E-03 0.  1.
         23    2    1    2    0    0  0.00000000000E+00 -0.17763568394E-14  0.17763568394E-14  0.91188000000E+02  0.91188000000E+02 0.  0.
    9900012    2    3    3    0    0  0.34062414717E+02  0.98350658475E+01 -0.99399180627E+01  0.54367101210E+02  0.40000038829E+02 0.  0.
         12    1    3    3    0    0 -0.34062414717E+02 -0.98350658475E+01  0.99399180627E+01  0.36820898790E+02  0.00000000000E+00 0. -1.
         11    1    4    4    0    0  0.10606788851E+02 -0.27353393023E+01  0.11475344605E+02  0.15864097355E+02  0.51100000000E-03 0. -1.
        -11    1    4    4    0    0  0.12386597537E+02  0.10388836118E+00 -0.14180865815E+01  0.12467941336E+02  0.51100000000E-03 0.  1.
         12    1    4    4    0    0  0.11069028329E+02  0.12466516789E+02 -0.19997176086E+02  0.26035062519E+02  0.00000000000E+00 0. -1.
</event>
<event>
 8    1  0.2509217E-006  0.9118800E+02  0.7816164E-02  0.1184000E+00
        -11   -1    0    0    0    0  0.00000000000E+00  0.00000000000E+00  0.45593999997E+02  0.45594000000E+02  0.51100000000E-03 0. -1.
         11   -1    0    0    0    0 -0.00000000000E+00 -0.00000000000E+00 -0.45593999997E+02  0.45594000000E+02  0.51100000000E-03 0.  1.
         23    2    1    2    0    0 -0.88817841970E-15  0.71054273576E-14 -0.17763568394E-14  0.91188000000E+02  0.91188000000E+02 0.  0.
    9900012    2    3    3    0    0 -0.46268309931E+01 -0.34363139107E+02  0.12391408560E+02  0.54367083384E+02  0.39999998190E+02 0.  0.
        -12    1    3    3    0    0  0.46268309931E+01  0.34363139107E+02 -0.12391408560E+02  0.36820916616E+02  0.00000000000E+00 0.  1.
         11    1    4    4    0    0 -0.12183731546E+02  0.32613865465E+01  0.16324453297E+01  0.12717894268E+02  0.51100000000E-03 0. -1.
        -11    1    4    4    0    0  0.37980821333E+01 -0.20202456113E+01  0.22281187942E+01  0.48447222669E+01  0.51100000000E-03 0.  1.
         12    1    4    4    0    0  0.37588184196E+01 -0.35604280043E+02  0.85308444359E+01  0.36804466849E+02  0.00000000000E+00 0. -1.
</event>
<event>
 8    1  0.2509217E-006  0.9118800E+02  0.7816164E-02  0.1184000E+00
        -11   -1    0    0    0    0  0.00000000000E+00  0.00000000000E+00  0.45593999997E+02  0.45594000000E+02  0.51100000000E-03 0.  1.
         11   -1    0    0    0    0 -0.00000000000E+00 -0.00000000000E+00 -0.45593999997E+02  0.45594000000E+02  0.51100000000E-03 0. -1.
         23    2    1    2    0    0  0.00000000000E+00  0.00000000000E+00  0.35527136788E-14  0.91188000000E+02  0.91188000000E+02 0.  0.
    9900012    2    3    3    0    0 -0.98318194000E+01  0.17483719664E+02 -0.30877633675E+02  0.54367171827E+02  0.40000199813E+02 0.  0.
        -12    1    3    3    0    0  0.98318194000E+01 -0.17483719664E+02  0.30877633675E+02  0.36820828173E+02  0.00000000000E+00 0.  1.
         11    1    4    4    0    0 -0.14203287558E+02  0.42051152722E+01 -0.17299752904E+02  0.22774938479E+02  0.51100000000E-03 0. -1.
        -11    1    4    4    0    0  0.68172937143E+01 -0.23539426381E+01  0.37484706611E+01  0.81281961153E+01  0.51100000000E-03 0.  1.
         12    1    4    4    0    0 -0.24458255561E+01  0.15632547030E+02 -0.17326351432E+02  0.23464037233E+02  0.00000000000E+00 0. -1.
</event>
<event>
 8    1  0.2509217E-006  0.9118800E+02  0.7816164E-02  0.1184000E+00
        -11   -1    0    0    0    0  0.00000000000E+00  0.00000000000E+00  0.45593999997E+02  0.45594000000E+02  0.51100000000E-03 0.  1.
         11   -1    0    0    0    0 -0.00000000000E+00 -0.00000000000E+00 -0.45593999997E+02  0.45594000000E+02  0.51100000000E-03 0. -1.
         23    2    1    2    0    0  0.00000000000E+00 -0.17763568394E-14  0.00000000000E+00  0.91188000000E+02  0.91188000000E+02 0.  0.
    9900012    2    3    3    0    0 -0.33956931598E+02  0.10773855516E+02  0.93075199126E+01  0.54367094347E+02  0.40000023183E+02 0.  0.
         12    1    3    3    0    0  0.33956931598E+02 -0.10773855516E+02 -0.93075199126E+01  0.36820905653E+02  0.00000000000E+00 0. -1.
         11    1    4    4    0    0 -0.17798784210E+02  0.15655337788E+02  0.27984643660E+01  0.23868760414E+02  0.51100000000E-03 0. -1.
        -11    1    4    4    0    0 -0.17937592785E+02  0.62876390090E+00 -0.41008976641E+01  0.18411136328E+02  0.51100000000E-03 0.  1.
         12    1    4    4    0    0  0.17794453978E+01 -0.55102461734E+01  0.10609953211E+02  0.12087197605E+02  0.00000000000E+00 0. -1.
</event>
<event>
 8    1  0.2509217E-006  0.9118800E+02  0.7816164E-02  0.1184000E+00
        -11   -1    0    0    0    0  0.00000000000E+00  0.00000000000E+00  0.45593999997E+02  0.45594000000E+02  0.51100000000E-03 0.  1.
         11   -1    0    0    0    0 -0.00000000000E+00 -0.00000000000E+00 -0.45593999997E+02  0.45594000000E+02  0.51100000000E-03 0. -1.
         23    2    1    2    0    0  0.35527136788E-14  0.00000000000E+00 -0.44408920985E-15  0.91188000000E+02  0.91188000000E+02 0.  0.
    9900012    2    3    3    0    0 -0.18097748285E+02  0.31917873787E+02 -0.30822247475E+01  0.54367091952E+02  0.40000017723E+02 0.  0.
        -12    1    3    3    0    0  0.18097748285E+02 -0.31917873787E+02  0.30822247475E+01  0.36820908048E+02  0.00000000000E+00 0.  1.
         11    1    4    4    0    0 -0.10166758325E+02  0.15880532286E+02 -0.10342729274E+02  0.21506425310E+02  0.51100000000E-03 0. -1.
        -11    1    4    4    0    0 -0.69738570454E+01 -0.13673318065E+01  0.12740560829E+02  0.14588562947E+02  0.51100000000E-03 0.  1.
        -12    1    4    4    0    0 -0.95713291496E+00  0.17404673308E+02 -0.54800563024E+01  0.18272103695E+02  0.00000000000E+00 0.  1.
</event>
<event>
 8    1  0.2509217E-006  0.9118800E+02  0.7816164E-02  0.1184000E+00
        -11   -1    0    0    0    0  0.00000000000E+00  0.00000000000E+00  0.45593999997E+02  0.45594000000E+02  0.51100000000E-03 0. -1.
         11   -1    0    0    0    0 -0.00000000000E+00 -0.00000000000E+00 -0.45593999997E+02  0.45594000000E+02  0.51100000000E-03 0.  1.
         23    2    1    2    0    0  0.00000000000E+00  0.00000000000E+00  0.00000000000E+00  0.91188000000E+02  0.91188000000E+02 0.  0.
    9900012    2    3    3    0    0  0.13775716585E+02  0.67572497490E+01  0.33471891183E+02  0.54366833655E+02  0.39999428879E+02 0.  0.
        -12    1    3    3    0    0 -0.13775716585E+02 -0.67572497490E+01 -0.33471891183E+02  0.36821166345E+02  0.00000000000E+00 0.  1.
         11    1    4    4    0    0  0.34076028839E+01  0.44417422088E+01  0.16386080995E+02  0.17316018073E+02  0.51100000000E-03 0. -1.
        -11    1    4    4    0    0  0.19467132098E+02  0.90235647560E+01  0.12643486304E+02  0.24904852925E+02  0.51100000000E-03 0.  1.
        -12    1    4    4    0    0 -0.90990183962E+01 -0.67080572158E+01  0.44423238842E+01  0.12145962657E+02  0.00000000000E+00 0.  1.
</event>
<event>
 8    1  0.2509217E-006  0.9118800E+02  0.7816164E-02  0.1184000E+00
        -11   -1    0    0    0    0  0.00000000000E+00  0.00000000000E+00  0.45593999997E+02  0.45594000000E+02  0.51100000000E-03 0. -1.
         11   -1    0    0    0    0 -0.00000000000E+00 -0.00000000000E+00 -0.45593999997E+02  0.45594000000E+02  0.51100000000E-03 0.  1.
         23    2    1    2    0    0 -0.35527136788E-14 -0.35527136788E-14 -0.17763568394E-14  0.91188000000E+02  0.91188000000E+02 0.  0.
    9900012    2    3    3    0    0  0.26325582622E+02  0.24348160066E+02  0.83614156527E+01  0.54367048482E+02  0.39999918624E+02 0.  0.
        -12    1    3    3    0    0 -0.26325582622E+02 -0.24348160066E+02 -0.83614156527E+01  0.36820951518E+02  0.00000000000E+00 0.  1.
         11    1    4    4    0    0  0.24259165066E+02  0.30037236547E+02  0.79164792513E+01  0.39413364651E+02  0.51100000000E-03 0. -1.
        -11    1    4    4    0    0  0.27158367763E+01 -0.45783107580E+01 -0.62078247724E+01  0.81776394796E+01  0.51100000000E-03 0.  1.
        -12    1    4    4    0    0 -0.64941922065E+00 -0.11107657231E+01  0.66527611738E+01  0.67760443514E+01  0.00000000000E+00 0.  1.
</event>
<event>
 8    1  0.2509217E-006  0.9118800E+02  0.7816164E-02  0.1184000E+00
        -11   -1    0    0    0    0  0.00000000000E+00  0.00000000000E+00  0.45593999997E+02  0.45594000000E+02  0.51100000000E-03 0. -1.
         11   -1    0    0    0    0 -0.00000000000E+00 -0.00000000000E+00 -0.45593999997E+02  0.45594000000E+02  0.51100000000E-03 0.  1.
         23    2    1    2    0    0  0.00000000000E+00  0.00000000000E+00  0.00000000000E+00  0.91188000000E+02  0.91188000000E+02 0.  0.
    9900012    2    3    3    0    0 -0.27576688621E+02  0.14276284913E+02 -0.19786204502E+02  0.54367082646E+02  0.39999996507E+02 0.  0.
         12    1    3    3    0    0  0.27576688621E+02 -0.14276284913E+02  0.19786204502E+02  0.36820917354E+02  0.00000000000E+00 0. -1.
         11    1    4    4    0    0 -0.63420697277E+01  0.17728812608E+02  0.48812117150E+01  0.19451449123E+02  0.51100000000E-03 0. -1.
        -11    1    4    4    0    0 -0.11932262188E+02 -0.15548906365E+01 -0.49115084534E+01  0.12996902760E+02  0.51100000000E-03 0.  1.
         12    1    4    4    0    0 -0.93023567060E+01 -0.18976370583E+01 -0.19755907763E+02  0.21918730763E+02  0.00000000000E+00 0. -1.
</event>
<event>
 8    1  0.2509217E-006  0.9118800E+02  0.7816164E-02  0.1184000E+00
        -11   -1    0    0    0    0  0.00000000000E+00  0.00000000000E+00  0.45593999997E+02  0.45594000000E+02  0.51100000000E-03 0. -1.
         11   -1    0    0    0    0 -0.00000000000E+00 -0.00000000000E+00 -0.45593999997E+02  0.45594000000E+02  0.51100000000E-03 0.  1.
         23    2    1    2    0    0 -0.35527136788E-14  0.00000000000E+00 -0.35527136788E-14  0.91188000000E+02  0.91188000000E+02 0.  0.
    9900012    2    3    3    0    0  0.22379918603E+02 -0.25456712951E+02 -0.14383317549E+02  0.54367016653E+02  0.39999846063E+02 0.  0.
        -12    1    3    3    0    0 -0.22379918603E+02  0.25456712951E+02  0.14383317549E+02  0.36820983347E+02  0.00000000000E+00 0.  1.
         11    1    4    4    0    0  0.54861502213E+01  0.35124263903E+01 -0.57778582060E+00  0.65397874670E+01  0.51100000000E-03 0. -1.
        -11    1    4    4    0    0  0.16284409736E+02 -0.15287649323E+02 -0.22420673805E+02  0.31647761949E+02  0.51100000000E-03 0.  1.
         12    1    4    4    0    0  0.60935864579E+00 -0.13681490018E+02  0.86151420759E+01  0.16179467237E+02  0.00000000000E+00 0. -1.
</event>
<event>
 8    1  0.2509217E-006  0.9118800E+02  0.7816164E-02  0.1184000E+00
        -11   -1    0    0    0    0  0.00000000000E+00  0.00000000000E+00  0.45593999997E+02  0.45594000000E+02  0.51100000000E-03 0.  1.
         11   -1    0    0    0    0 -0.00000000000E+00 -0.00000000000E+00 -0.45593999997E+02  0.45594000000E+02  0.51100000000E-03 0. -1.
         23    2    1    2    0    0  0.71054273576E-14  0.00000000000E+00 -0.88817841970E-15  0.91188000000E+02  0.91188000000E+02 0.  0.
    9900012    2    3    3    0    0  0.32911267574E+02  0.15544183586E+02 -0.55699111685E+01  0.54366850003E+02  0.39999466149E+02 0.  0.
        -12    1    3    3    0    0 -0.32911267574E+02 -0.15544183586E+02  0.55699111685E+01  0.36821149997E+02  0.00000000000E+00 0.  1.
         11    1    4    4    0    0  0.15136968600E+00  0.50656640948E+01 -0.12966905507E+02  0.13922086919E+02  0.51100000000E-03 0. -1.
        -11    1    4    4    0    0  0.11634764884E+02  0.49275833196E+01  0.12756198774E+02  0.17954649501E+02  0.51100000000E-03 0.  1.
         12    1    4    4    0    0  0.21125133003E+02  0.55509361721E+01 -0.53592044360E+01  0.22490113583E+02  0.00000000000E+00 0. -1.
</event>
<event>
 8    1  0.2509217E-006  0.9118800E+02  0.7816164E-02  0.1184000E+00
        -11   -1    0    0    0    0  0.00000000000E+00  0.00000000000E+00  0.45593999997E+02  0.45594000000E+02  0.51100000000E-03 0. -1.
         11   -1    0    0    0    0 -0.00000000000E+00 -0.00000000000E+00 -0.45593999997E+02  0.45594000000E+02  0.51100000000E-03 0.  1.
         23    2    1    2    0    0 -0.17763568394E-14 -0.35527136788E-14 -0.35527136788E-14  0.91188000000E+02  0.91188000000E+02 0.  0.
    9900012    2    3    3    0    0 -0.99542695090E+01  0.18673126605E+02  0.30133139010E+02  0.54367092824E+02  0.40000019710E+02 0.  0.
        -12    1    3    3    0    0  0.99542695090E+01 -0.18673126605E+02 -0.30133139010E+02  0.36820907176E+02  0.00000000000E+00 0.  1.
         11    1    4    4    0    0 -0.96208744039E+01  0.12401613119E+02  0.63385040249E+01  0.16927429391E+02  0.51100000000E-03 0. -1.
        -11    1    4    4    0    0 -0.95108770622E+01  0.86841810404E+01  0.12020059137E+01  0.12935091856E+02  0.51100000000E-03 0.  1.
        -12    1    4    4    0    0  0.91774819571E+01 -0.24126675542E+01  0.22592629072E+02  0.24504571577E+02  0.00000000000E+00 0.  1.
</event>
<event>
 8    1  0.2509217E-006  0.9118800E+02  0.7816164E-02  0.1184000E+00
        -11   -1    0    0    0    0  0.00000000000E+00  0.00000000000E+00  0.45593999997E+02  0.45594000000E+02  0.51100000000E-03 0.  1.
         11   -1    0    0    0    0 -0.00000000000E+00 -0.00000000000E+00 -0.45593999997E+02  0.45594000000E+02  0.51100000000E-03 0. -1.
         23    2    1    2    0    0  0.00000000000E+00  0.35527136788E-14  0.00000000000E+00  0.91188000000E+02  0.91188000000E+02 0.  0.
    9900012    2    3    3    0    0 -0.17709380508E+02  0.22404258607E+02 -0.23242348864E+02  0.54367085529E+02  0.40000003082E+02 0.  0.
        -12    1    3    3    0    0  0.17709380508E+02 -0.22404258607E+02  0.23242348864E+02  0.36820914471E+02  0.00000000000E+00 0.  1.
         11    1    4    4    0    0 -0.12988847260E+02 -0.35489980985E+01 -0.13636743506E+02  0.19164193549E+02  0.51100000000E-03 0. -1.
        -11    1    4    4    0    0 -0.64036198236E+01  0.29246467515E+02 -0.72061470163E+01  0.30794330063E+02  0.51100000000E-03 0.  1.
         12    1    4    4    0    0  0.16830865758E+01 -0.32932108089E+01 -0.23994583417E+01  0.44085619182E+01  0.00000000000E+00 0. -1.
</event>
<event>
 8    1  0.2509217E-006  0.9118800E+02  0.7816164E-02  0.1184000E+00
        -11   -1    0    0    0    0  0.00000000000E+00  0.00000000000E+00  0.45593999997E+02  0.45594000000E+02  0.51100000000E-03 0.  1.
         11   -1    0    0    0    0 -0.00000000000E+00 -0.00000000000E+00 -0.45593999997E+02  0.45594000000E+02  0.51100000000E-03 0. -1.
         23    2    1    2    0    0  0.00000000000E+00  0.00000000000E+00  0.35527136788E-14  0.91188000000E+02  0.91188000000E+02 0.  0.
    9900012    2    3    3    0    0  0.19583269690E+02 -0.83532754761E+01 -0.30041602396E+02  0.54367088313E+02  0.40000009426E+02 0.  0.
        -12    1    3    3    0    0 -0.19583269690E+02  0.83532754761E+01  0.30041602396E+02  0.36820911687E+02  0.00000000000E+00 0.  1.
         11    1    4    4    0    0  0.10256490621E+02  0.49259328389E+01 -0.21592888035E+02  0.24407237209E+02  0.51100000000E-03 0. -1.
        -11    1    4    4    0    0  0.48630465117E+01 -0.16779313140E+02 -0.13722295278E+02  0.22214768934E+02  0.51100000000E-03 0.  1.
        -12    1    4    4    0    0  0.44637325574E+01  0.35001048254E+01  0.52735809167E+01  0.77450821699E+01  0.00000000000E+00 0.  1.
</event>
<event>
 8    1  0.2509217E-006  0.9118800E+02  0.7816164E-02  0.1184000E+00
        -11   -1    0    0    0    0  0.00000000000E+00  0.00000000000E+00  0.45593999997E+02  0.45594000000E+02  0.51100000000E-03 0. -1.
         11   -1    0    0    0    0 -0.00000000000E+00 -0.00000000000E+00 -0.45593999997E+02  0.45594000000E+02  0.51100000000E-03 0.  1.
         23    2    1    2    0    0 -0.88817841970E-15 -0.17763568394E-14 -0.71054273576E-14  0.91188000000E+02  0.91188000000E+02 0.  0.
    9900012    2    3    3    0    0  0.68876910000E+01 -0.10744433112E+02 -0.34538336870E+02  0.54367084151E+02  0.39999999939E+02 0.  0.
         12    1    3    3    0    0 -0.68876910000E+01  0.10744433112E+02  0.34538336870E+02  0.36820915849E+02  0.00000000000E+00 0. -1.
         11    1    4    4    0    0 -0.68607368460E+01  0.91369003999E+01 -0.14426557943E+02  0.18403212582E+02  0.51100000000E-03 0. -1.
        -11    1    4    4    0    0 -0.18252613837E+01 -0.38064477628E+01  0.18480434233E+01  0.46082413615E+01  0.51100000000E-03 0.  1.
        -12    1    4    4    0    0  0.15573689230E+02 -0.16074885749E+02 -0.21959822350E+02  0.31355630208E+02  0.00000000000E+00 0.  1.
</event>
<event>
 8    1  0.2509217E-006  0.9118800E+02  0.7816164E-02  0.1184000E+00
        -11   -1    0    0    0    0  0.00000000000E+00  0.00000000000E+00  0.45593999997E+02  0.45594000000E+02  0.51100000000E-03 0. -1.
         11   -1    0    0    0    0 -0.00000000000E+00 -0.00000000000E+00 -0.45593999997E+02  0.45594000000E+02  0.51100000000E-03 0.  1.
         23    2    1    2    0    0  0.00000000000E+00  0.00000000000E+00 -0.35527136788E-14  0.91188000000E+02  0.91188000000E+02 0.  0.
    9900012    2    3    3    0    0  0.27542896339E+02 -0.90918703912E+01  0.22682727078E+02  0.54367090809E+02  0.40000015117E+02 0.  0.
        -12    1    3    3    0    0 -0.27542896339E+02  0.90918703912E+01 -0.22682727078E+02  0.36820909191E+02  0.00000000000E+00 0.  1.
         11    1    4    4    0    0  0.75691874853E+01 -0.26972780614E+01  0.11938143660E+00  0.80363026522E+01  0.51100000000E-03 0. -1.
        -11    1    4    4    0    0  0.91960641824E+01 -0.10897194746E+01 -0.87820673398E+01  0.12762436758E+02  0.51100000000E-03 0.  1.
         12    1    4    4    0    0  0.10777644671E+02 -0.53048728552E+01  0.31345412981E+02  0.33568351399E+02  0.00000000000E+00 0. -1.
</event>
<event>
 8    1  0.2509217E-006  0.9118800E+02  0.7816164E-02  0.1184000E+00
        -11   -1    0    0    0    0  0.00000000000E+00  0.00000000000E+00  0.45593999997E+02  0.45594000000E+02  0.51100000000E-03 0.  1.
         11   -1    0    0    0    0 -0.00000000000E+00 -0.00000000000E+00 -0.45593999997E+02  0.45594000000E+02  0.51100000000E-03 0. -1.
         23    2    1    2    0    0  0.00000000000E+00  0.00000000000E+00  0.00000000000E+00  0.91188000000E+02  0.91188000000E+02 0.  0.
    9900012    2    3    3    0    0  0.89441887394E+01 -0.32137018438E+02  0.15588238565E+02  0.54367086814E+02  0.40000006010E+02 0.  0.
         12    1    3    3    0    0 -0.89441887394E+01  0.32137018438E+02 -0.15588238565E+02  0.36820913186E+02  0.00000000000E+00 0. -1.
         11    1    4    4    0    0 -0.85965856057E+01 -0.30764633674E+01  0.73892314699E+01  0.11745920692E+02  0.51100000000E-03 0. -1.
        -11    1    4    4    0    0  0.49434392903E+01 -0.27985939897E+02  0.18653491244E+01  0.28480343248E+02  0.51100000000E-03 0.  1.
        -12    1    4    4    0    0  0.12597335055E+02 -0.10746151738E+01  0.63336579709E+01  0.14140822874E+02  0.00000000000E+00 0.  1.
</event>
<event>
 8    1  0.2509217E-006  0.9118800E+02  0.7816164E-02  0.1184000E+00
        -11   -1    0    0    0    0  0.00000000000E+00  0.00000000000E+00  0.45593999997E+02  0.45594000000E+02  0.51100000000E-03 0. -1.
         11   -1    0    0    0    0 -0.00000000000E+00 -0.00000000000E+00 -0.45593999997E+02  0.45594000000E+02  0.51100000000E-03 0.  1.
         23    2    1    2    0    0 -0.35527136788E-14 -0.35527136788E-14  0.00000000000E+00  0.91188000000E+02  0.91188000000E+02 0.  0.
    9900012    2    3    3    0    0 -0.24667924352E+02 -0.26769155061E+02  0.55395442464E+01  0.54367072459E+02  0.39999973285E+02 0.  0.
        -12    1    3    3    0    0  0.24667924352E+02  0.26769155061E+02 -0.55395442464E+01  0.36820927541E+02  0.00000000000E+00 0.  1.
         11    1    4    4    0    0  0.39880840118E+01 -0.15993214197E+00  0.12367308973E+00  0.39932051875E+01  0.51100000000E-03 0. -1.
        -11    1    4    4    0    0 -0.20245341733E+02 -0.31138260749E+02 -0.35016158094E+01  0.37305850183E+02  0.51100000000E-03 0.  1.
         12    1    4    4    0    0 -0.84106666301E+01  0.45290378295E+01  0.89174869661E+01  0.13068017088E+02  0.00000000000E+00 0. -1.
</event>
<event>
 8    1  0.2509217E-006  0.9118800E+02  0.7816164E-02  0.1184000E+00
        -11   -1    0    0    0    0  0.00000000000E+00  0.00000000000E+00  0.45593999997E+02  0.45594000000E+02  0.51100000000E-03 0. -1.
         11   -1    0    0    0    0 -0.00000000000E+00 -0.00000000000E+00 -0.45593999997E+02  0.45594000000E+02  0.51100000000E-03 0.  1.
         23    2    1    2    0    0  0.00000000000E+00  0.35527136788E-14 -0.35527136788E-14  0.91188000000E+02  0.91188000000E+02 0.  0.
    9900012    2    3    3    0    0 -0.45011546005E+01 -0.29859965080E+02  0.21069016104E+02  0.54367063742E+02  0.39999953412E+02 0.  0.
        -12    1    3    3    0    0  0.45011546005E+01  0.29859965080E+02 -0.21069016104E+02  0.36820936258E+02  0.00000000000E+00 0.  1.
         11    1    4    4    0    0 -0.67691403765E+01 -0.16877556797E+02  0.64142054253E+01  0.19282510635E+02  0.51100000000E-03 0. -1.
        -11    1    4    4    0    0 -0.19933372443E+01 -0.12272522815E+02 -0.61251960661E+01  0.13860239418E+02  0.51100000000E-03 0.  1.
         12    1    4    4    0    0  0.42613230203E+01 -0.70988546786E+00  0.20780006744E+02  0.21224313689E+02  0.00000000000E+00 0. -1.
</event>
<event>
 8    1  0.2509217E-006  0.9118800E+02  0.7816164E-02  0.1184000E+00
        -11   -1    0    0    0    0  0.00000000000E+00  0.00000000000E+00  0.45593999997E+02  0.45594000000E+02  0.51100000000E-03 0.  1.
         11   -1    0    0    0    0 -0.00000000000E+00 -0.00000000000E+00 -0.45593999997E+02  0.45594000000E+02  0.51100000000E-03 0. -1.
         23    2    1    2    0    0  0.35527136788E-14 -0.17763568394E-14  0.35527136788E-14  0.91188000000E+02  0.91188000000E+02 0.  0.
    9900012    2    3    3    0    0 -0.28829839685E+02  0.15986174476E+02  0.16403109317E+02  0.54367089828E+02  0.40000012881E+02 0.  0.
        -12    1    3    3    0    0  0.28829839685E+02 -0.15986174476E+02 -0.16403109317E+02  0.36820910172E+02  0.00000000000E+00 0.  1.
         11    1    4    4    0    0 -0.25034581345E+02  0.39169927995E+01  0.18754865848E+02  0.31524880475E+02  0.51100000000E-03 0. -1.
        -11    1    4    4    0    0  0.32137282601E+01  0.12702582747E+01 -0.80522947984E+01  0.87624800825E+01  0.51100000000E-03 0.  1.
        -12    1    4    4    0    0 -0.70089866005E+01  0.10798923402E+02  0.57005382671E+01  0.14079729271E+02  0.00000000000E+00 0.  1.
</event>
<event>
 8    1  0.2509217E-006  0.9118800E+02  0.7816164E-02  0.1184000E+00
        -11   -1    0    0    0    0  0.00000000000E+00  0.00000000000E+00  0.45593999997E+02  0.45594000000E+02  0.51100000000E-03 0.  1.
         11   -1    0    0    0    0 -0.00000000000E+00 -0.00000000000E+00 -0.45593999997E+02  0.45594000000E+02  0.51100000000E-03 0. -1.
         23    2    1    2    0    0  0.00000000000E+00  0.35527136788E-14  0.00000000000E+00  0.91188000000E+02  0.91188000000E+02 0.  0.
    9900012    2    3    3    0    0  0.24626464796E+02  0.25978204285E+02 -0.86285096561E+01  0.54367067841E+02  0.39999962757E+02 0.  0.
        -12    1    3    3    0    0 -0.24626464796E+02 -0.25978204285E+02  0.86285096561E+01  0.36820932159E+02  0.00000000000E+00 0.  1.
         11    1    4    4    0    0  0.20754937104E+02  0.80635535276E+01 -0.99717148625E+00  0.22288621781E+02  0.51100000000E-03 0. -1.
        -11    1    4    4    0    0 -0.73007274226E+01 -0.25415995010E+01 -0.70387915590E+00  0.77624606311E+01  0.51100000000E-03 0.  1.
         12    1    4    4    0    0  0.11172255114E+02  0.20456250258E+02 -0.69274590140E+01  0.24315985428E+02  0.00000000000E+00 0. -1.
</event>
<event>
 8    1  0.2509217E-006  0.9118800E+02  0.7816164E-02  0.1184000E+00
        -11   -1    0    0    0    0  0.00000000000E+00  0.00000000000E+00  0.45593999997E+02  0.45594000000E+02  0.51100000000E-03 0.  1.
         11   -1    0    0    0    0 -0.00000000000E+00 -0.00000000000E+00 -0.45593999997E+02  0.45594000000E+02  0.51100000000E-03 0. -1.
         23    2    1    2    0    0  0.00000000000E+00  0.00000000000E+00  0.00000000000E+00  0.91188000000E+02  0.91188000000E+02 0.  0.
    9900012    2    3    3    0    0 -0.28462288661E+02 -0.91222803002E+00 -0.23341933370E+02  0.54367083536E+02  0.39999998538E+02 0.  0.
        -12    1    3    3    0    0  0.28462288661E+02  0.91222803002E+00  0.23341933370E+02  0.36820916464E+02  0.00000000000E+00 0.  1.
         11    1    4    4    0    0 -0.29901910007E+02  0.29890799758E+00 -0.11652304663E+02  0.32093453730E+02  0.51100000000E-03 0. -1.
        -11    1    4    4    0    0  0.13864661350E+01 -0.97619200482E+01 -0.35829093107E+01  0.10490691625E+02  0.51100000000E-03 0.  1.
         12    1    4    4    0    0  0.53155211419E-01  0.85507840206E+01 -0.81067193958E+01  0.11782938182E+02  0.00000000000E+00 0. -1.
</event>
<event>
 8    1  0.2509217E-006  0.9118800E+02  0.7816164E-02  0.1184000E+00
        -11   -1    0    0    0    0  0.00000000000E+00  0.00000000000E+00  0.45593999997E+02  0.45594000000E+02  0.51100000000E-03 0.  1.
         11   -1    0    0    0    0 -0.00000000000E+00 -0.00000000000E+00 -0.45593999997E+02  0.45594000000E+02  0.51100000000E-03 0. -1.
         23    2    1    2    0    0  0.71054273576E-14  0.00000000000E+00  0.22204460493E-15  0.91188000000E+02  0.91188000000E+02 0.  0.
    9900012    2    3    3    0    0  0.34229312798E+02 -0.13464640270E+02 -0.16845085339E+01  0.54367082558E+02  0.39999996308E+02 0.  0.
         12    1    3    3    0    0 -0.34229312798E+02  0.13464640270E+02  0.16845085339E+01  0.36820917442E+02  0.00000000000E+00 0. -1.
         11    1    4    4    0    0 -0.15691162077E+00 -0.15729471825E+02  0.34401330747E+01  0.16102031580E+02  0.51100000000E-03 0. -1.
        -11    1    4    4    0    0  0.13089332457E+02  0.84377055262E+01 -0.31735271902E+00  0.15576463389E+02  0.51100000000E-03 0.  1.
        -12    1    4    4    0    0  0.21296891963E+02 -0.61728739709E+01 -0.48072888896E+01  0.22688587589E+02  0.00000000000E+00 0.  1.
</event>
<event>
 8    1  0.2509217E-006  0.9118800E+02  0.7816164E-02  0.1184000E+00
        -11   -1    0    0    0    0  0.00000000000E+00  0.00000000000E+00  0.45593999997E+02  0.45594000000E+02  0.51100000000E-03 0. -1.
         11   -1    0    0    0    0 -0.00000000000E+00 -0.00000000000E+00 -0.45593999997E+02  0.45594000000E+02  0.51100000000E-03 0.  1.
         23    2    1    2    0    0 -0.17763568394E-14  0.00000000000E+00 -0.71054273576E-14  0.91188000000E+02  0.91188000000E+02 0.  0.
    9900012    2    3    3    0    0  0.14509319504E+02  0.94557094613E+01  0.32493820723E+02  0.54367093180E+02  0.40000020521E+02 0.  0.
        -12    1    3    3    0    0 -0.14509319504E+02 -0.94557094613E+01 -0.32493820723E+02  0.36820906820E+02  0.00000000000E+00 0.  1.
         11    1    4    4    0    0 -0.28269896996E+01  0.99147466433E+00  0.17061374590E+02  0.17322395791E+02  0.51100000000E-03 0.  1.
        -11    1    4    4    0    0  0.21606927487E+02  0.13931338688E+02  0.81096057456E+01  0.26957507650E+02  0.51100000000E-03 0. -1.
         12    1    4    4    0    0 -0.42706182834E+01 -0.54671038914E+01  0.73228403875E+01  0.10087189739E+02  0.00000000000E+00 0. -1.
</event>
<event>
 8    1  0.2509217E-006  0.9118800E+02  0.7816164E-02  0.1184000E+00
        -11   -1    0    0    0    0  0.00000000000E+00  0.00000000000E+00  0.45593999997E+02  0.45594000000E+02  0.51100000000E-03 0.  1.
         11   -1    0    0    0    0 -0.00000000000E+00 -0.00000000000E+00 -0.45593999997E+02  0.45594000000E+02  0.51100000000E-03 0. -1.
         23    2    1    2    0    0  0.88817841970E-15  0.00000000000E+00  0.35527136788E-14  0.91188000000E+02  0.91188000000E+02 0.  0.
    9900012    2    3    3    0    0  0.79958667224E+01  0.19790256783E+02 -0.30003262125E+02  0.54367029259E+02  0.39999874801E+02 0.  0.
        -12    1    3    3    0    0 -0.79958667224E+01 -0.19790256783E+02  0.30003262125E+02  0.36820970741E+02  0.00000000000E+00 0.  1.
         11    1    4    4    0    0 -0.57382534334E+01  0.44608422978E+01  0.27865875468E+01  0.77840694298E+01  0.51100000000E-03 0.  1.
        -11    1    4    4    0    0  0.32062604763E+01  0.25546526654E+01 -0.29401435071E+02  0.29685867698E+02  0.51100000000E-03 0. -1.
         12    1    4    4    0    0  0.10527859680E+02  0.12774761819E+02 -0.33884146014E+01  0.16897092131E+02  0.00000000000E+00 0. -1.
</event>
<event>
 8    1  0.2509217E-006  0.9118800E+02  0.7816164E-02  0.1184000E+00
        -11   -1    0    0    0    0  0.00000000000E+00  0.00000000000E+00  0.45593999997E+02  0.45594000000E+02  0.51100000000E-03 0. -1.
         11   -1    0    0    0    0 -0.00000000000E+00 -0.00000000000E+00 -0.45593999997E+02  0.45594000000E+02  0.51100000000E-03 0.  1.
         23    2    1    2    0    0  0.71054273576E-14  0.17763568394E-14 -0.88817841970E-15  0.91188000000E+02  0.91188000000E+02 0.  0.
    9900012    2    3    3    0    0  0.35814012452E+02  0.72998177031E+01 -0.44552239724E+01  0.54367084109E+02  0.39999999843E+02 0.  0.
        -12    1    3    3    0    0 -0.35814012452E+02 -0.72998177031E+01  0.44552239724E+01  0.36820915891E+02  0.00000000000E+00 0.  1.
         11    1    4    4    0    0  0.58450635553E+01  0.15703704131E+02 -0.96333120939E+01  0.19328005421E+02  0.51100000000E-03 0. -1.
        -11    1    4    4    0    0  0.14529680067E+02  0.36283581780E+01  0.35932535946E+01  0.15400910934E+02  0.51100000000E-03 0.  1.
        -12    1    4    4    0    0  0.15439268830E+02 -0.12032244606E+02  0.15848345269E+01  0.19638167754E+02  0.00000000000E+00 0.  1.
</event>
<event>
 8    1  0.2509217E-006  0.9118800E+02  0.7816164E-02  0.1184000E+00
        -11   -1    0    0    0    0  0.00000000000E+00  0.00000000000E+00  0.45593999997E+02  0.45594000000E+02  0.51100000000E-03 0. -1.
         11   -1    0    0    0    0 -0.00000000000E+00 -0.00000000000E+00 -0.45593999997E+02  0.45594000000E+02  0.51100000000E-03 0.  1.
         23    2    1    2    0    0  0.00000000000E+00 -0.17763568394E-14  0.00000000000E+00  0.91188000000E+02  0.91188000000E+02 0.  0.
    9900012    2    3    3    0    0  0.27251827530E+02  0.12436361206E+02 -0.21411633352E+02  0.54367038218E+02  0.39999895225E+02 0.  0.
         12    1    3    3    0    0 -0.27251827530E+02 -0.12436361206E+02  0.21411633352E+02  0.36820961782E+02  0.00000000000E+00 0. -1.
         11    1    4    4    0    0  0.25193187977E+02  0.15933972086E+02 -0.15823001856E+02  0.33748415887E+02  0.51100000000E-03 0. -1.
        -11    1    4    4    0    0  0.96703368750E+01 -0.13959987718E+01 -0.77053553054E+01  0.12443340729E+02  0.51100000000E-03 0.  1.
         12    1    4    4    0    0 -0.76116973226E+01 -0.21016121089E+01  0.21167238085E+01  0.81752816018E+01  0.00000000000E+00 0. -1.
</event>
<event>
 8    1  0.2509217E-006  0.9118800E+02  0.7816164E-02  0.1184000E+00
        -11   -1    0    0    0    0  0.00000000000E+00  0.00000000000E+00  0.45593999997E+02  0.45594000000E+02  0.51100000000E-03 0.  1.
         11   -1    0    0    0    0 -0.00000000000E+00 -0.00000000000E+00 -0.45593999997E+02  0.45594000000E+02  0.51100000000E-03 0. -1.
         23    2    1    2    0    0  0.00000000000E+00  0.00000000000E+00  0.71054273576E-14  0.91188000000E+02  0.91188000000E+02 0.  0.
    9900012    2    3    3    0    0  0.54205131496E+01  0.82491982466E+01  0.35473185620E+02  0.54367107391E+02  0.40000052919E+02 0.  0.
         12    1    3    3    0    0 -0.54205131496E+01 -0.82491982466E+01 -0.35473185620E+02  0.36820892609E+02  0.00000000000E+00 0. -1.
         11    1    4    4    0    0  0.16727745188E+01  0.16524262569E+01 -0.12647786963E+01  0.26698974768E+01  0.51100000000E-03 0. -1.
        -11    1    4    4    0    0 -0.54820210802E+01 -0.13054221981E+02  0.18797658071E+02  0.23533321395E+02  0.51100000000E-03 0.  1.
        -12    1    4    4    0    0  0.92297597110E+01  0.19650993971E+02  0.17940306245E+02  0.28163888519E+02  0.00000000000E+00 0.  1.
</event>
<event>
 8    1  0.2509217E-006  0.9118800E+02  0.7816164E-02  0.1184000E+00
        -11   -1    0    0    0    0  0.00000000000E+00  0.00000000000E+00  0.45593999997E+02  0.45594000000E+02  0.51100000000E-03 0. -1.
         11   -1    0    0    0    0 -0.00000000000E+00 -0.00000000000E+00 -0.45593999997E+02  0.45594000000E+02  0.51100000000E-03 0.  1.
         23    2    1    2    0    0  0.35527136788E-14  0.00000000000E+00  0.00000000000E+00  0.91188000000E+02  0.91188000000E+02 0.  0.
    9900012    2    3    3    0    0  0.29207480831E+02  0.19045343680E+02 -0.11831274909E+02  0.54367066846E+02  0.39999960488E+02 0.  0.
         12    1    3    3    0    0 -0.29207480831E+02 -0.19045343680E+02  0.11831274909E+02  0.36820933154E+02  0.00000000000E+00 0. -1.
         11    1    4    4    0    0  0.82167361180E+01 -0.47760534329E+01 -0.17988938869E+02  0.20345204858E+02  0.51100000000E-03 0. -1.
        -11    1    4    4    0    0  0.73300837794E+01  0.13560738928E+02  0.69701050666E+01  0.16917627889E+02  0.51100000000E-03 0.  1.
        -12    1    4    4    0    0  0.13660660933E+02  0.10260658185E+02 -0.81244110646E+00  0.17104234098E+02  0.00000000000E+00 0.  1.
</event>
<event>
 8    1  0.2509217E-006  0.9118800E+02  0.7816164E-02  0.1184000E+00
        -11   -1    0    0    0    0  0.00000000000E+00  0.00000000000E+00  0.45593999997E+02  0.45594000000E+02  0.51100000000E-03 0.  1.
         11   -1    0    0    0    0 -0.00000000000E+00 -0.00000000000E+00 -0.45593999997E+02  0.45594000000E+02  0.51100000000E-03 0. -1.
         23    2    1    2    0    0  0.00000000000E+00  0.17763568394E-14  0.17763568394E-14  0.91188000000E+02  0.91188000000E+02 0.  0.
    9900012    2    3    3    0    0 -0.34465053556E+02 -0.43992440110E+01 -0.12189644314E+02  0.54367072622E+02  0.39999973657E+02 0.  0.
        -12    1    3    3    0    0  0.34465053556E+02  0.43992440110E+01  0.12189644314E+02  0.36820927378E+02  0.00000000000E+00 0.  1.
         11    1    4    4    0    0 -0.21151228807E+01  0.55851903375E+01 -0.11330370297E+02  0.12808020426E+02  0.51100000000E-03 0. -1.
        -11    1    4    4    0    0 -0.57992885813E+01 -0.11844995349E+02 -0.59371419838E+01  0.14463240234E+02  0.51100000000E-03 0.  1.
        -12    1    4    4    0    0 -0.26550642094E+02  0.18605610007E+01  0.50778679667E+01  0.27095811962E+02  0.00000000000E+00 0.  1.
</event>
<event>
 8    1  0.2509217E-006  0.9118800E+02  0.7816164E-02  0.1184000E+00
        -11   -1    0    0    0    0  0.00000000000E+00  0.00000000000E+00  0.45593999997E+02  0.45594000000E+02  0.51100000000E-03 0. -1.
         11   -1    0    0    0    0 -0.00000000000E+00 -0.00000000000E+00 -0.45593999997E+02  0.45594000000E+02  0.51100000000E-03 0.  1.
         23    2    1    2    0    0  0.00000000000E+00  0.00000000000E+00  0.44408920985E-15  0.91188000000E+02  0.91188000000E+02 0.  0.
    9900012    2    3    3    0    0 -0.11554630285E+02  0.34877200691E+02  0.24228776493E+01  0.54366824772E+02  0.39999408628E+02 0.  0.
         12    1    3    3    0    0  0.11554630285E+02 -0.34877200691E+02 -0.24228776493E+01  0.36821175228E+02  0.00000000000E+00 0. -1.
         11    1    4    4    0    0 -0.19563534876E+02  0.14955327899E+02 -0.38324503277E-01  0.24625092862E+02  0.51100000000E-03 0. -1.
        -11    1    4    4    0    0  0.35056346820E+01  0.12199233774E+02 -0.87396082876E+01  0.15410760282E+02  0.51100000000E-03 0.  1.
         12    1    4    4    0    0  0.45032699092E+01  0.77226390180E+01  0.11200810440E+02  0.14330971628E+02  0.00000000000E+00 0. -1.
</event>
<event>
 8    1  0.2509217E-006  0.9118800E+02  0.7816164E-02  0.1184000E+00
        -11   -1    0    0    0    0  0.00000000000E+00  0.00000000000E+00  0.45593999997E+02  0.45594000000E+02  0.51100000000E-03 0.  1.
         11   -1    0    0    0    0 -0.00000000000E+00 -0.00000000000E+00 -0.45593999997E+02  0.45594000000E+02  0.51100000000E-03 0. -1.
         23    2    1    2    0    0  0.00000000000E+00  0.00000000000E+00  0.00000000000E+00  0.91188000000E+02  0.91188000000E+02 0.  0.
    9900012    2    3    3    0    0 -0.36527857840E+02  0.42767370662E+01 -0.17901861570E+01  0.54367086856E+02  0.40000006105E+02 0.  0.
        -12    1    3    3    0    0  0.36527857840E+02 -0.42767370662E+01  0.17901861570E+01  0.36820913144E+02  0.00000000000E+00 0.  1.
         11    1    4    4    0    0  0.15568111195E+01 -0.36980147826E+00 -0.72007153736E+01  0.73763619860E+01  0.51100000000E-03 0. -1.
        -11    1    4    4    0    0 -0.34222484067E+02  0.12102859167E+02 -0.11759081248E+01  0.36318595456E+02  0.51100000000E-03 0.  1.
        -12    1    4    4    0    0 -0.38621848925E+01 -0.74563206226E+01  0.65864373414E+01  0.10672129414E+02  0.00000000000E+00 0.  1.
</event>
<event>
 8    1  0.2509217E-006  0.9118800E+02  0.7816164E-02  0.1184000E+00
        -11   -1    0    0    0    0  0.00000000000E+00  0.00000000000E+00  0.45593999997E+02  0.45594000000E+02  0.51100000000E-03 0. -1.
         11   -1    0    0    0    0 -0.00000000000E+00 -0.00000000000E+00 -0.45593999997E+02  0.45594000000E+02  0.51100000000E-03 0.  1.
         23    2    1    2    0    0  0.00000000000E+00 -0.17763568394E-14  0.00000000000E+00  0.91188000000E+02  0.91188000000E+02 0.  0.
    9900012    2    3    3    0    0  0.29309236669E+02  0.10003560829E+02 -0.19916757329E+02  0.54367084668E+02  0.40000001117E+02 0.  0.
         12    1    3    3    0    0 -0.29309236669E+02 -0.10003560829E+02  0.19916757329E+02  0.36820915332E+02  0.00000000000E+00 0. -1.
         11    1    4    4    0    0  0.87173369444E+01 -0.28665679892E+00  0.63966544960E+00  0.87454735533E+01  0.51100000000E-03 0. -1.
        -11    1    4    4    0    0  0.19633419289E+02 -0.79495524930E+01 -0.53291850029E+01  0.21841857771E+02  0.51100000000E-03 0.  1.
         12    1    4    4    0    0  0.95848043563E+00  0.18239770121E+02 -0.15227237776E+02  0.23779753344E+02  0.00000000000E+00 0. -1.
</event>
<event>
 8    1  0.2509217E-006  0.9118800E+02  0.7816164E-02  0.1184000E+00
        -11   -1    0    0    0    0  0.00000000000E+00  0.00000000000E+00  0.45593999997E+02  0.45594000000E+02  0.51100000000E-03 0. -1.
         11   -1    0    0    0    0 -0.00000000000E+00 -0.00000000000E+00 -0.45593999997E+02  0.45594000000E+02  0.51100000000E-03 0.  1.
         23    2    1    2    0    0  0.00000000000E+00 -0.17763568394E-14  0.17763568394E-14  0.91188000000E+02  0.91188000000E+02 0.  0.
    9900012    2    3    3    0    0  0.33086348237E+02 -0.83789107737E+01  0.13815466562E+02  0.54367086082E+02  0.40000004341E+02 0.  0.
        -12    1    3    3    0    0 -0.33086348237E+02  0.83789107737E+01 -0.13815466562E+02  0.36820913918E+02  0.00000000000E+00 0.  1.
         11    1    4    4    0    0  0.94212918668E+00 -0.55673289637E+01  0.45234728653E+01  0.72349544725E+01  0.51100000000E-03 0. -1.
        -11    1    4    4    0    0  0.13406416263E+02  0.12136380983E+02 -0.55781131699E+01  0.18924563064E+02  0.51100000000E-03 0.  1.
        -12    1    4    4    0    0  0.18737802788E+02 -0.14947962793E+02  0.14870106867E+02  0.28207568545E+02  0.00000000000E+00 0.  1.
</event>
<event>
 8    1  0.2509217E-006  0.9118800E+02  0.7816164E-02  0.1184000E+00
        -11   -1    0    0    0    0  0.00000000000E+00  0.00000000000E+00  0.45593999997E+02  0.45594000000E+02  0.51100000000E-03 0.  1.
         11   -1    0    0    0    0 -0.00000000000E+00 -0.00000000000E+00 -0.45593999997E+02  0.45594000000E+02  0.51100000000E-03 0. -1.
         23    2    1    2    0    0 -0.35527136788E-14 -0.55511151231E-15  0.35527136788E-14  0.91188000000E+02  0.91188000000E+02 0.  0.
    9900012    2    3    3    0    0  0.29787609369E+02 -0.35561827823E+00  0.21641460182E+02  0.54367069334E+02  0.39999966161E+02 0.  0.
         12    1    3    3    0    0 -0.29787609369E+02  0.35561827823E+00 -0.21641460182E+02  0.36820930666E+02  0.00000000000E+00 0. -1.
         11    1    4    4    0    0  0.15331133088E+02 -0.37753828404E+01  0.26582785617E+02  0.30918306047E+02  0.51100000000E-03 0. -1.
        -11    1    4    4    0    0  0.27570165980E+01  0.87421813701E+01  0.11259031393E+01  0.92355039803E+01  0.51100000000E-03 0.  1.
         12    1    4    4    0    0  0.11699459683E+02 -0.53224168079E+01 -0.60672285750E+01  0.14213259308E+02  0.00000000000E+00 0. -1.
</event>
<event>
 8    1  0.2509217E-006  0.9118800E+02  0.7816164E-02  0.1184000E+00
        -11   -1    0    0    0    0  0.00000000000E+00  0.00000000000E+00  0.45593999997E+02  0.45594000000E+02  0.51100000000E-03 0.  1.
         11   -1    0    0    0    0 -0.00000000000E+00 -0.00000000000E+00 -0.45593999997E+02  0.45594000000E+02  0.51100000000E-03 0. -1.
         23    2    1    2    0    0  0.00000000000E+00 -0.35527136788E-14  0.11102230246E-15  0.91188000000E+02  0.91188000000E+02 0.  0.
    9900012    2    3    3    0    0  0.32986579417E+02  0.16347485033E+02  0.65264093215E+00  0.54367073495E+02  0.39999975646E+02 0.  0.
         12    1    3    3    0    0 -0.32986579417E+02 -0.16347485033E+02 -0.65264093215E+00  0.36820926505E+02  0.00000000000E+00 0. -1.
         11    1    4    4    0    0  0.24782255081E+01  0.79518139335E+01  0.34913255528E+01  0.90311849100E+01  0.51100000000E-03 0. -1.
        -11    1    4    4    0    0  0.37676001417E+01 -0.10356498543E+02  0.44278027589E+01  0.11876755046E+02  0.51100000000E-03 0.  1.
        -12    1    4    4    0    0  0.26740753767E+02  0.18752169642E+02 -0.72664873795E+01  0.33459133538E+02  0.00000000000E+00 0.  1.
</event>
<event>
 8    1  0.2509217E-006  0.9118800E+02  0.7816164E-02  0.1184000E+00
        -11   -1    0    0    0    0  0.00000000000E+00  0.00000000000E+00  0.45593999997E+02  0.45594000000E+02  0.51100000000E-03 0. -1.
         11   -1    0    0    0    0 -0.00000000000E+00 -0.00000000000E+00 -0.45593999997E+02  0.45594000000E+02  0.51100000000E-03 0.  1.
         23    2    1    2    0    0  0.00000000000E+00 -0.17763568394E-14  0.00000000000E+00  0.91188000000E+02  0.91188000000E+02 0.  0.
    9900012    2    3    3    0    0  0.43948068382E+01  0.10324367124E+02  0.35069582664E+02  0.54367047923E+02  0.39999917350E+02 0.  0.
        -12    1    3    3    0    0 -0.43948068382E+01 -0.10324367124E+02 -0.35069582664E+02  0.36820952077E+02  0.00000000000E+00 0.  1.
         11    1    4    4    0    0 -0.57037022945E+01  0.13445057002E+02  0.13498170290E+02  0.19887241616E+02  0.51100000000E-03 0. -1.
        -11    1    4    4    0    0 -0.81262136148E+01  0.47968720068E+00  0.84703792904E+01  0.11747883771E+02  0.51100000000E-03 0.  1.
        -12    1    4    4    0    0  0.18224722747E+02 -0.36003770784E+01  0.13101033083E+02  0.22731922536E+02  0.00000000000E+00 0.  1.
</event>
<event>
 8    1  0.2509217E-006  0.9118800E+02  0.7816164E-02  0.1184000E+00
        -11   -1    0    0    0    0  0.00000000000E+00  0.00000000000E+00  0.45593999997E+02  0.45594000000E+02  0.51100000000E-03 0.  1.
         11   -1    0    0    0    0 -0.00000000000E+00 -0.00000000000E+00 -0.45593999997E+02  0.45594000000E+02  0.51100000000E-03 0. -1.
         23    2    1    2    0    0  0.00000000000E+00  0.17763568394E-14 -0.35527136788E-14  0.91188000000E+02  0.91188000000E+02 0.  0.
    9900012    2    3    3    0    0  0.23210336507E+02  0.10526655023E+02 -0.26575372812E+02  0.54367073520E+02  0.39999975703E+02 0.  0.
         12    1    3    3    0    0 -0.23210336507E+02 -0.10526655023E+02  0.26575372812E+02  0.36820926480E+02  0.00000000000E+00 0. -1.
         11    1    4    4    0    0  0.45288756642E+01  0.18362256042E+01  0.75729999885E+01  0.90129222974E+01  0.51100000000E-03 0.  1.
        -11    1    4    4    0    0  0.15192488428E+02 -0.44246070514E+01 -0.22267270568E+02  0.27317031153E+02  0.51100000000E-03 0. -1.
         12    1    4    4    0    0  0.34889724146E+01  0.13115036470E+02 -0.11881102232E+02  0.18037120069E+02  0.00000000000E+00 0. -1.
</event>
<event>
 8    1  0.2509217E-006  0.9118800E+02  0.7816164E-02  0.1184000E+00
        -11   -1    0    0    0    0  0.00000000000E+00  0.00000000000E+00  0.45593999997E+02  0.45594000000E+02  0.51100000000E-03 0.  1.
         11   -1    0    0    0    0 -0.00000000000E+00 -0.00000000000E+00 -0.45593999997E+02  0.45594000000E+02  0.51100000000E-03 0. -1.
         23    2    1    2    0    0 -0.35527136788E-14  0.00000000000E+00  0.00000000000E+00  0.91188000000E+02  0.91188000000E+02 0.  0.
    9900012    2    3    3    0    0 -0.23128949181E+02 -0.17184994756E+02 -0.22923957486E+02  0.54367079835E+02  0.39999990099E+02 0.  0.
        -12    1    3    3    0    0  0.23128949181E+02  0.17184994756E+02  0.22923957486E+02  0.36820920165E+02  0.00000000000E+00 0.  1.
         11    1    4    4    0    0 -0.50431288176E+01  0.45492072849E+01 -0.14248010976E+02  0.15783987209E+02  0.51100000000E-03 0. -1.
        -11    1    4    4    0    0  0.52206397428E+01 -0.85705985066E+01  0.10804995349E+01  0.10093449242E+02  0.51100000000E-03 0.  1.
         12    1    4    4    0    0 -0.23306460107E+02 -0.13163603534E+02 -0.97564460458E+01  0.28489643384E+02  0.00000000000E+00 0. -1.
</event>
<event>
 8    1  0.2509217E-006  0.9118800E+02  0.7816164E-02  0.1184000E+00
        -11   -1    0    0    0    0  0.00000000000E+00  0.00000000000E+00  0.45593999997E+02  0.45594000000E+02  0.51100000000E-03 0. -1.
         11   -1    0    0    0    0 -0.00000000000E+00 -0.00000000000E+00 -0.45593999997E+02  0.45594000000E+02  0.51100000000E-03 0.  1.
         23    2    1    2    0    0  0.88817841970E-15  0.88817841970E-15  0.00000000000E+00  0.91188000000E+02  0.91188000000E+02 0.  0.
    9900012    2    3    3    0    0  0.24917984171E+01 -0.74837583962E+01  0.35966153762E+02  0.54367083180E+02  0.39999997725E+02 0.  0.
        -12    1    3    3    0    0 -0.24917984171E+01  0.74837583962E+01 -0.35966153762E+02  0.36820916820E+02  0.00000000000E+00 0.  1.
         11    1    4    4    0    0  0.24736167510E+01 -0.61244156501E+01  0.10564323718E+02  0.12459220793E+02  0.51100000000E-03 0. -1.
        -11    1    4    4    0    0 -0.13041571572E+02 -0.11006716764E+02  0.12131218171E+02  0.20937928683E+02  0.51100000000E-03 0.  1.
        -12    1    4    4    0    0  0.13059753238E+02  0.96473740174E+01  0.13270611873E+02  0.20969933704E+02  0.00000000000E+00 0.  1.
</event>
<event>
 8    1  0.2509217E-006  0.9118800E+02  0.7816164E-02  0.1184000E+00
        -11   -1    0    0    0    0  0.00000000000E+00  0.00000000000E+00  0.45593999997E+02  0.45594000000E+02  0.51100000000E-03 0.  1.
         11   -1    0    0    0    0 -0.00000000000E+00 -0.00000000000E+00 -0.45593999997E+02  0.45594000000E+02  0.51100000000E-03 0. -1.
         23    2    1    2    0    0  0.00000000000E+00  0.88817841970E-15  0.00000000000E+00  0.91188000000E+02  0.91188000000E+02 0.  0.
    9900012    2    3    3    0    0  0.35258490287E+02  0.72548096271E+01 -0.77450363016E+01  0.54367095783E+02  0.40000026455E+02 0.  0.
        -12    1    3    3    0    0 -0.35258490287E+02 -0.72548096271E+01  0.77450363016E+01  0.36820904217E+02  0.00000000000E+00 0.  1.
         11    1    4    4    0    0  0.82938054816E-01  0.18406967075E+01 -0.70299161922E+01  0.72673767633E+01  0.51100000000E-03 0. -1.
        -11    1    4    4    0    0 -0.31587560442E+01 -0.58084419116E+01 -0.26177889885E+01  0.71111571939E+01  0.51100000000E-03 0.  1.
         12    1    4    4    0    0  0.38334308277E+02  0.11222554831E+02  0.19026688790E+01  0.39988561825E+02  0.00000000000E+00 0. -1.
</event>
<event>
 8    1  0.2509217E-006  0.9118800E+02  0.7816164E-02  0.1184000E+00
        -11   -1    0    0    0    0  0.00000000000E+00  0.00000000000E+00  0.45593999997E+02  0.45594000000E+02  0.51100000000E-03 0. -1.
         11   -1    0    0    0    0 -0.00000000000E+00 -0.00000000000E+00 -0.45593999997E+02  0.45594000000E+02  0.51100000000E-03 0.  1.
         23    2    1    2    0    0  0.00000000000E+00  0.35527136788E-14 -0.35527136788E-14  0.91188000000E+02  0.91188000000E+02 0.  0.
    9900012    2    3    3    0    0 -0.31292599077E+01 -0.25951484973E+02  0.25932766457E+02  0.54367079099E+02  0.39999988422E+02 0.  0.
        -12    1    3    3    0    0  0.31292599077E+01  0.25951484973E+02 -0.25932766457E+02  0.36820920901E+02  0.00000000000E+00 0.  1.
         11    1    4    4    0    0 -0.95977757579E+01 -0.72614701520E+01  0.73133492700E+01  0.14083015518E+02  0.51100000000E-03 0.  1.
        -11    1    4    4    0    0  0.80003316568E+01  0.63779696320E+01  0.81237160599E+01  0.13064400718E+02  0.51100000000E-03 0. -1.
         12    1    4    4    0    0 -0.15318158066E+01 -0.25067984454E+02  0.10495701127E+02  0.27219662863E+02  0.00000000000E+00 0. -1.
</event>
<event>
 8    1  0.2509217E-006  0.9118800E+02  0.7816164E-02  0.1184000E+00
        -11   -1    0    0    0    0  0.00000000000E+00  0.00000000000E+00  0.45593999997E+02  0.45594000000E+02  0.51100000000E-03 0. -1.
         11   -1    0    0    0    0 -0.00000000000E+00 -0.00000000000E+00 -0.45593999997E+02  0.45594000000E+02  0.51100000000E-03 0.  1.
         23    2    1    2    0    0  0.44408920985E-15  0.00000000000E+00  0.00000000000E+00  0.91188000000E+02  0.91188000000E+02 0.  0.
    9900012    2    3    3    0    0  0.38747909774E+01  0.35043276755E+02  0.10617611768E+02  0.54367096555E+02  0.40000028216E+02 0.  0.
         12    1    3    3    0    0 -0.38747909774E+01 -0.35043276755E+02 -0.10617611768E+02  0.36820903445E+02  0.00000000000E+00 0. -1.
         11    1    4    4    0    0 -0.97548407697E+01  0.99573136112E+01  0.12160206254E+02  0.18497989869E+02  0.51100000000E-03 0. -1.
        -11    1    4    4    0    0  0.13078557749E+02  0.28741178119E+02 -0.33504051285E+01  0.31754199836E+02  0.51100000000E-03 0.  1.
         12    1    4    4    0    0  0.55107399861E+00 -0.36552149748E+01  0.18078106422E+01  0.41149068497E+01  0.00000000000E+00 0. -1.
</event>
<event>
 8    1  0.2509217E-006  0.9118800E+02  0.7816164E-02  0.1184000E+00
        -11   -1    0    0    0    0  0.00000000000E+00  0.00000000000E+00  0.45593999997E+02  0.45594000000E+02  0.51100000000E-03 0.  1.
         11   -1    0    0    0    0 -0.00000000000E+00 -0.00000000000E+00 -0.45593999997E+02  0.45594000000E+02  0.51100000000E-03 0. -1.
         23    2    1    2    0    0  0.00000000000E+00  0.44408920985E-15  0.00000000000E+00  0.91188000000E+02  0.91188000000E+02 0.  0.
    9900012    2    3    3    0    0 -0.11834429986E+02  0.23451552447E+01 -0.34788304818E+02  0.54367086943E+02  0.40000006305E+02 0.  0.
        -12    1    3    3    0    0  0.11834429986E+02 -0.23451552447E+01  0.34788304818E+02  0.36820913057E+02  0.00000000000E+00 0.  1.
         11    1    4    4    0    0 -0.59626146377E+01 -0.48066920720E+01 -0.21310827707E+02  0.22645274116E+02  0.51100000000E-03 0. -1.
        -11    1    4    4    0    0 -0.13985636066E+02  0.96987615388E+01 -0.15456296322E+02  0.22990456451E+02  0.51100000000E-03 0.  1.
        -12    1    4    4    0    0  0.81138207177E+01 -0.25469142221E+01  0.19788192112E+01  0.87313563760E+01  0.00000000000E+00 0.  1.
</event>
<event>
 8    1  0.2509217E-006  0.9118800E+02  0.7816164E-02  0.1184000E+00
        -11   -1    0    0    0    0  0.00000000000E+00  0.00000000000E+00  0.45593999997E+02  0.45594000000E+02  0.51100000000E-03 0.  1.
         11   -1    0    0    0    0 -0.00000000000E+00 -0.00000000000E+00 -0.45593999997E+02  0.45594000000E+02  0.51100000000E-03 0. -1.
         23    2    1    2    0    0  0.00000000000E+00 -0.35527136788E-14  0.88817841970E-15  0.91188000000E+02  0.91188000000E+02 0.  0.
    9900012    2    3    3    0    0  0.31433181808E+02  0.17773637919E+02  0.71995697287E+01  0.54367069434E+02  0.39999966388E+02 0.  0.
         12    1    3    3    0    0 -0.31433181808E+02 -0.17773637919E+02 -0.71995697287E+01  0.36820930566E+02  0.00000000000E+00 0. -1.
         11    1    4    4    0    0  0.20387121226E+02  0.11015619102E+02 -0.14399455560E+02  0.27282281737E+02  0.51100000000E-03 0. -1.
        -11    1    4    4    0    0  0.43669944698E+01 -0.13404775682E+01  0.22974466013E+01  0.51132946284E+01  0.51100000000E-03 0.  1.
        -12    1    4    4    0    0  0.66790661124E+01  0.80984963855E+01  0.19301578687E+02  0.21971493068E+02  0.00000000000E+00 0.  1.
</event>
<event>
 8    1  0.2509217E-006  0.9118800E+02  0.7816164E-02  0.1184000E+00
        -11   -1    0    0    0    0  0.00000000000E+00  0.00000000000E+00  0.45593999997E+02  0.45594000000E+02  0.51100000000E-03 0. -1.
         11   -1    0    0    0    0 -0.00000000000E+00 -0.00000000000E+00 -0.45593999997E+02  0.45594000000E+02  0.51100000000E-03 0.  1.
         23    2    1    2    0    0  0.00000000000E+00  0.17763568394E-14  0.00000000000E+00  0.91188000000E+02  0.91188000000E+02 0.  0.
    9900012    2    3    3    0    0 -0.37665426993E+01 -0.65227033303E+01 -0.36042254402E+02  0.54367128134E+02  0.40000100206E+02 0.  0.
         12    1    3    3    0    0  0.37665426993E+01  0.65227033303E+01  0.36042254402E+02  0.36820871866E+02  0.00000000000E+00 0. -1.
         11    1    4    4    0    0 -0.94012817674E+01 -0.71949903963E+01 -0.15834655151E+02  0.19770895015E+02  0.51100000000E-03 0. -1.
        -11    1    4    4    0    0  0.12740250000E+02  0.91928666511E+01 -0.16774336259E+02  0.22982626580E+02  0.51100000000E-03 0.  1.
        -12    1    4    4    0    0 -0.71055109318E+01 -0.85205795851E+01 -0.34332629918E+01  0.11613606539E+02  0.00000000000E+00 0.  1.
</event>
<event>
 8    1  0.2509217E-006  0.9118800E+02  0.7816164E-02  0.1184000E+00
        -11   -1    0    0    0    0  0.00000000000E+00  0.00000000000E+00  0.45593999997E+02  0.45594000000E+02  0.51100000000E-03 0. -1.
         11   -1    0    0    0    0 -0.00000000000E+00 -0.00000000000E+00 -0.45593999997E+02  0.45594000000E+02  0.51100000000E-03 0.  1.
         23    2    1    2    0    0  0.17763568394E-14  0.35527136788E-14  0.35527136788E-14  0.91188000000E+02  0.91188000000E+02 0.  0.
    9900012    2    3    3    0    0 -0.11475700468E+02 -0.26532418801E+02 -0.22806116851E+02  0.54367083193E+02  0.39999997756E+02 0.  0.
         12    1    3    3    0    0  0.11475700468E+02  0.26532418801E+02  0.22806116851E+02  0.36820916807E+02  0.00000000000E+00 0. -1.
         11    1    4    4    0    0 -0.13597700475E+02 -0.14490047533E+02 -0.18589189247E+01  0.19957818406E+02  0.51100000000E-03 0. -1.
        -11    1    4    4    0    0 -0.79614924140E+01 -0.35540243192E+01  0.10333089947E+01  0.87797595673E+01  0.51100000000E-03 0.  1.
        -12    1    4    4    0    0  0.10083492421E+02 -0.84883469491E+01 -0.21980506921E+02  0.25629505220E+02  0.00000000000E+00 0.  1.
</event>
<event>
 8    1  0.2509217E-006  0.9118800E+02  0.7816164E-02  0.1184000E+00
        -11   -1    0    0    0    0  0.00000000000E+00  0.00000000000E+00  0.45593999997E+02  0.45594000000E+02  0.51100000000E-03 0.  1.
         11   -1    0    0    0    0 -0.00000000000E+00 -0.00000000000E+00 -0.45593999997E+02  0.45594000000E+02  0.51100000000E-03 0. -1.
         23    2    1    2    0    0  0.00000000000E+00  0.22204460493E-14  0.35527136788E-14  0.91188000000E+02  0.91188000000E+02 0.  0.
    9900012    2    3    3    0    0 -0.26067626858E+02 -0.34176722980E+01 -0.25779409397E+02  0.54367087426E+02  0.40000007405E+02 0.  0.
        -12    1    3    3    0    0  0.26067626858E+02  0.34176722980E+01  0.25779409397E+02  0.36820912574E+02  0.00000000000E+00 0.  1.
         11    1    4    4    0    0 -0.23583012933E+02  0.55044773426E+01 -0.11898600993E+02  0.26982113995E+02  0.51100000000E-03 0. -1.
        -11    1    4    4    0    0 -0.12799233336E+01  0.46504946041E+01  0.30082009697E+01  0.56845912023E+01  0.51100000000E-03 0.  1.
         12    1    4    4    0    0 -0.12046905916E+01 -0.13572644245E+02 -0.16889009374E+02  0.21700382228E+02  0.00000000000E+00 0. -1.
</event>
<event>
 8    1  0.2509217E-006  0.9118800E+02  0.7816164E-02  0.1184000E+00
        -11   -1    0    0    0    0  0.00000000000E+00  0.00000000000E+00  0.45593999997E+02  0.45594000000E+02  0.51100000000E-03 0.  1.
         11   -1    0    0    0    0 -0.00000000000E+00 -0.00000000000E+00 -0.45593999997E+02  0.45594000000E+02  0.51100000000E-03 0. -1.
         23    2    1    2    0    0 -0.44408920985E-15  0.00000000000E+00  0.00000000000E+00  0.91188000000E+02  0.91188000000E+02 0.  0.
    9900012    2    3    3    0    0 -0.22411447854E+01 -0.20741421684E+02 -0.30340562491E+02  0.54367095127E+02  0.40000024961E+02 0.  0.
        -12    1    3    3    0    0  0.22411447854E+01  0.20741421684E+02  0.30340562491E+02  0.36820904873E+02  0.00000000000E+00 0.  1.
         11    1    4    4    0    0  0.11404954678E+01 -0.25975663458E+01 -0.76310331639E+01  0.81412989285E+01  0.51100000000E-03 0. -1.
        -11    1    4    4    0    0  0.31957932549E+00 -0.10750665360E+02  0.86452545011E+01  0.13799252236E+02  0.51100000000E-03 0.  1.
        -12    1    4    4    0    0 -0.37012195787E+01 -0.73931899776E+01 -0.31354783828E+02  0.32426543962E+02  0.00000000000E+00 0.  1.
</event>
<event>
 8    1  0.2509217E-006  0.9118800E+02  0.7816164E-02  0.1184000E+00
        -11   -1    0    0    0    0  0.00000000000E+00  0.00000000000E+00  0.45593999997E+02  0.45594000000E+02  0.51100000000E-03 0.  1.
         11   -1    0    0    0    0 -0.00000000000E+00 -0.00000000000E+00 -0.45593999997E+02  0.45594000000E+02  0.51100000000E-03 0. -1.
         23    2    1    2    0    0  0.00000000000E+00 -0.35527136788E-14  0.22204460493E-15  0.91188000000E+02  0.91188000000E+02 0.  0.
    9900012    2    3    3    0    0 -0.29322298174E+02  0.22248539889E+02 -0.99261487535E+00  0.54367082281E+02  0.39999995676E+02 0.  0.
         12    1    3    3    0    0  0.29322298174E+02 -0.22248539889E+02  0.99261487535E+00  0.36820917719E+02  0.00000000000E+00 0. -1.
         11    1    4    4    0    0 -0.13105859236E+02 -0.87802391685E+01  0.52349993395E+01  0.16621112012E+02  0.51100000000E-03 0. -1.
        -11    1    4    4    0    0 -0.46430223490E+01  0.93119402785E+01  0.39314191959E+01  0.11123216506E+02  0.51100000000E-03 0.  1.
         12    1    4    4    0    0 -0.11573416589E+02  0.21716838779E+02 -0.10159033411E+02  0.26622753763E+02  0.00000000000E+00 0. -1.
</event>
<event>
 8    1  0.2509217E-006  0.9118800E+02  0.7816164E-02  0.1184000E+00
        -11   -1    0    0    0    0  0.00000000000E+00  0.00000000000E+00  0.45593999997E+02  0.45594000000E+02  0.51100000000E-03 0. -1.
         11   -1    0    0    0    0 -0.00000000000E+00 -0.00000000000E+00 -0.45593999997E+02  0.45594000000E+02  0.51100000000E-03 0.  1.
         23    2    1    2    0    0 -0.17763568394E-14  0.00000000000E+00  0.00000000000E+00  0.91188000000E+02  0.91188000000E+02 0.  0.
    9900012    2    3    3    0    0 -0.14701315279E+02  0.19347272379E+02  0.27664606853E+02  0.54367135103E+02  0.40000116093E+02 0.  0.
        -12    1    3    3    0    0  0.14701315279E+02 -0.19347272379E+02 -0.27664606853E+02  0.36820864897E+02  0.00000000000E+00 0.  1.
         11    1    4    4    0    0  0.29576087969E+00 -0.27868402804E+01  0.17530852338E+02  0.17753442967E+02  0.51100000000E-03 0.  1.
        -11    1    4    4    0    0 -0.14147682651E+02  0.17072735199E+01  0.11944974027E+01  0.14300298303E+02  0.51100000000E-03 0. -1.
         12    1    4    4    0    0 -0.84939350792E+00  0.20426839140E+02  0.89392571131E+01  0.22313393832E+02  0.00000000000E+00 0. -1.
</event>
<event>
 8    1  0.2509217E-006  0.9118800E+02  0.7816164E-02  0.1184000E+00
        -11   -1    0    0    0    0  0.00000000000E+00  0.00000000000E+00  0.45593999997E+02  0.45594000000E+02  0.51100000000E-03 0.  1.
         11   -1    0    0    0    0 -0.00000000000E+00 -0.00000000000E+00 -0.45593999997E+02  0.45594000000E+02  0.51100000000E-03 0. -1.
         23    2    1    2    0    0  0.00000000000E+00  0.00000000000E+00  0.17763568394E-14  0.91188000000E+02  0.91188000000E+02 0.  0.
    9900012    2    3    3    0    0  0.33655014602E+02 -0.83291620084E+01 -0.12399508696E+02  0.54367044505E+02  0.39999909559E+02 0.  0.
        -12    1    3    3    0    0 -0.33655014602E+02  0.83291620084E+01  0.12399508696E+02  0.36820955495E+02  0.00000000000E+00 0.  1.
         11    1    4    4    0    0  0.25592187482E+02 -0.63816453964E+01 -0.40595283516E+01  0.26686424054E+02  0.51100000000E-03 0. -1.
        -11    1    4    4    0    0  0.70540800850E+01 -0.11460523513E+02  0.19873005034E+01  0.13603419004E+02  0.51100000000E-03 0.  1.
         12    1    4    4    0    0  0.10087470352E+01  0.95130069013E+01 -0.10327280848E+02  0.14077201447E+02  0.00000000000E+00 0. -1.
</event>
<event>
 8    1  0.2509217E-006  0.9118800E+02  0.7816164E-02  0.1184000E+00
        -11   -1    0    0    0    0  0.00000000000E+00  0.00000000000E+00  0.45593999997E+02  0.45594000000E+02  0.51100000000E-03 0.  1.
         11   -1    0    0    0    0 -0.00000000000E+00 -0.00000000000E+00 -0.45593999997E+02  0.45594000000E+02  0.51100000000E-03 0. -1.
         23    2    1    2    0    0 -0.71054273576E-14  0.66613381478E-15  0.00000000000E+00  0.91188000000E+02  0.91188000000E+02 0.  0.
    9900012    2    3    3    0    0 -0.35636289079E+02 -0.18955937692E+01 -0.90685356893E+01  0.54367126645E+02  0.40000096813E+02 0.  0.
        -12    1    3    3    0    0  0.35636289079E+02  0.18955937692E+01  0.90685356893E+01  0.36820873355E+02  0.00000000000E+00 0.  1.
         11    1    4    4    0    0 -0.11448825359E+02  0.11381823279E+02 -0.56840714427E+01  0.17115202941E+02  0.51100000000E-03 0. -1.
        -11    1    4    4    0    0 -0.19047373510E+02  0.18596043975E+01 -0.78015132230E+01  0.20666982725E+02  0.51100000000E-03 0.  1.
        -12    1    4    4    0    0 -0.51400902097E+01 -0.15137021446E+02  0.44170489763E+01  0.16584940979E+02  0.00000000000E+00 0.  1.
</event>
<event>
 8    1  0.2509217E-006  0.9118800E+02  0.7816164E-02  0.1184000E+00
        -11   -1    0    0    0    0  0.00000000000E+00  0.00000000000E+00  0.45593999997E+02  0.45594000000E+02  0.51100000000E-03 0.  1.
         11   -1    0    0    0    0 -0.00000000000E+00 -0.00000000000E+00 -0.45593999997E+02  0.45594000000E+02  0.51100000000E-03 0. -1.
         23    2    1    2    0    0  0.00000000000E+00 -0.66613381478E-15  0.00000000000E+00  0.91188000000E+02  0.91188000000E+02 0.  0.
    9900012    2    3    3    0    0  0.19225975883E+02  0.13621053179E+01 -0.31373334100E+02  0.54367087843E+02  0.40000008355E+02 0.  0.
        -12    1    3    3    0    0 -0.19225975883E+02 -0.13621053179E+01  0.31373334100E+02  0.36820912157E+02  0.00000000000E+00 0.  1.
         11    1    4    4    0    0 -0.82755640870E+00  0.64803673013E+00 -0.18050699194E+02  0.18081276030E+02  0.51100000000E-03 0. -1.
        -11    1    4    4    0    0  0.97945605661E+01 -0.11067402142E+02  0.13668676825E+01  0.14842140492E+02  0.51100000000E-03 0.  1.
        -12    1    4    4    0    0  0.10258971726E+02  0.11781470730E+02 -0.14689502588E+02  0.21443671321E+02  0.00000000000E+00 0.  1.
</event>
<event>
 8    1  0.2509217E-006  0.9118800E+02  0.7816164E-02  0.1184000E+00
        -11   -1    0    0    0    0  0.00000000000E+00  0.00000000000E+00  0.45593999997E+02  0.45594000000E+02  0.51100000000E-03 0.  1.
         11   -1    0    0    0    0 -0.00000000000E+00 -0.00000000000E+00 -0.45593999997E+02  0.45594000000E+02  0.51100000000E-03 0. -1.
         23    2    1    2    0    0  0.35527136788E-14  0.00000000000E+00  0.00000000000E+00  0.91188000000E+02  0.91188000000E+02 0.  0.
    9900012    2    3    3    0    0 -0.19989211349E+02  0.20152697781E+02  0.23453772018E+02  0.54367092623E+02  0.40000019253E+02 0.  0.
         12    1    3    3    0    0  0.19989211349E+02 -0.20152697781E+02 -0.23453772018E+02  0.36820907377E+02  0.00000000000E+00 0. -1.
         11    1    4    4    0    0 -0.73986394960E+00  0.15080581988E+02  0.28748103987E+02  0.32471908396E+02  0.51100000000E-03 0.  1.
        -11    1    4    4    0    0 -0.55058322929E+00 -0.13632731058E+01 -0.36217429839E+00  0.15142080230E+01  0.51100000000E-03 0. -1.
         12    1    4    4    0    0 -0.18698764170E+02  0.64353888987E+01 -0.49321576704E+01  0.20380976204E+02  0.00000000000E+00 0. -1.
</event>
<event>
 8    1  0.2509217E-006  0.9118800E+02  0.7816164E-02  0.1184000E+00
        -11   -1    0    0    0    0  0.00000000000E+00  0.00000000000E+00  0.45593999997E+02  0.45594000000E+02  0.51100000000E-03 0.  1.
         11   -1    0    0    0    0 -0.00000000000E+00 -0.00000000000E+00 -0.45593999997E+02  0.45594000000E+02  0.51100000000E-03 0. -1.
         23    2    1    2    0    0 -0.35527136788E-14  0.00000000000E+00  0.22204460493E-15  0.91188000000E+02  0.91188000000E+02 0.  0.
    9900012    2    3    3    0    0  0.25260777579E+02  0.26761064855E+02 -0.12321975960E+01  0.54367084925E+02  0.40000001703E+02 0.  0.
        -12    1    3    3    0    0 -0.25260777579E+02 -0.26761064855E+02  0.12321975960E+01  0.36820915075E+02  0.00000000000E+00 0.  1.
         11    1    4    4    0    0  0.30146833391E+02  0.88387553182E+01 -0.22927613516E+01  0.31499395454E+02  0.51100000000E-03 0. -1.
        -11    1    4    4    0    0  0.38460454118E+00  0.17465782466E+02  0.16342086251E+01  0.17546284960E+02  0.51100000000E-03 0.  1.
         12    1    4    4    0    0 -0.52706603536E+01  0.45652707061E+00 -0.57364486950E+00  0.53214045106E+01  0.00000000000E+00 0. -1.
</event>
<event>
 8    1  0.2509217E-006  0.9118800E+02  0.7816164E-02  0.1184000E+00
        -11   -1    0    0    0    0  0.00000000000E+00  0.00000000000E+00  0.45593999997E+02  0.45594000000E+02  0.51100000000E-03 0.  1.
         11   -1    0    0    0    0 -0.00000000000E+00 -0.00000000000E+00 -0.45593999997E+02  0.45594000000E+02  0.51100000000E-03 0. -1.
         23    2    1    2    0    0 -0.44408920985E-15 -0.17763568394E-14  0.00000000000E+00  0.91188000000E+02  0.91188000000E+02 0.  0.
    9900012    2    3    3    0    0  0.26355373292E+01 -0.12527319943E+02  0.34523872963E+02  0.54367114536E+02  0.40000069208E+02 0.  0.
         12    1    3    3    0    0 -0.26355373292E+01  0.12527319943E+02 -0.34523872963E+02  0.36820885464E+02  0.00000000000E+00 0. -1.
         11    1    4    4    0    0 -0.49369984022E+00 -0.10844527629E+01 -0.58236687542E+01  0.59443162220E+01  0.51100000000E-03 0. -1.
        -11    1    4    4    0    0 -0.58604698926E+01 -0.14806919285E+02  0.31824554045E+02  0.35586404799E+02  0.51100000000E-03 0.  1.
        -12    1    4    4    0    0  0.89897070620E+01  0.33640521053E+01  0.85229876722E+01  0.12836393516E+02  0.00000000000E+00 0.  1.
</event>
<event>
 8    1  0.2509217E-006  0.9118800E+02  0.7816164E-02  0.1184000E+00
        -11   -1    0    0    0    0  0.00000000000E+00  0.00000000000E+00  0.45593999997E+02  0.45594000000E+02  0.51100000000E-03 0.  1.
         11   -1    0    0    0    0 -0.00000000000E+00 -0.00000000000E+00 -0.45593999997E+02  0.45594000000E+02  0.51100000000E-03 0. -1.
         23    2    1    2    0    0  0.35527136788E-14 -0.35527136788E-14  0.00000000000E+00  0.91188000000E+02  0.91188000000E+02 0.  0.
    9900012    2    3    3    0    0  0.17962282296E+02 -0.25559655797E+02  0.19489449922E+02  0.54367105823E+02  0.40000049344E+02 0.  0.
         12    1    3    3    0    0 -0.17962282296E+02  0.25559655797E+02 -0.19489449922E+02  0.36820894177E+02  0.00000000000E+00 0. -1.
         11    1    4    4    0    0  0.92089498260E+01  0.59299470765E+01 -0.22401800280E+00  0.10955328090E+02  0.51100000000E-03 0. -1.
        -11    1    4    4    0    0  0.11099290547E+02 -0.33683652440E+02  0.18128144461E+02  0.39829791792E+02  0.51100000000E-03 0.  1.
        -12    1    4    4    0    0 -0.23459580770E+01  0.21940495661E+01  0.15853234640E+01  0.35819859413E+01  0.00000000000E+00 0.  1.
</event>
<event>
 8    1  0.2509217E-006  0.9118800E+02  0.7816164E-02  0.1184000E+00
        -11   -1    0    0    0    0  0.00000000000E+00  0.00000000000E+00  0.45593999997E+02  0.45594000000E+02  0.51100000000E-03 0. -1.
         11   -1    0    0    0    0 -0.00000000000E+00 -0.00000000000E+00 -0.45593999997E+02  0.45594000000E+02  0.51100000000E-03 0.  1.
         23    2    1    2    0    0 -0.17763568394E-14  0.17763568394E-14  0.00000000000E+00  0.91188000000E+02  0.91188000000E+02 0.  0.
    9900012    2    3    3    0    0  0.15756350596E+02 -0.11469561975E+02  0.31240449194E+02  0.54367094228E+02  0.40000022912E+02 0.  0.
        -12    1    3    3    0    0 -0.15756350596E+02  0.11469561975E+02 -0.31240449194E+02  0.36820905772E+02  0.00000000000E+00 0.  1.
         11    1    4    4    0    0  0.11401466266E+02 -0.55002713194E+01  0.20127130306E+02  0.23777043387E+02  0.51100000000E-03 0. -1.
        -11    1    4    4    0    0 -0.14835310243E+01  0.48470102620E+01 -0.70350762167E+01  0.86710247615E+01  0.51100000000E-03 0.  1.
        -12    1    4    4    0    0  0.58384153540E+01 -0.10816300918E+02  0.18148395105E+02  0.21919026080E+02  0.00000000000E+00 0.  1.
</event>
<event>
 8    1  0.2509217E-006  0.9118800E+02  0.7816164E-02  0.1184000E+00
        -11   -1    0    0    0    0  0.00000000000E+00  0.00000000000E+00  0.45593999997E+02  0.45594000000E+02  0.51100000000E-03 0.  1.
         11   -1    0    0    0    0 -0.00000000000E+00 -0.00000000000E+00 -0.45593999997E+02  0.45594000000E+02  0.51100000000E-03 0. -1.
         23    2    1    2    0    0 -0.61062266354E-15  0.44408920985E-15  0.00000000000E+00  0.91188000000E+02  0.91188000000E+02 0.  0.
    9900012    2    3    3    0    0 -0.49985835513E+00 -0.25885407774E+01 -0.36726418170E+02  0.54367079407E+02  0.39999989124E+02 0.  0.
        -12    1    3    3    0    0  0.49985835513E+00  0.25885407774E+01  0.36726418170E+02  0.36820920593E+02  0.00000000000E+00 0.  1.
         11    1    4    4    0    0 -0.89475349273E+00 -0.78408373166E+01  0.25325109054E+01  0.82881195325E+01  0.51100000000E-03 0. -1.
        -11    1    4    4    0    0  0.71792888771E+01 -0.18269830491E+01 -0.21752513412E+01  0.77208661755E+01  0.51100000000E-03 0.  1.
         12    1    4    4    0    0 -0.67843937395E+01  0.70792795884E+01 -0.37083677734E+02  0.38358093699E+02  0.00000000000E+00 0. -1.
</event>
<event>
 8    1  0.2509217E-006  0.9118800E+02  0.7816164E-02  0.1184000E+00
        -11   -1    0    0    0    0  0.00000000000E+00  0.00000000000E+00  0.45593999997E+02  0.45594000000E+02  0.51100000000E-03 0.  1.
         11   -1    0    0    0    0 -0.00000000000E+00 -0.00000000000E+00 -0.45593999997E+02  0.45594000000E+02  0.51100000000E-03 0. -1.
         23    2    1    2    0    0  0.35527136788E-14 -0.22204460493E-15  0.35527136788E-14  0.91188000000E+02  0.91188000000E+02 0.  0.
    9900012    2    3    3    0    0 -0.25334802374E+02  0.64031131706E+00 -0.26711763880E+02  0.54367074706E+02  0.39999978407E+02 0.  0.
        -12    1    3    3    0    0  0.25334802374E+02 -0.64031131706E+00  0.26711763880E+02  0.36820925294E+02  0.00000000000E+00 0.  1.
         11    1    4    4    0    0 -0.14181995479E+01 -0.98081058489E+01 -0.18212490911E+02  0.20734151918E+02  0.51100000000E-03 0. -1.
        -11    1    4    4    0    0 -0.99924185709E+01  0.13432714945E+02  0.56706389153E+00  0.16751352823E+02  0.51100000000E-03 0.  1.
         12    1    4    4    0    0 -0.13924184256E+02 -0.29842977788E+01 -0.90663368601E+01  0.16881569965E+02  0.00000000000E+00 0. -1.
</event>
<event>
 8    1  0.2509217E-006  0.9118800E+02  0.7816164E-02  0.1184000E+00
        -11   -1    0    0    0    0  0.00000000000E+00  0.00000000000E+00  0.45593999997E+02  0.45594000000E+02  0.51100000000E-03 0. -1.
         11   -1    0    0    0    0 -0.00000000000E+00 -0.00000000000E+00 -0.45593999997E+02  0.45594000000E+02  0.51100000000E-03 0.  1.
         23    2    1    2    0    0 -0.35527136788E-14  0.10547118734E-14  0.00000000000E+00  0.91188000000E+02  0.91188000000E+02 0.  0.
    9900012    2    3    3    0    0  0.21987108305E+02  0.48873538332E+00  0.29531414441E+02  0.54367133189E+02  0.40000111730E+02 0.  0.
        -12    1    3    3    0    0 -0.21987108305E+02 -0.48873538332E+00 -0.29531414441E+02  0.36820866811E+02  0.00000000000E+00 0.  1.
         11    1    4    4    0    0  0.17227639029E+02  0.86785823597E+01  0.64273543770E+01  0.20332737712E+02  0.51100000000E-03 0. -1.
        -11    1    4    4    0    0 -0.33857075553E+01 -0.31870310100E+01 -0.34645423343E+01  0.57985546610E+01  0.51100000000E-03 0.  1.
        -12    1    4    4    0    0  0.81451768305E+01 -0.50028159663E+01  0.26568602398E+02  0.28235840816E+02  0.00000000000E+00 0.  1.
</event>
<event>
 8    1  0.2509217E-006  0.9118800E+02  0.7816164E-02  0.1184000E+00
        -11   -1    0    0    0    0  0.00000000000E+00  0.00000000000E+00  0.45593999997E+02  0.45594000000E+02  0.51100000000E-03 0.  1.
         11   -1    0    0    0    0 -0.00000000000E+00 -0.00000000000E+00 -0.45593999997E+02  0.45594000000E+02  0.51100000000E-03 0. -1.
         23    2    1    2    0    0 -0.44408920985E-15  0.00000000000E+00  0.00000000000E+00  0.91188000000E+02  0.91188000000E+02 0.  0.
    9900012    2    3    3    0    0 -0.37508637084E+01 -0.20430518342E+02  0.30402335974E+02  0.54367121535E+02  0.40000085163E+02 0.  0.
         12    1    3    3    0    0  0.37508637084E+01  0.20430518342E+02 -0.30402335974E+02  0.36820878465E+02  0.00000000000E+00 0. -1.
         11    1    4    4    0    0 -0.12523266783E+00  0.83510140183E+01 -0.29703235752E+01  0.88644199335E+01  0.51100000000E-03 0. -1.
        -11    1    4    4    0    0  0.19610600521E+01 -0.63487360054E+01  0.13379054891E+02  0.14938250079E+02  0.51100000000E-03 0.  1.
         12    1    4    4    0    0 -0.55866910927E+01 -0.22432796354E+02  0.19993604658E+02  0.30564451523E+02  0.00000000000E+00 0. -1.
</event>
<event>
 8    1  0.2509217E-006  0.9118800E+02  0.7816164E-02  0.1184000E+00
        -11   -1    0    0    0    0  0.00000000000E+00  0.00000000000E+00  0.45593999997E+02  0.45594000000E+02  0.51100000000E-03 0. -1.
         11   -1    0    0    0    0 -0.00000000000E+00 -0.00000000000E+00 -0.45593999997E+02  0.45594000000E+02  0.51100000000E-03 0.  1.
         23    2    1    2    0    0  0.00000000000E+00 -0.88817841970E-15  0.00000000000E+00  0.91188000000E+02  0.91188000000E+02 0.  0.
    9900012    2    3    3    0    0  0.14270034168E+02  0.52660141631E+01 -0.33532299810E+02  0.54367083242E+02  0.39999997868E+02 0.  0.
         12    1    3    3    0    0 -0.14270034168E+02 -0.52660141631E+01  0.33532299810E+02  0.36820916758E+02  0.00000000000E+00 0. -1.
         11    1    4    4    0    0  0.13793647556E+02 -0.46804966430E+01 -0.44429370580E+01  0.15228639193E+02  0.51100000000E-03 0. -1.
        -11    1    4    4    0    0  0.99898429996E+01 -0.23362127901E+01 -0.14948733854E+02  0.18130623196E+02  0.51100000000E-03 0.  1.
         12    1    4    4    0    0 -0.95134563877E+01  0.12282723596E+02 -0.14140628898E+02  0.21007820853E+02  0.00000000000E+00 0. -1.
</event>
<event>
 8    1  0.2509217E-006  0.9118800E+02  0.7816164E-02  0.1184000E+00
        -11   -1    0    0    0    0  0.00000000000E+00  0.00000000000E+00  0.45593999997E+02  0.45594000000E+02  0.51100000000E-03 0. -1.
         11   -1    0    0    0    0 -0.00000000000E+00 -0.00000000000E+00 -0.45593999997E+02  0.45594000000E+02  0.51100000000E-03 0.  1.
         23    2    1    2    0    0  0.00000000000E+00  0.00000000000E+00  0.00000000000E+00  0.91188000000E+02  0.91188000000E+02 0.  0.
    9900012    2    3    3    0    0  0.33934481582E+02  0.14111087837E+02  0.22600978650E+01  0.54367083627E+02  0.39999998745E+02 0.  0.
        -12    1    3    3    0    0 -0.33934481582E+02 -0.14111087837E+02 -0.22600978650E+01  0.36820916373E+02  0.00000000000E+00 0.  1.
         11    1    4    4    0    0  0.82511513953E+01  0.13155501260E+02 -0.24709854116E+01  0.15724327710E+02  0.51100000000E-03 0. -1.
        -11    1    4    4    0    0  0.29596814729E+01 -0.79476903864E+01  0.10566697989E+02  0.13549191989E+02  0.51100000000E-03 0.  1.
         12    1    4    4    0    0  0.22723648714E+02  0.89032769625E+01 -0.58356147129E+01  0.25093563928E+02  0.00000000000E+00 0. -1.
</event>
<event>
 8    1  0.2509217E-006  0.9118800E+02  0.7816164E-02  0.1184000E+00
        -11   -1    0    0    0    0  0.00000000000E+00  0.00000000000E+00  0.45593999997E+02  0.45594000000E+02  0.51100000000E-03 0.  1.
         11   -1    0    0    0    0 -0.00000000000E+00 -0.00000000000E+00 -0.45593999997E+02  0.45594000000E+02  0.51100000000E-03 0. -1.
         23    2    1    2    0    0  0.00000000000E+00  0.17763568394E-14  0.00000000000E+00  0.91188000000E+02  0.91188000000E+02 0.  0.
    9900012    2    3    3    0    0  0.33293642343E+02  0.13633258126E+02  0.78387413488E+01  0.54367106291E+02  0.40000050412E+02 0.  0.
         12    1    3    3    0    0 -0.33293642343E+02 -0.13633258126E+02 -0.78387413488E+01  0.36820893709E+02  0.00000000000E+00 0. -1.
         11    1    4    4    0    0  0.57449709451E+00 -0.19356559271E-01  0.32213578717E+01  0.32722421039E+01  0.51100000000E-03 0. -1.
        -11    1    4    4    0    0  0.11372385415E+02  0.24299187453E+02  0.47168301782E+01  0.27240230324E+02  0.51100000000E-03 0.  1.
        -12    1    4    4    0    0  0.21346759833E+02 -0.10646572768E+02 -0.99446701062E-01  0.23854633863E+02  0.00000000000E+00 0.  1.
</event>
<event>
 8    1  0.2509217E-006  0.9118800E+02  0.7816164E-02  0.1184000E+00
        -11   -1    0    0    0    0  0.00000000000E+00  0.00000000000E+00  0.45593999997E+02  0.45594000000E+02  0.51100000000E-03 0.  1.
         11   -1    0    0    0    0 -0.00000000000E+00 -0.00000000000E+00 -0.45593999997E+02  0.45594000000E+02  0.51100000000E-03 0. -1.
         23    2    1    2    0    0  0.00000000000E+00 -0.35527136788E-14  0.17763568394E-14  0.91188000000E+02  0.91188000000E+02 0.  0.
    9900012    2    3    3    0    0  0.18996813088E+02 -0.29097725581E+02  0.12174679226E+02  0.54367090780E+02  0.40000015052E+02 0.  0.
         12    1    3    3    0    0 -0.18996813088E+02  0.29097725581E+02 -0.12174679226E+02  0.36820909220E+02  0.00000000000E+00 0. -1.
         11    1    4    4    0    0  0.23853287805E+02 -0.31992562785E+02  0.23431289785E+01  0.39974912962E+02  0.51100000000E-03 0. -1.
        -11    1    4    4    0    0  0.79991460570E+00  0.17199167385E+01  0.81607549563E+01  0.83782992714E+01  0.51100000000E-03 0.  1.
         12    1    4    4    0    0 -0.56563893233E+01  0.11749204646E+01  0.16707952911E+01  0.60138785471E+01  0.00000000000E+00 0. -1.
</event>
<event>
 8    1  0.2509217E-006  0.9118800E+02  0.7816164E-02  0.1184000E+00
        -11   -1    0    0    0    0  0.00000000000E+00  0.00000000000E+00  0.45593999997E+02  0.45594000000E+02  0.51100000000E-03 0.  1.
         11   -1    0    0    0    0 -0.00000000000E+00 -0.00000000000E+00 -0.45593999997E+02  0.45594000000E+02  0.51100000000E-03 0. -1.
         23    2    1    2    0    0  0.00000000000E+00  0.00000000000E+00 -0.17763568394E-14  0.91188000000E+02  0.91188000000E+02 0.  0.
    9900012    2    3    3    0    0  0.96022279535E+01  0.33870350915E+02  0.10787791465E+02  0.54367083425E+02  0.39999998283E+02 0.  0.
         12    1    3    3    0    0 -0.96022279535E+01 -0.33870350915E+02 -0.10787791465E+02  0.36820916575E+02  0.00000000000E+00 0. -1.
         11    1    4    4    0    0 -0.40346968169E+01  0.36240795594E+01  0.12307680296E+01  0.55612517710E+01  0.51100000000E-03 0. -1.
        -11    1    4    4    0    0  0.38170315187E+01  0.30190067152E+01  0.18007453240E+02  0.18653485026E+02  0.51100000000E-03 0.  1.
         12    1    4    4    0    0  0.98198932516E+01  0.27227264640E+02 -0.84504298051E+01  0.30152346627E+02  0.00000000000E+00 0. -1.
</event>
<event>
 8    1  0.2509217E-006  0.9118800E+02  0.7816164E-02  0.1184000E+00
        -11   -1    0    0    0    0  0.00000000000E+00  0.00000000000E+00  0.45593999997E+02  0.45594000000E+02  0.51100000000E-03 0.  1.
         11   -1    0    0    0    0 -0.00000000000E+00 -0.00000000000E+00 -0.45593999997E+02  0.45594000000E+02  0.51100000000E-03 0. -1.
         23    2    1    2    0    0 -0.17763568394E-14  0.00000000000E+00  0.35527136788E-14  0.91188000000E+02  0.91188000000E+02 0.  0.
    9900012    2    3    3    0    0  0.12817777195E+01  0.32991389737E+02  0.16300460513E+02  0.54367085238E+02  0.40000002418E+02 0.  0.
         12    1    3    3    0    0 -0.12817777195E+01 -0.32991389737E+02 -0.16300460513E+02  0.36820914762E+02  0.00000000000E+00 0. -1.
         11    1    4    4    0    0  0.98878133813E+01  0.86698463440E+01 -0.26918267045E+01  0.13423152400E+02  0.51100000000E-03 0. -1.
        -11    1    4    4    0    0  0.21117066914E+01  0.92260013662E+01  0.20286137335E+02  0.22385391991E+02  0.51100000000E-03 0.  1.
         12    1    4    4    0    0 -0.10717742353E+02  0.15095542027E+02 -0.12938501170E+01  0.18558540847E+02  0.00000000000E+00 0. -1.
</event>
<event>
 8    1  0.2509217E-006  0.9118800E+02  0.7816164E-02  0.1184000E+00
        -11   -1    0    0    0    0  0.00000000000E+00  0.00000000000E+00  0.45593999997E+02  0.45594000000E+02  0.51100000000E-03 0.  1.
         11   -1    0    0    0    0 -0.00000000000E+00 -0.00000000000E+00 -0.45593999997E+02  0.45594000000E+02  0.51100000000E-03 0. -1.
         23    2    1    2    0    0 -0.17763568394E-14  0.44408920985E-15  0.00000000000E+00  0.91188000000E+02  0.91188000000E+02 0.  0.
    9900012    2    3    3    0    0  0.44545439738E+01  0.25382450971E+01  0.36462056321E+02  0.54367255829E+02  0.40000391310E+02 0.  0.
         12    1    3    3    0    0 -0.44545439738E+01 -0.25382450971E+01 -0.36462056321E+02  0.36820744171E+02  0.00000000000E+00 0. -1.
         11    1    4    4    0    0 -0.11915019220E+02  0.98162012652E+01  0.99995397483E+01  0.18393376138E+02  0.51100000000E-03 0. -1.
        -11    1    4    4    0    0  0.19839890911E+00 -0.93305455491E+00  0.15290240530E+02  0.15319967645E+02  0.51100000000E-03 0.  1.
         12    1    4    4    0    0  0.16171164285E+02 -0.63449016132E+01  0.11172276043E+02  0.20653912046E+02  0.00000000000E+00 0. -1.
</event>
<event>
 8    1  0.2509217E-006  0.9118800E+02  0.7816164E-02  0.1184000E+00
        -11   -1    0    0    0    0  0.00000000000E+00  0.00000000000E+00  0.45593999997E+02  0.45594000000E+02  0.51100000000E-03 0. -1.
         11   -1    0    0    0    0 -0.00000000000E+00 -0.00000000000E+00 -0.45593999997E+02  0.45594000000E+02  0.51100000000E-03 0.  1.
         23    2    1    2    0    0  0.00000000000E+00  0.00000000000E+00 -0.35527136788E-14  0.91188000000E+02  0.91188000000E+02 0.  0.
    9900012    2    3    3    0    0  0.85443804577E+01 -0.28095564018E+02  0.22212879822E+02  0.54367093101E+02  0.40000020341E+02 0.  0.
        -12    1    3    3    0    0 -0.85443804577E+01  0.28095564018E+02 -0.22212879822E+02  0.36820906899E+02  0.00000000000E+00 0.  1.
         11    1    4    4    0    0 -0.88848693447E+01 -0.17299053310E+02  0.23486941782E+02  0.30493189129E+02  0.51100000000E-03 0. -1.
        -11    1    4    4    0    0  0.10579752862E+02 -0.11789172133E+02 -0.41565514135E+01  0.16376589086E+02  0.51100000000E-03 0.  1.
        -12    1    4    4    0    0  0.68494969408E+01  0.99266142417E+00  0.28824894531E+01  0.74973148855E+01  0.00000000000E+00 0.  1.
</event>
<event>
 8    1  0.2509217E-006  0.9118800E+02  0.7816164E-02  0.1184000E+00
        -11   -1    0    0    0    0  0.00000000000E+00  0.00000000000E+00  0.45593999997E+02  0.45594000000E+02  0.51100000000E-03 0. -1.
         11   -1    0    0    0    0 -0.00000000000E+00 -0.00000000000E+00 -0.45593999997E+02  0.45594000000E+02  0.51100000000E-03 0.  1.
         23    2    1    2    0    0  0.00000000000E+00 -0.17763568394E-14  0.00000000000E+00  0.91188000000E+02  0.91188000000E+02 0.  0.
    9900012    2    3    3    0    0 -0.58003514693E+01 -0.14609687227E+02 -0.33297034809E+02  0.54367087938E+02  0.40000008572E+02 0.  0.
         12    1    3    3    0    0  0.58003514693E+01  0.14609687227E+02  0.33297034809E+02  0.36820912062E+02  0.00000000000E+00 0. -1.
         11    1    4    4    0    0 -0.12318729492E+01  0.10504667544E+02 -0.23714837634E+01  0.10839256740E+02  0.51100000000E-03 0. -1.
        -11    1    4    4    0    0 -0.72946567263E+01 -0.90861219857E+01 -0.44786469461E+01  0.12483104911E+02  0.51100000000E-03 0.  1.
        -12    1    4    4    0    0  0.27261782063E+01 -0.16028232785E+02 -0.26446904099E+02  0.31044726287E+02  0.00000000000E+00 0.  1.
</event>
<event>
 8    1  0.2509217E-006  0.9118800E+02  0.7816164E-02  0.1184000E+00
        -11   -1    0    0    0    0  0.00000000000E+00  0.00000000000E+00  0.45593999997E+02  0.45594000000E+02  0.51100000000E-03 0.  1.
         11   -1    0    0    0    0 -0.00000000000E+00 -0.00000000000E+00 -0.45593999997E+02  0.45594000000E+02  0.51100000000E-03 0. -1.
         23    2    1    2    0    0  0.17763568394E-14  0.00000000000E+00  0.00000000000E+00  0.91188000000E+02  0.91188000000E+02 0.  0.
    9900012    2    3    3    0    0  0.11161783884E+02 -0.78732129929E+01  0.34193667229E+02  0.54367085008E+02  0.40000001892E+02 0.  0.
         12    1    3    3    0    0 -0.11161783884E+02  0.78732129929E+01 -0.34193667229E+02  0.36820914992E+02  0.00000000000E+00 0. -1.
         11    1    4    4    0    0  0.17717243315E+02 -0.40707442827E+01  0.14330530570E+02  0.23148126844E+02  0.51100000000E-03 0. -1.
        -11    1    4    4    0    0 -0.26571487571E+01 -0.12496379278E+02  0.53344191193E+01  0.13844708815E+02  0.51100000000E-03 0.  1.
         12    1    4    4    0    0 -0.38983106744E+01  0.86939105678E+01  0.14528717540E+02  0.17374249349E+02  0.00000000000E+00 0. -1.
</event>
<event>
 8    1  0.2509217E-006  0.9118800E+02  0.7816164E-02  0.1184000E+00
        -11   -1    0    0    0    0  0.00000000000E+00  0.00000000000E+00  0.45593999997E+02  0.45594000000E+02  0.51100000000E-03 0. -1.
         11   -1    0    0    0    0 -0.00000000000E+00 -0.00000000000E+00 -0.45593999997E+02  0.45594000000E+02  0.51100000000E-03 0.  1.
         23    2    1    2    0    0  0.00000000000E+00  0.00000000000E+00  0.00000000000E+00  0.91188000000E+02  0.91188000000E+02 0.  0.
    9900012    2    3    3    0    0 -0.25041996266E+02  0.85809980081E+01  0.25593806448E+02  0.54367108752E+02  0.40000056022E+02 0.  0.
        -12    1    3    3    0    0  0.25041996266E+02 -0.85809980081E+01 -0.25593806448E+02  0.36820891248E+02  0.00000000000E+00 0.  1.
         11    1    4    4    0    0  0.57261704515E+01  0.62280428073E+01  0.21514243407E+02  0.23117963035E+02  0.51100000000E-03 0. -1.
        -11    1    4    4    0    0 -0.44317667070E+01  0.13160101518E+01  0.73126835270E+00  0.46805119944E+01  0.51100000000E-03 0.  1.
         12    1    4    4    0    0 -0.26336400011E+02  0.10369450490E+01  0.33482946881E+01  0.26568633723E+02  0.00000000000E+00 0. -1.
</event>
<event>
 8    1  0.2509217E-006  0.9118800E+02  0.7816164E-02  0.1184000E+00
        -11   -1    0    0    0    0  0.00000000000E+00  0.00000000000E+00  0.45593999997E+02  0.45594000000E+02  0.51100000000E-03 0.  1.
         11   -1    0    0    0    0 -0.00000000000E+00 -0.00000000000E+00 -0.45593999997E+02  0.45594000000E+02  0.51100000000E-03 0. -1.
         23    2    1    2    0    0  0.00000000000E+00 -0.35527136788E-14  0.00000000000E+00  0.91188000000E+02  0.91188000000E+02 0.  0.
    9900012    2    3    3    0    0  0.85730241328E+01 -0.31007318806E+02  0.17911685207E+02  0.54367095213E+02  0.40000025158E+02 0.  0.
         12    1    3    3    0    0 -0.85730241328E+01  0.31007318806E+02 -0.17911685207E+02  0.36820904787E+02  0.00000000000E+00 0. -1.
         11    1    4    4    0    0 -0.83895827219E+01 -0.16108487704E+02  0.12331020937E+02  0.21952734499E+02  0.51100000000E-03 0. -1.
        -11    1    4    4    0    0  0.16959773041E+02 -0.17366630464E+02  0.10855423722E+02  0.26590862712E+02  0.51100000000E-03 0.  1.
        -12    1    4    4    0    0  0.28338133151E-02  0.24677993622E+01 -0.52747594514E+01  0.58234980032E+01  0.00000000000E+00 0.  1.
</event>
<event>
 8    1  0.2509217E-006  0.9118800E+02  0.7816164E-02  0.1184000E+00
        -11   -1    0    0    0    0  0.00000000000E+00  0.00000000000E+00  0.45593999997E+02  0.45594000000E+02  0.51100000000E-03 0.  1.
         11   -1    0    0    0    0 -0.00000000000E+00 -0.00000000000E+00 -0.45593999997E+02  0.45594000000E+02  0.51100000000E-03 0. -1.
         23    2    1    2    0    0  0.00000000000E+00  0.00000000000E+00  0.00000000000E+00  0.91188000000E+02  0.91188000000E+02 0.  0.
    9900012    2    3    3    0    0  0.55534705488E+01 -0.36178438456E+02 -0.40075508413E+01  0.54367069702E+02  0.39999967000E+02 0.  0.
        -12    1    3    3    0    0 -0.55534705488E+01  0.36178438456E+02  0.40075508413E+01  0.36820930298E+02  0.00000000000E+00 0.  1.
         11    1    4    4    0    0  0.37602762120E+01 -0.12933397571E+02 -0.10471932885E+02  0.17060885924E+02  0.51100000000E-03 0. -1.
        -11    1    4    4    0    0 -0.19519198522E+00  0.93449132971E+00  0.12313059486E+02  0.12350012475E+02  0.51100000000E-03 0.  1.
         12    1    4    4    0    0  0.19883863220E+01 -0.24179532215E+02 -0.58486774418E+01  0.24956171303E+02  0.00000000000E+00 0. -1.
</event>
<event>
 8    1  0.2509217E-006  0.9118800E+02  0.7816164E-02  0.1184000E+00
        -11   -1    0    0    0    0  0.00000000000E+00  0.00000000000E+00  0.45593999997E+02  0.45594000000E+02  0.51100000000E-03 0.  1.
         11   -1    0    0    0    0 -0.00000000000E+00 -0.00000000000E+00 -0.45593999997E+02  0.45594000000E+02  0.51100000000E-03 0. -1.
         23    2    1    2    0    0 -0.13322676296E-14  0.00000000000E+00  0.00000000000E+00  0.91188000000E+02  0.91188000000E+02 0.  0.
    9900012    2    3    3    0    0 -0.27869045411E+01  0.28702860680E+02 -0.22894492458E+02  0.54367097878E+02  0.40000031234E+02 0.  0.
         12    1    3    3    0    0  0.27869045411E+01 -0.28702860680E+02  0.22894492458E+02  0.36820902122E+02  0.00000000000E+00 0. -1.
         11    1    4    4    0    0 -0.90272930731E+01  0.50387118640E+01 -0.12624191004E+02  0.16317194497E+02  0.51100000000E-03 0. -1.
        -11    1    4    4    0    0  0.12751826681E+02  0.23244570229E+02 -0.14553828525E+02  0.30244554119E+02  0.51100000000E-03 0.  1.
        -12    1    4    4    0    0 -0.65114381487E+01  0.41957858625E+00  0.42835270705E+01  0.78053492630E+01  0.00000000000E+00 0.  1.
</event>
<event>
 8    1  0.2509217E-006  0.9118800E+02  0.7816164E-02  0.1184000E+00
        -11   -1    0    0    0    0  0.00000000000E+00  0.00000000000E+00  0.45593999997E+02  0.45594000000E+02  0.51100000000E-03 0.  1.
         11   -1    0    0    0    0 -0.00000000000E+00 -0.00000000000E+00 -0.45593999997E+02  0.45594000000E+02  0.51100000000E-03 0. -1.
         23    2    1    2    0    0  0.00000000000E+00  0.00000000000E+00  0.00000000000E+00  0.91188000000E+02  0.91188000000E+02 0.  0.
    9900012    2    3    3    0    0 -0.90736158562E+01 -0.27827415095E+02  0.22340205045E+02  0.54367077999E+02  0.39999985914E+02 0.  0.
         12    1    3    3    0    0  0.90736158562E+01  0.27827415095E+02 -0.22340205045E+02  0.36820922001E+02  0.00000000000E+00 0. -1.
         11    1    4    4    0    0  0.73685798462E+01  0.22612439055E+01  0.69740547496E-01  0.77080514370E+01  0.51100000000E-03 0. -1.
        -11    1    4    4    0    0 -0.11236941545E+02 -0.32105382041E+02  0.14232092535E+02  0.36872440515E+02  0.51100000000E-03 0.  1.
        -12    1    4    4    0    0 -0.52052541571E+01  0.20167230409E+01  0.80383719620E+01  0.97865860474E+01  0.00000000000E+00 0.  1.
</event>
<event>
 8    1  0.2509217E-006  0.9118800E+02  0.7816164E-02  0.1184000E+00
        -11   -1    0    0    0    0  0.00000000000E+00  0.00000000000E+00  0.45593999997E+02  0.45594000000E+02  0.51100000000E-03 0.  1.
         11   -1    0    0    0    0 -0.00000000000E+00 -0.00000000000E+00 -0.45593999997E+02  0.45594000000E+02  0.51100000000E-03 0. -1.
         23    2    1    2    0    0  0.00000000000E+00  0.17763568394E-14  0.88817841970E-15  0.91188000000E+02  0.91188000000E+02 0.  0.
    9900012    2    3    3    0    0 -0.35296279674E+02 -0.89982987894E+01 -0.53836739570E+01  0.54367072728E+02  0.39999973898E+02 0.  0.
        -12    1    3    3    0    0  0.35296279674E+02  0.89982987894E+01  0.53836739570E+01  0.36820927272E+02  0.00000000000E+00 0.  1.
         11    1    4    4    0    0  0.65163724686E+01 -0.77950640419E+01 -0.79457698996E+00  0.10191049329E+02  0.51100000000E-03 0. -1.
        -11    1    4    4    0    0 -0.10787678131E+02  0.10876013598E+01 -0.71083027939E+01  0.12964753953E+02  0.51100000000E-03 0.  1.
        -12    1    4    4    0    0 -0.31024974011E+02 -0.22908361073E+01  0.25192058268E+01  0.31211269446E+02  0.00000000000E+00 0.  1.
</event>
<event>
 8    1  0.2509217E-006  0.9118800E+02  0.7816164E-02  0.1184000E+00
        -11   -1    0    0    0    0  0.00000000000E+00  0.00000000000E+00  0.45593999997E+02  0.45594000000E+02  0.51100000000E-03 0. -1.
         11   -1    0    0    0    0 -0.00000000000E+00 -0.00000000000E+00 -0.45593999997E+02  0.45594000000E+02  0.51100000000E-03 0.  1.
         23    2    1    2    0    0  0.13322676296E-14  0.00000000000E+00  0.71054273576E-14  0.91188000000E+02  0.91188000000E+02 0.  0.
    9900012    2    3    3    0    0  0.21443261807E+01  0.80348150223E+01  0.35869548756E+02  0.54367069605E+02  0.39999966778E+02 0.  0.
        -12    1    3    3    0    0 -0.21443261807E+01 -0.80348150223E+01 -0.35869548756E+02  0.36820930395E+02  0.00000000000E+00 0.  1.
         11    1    4    4    0    0 -0.13225147430E+02  0.22458126772E+01  0.30982298698E+02  0.33761679934E+02  0.51100000000E-03 0.  1.
        -11    1    4    4    0    0  0.59588765061E+01  0.56161133134E+01 -0.25861498245E+01  0.85870314509E+01  0.51100000000E-03 0. -1.
        -12    1    4    4    0    0  0.94105971045E+01  0.17288903175E+00  0.74733998829E+01  0.12018358219E+02  0.00000000000E+00 0.  1.
</event>
<event>
 8    1  0.2509217E-006  0.9118800E+02  0.7816164E-02  0.1184000E+00
        -11   -1    0    0    0    0  0.00000000000E+00  0.00000000000E+00  0.45593999997E+02  0.45594000000E+02  0.51100000000E-03 0. -1.
         11   -1    0    0    0    0 -0.00000000000E+00 -0.00000000000E+00 -0.45593999997E+02  0.45594000000E+02  0.51100000000E-03 0.  1.
         23    2    1    2    0    0  0.00000000000E+00  0.00000000000E+00 -0.17763568394E-14  0.91188000000E+02  0.91188000000E+02 0.  0.
    9900012    2    3    3    0    0 -0.10873897996E+02 -0.31414852847E+02 -0.15831748054E+02  0.54367097194E+02  0.40000029673E+02 0.  0.
         12    1    3    3    0    0  0.10873897996E+02  0.31414852847E+02  0.15831748054E+02  0.36820902806E+02  0.00000000000E+00 0. -1.
         11    1    4    4    0    0  0.32710920758E+01  0.70771055117E+00  0.26403149899E+01  0.42628817834E+01  0.51100000000E-03 0. -1.
        -11    1    4    4    0    0 -0.12822439467E+02 -0.13130497396E+02 -0.24062183446E+02  0.30262412135E+02  0.51100000000E-03 0.  1.
        -12    1    4    4    0    0 -0.13225506044E+01 -0.18992066002E+02  0.55901204023E+01  0.19841803276E+02  0.00000000000E+00 0.  1.
</event>
<event>
 8    1  0.2509217E-006  0.9118800E+02  0.7816164E-02  0.1184000E+00
        -11   -1    0    0    0    0  0.00000000000E+00  0.00000000000E+00  0.45593999997E+02  0.45594000000E+02  0.51100000000E-03 0. -1.
         11   -1    0    0    0    0 -0.00000000000E+00 -0.00000000000E+00 -0.45593999997E+02  0.45594000000E+02  0.51100000000E-03 0.  1.
         23    2    1    2    0    0 -0.88817841970E-15  0.00000000000E+00  0.00000000000E+00  0.91188000000E+02  0.91188000000E+02 0.  0.
    9900012    2    3    3    0    0 -0.46025053383E+01 -0.35946989936E+02  0.65123495362E+01  0.54367084241E+02  0.40000000144E+02 0.  0.
         12    1    3    3    0    0  0.46025053383E+01  0.35946989936E+02 -0.65123495362E+01  0.36820915759E+02  0.00000000000E+00 0. -1.
         11    1    4    4    0    0  0.81966300572E+01 -0.26639444851E+02  0.15538105751E+02  0.31910460618E+02  0.51100000000E-03 0. -1.
        -11    1    4    4    0    0 -0.10104547099E+02 -0.66313839768E+01  0.60781607346E+00  0.12101510904E+02  0.51100000000E-03 0.  1.
         12    1    4    4    0    0 -0.26945882962E+01 -0.26761611080E+01 -0.96335722887E+01  0.10355112718E+02  0.00000000000E+00 0. -1.
</event>
<event>
 8    1  0.2509217E-006  0.9118800E+02  0.7816164E-02  0.1184000E+00
        -11   -1    0    0    0    0  0.00000000000E+00  0.00000000000E+00  0.45593999997E+02  0.45594000000E+02  0.51100000000E-03 0. -1.
         11   -1    0    0    0    0 -0.00000000000E+00 -0.00000000000E+00 -0.45593999997E+02  0.45594000000E+02  0.51100000000E-03 0.  1.
         23    2    1    2    0    0  0.35527136788E-14  0.00000000000E+00  0.00000000000E+00  0.91188000000E+02  0.91188000000E+02 0.  0.
    9900012    2    3    3    0    0 -0.19625148292E+02 -0.30203963861E+02  0.76389941507E+01  0.54367080538E+02  0.39999991703E+02 0.  0.
        -12    1    3    3    0    0  0.19625148292E+02  0.30203963861E+02 -0.76389941507E+01  0.36820919462E+02  0.00000000000E+00 0.  1.
         11    1    4    4    0    0 -0.28345608166E+01 -0.64818268604E+01 -0.22146825068E+01  0.74130717883E+01  0.51100000000E-03 0. -1.
        -11    1    4    4    0    0 -0.10165750938E+02 -0.15201408821E+02 -0.12486262732E+02  0.22143443263E+02  0.51100000000E-03 0.  1.
         12    1    4    4    0    0 -0.66248365379E+01 -0.85207281788E+01  0.22339939389E+02  0.24810565487E+02  0.00000000000E+00 0. -1.
</event>
<event>
 8    1  0.2509217E-006  0.9118800E+02  0.7816164E-02  0.1184000E+00
        -11   -1    0    0    0    0  0.00000000000E+00  0.00000000000E+00  0.45593999997E+02  0.45594000000E+02  0.51100000000E-03 0.  1.
         11   -1    0    0    0    0 -0.00000000000E+00 -0.00000000000E+00 -0.45593999997E+02  0.45594000000E+02  0.51100000000E-03 0. -1.
         23    2    1    2    0    0 -0.71054273576E-14  0.88817841970E-15  0.35527136788E-14  0.91188000000E+02  0.91188000000E+02 0.  0.
    9900012    2    3    3    0    0  0.34039038595E+02 -0.45981647132E+01 -0.13265825122E+02  0.54367063247E+02  0.39999952284E+02 0.  0.
         12    1    3    3    0    0 -0.34039038595E+02  0.45981647132E+01  0.13265825122E+02  0.36820936753E+02  0.00000000000E+00 0. -1.
         11    1    4    4    0    0 -0.59707895728E+01 -0.47870332748E+01 -0.20883164084E+01  0.79326591620E+01  0.51100000000E-03 0. -1.
        -11    1    4    4    0    0  0.11476717071E+02  0.13122960429E+01  0.60958078248E+01  0.13061241477E+02  0.51100000000E-03 0.  1.
         12    1    4    4    0    0  0.28533111097E+02 -0.11234274812E+01 -0.17273316539E+02  0.33373162607E+02  0.00000000000E+00 0. -1.
</event>
<event>
 8    1  0.2509217E-006  0.9118800E+02  0.7816164E-02  0.1184000E+00
        -11   -1    0    0    0    0  0.00000000000E+00  0.00000000000E+00  0.45593999997E+02  0.45594000000E+02  0.51100000000E-03 0. -1.
         11   -1    0    0    0    0 -0.00000000000E+00 -0.00000000000E+00 -0.45593999997E+02  0.45594000000E+02  0.51100000000E-03 0.  1.
         23    2    1    2    0    0  0.19984014443E-14  0.00000000000E+00 -0.17763568394E-14  0.91188000000E+02  0.91188000000E+02 0.  0.
    9900012    2    3    3    0    0 -0.59763017115E+00 -0.33268200849E+02 -0.15768599472E+02  0.54367094540E+02  0.40000023624E+02 0.  0.
         12    1    3    3    0    0  0.59763017115E+00  0.33268200849E+02  0.15768599472E+02  0.36820905460E+02  0.00000000000E+00 0. -1.
         11    1    4    4    0    0  0.11588333972E+02 -0.98054153488E+01  0.40154579560E+01  0.15702215043E+02  0.51100000000E-03 0. -1.
        -11    1    4    4    0    0 -0.16247470231E+02 -0.12745205975E+02 -0.17296332638E+02  0.26936660655E+02  0.51100000000E-03 0.  1.
        -12    1    4    4    0    0  0.40615060875E+01 -0.10717579525E+02 -0.24877247899E+01  0.11728218842E+02  0.00000000000E+00 0.  1.
</event>
<event>
 8    1  0.2509217E-006  0.9118800E+02  0.7816164E-02  0.1184000E+00
        -11   -1    0    0    0    0  0.00000000000E+00  0.00000000000E+00  0.45593999997E+02  0.45594000000E+02  0.51100000000E-03 0.  1.
         11   -1    0    0    0    0 -0.00000000000E+00 -0.00000000000E+00 -0.45593999997E+02  0.45594000000E+02  0.51100000000E-03 0. -1.
         23    2    1    2    0    0  0.00000000000E+00  0.17763568394E-14  0.00000000000E+00  0.91188000000E+02  0.91188000000E+02 0.  0.
    9900012    2    3    3    0    0 -0.12785611417E+02 -0.42190432529E+01 -0.34271085679E+02  0.54367088837E+02  0.40000010621E+02 0.  0.
        -12    1    3    3    0    0  0.12785611417E+02  0.42190432529E+01  0.34271085679E+02  0.36820911163E+02  0.00000000000E+00 0.  1.
         11    1    4    4    0    0 -0.55764718465E+01  0.62497884265E-01  0.16195400003E+01  0.58072243209E+01  0.51100000000E-03 0. -1.
        -11    1    4    4    0    0  0.38198629090E+01  0.10564487109E+02 -0.44501351461E+01  0.12083188470E+02  0.51100000000E-03 0.  1.
         12    1    4    4    0    0 -0.11029002479E+02 -0.14846028246E+02 -0.31440490533E+02  0.36476676046E+02  0.00000000000E+00 0. -1.
</event>
<event>
 8    1  0.2509217E-006  0.9118800E+02  0.7816164E-02  0.1184000E+00
        -11   -1    0    0    0    0  0.00000000000E+00  0.00000000000E+00  0.45593999997E+02  0.45594000000E+02  0.51100000000E-03 0. -1.
         11   -1    0    0    0    0 -0.00000000000E+00 -0.00000000000E+00 -0.45593999997E+02  0.45594000000E+02  0.51100000000E-03 0.  1.
         23    2    1    2    0    0  0.35527136788E-14  0.00000000000E+00  0.00000000000E+00  0.91188000000E+02  0.91188000000E+02 0.  0.
    9900012    2    3    3    0    0 -0.26983564683E+02  0.21734890207E+02 -0.12460307356E+02  0.54367116324E+02  0.40000073283E+02 0.  0.
         12    1    3    3    0    0  0.26983564683E+02 -0.21734890207E+02  0.12460307356E+02  0.36820883676E+02  0.00000000000E+00 0. -1.
         11    1    4    4    0    0 -0.33204643835E+02  0.11746070637E+02 -0.60080626070E+01  0.35729754605E+02  0.51100000000E-03 0.  1.
        -11    1    4    4    0    0  0.41328532416E+01  0.10788833196E+02  0.26633686029E+00  0.11556397935E+02  0.51100000000E-03 0. -1.
         12    1    4    4    0    0  0.20882259103E+01 -0.80001362661E+00 -0.67185816096E+01  0.70809637833E+01  0.00000000000E+00 0. -1.
</event>
<event>
 8    1  0.2509217E-006  0.9118800E+02  0.7816164E-02  0.1184000E+00
        -11   -1    0    0    0    0  0.00000000000E+00  0.00000000000E+00  0.45593999997E+02  0.45594000000E+02  0.51100000000E-03 0.  1.
         11   -1    0    0    0    0 -0.00000000000E+00 -0.00000000000E+00 -0.45593999997E+02  0.45594000000E+02  0.51100000000E-03 0. -1.
         23    2    1    2    0    0  0.00000000000E+00  0.35527136788E-14  0.00000000000E+00  0.91188000000E+02  0.91188000000E+02 0.  0.
    9900012    2    3    3    0    0  0.28808000728E+02  0.15062200027E+02  0.17291841928E+02  0.54367101412E+02  0.40000039289E+02 0.  0.
         12    1    3    3    0    0 -0.28808000728E+02 -0.15062200027E+02 -0.17291841928E+02  0.36820898588E+02  0.00000000000E+00 0. -1.
         11    1    4    4    0    0  0.65848866362E+01  0.92179228199E+00  0.20234014099E+02  0.21298491962E+02  0.51100000000E-03 0. -1.
        -11    1    4    4    0    0  0.39154282780E+00  0.40002914804E+01  0.61417545073E+01  0.73400808172E+01  0.51100000000E-03 0.  1.
        -12    1    4    4    0    0  0.21831571264E+02  0.10140116265E+02 -0.90839266790E+01  0.25728528633E+02  0.00000000000E+00 0.  1.
</event>
<event>
 8    1  0.2509217E-006  0.9118800E+02  0.7816164E-02  0.1184000E+00
        -11   -1    0    0    0    0  0.00000000000E+00  0.00000000000E+00  0.45593999997E+02  0.45594000000E+02  0.51100000000E-03 0. -1.
         11   -1    0    0    0    0 -0.00000000000E+00 -0.00000000000E+00 -0.45593999997E+02  0.45594000000E+02  0.51100000000E-03 0.  1.
         23    2    1    2    0    0  0.00000000000E+00 -0.35527136788E-14  0.00000000000E+00  0.91188000000E+02  0.91188000000E+02 0.  0.
    9900012    2    3    3    0    0 -0.43805737659E+01  0.21903489012E+02  0.29271611283E+02  0.54367089032E+02  0.40000011065E+02 0.  0.
        -12    1    3    3    0    0  0.43805737659E+01 -0.21903489012E+02 -0.29271611283E+02  0.36820910968E+02  0.00000000000E+00 0.  1.
         11    1    4    4    0    0 -0.41745156958E+01  0.24916665280E+02  0.10718693178E+02  0.27443709182E+02  0.51100000000E-03 0. -1.
        -11    1    4    4    0    0  0.69235319245E+01 -0.26004076485E+00  0.17968953444E+02  0.19258406052E+02  0.51100000000E-03 0.  1.
         12    1    4    4    0    0 -0.71295899946E+01 -0.27531355034E+01  0.58396466075E+00  0.76649737974E+01  0.00000000000E+00 0. -1.
</event>
<event>
 8    1  0.2509217E-006  0.9118800E+02  0.7816164E-02  0.1184000E+00
        -11   -1    0    0    0    0  0.00000000000E+00  0.00000000000E+00  0.45593999997E+02  0.45594000000E+02  0.51100000000E-03 0. -1.
         11   -1    0    0    0    0 -0.00000000000E+00 -0.00000000000E+00 -0.45593999997E+02  0.45594000000E+02  0.51100000000E-03 0.  1.
         23    2    1    2    0    0  0.35527136788E-14  0.22204460493E-15  0.00000000000E+00  0.91188000000E+02  0.91188000000E+02 0.  0.
    9900012    2    3    3    0    0 -0.22655678860E+02 -0.79963550650E+00  0.29014830980E+02  0.54367087215E+02  0.40000006924E+02 0.  0.
        -12    1    3    3    0    0  0.22655678860E+02  0.79963550650E+00 -0.29014830980E+02  0.36820912785E+02  0.00000000000E+00 0.  1.
         11    1    4    4    0    0 -0.18805185694E+02  0.41334990275E+01  0.66795171588E+01  0.20379812878E+02  0.51100000000E-03 0. -1.
        -11    1    4    4    0    0  0.59357645760E+01  0.72310876634E-01  0.22215113118E+02  0.22994559815E+02  0.51100000000E-03 0.  1.
        -12    1    4    4    0    0 -0.97862577421E+01 -0.50054454106E+01  0.12020070244E+00  0.10992714522E+02  0.00000000000E+00 0.  1.
</event>
<event>
 8    1  0.2509217E-006  0.9118800E+02  0.7816164E-02  0.1184000E+00
        -11   -1    0    0    0    0  0.00000000000E+00  0.00000000000E+00  0.45593999997E+02  0.45594000000E+02  0.51100000000E-03 0. -1.
         11   -1    0    0    0    0 -0.00000000000E+00 -0.00000000000E+00 -0.45593999997E+02  0.45594000000E+02  0.51100000000E-03 0.  1.
         23    2    1    2    0    0  0.00000000000E+00  0.00000000000E+00 -0.35527136788E-14  0.91188000000E+02  0.91188000000E+02 0.  0.
    9900012    2    3    3    0    0 -0.13550982001E+02 -0.20250021307E+02 -0.27605948443E+02  0.54367070278E+02  0.39999968313E+02 0.  0.
         12    1    3    3    0    0  0.13550982001E+02  0.20250021307E+02  0.27605948443E+02  0.36820929722E+02  0.00000000000E+00 0. -1.
         11    1    4    4    0    0 -0.13692083979E+02  0.75478968004E+00 -0.11146988116E+02  0.17671961280E+02  0.51100000000E-03 0. -1.
        -11    1    4    4    0    0 -0.11267579640E+02 -0.15340889341E+02 -0.14227381957E+02  0.23763830380E+02  0.51100000000E-03 0.  1.
         12    1    4    4    0    0  0.11408681618E+02 -0.56639216463E+01 -0.22315783706E+01  0.12931278618E+02  0.00000000000E+00 0. -1.
</event>
<event>
 8    1  0.2509217E-006  0.9118800E+02  0.7816164E-02  0.1184000E+00
        -11   -1    0    0    0    0  0.00000000000E+00  0.00000000000E+00  0.45593999997E+02  0.45594000000E+02  0.51100000000E-03 0. -1.
         11   -1    0    0    0    0 -0.00000000000E+00 -0.00000000000E+00 -0.45593999997E+02  0.45594000000E+02  0.51100000000E-03 0.  1.
         23    2    1    2    0    0 -0.71054273576E-14  0.00000000000E+00  0.00000000000E+00  0.91188000000E+02  0.91188000000E+02 0.  0.
    9900012    2    3    3    0    0  0.33638348778E+02 -0.88745441200E+01 -0.12061701891E+02  0.54367072603E+02  0.39999973613E+02 0.  0.
        -12    1    3    3    0    0 -0.33638348778E+02  0.88745441200E+01  0.12061701891E+02  0.36820927397E+02  0.00000000000E+00 0.  1.
         11    1    4    4    0    0 -0.59220804077E+01  0.26502152357E+01 -0.39480308160E+01  0.75948419823E+01  0.51100000000E-03 0. -1.
        -11    1    4    4    0    0  0.38535535553E+02 -0.10255474572E+02 -0.14408337791E+01  0.39902860314E+02  0.51100000000E-03 0.  1.
        -12    1    4    4    0    0  0.10248936332E+01 -0.12692847835E+01 -0.66728372963E+01  0.68693703062E+01  0.00000000000E+00 0.  1.
</event>
<event>
 8    1  0.2509217E-006  0.9118800E+02  0.7816164E-02  0.1184000E+00
        -11   -1    0    0    0    0  0.00000000000E+00  0.00000000000E+00  0.45593999997E+02  0.45594000000E+02  0.51100000000E-03 0. -1.
         11   -1    0    0    0    0 -0.00000000000E+00 -0.00000000000E+00 -0.45593999997E+02  0.45594000000E+02  0.51100000000E-03 0.  1.
         23    2    1    2    0    0  0.00000000000E+00  0.35527136788E-14  0.00000000000E+00  0.91188000000E+02  0.91188000000E+02 0.  0.
    9900012    2    3    3    0    0 -0.66281182392E+01  0.26648365036E+02 -0.24529829662E+02  0.54367084018E+02  0.39999999636E+02 0.  0.
         12    1    3    3    0    0  0.66281182392E+01 -0.26648365036E+02  0.24529829662E+02  0.36820915982E+02  0.00000000000E+00 0. -1.
         11    1    4    4    0    0  0.60187071271E+00  0.25890548394E+02  0.14159652012E+01  0.25936223746E+02  0.51100000000E-03 0. -1.
        -11    1    4    4    0    0 -0.59083165379E+01 -0.30293530800E+01 -0.10112911170E+02  0.12097774877E+02  0.51100000000E-03 0.  1.
         12    1    4    4    0    0 -0.13216724140E+01  0.37871697228E+01 -0.15832883693E+02  0.16333085395E+02  0.00000000000E+00 0. -1.
</event>
<event>
 8    1  0.2509217E-006  0.9118800E+02  0.7816164E-02  0.1184000E+00
        -11   -1    0    0    0    0  0.00000000000E+00  0.00000000000E+00  0.45593999997E+02  0.45594000000E+02  0.51100000000E-03 0. -1.
         11   -1    0    0    0    0 -0.00000000000E+00 -0.00000000000E+00 -0.45593999997E+02  0.45594000000E+02  0.51100000000E-03 0.  1.
         23    2    1    2    0    0  0.00000000000E+00  0.71054273576E-14  0.26645352591E-14  0.91188000000E+02  0.91188000000E+02 0.  0.
    9900012    2    3    3    0    0 -0.40094125929E+01 -0.36038218665E+02 -0.63992835255E+01  0.54367089860E+02  0.40000012954E+02 0.  0.
         12    1    3    3    0    0  0.40094125929E+01  0.36038218665E+02  0.63992835255E+01  0.36820910140E+02  0.00000000000E+00 0. -1.
         11    1    4    4    0    0  0.57745672897E+01 -0.79780934194E+01 -0.13399392621E+02  0.16629471575E+02  0.51100000000E-03 0. -1.
        -11    1    4    4    0    0 -0.51893549253E+01 -0.87440392484E+01  0.13450309392E+02  0.16861152094E+02  0.51100000000E-03 0.  1.
        -12    1    4    4    0    0 -0.45946249573E+01 -0.19316085997E+02 -0.64502002961E+01  0.20876466191E+02  0.00000000000E+00 0.  1.
</event>
<event>
 8    1  0.2509217E-006  0.9118800E+02  0.7816164E-02  0.1184000E+00
        -11   -1    0    0    0    0  0.00000000000E+00  0.00000000000E+00  0.45593999997E+02  0.45594000000E+02  0.51100000000E-03 0. -1.
         11   -1    0    0    0    0 -0.00000000000E+00 -0.00000000000E+00 -0.45593999997E+02  0.45594000000E+02  0.51100000000E-03 0.  1.
         23    2    1    2    0    0 -0.17763568394E-14 -0.88817841970E-15  0.00000000000E+00  0.91188000000E+02  0.91188000000E+02 0.  0.
    9900012    2    3    3    0    0 -0.11972759960E+02 -0.56459409469E+01 -0.34359219692E+02  0.54367087354E+02  0.40000007241E+02 0.  0.
         12    1    3    3    0    0  0.11972759960E+02  0.56459409469E+01  0.34359219692E+02  0.36820912646E+02  0.00000000000E+00 0. -1.
         11    1    4    4    0    0  0.23186202549E+01  0.12267491536E+02 -0.94446195099E+01  0.15654653827E+02  0.51100000000E-03 0. -1.
        -11    1    4    4    0    0  0.44715623711E+01 -0.50660881322E+01 -0.42278993203E+01  0.79709003209E+01  0.51100000000E-03 0.  1.
        -12    1    4    4    0    0 -0.18762942586E+02 -0.12847344351E+02 -0.20686700862E+02  0.30741533207E+02  0.00000000000E+00 0.  1.
</event>
<event>
 8    1  0.2509217E-006  0.9118800E+02  0.7816164E-02  0.1184000E+00
        -11   -1    0    0    0    0  0.00000000000E+00  0.00000000000E+00  0.45593999997E+02  0.45594000000E+02  0.51100000000E-03 0.  1.
         11   -1    0    0    0    0 -0.00000000000E+00 -0.00000000000E+00 -0.45593999997E+02  0.45594000000E+02  0.51100000000E-03 0. -1.
         23    2    1    2    0    0  0.00000000000E+00  0.00000000000E+00  0.00000000000E+00  0.91188000000E+02  0.91188000000E+02 0.  0.
    9900012    2    3    3    0    0 -0.14055125324E+02  0.10159131082E+02  0.32481183254E+02  0.54367058163E+02  0.39999940693E+02 0.  0.
         12    1    3    3    0    0  0.14055125324E+02 -0.10159131082E+02 -0.32481183254E+02  0.36820941837E+02  0.00000000000E+00 0. -1.
         11    1    4    4    0    0 -0.10114567166E+02  0.89142634008E+01  0.16094160748E+02  0.20995013012E+02  0.51100000000E-03 0. -1.
        -11    1    4    4    0    0 -0.13348949418E+02 -0.51256920064E+00  0.19205441736E+02  0.23394575659E+02  0.51100000000E-03 0.  1.
        -12    1    4    4    0    0  0.94083912605E+01  0.17574368821E+01 -0.28184192294E+01  0.99774694917E+01  0.00000000000E+00 0.  1.
</event>
<event>
 8    1  0.2509217E-006  0.9118800E+02  0.7816164E-02  0.1184000E+00
        -11   -1    0    0    0    0  0.00000000000E+00  0.00000000000E+00  0.45593999997E+02  0.45594000000E+02  0.51100000000E-03 0.  1.
         11   -1    0    0    0    0 -0.00000000000E+00 -0.00000000000E+00 -0.45593999997E+02  0.45594000000E+02  0.51100000000E-03 0. -1.
         23    2    1    2    0    0  0.17763568394E-14  0.55511151231E-15  0.00000000000E+00  0.91188000000E+02  0.91188000000E+02 0.  0.
    9900012    2    3    3    0    0  0.13375222171E+02  0.74597211658E+00 -0.34297624802E+02  0.54367080544E+02  0.39999991716E+02 0.  0.
        -12    1    3    3    0    0 -0.13375222171E+02 -0.74597211658E+00  0.34297624802E+02  0.36820919456E+02  0.00000000000E+00 0.  1.
         11    1    4    4    0    0  0.38275077663E+01  0.69393838336E-02 -0.36557109922E+02  0.36756933359E+02  0.51100000000E-03 0. -1.
        -11    1    4    4    0    0  0.23091459680E+01 -0.59346753045E+01  0.41277817509E+01  0.75888805838E+01  0.51100000000E-03 0.  1.
         12    1    4    4    0    0  0.72385684369E+01  0.66737080373E+01 -0.18682966306E+01  0.10021266601E+02  0.00000000000E+00 0. -1.
</event>
<event>
 8    1  0.2509217E-006  0.9118800E+02  0.7816164E-02  0.1184000E+00
        -11   -1    0    0    0    0  0.00000000000E+00  0.00000000000E+00  0.45593999997E+02  0.45594000000E+02  0.51100000000E-03 0. -1.
         11   -1    0    0    0    0 -0.00000000000E+00 -0.00000000000E+00 -0.45593999997E+02  0.45594000000E+02  0.51100000000E-03 0.  1.
         23    2    1    2    0    0  0.00000000000E+00  0.00000000000E+00 -0.17763568394E-14  0.91188000000E+02  0.91188000000E+02 0.  0.
    9900012    2    3    3    0    0 -0.32712150363E+02  0.15370002219E+02  0.70325884012E+01  0.54367094943E+02  0.40000024541E+02 0.  0.
        -12    1    3    3    0    0  0.32712150363E+02 -0.15370002219E+02 -0.70325884012E+01  0.36820905057E+02  0.00000000000E+00 0.  1.
         11    1    4    4    0    0 -0.76310768584E+01  0.83209035380E+01  0.18290447007E+02  0.21494446299E+02  0.51100000000E-03 0. -1.
        -11    1    4    4    0    0 -0.54484746535E+00  0.26952371490E+01 -0.70931713580E+01  0.76075122231E+01  0.51100000000E-03 0.  1.
        -12    1    4    4    0    0 -0.24536226039E+02  0.43538615323E+01 -0.41646872481E+01  0.25265136421E+02  0.00000000000E+00 0.  1.
</event>
<event>
 8    1  0.2509217E-006  0.9118800E+02  0.7816164E-02  0.1184000E+00
        -11   -1    0    0    0    0  0.00000000000E+00  0.00000000000E+00  0.45593999997E+02  0.45594000000E+02  0.51100000000E-03 0.  1.
         11   -1    0    0    0    0 -0.00000000000E+00 -0.00000000000E+00 -0.45593999997E+02  0.45594000000E+02  0.51100000000E-03 0. -1.
         23    2    1    2    0    0  0.00000000000E+00  0.00000000000E+00  0.00000000000E+00  0.91188000000E+02  0.91188000000E+02 0.  0.
    9900012    2    3    3    0    0 -0.64709660387E+01  0.25619739865E+02  0.25642158603E+02  0.54367288844E+02  0.40000466575E+02 0.  0.
         12    1    3    3    0    0  0.64709660387E+01 -0.25619739865E+02 -0.25642158603E+02  0.36820711156E+02  0.00000000000E+00 0. -1.
         11    1    4    4    0    0  0.86573348898E+00  0.14824776586E+01 -0.32358316889E+01  0.36630371910E+01  0.51100000000E-03 0. -1.
        -11    1    4    4    0    0  0.94663764495E+01  0.92843175711E+01  0.24494816520E+02  0.27853309901E+02  0.51100000000E-03 0.  1.
         12    1    4    4    0    0 -0.16803075977E+02  0.14852944635E+02  0.43831737725E+01  0.22850941752E+02  0.00000000000E+00 0. -1.
</event>
<event>
 8    1  0.2509217E-006  0.9118800E+02  0.7816164E-02  0.1184000E+00
        -11   -1    0    0    0    0  0.00000000000E+00  0.00000000000E+00  0.45593999997E+02  0.45594000000E+02  0.51100000000E-03 0.  1.
         11   -1    0    0    0    0 -0.00000000000E+00 -0.00000000000E+00 -0.45593999997E+02  0.45594000000E+02  0.51100000000E-03 0. -1.
         23    2    1    2    0    0  0.00000000000E+00  0.00000000000E+00  0.00000000000E+00  0.91188000000E+02  0.91188000000E+02 0.  0.
    9900012    2    3    3    0    0  0.88919844109E+01 -0.31198625544E+02 -0.17417142643E+02  0.54367102667E+02  0.40000042149E+02 0.  0.
        -12    1    3    3    0    0 -0.88919844109E+01  0.31198625544E+02  0.17417142643E+02  0.36820897333E+02  0.00000000000E+00 0.  1.
         11    1    4    4    0    0 -0.31224292127E+01 -0.34057310839E+01 -0.22861583233E+02  0.23323819511E+02  0.51100000000E-03 0.  1.
        -11    1    4    4    0    0  0.67169420549E+01 -0.10686990409E+02  0.15508558614E+01  0.12717477295E+02  0.51100000000E-03 0. -1.
        -12    1    4    4    0    0  0.52974715687E+01 -0.17105904051E+02  0.38935847287E+01  0.18325805861E+02  0.00000000000E+00 0.  1.
</event>
<event>
 8    1  0.2509217E-006  0.9118800E+02  0.7816164E-02  0.1184000E+00
        -11   -1    0    0    0    0  0.00000000000E+00  0.00000000000E+00  0.45593999997E+02  0.45594000000E+02  0.51100000000E-03 0. -1.
         11   -1    0    0    0    0 -0.00000000000E+00 -0.00000000000E+00 -0.45593999997E+02  0.45594000000E+02  0.51100000000E-03 0.  1.
         23    2    1    2    0    0  0.00000000000E+00 -0.35527136788E-14  0.00000000000E+00  0.91188000000E+02  0.91188000000E+02 0.  0.
    9900012    2    3    3    0    0  0.18146263147E+02  0.21423049316E+02 -0.23823210435E+02  0.54367092031E+02  0.40000017904E+02 0.  0.
         12    1    3    3    0    0 -0.18146263147E+02 -0.21423049316E+02  0.23823210435E+02  0.36820907969E+02  0.00000000000E+00 0. -1.
         11    1    4    4    0    0  0.64500668122E+01 -0.10127215640E+02 -0.38144348406E+01  0.12598165419E+02  0.51100000000E-03 0. -1.
        -11    1    4    4    0    0  0.10575733604E+02  0.14442161153E+02 -0.40643566109E+01  0.18355956934E+02  0.51100000000E-03 0.  1.
         12    1    4    4    0    0  0.11204627308E+01  0.17108103803E+02 -0.15944418984E+02  0.23412969679E+02  0.00000000000E+00 0. -1.
</event>
<event>
 8    1  0.2509217E-006  0.9118800E+02  0.7816164E-02  0.1184000E+00
        -11   -1    0    0    0    0  0.00000000000E+00  0.00000000000E+00  0.45593999997E+02  0.45594000000E+02  0.51100000000E-03 0.  1.
         11   -1    0    0    0    0 -0.00000000000E+00 -0.00000000000E+00 -0.45593999997E+02  0.45594000000E+02  0.51100000000E-03 0. -1.
         23    2    1    2    0    0  0.00000000000E+00 -0.33306690739E-15  0.00000000000E+00  0.91188000000E+02  0.91188000000E+02 0.  0.
    9900012    2    3    3    0    0  0.24324286963E+02 -0.25171185667E+00  0.27641388271E+02  0.54367073332E+02  0.39999975276E+02 0.  0.
         12    1    3    3    0    0 -0.24324286963E+02  0.25171185667E+00 -0.27641388271E+02  0.36820926668E+02  0.00000000000E+00 0. -1.
         11    1    4    4    0    0  0.13401835573E+02 -0.89432130764E+01  0.62137254891E+01  0.17268486951E+02  0.51100000000E-03 0. -1.
        -11    1    4    4    0    0 -0.65385961400E+01  0.76364570438E+01  0.15791654646E+02  0.18720178215E+02  0.51100000000E-03 0.  1.
        -12    1    4    4    0    0  0.17461047530E+02  0.10550441758E+01  0.56360081361E+01  0.18378408167E+02  0.00000000000E+00 0.  1.
</event>
<event>
 8    1  0.2509217E-006  0.9118800E+02  0.7816164E-02  0.1184000E+00
        -11   -1    0    0    0    0  0.00000000000E+00  0.00000000000E+00  0.45593999997E+02  0.45594000000E+02  0.51100000000E-03 0.  1.
         11   -1    0    0    0    0 -0.00000000000E+00 -0.00000000000E+00 -0.45593999997E+02  0.45594000000E+02  0.51100000000E-03 0. -1.
         23    2    1    2    0    0  0.00000000000E+00 -0.35527136788E-14  0.00000000000E+00  0.91188000000E+02  0.91188000000E+02 0.  0.
    9900012    2    3    3    0    0 -0.15260391992E+02  0.29745069186E+02 -0.15431495120E+02  0.54367085478E+02  0.40000002964E+02 0.  0.
        -12    1    3    3    0    0  0.15260391992E+02 -0.29745069186E+02  0.15431495120E+02  0.36820914522E+02  0.00000000000E+00 0.  1.
         11    1    4    4    0    0 -0.65352705749E+01  0.22415074672E+02 -0.71909675660E+01  0.24430623178E+02  0.51100000000E-03 0. -1.
        -11    1    4    4    0    0  0.48037537439E+01 -0.37846046336E+01 -0.10631560741E+02  0.12264964994E+02  0.51100000000E-03 0.  1.
         12    1    4    4    0    0 -0.13528875161E+02  0.11114599147E+02  0.23910331871E+01  0.17671497306E+02  0.00000000000E+00 0. -1.
</event>
<event>
 8    1  0.2509217E-006  0.9118800E+02  0.7816164E-02  0.1184000E+00
        -11   -1    0    0    0    0  0.00000000000E+00  0.00000000000E+00  0.45593999997E+02  0.45594000000E+02  0.51100000000E-03 0. -1.
         11   -1    0    0    0    0 -0.00000000000E+00 -0.00000000000E+00 -0.45593999997E+02  0.45594000000E+02  0.51100000000E-03 0.  1.
         23    2    1    2    0    0  0.35527136788E-14 -0.17763568394E-14 -0.17763568394E-14  0.91188000000E+02  0.91188000000E+02 0.  0.
    9900012    2    3    3    0    0 -0.30934103203E+02  0.13463355216E+02 -0.14751252532E+02  0.54367080323E+02  0.39999991212E+02 0.  0.
         12    1    3    3    0    0  0.30934103203E+02 -0.13463355216E+02  0.14751252532E+02  0.36820919677E+02  0.00000000000E+00 0. -1.
         11    1    4    4    0    0 -0.66109261743E+01 -0.24748050777E+01  0.11069140174E+02  0.13128399351E+02  0.51100000000E-03 0. -1.
        -11    1    4    4    0    0 -0.22061321720E+02  0.13502874604E+02 -0.14958209048E+02  0.29879383474E+02  0.51100000000E-03 0.  1.
         12    1    4    4    0    0 -0.22618553084E+01  0.24352856902E+01 -0.10862183658E+02  0.11359297498E+02  0.00000000000E+00 0. -1.
</event>
<event>
 8    1  0.2509217E-006  0.9118800E+02  0.7816164E-02  0.1184000E+00
        -11   -1    0    0    0    0  0.00000000000E+00  0.00000000000E+00  0.45593999997E+02  0.45594000000E+02  0.51100000000E-03 0.  1.
         11   -1    0    0    0    0 -0.00000000000E+00 -0.00000000000E+00 -0.45593999997E+02  0.45594000000E+02  0.51100000000E-03 0. -1.
         23    2    1    2    0    0  0.44408920985E-15  0.00000000000E+00 -0.35527136788E-14  0.91188000000E+02  0.91188000000E+02 0.  0.
    9900012    2    3    3    0    0 -0.33963819799E+01  0.32176169765E+02 -0.17576656801E+02  0.54367079648E+02  0.39999989673E+02 0.  0.
        -12    1    3    3    0    0  0.33963819799E+01 -0.32176169765E+02  0.17576656801E+02  0.36820920352E+02  0.00000000000E+00 0.  1.
         11    1    4    4    0    0 -0.17161665430E+02  0.24288851046E+02 -0.17144743486E+02  0.34328024629E+02  0.51100000000E-03 0. -1.
        -11    1    4    4    0    0  0.43620499029E+01  0.93273370010E+01  0.12706854798E+01  0.10375034300E+02  0.51100000000E-03 0.  1.
         12    1    4    4    0    0  0.94032335468E+01 -0.14400182824E+01 -0.17025987940E+01  0.96640207182E+01  0.00000000000E+00 0. -1.
</event>
<event>
 8    1  0.2509217E-006  0.9118800E+02  0.7816164E-02  0.1184000E+00
        -11   -1    0    0    0    0  0.00000000000E+00  0.00000000000E+00  0.45593999997E+02  0.45594000000E+02  0.51100000000E-03 0.  1.
         11   -1    0    0    0    0 -0.00000000000E+00 -0.00000000000E+00 -0.45593999997E+02  0.45594000000E+02  0.51100000000E-03 0. -1.
         23    2    1    2    0    0  0.35527136788E-14  0.00000000000E+00  0.00000000000E+00  0.91188000000E+02  0.91188000000E+02 0.  0.
    9900012    2    3    3    0    0 -0.25782442388E+02  0.38450395941E+01 -0.26005033225E+02  0.54367076356E+02  0.39999982168E+02 0.  0.
        -12    1    3    3    0    0  0.25782442388E+02 -0.38450395941E+01  0.26005033225E+02  0.36820923644E+02  0.00000000000E+00 0.  1.
         11    1    4    4    0    0 -0.22550165845E+02  0.46213800485E+01 -0.13305083722E+02  0.26587447909E+02  0.51100000000E-03 0. -1.
        -11    1    4    4    0    0 -0.89705129296E+01  0.63270497335E+01 -0.14783470056E+02  0.18413382300E+02  0.51100000000E-03 0.  1.
        -12    1    4    4    0    0  0.57382363873E+01 -0.71033901879E+01  0.20835205525E+01  0.93662461472E+01  0.00000000000E+00 0.  1.
</event>
<event>
 8    1  0.2509217E-006  0.9118800E+02  0.7816164E-02  0.1184000E+00
        -11   -1    0    0    0    0  0.00000000000E+00  0.00000000000E+00  0.45593999997E+02  0.45594000000E+02  0.51100000000E-03 0.  1.
         11   -1    0    0    0    0 -0.00000000000E+00 -0.00000000000E+00 -0.45593999997E+02  0.45594000000E+02  0.51100000000E-03 0. -1.
         23    2    1    2    0    0  0.00000000000E+00  0.00000000000E+00  0.00000000000E+00  0.91188000000E+02  0.91188000000E+02 0.  0.
    9900012    2    3    3    0    0  0.19977574191E+02 -0.24613808977E+02  0.18730666454E+02  0.54367069421E+02  0.39999966360E+02 0.  0.
         12    1    3    3    0    0 -0.19977574191E+02  0.24613808977E+02 -0.18730666454E+02  0.36820930579E+02  0.00000000000E+00 0. -1.
         11    1    4    4    0    0  0.25807334064E+02 -0.11664943957E+02  0.65777148352E+01  0.29075002007E+02  0.51100000000E-03 0.  1.
        -11    1    4    4    0    0 -0.11029182948E+02 -0.38141083557E+01  0.63681292841E+01  0.13294486447E+02  0.51100000000E-03 0. -1.
         12    1    4    4    0    0  0.51994230748E+01 -0.91347566640E+01  0.57848223342E+01  0.11997580967E+02  0.00000000000E+00 0. -1.
</event>
<event>
 8    1  0.2509217E-006  0.9118800E+02  0.7816164E-02  0.1184000E+00
        -11   -1    0    0    0    0  0.00000000000E+00  0.00000000000E+00  0.45593999997E+02  0.45594000000E+02  0.51100000000E-03 0.  1.
         11   -1    0    0    0    0 -0.00000000000E+00 -0.00000000000E+00 -0.45593999997E+02  0.45594000000E+02  0.51100000000E-03 0. -1.
         23    2    1    2    0    0  0.00000000000E+00  0.26645352591E-14 -0.71054273576E-14  0.91188000000E+02  0.91188000000E+02 0.  0.
    9900012    2    3    3    0    0 -0.40855181669E+01 -0.39598656935E+01  0.36378640198E+02  0.54367116555E+02  0.40000073811E+02 0.  0.
         12    1    3    3    0    0  0.40855181669E+01  0.39598656935E+01 -0.36378640198E+02  0.36820883445E+02  0.00000000000E+00 0. -1.
         11    1    4    4    0    0  0.82318128931E+01 -0.12551429548E+02  0.15672653844E+02  0.21700995506E+02  0.51100000000E-03 0. -1.
        -11    1    4    4    0    0 -0.15760794171E+02  0.11031966237E+02  0.20944249966E+02  0.28438855794E+02  0.51100000000E-03 0.  1.
        -12    1    4    4    0    0  0.34434631111E+01 -0.24404023827E+01 -0.23826361215E+00  0.42272652550E+01  0.00000000000E+00 0.  1.
</event>
<event>
 8    1  0.2509217E-006  0.9118800E+02  0.7816164E-02  0.1184000E+00
        -11   -1    0    0    0    0  0.00000000000E+00  0.00000000000E+00  0.45593999997E+02  0.45594000000E+02  0.51100000000E-03 0.  1.
         11   -1    0    0    0    0 -0.00000000000E+00 -0.00000000000E+00 -0.45593999997E+02  0.45594000000E+02  0.51100000000E-03 0. -1.
         23    2    1    2    0    0  0.00000000000E+00  0.88817841970E-15  0.00000000000E+00  0.91188000000E+02  0.91188000000E+02 0.  0.
    9900012    2    3    3    0    0 -0.28916940174E+02 -0.79509394536E+00  0.22780652545E+02  0.54367085648E+02  0.40000003351E+02 0.  0.
         12    1    3    3    0    0  0.28916940174E+02  0.79509394536E+00 -0.22780652545E+02  0.36820914352E+02  0.00000000000E+00 0. -1.
         11    1    4    4    0    0 -0.12038972323E+02  0.97846445801E+01  0.18613724921E+02  0.24231113879E+02  0.51100000000E-03 0. -1.
        -11    1    4    4    0    0 -0.53232894209E+01 -0.81337049559E+01 -0.84308662075E+01  0.12867558892E+02  0.51100000000E-03 0.  1.
        -12    1    4    4    0    0 -0.11554678429E+02 -0.24460335695E+01  0.12597793832E+02  0.17268412876E+02  0.00000000000E+00 0.  1.
</event>
<event>
 8    1  0.2509217E-006  0.9118800E+02  0.7816164E-02  0.1184000E+00
        -11   -1    0    0    0    0  0.00000000000E+00  0.00000000000E+00  0.45593999997E+02  0.45594000000E+02  0.51100000000E-03 0.  1.
         11   -1    0    0    0    0 -0.00000000000E+00 -0.00000000000E+00 -0.45593999997E+02  0.45594000000E+02  0.51100000000E-03 0. -1.
         23    2    1    2    0    0  0.17763568394E-14  0.00000000000E+00  0.00000000000E+00  0.91188000000E+02  0.91188000000E+02 0.  0.
    9900012    2    3    3    0    0 -0.11921161113E+02 -0.16839960873E+02  0.30497225784E+02  0.54367093643E+02  0.40000021577E+02 0.  0.
         12    1    3    3    0    0  0.11921161113E+02  0.16839960873E+02 -0.30497225784E+02  0.36820906357E+02  0.00000000000E+00 0. -1.
         11    1    4    4    0    0 -0.68651515246E+01  0.15085082069E+01  0.19300320393E+01  0.72890964049E+01  0.51100000000E-03 0. -1.
        -11    1    4    4    0    0 -0.10820373440E+02 -0.25481627781E+02  0.24784769721E+02  0.37157484389E+02  0.51100000000E-03 0.  1.
        -12    1    4    4    0    0  0.57643638523E+01  0.71331587015E+01  0.37824240238E+01  0.99205128486E+01  0.00000000000E+00 0.  1.
</event>
<event>
 8    1  0.2509217E-006  0.9118800E+02  0.7816164E-02  0.1184000E+00
        -11   -1    0    0    0    0  0.00000000000E+00  0.00000000000E+00  0.45593999997E+02  0.45594000000E+02  0.51100000000E-03 0. -1.
         11   -1    0    0    0    0 -0.00000000000E+00 -0.00000000000E+00 -0.45593999997E+02  0.45594000000E+02  0.51100000000E-03 0.  1.
         23    2    1    2    0    0  0.17763568394E-14  0.35527136788E-14  0.35527136788E-14  0.91188000000E+02  0.91188000000E+02 0.  0.
    9900012    2    3    3    0    0 -0.14900829929E+02 -0.16849598901E+02 -0.29151940255E+02  0.54367091044E+02  0.40000015653E+02 0.  0.
         12    1    3    3    0    0  0.14900829929E+02  0.16849598901E+02  0.29151940255E+02  0.36820908956E+02  0.00000000000E+00 0. -1.
         11    1    4    4    0    0 -0.59056686804E+01  0.86107152786E+01 -0.84290982245E+01  0.13419055008E+02  0.51100000000E-03 0. -1.
        -11    1    4    4    0    0  0.59428157421E+01 -0.38087002678E+00 -0.20615957573E+01  0.63017694539E+01  0.51100000000E-03 0.  1.
        -12    1    4    4    0    0 -0.14937976991E+02 -0.25079444153E+02 -0.18661246273E+02  0.34646266582E+02  0.00000000000E+00 0.  1.
</event>
<event>
 8    1  0.2509217E-006  0.9118800E+02  0.7816164E-02  0.1184000E+00
        -11   -1    0    0    0    0  0.00000000000E+00  0.00000000000E+00  0.45593999997E+02  0.45594000000E+02  0.51100000000E-03 0.  1.
         11   -1    0    0    0    0 -0.00000000000E+00 -0.00000000000E+00 -0.45593999997E+02  0.45594000000E+02  0.51100000000E-03 0. -1.
         23    2    1    2    0    0  0.17763568394E-14  0.00000000000E+00  0.00000000000E+00  0.91188000000E+02  0.91188000000E+02 0.  0.
    9900012    2    3    3    0    0  0.14169664933E+02  0.32086265802E+02 -0.11201574960E+02  0.54367039406E+02  0.39999897934E+02 0.  0.
        -12    1    3    3    0    0 -0.14169664933E+02 -0.32086265802E+02  0.11201574960E+02  0.36820960594E+02  0.00000000000E+00 0.  1.
         11    1    4    4    0    0  0.17403504186E+02  0.18500542892E+02 -0.34766313456E+01  0.25636673167E+02  0.51100000000E-03 0. -1.
        -11    1    4    4    0    0 -0.90909835577E+01  0.14981923875E+02  0.16354850187E+01  0.17600535121E+02  0.51100000000E-03 0.  1.
         12    1    4    4    0    0  0.58571443043E+01 -0.13962009645E+01 -0.93604286335E+01  0.11129831119E+02  0.00000000000E+00 0. -1.
</event>
<event>
 8    1  0.2509217E-006  0.9118800E+02  0.7816164E-02  0.1184000E+00
        -11   -1    0    0    0    0  0.00000000000E+00  0.00000000000E+00  0.45593999997E+02  0.45594000000E+02  0.51100000000E-03 0.  1.
         11   -1    0    0    0    0 -0.00000000000E+00 -0.00000000000E+00 -0.45593999997E+02  0.45594000000E+02  0.51100000000E-03 0. -1.
         23    2    1    2    0    0  0.17763568394E-14  0.00000000000E+00  0.00000000000E+00  0.91188000000E+02  0.91188000000E+02 0.  0.
    9900012    2    3    3    0    0  0.14981721049E+02 -0.27367481784E+02  0.19553747126E+02  0.54367081333E+02  0.39999993516E+02 0.  0.
         12    1    3    3    0    0 -0.14981721049E+02  0.27367481784E+02 -0.19553747126E+02  0.36820918667E+02  0.00000000000E+00 0. -1.
         11    1    4    4    0    0  0.36114429128E+01 -0.19290442250E+02  0.79635914190E+01  0.21179765595E+02  0.51100000000E-03 0. -1.
        -11    1    4    4    0    0 -0.23886549533E+01 -0.14120259798E+02  0.18539239190E+00  0.14322073169E+02  0.51100000000E-03 0.  1.
        -12    1    4    4    0    0  0.13758933089E+02  0.60432202643E+01  0.11404763315E+02  0.18865242569E+02  0.00000000000E+00 0.  1.
</event>
<event>
 8    1  0.2509217E-006  0.9118800E+02  0.7816164E-02  0.1184000E+00
        -11   -1    0    0    0    0  0.00000000000E+00  0.00000000000E+00  0.45593999997E+02  0.45594000000E+02  0.51100000000E-03 0. -1.
         11   -1    0    0    0    0 -0.00000000000E+00 -0.00000000000E+00 -0.45593999997E+02  0.45594000000E+02  0.51100000000E-03 0.  1.
         23    2    1    2    0    0  0.35527136788E-14  0.35527136788E-14  0.00000000000E+00  0.91188000000E+02  0.91188000000E+02 0.  0.
    9900012    2    3    3    0    0 -0.29962839200E+02 -0.17395066957E+02  0.12466757925E+02  0.54367080123E+02  0.39999990757E+02 0.  0.
        -12    1    3    3    0    0  0.29962839200E+02  0.17395066957E+02 -0.12466757925E+02  0.36820919877E+02  0.00000000000E+00 0.  1.
         11    1    4    4    0    0 -0.19486574555E+02 -0.69045594978E+01  0.18527111095E+02  0.27760644364E+02  0.51100000000E-03 0. -1.
        -11    1    4    4    0    0 -0.35212830891E+01 -0.10480400706E+02  0.60780557957E+01  0.12616695132E+02  0.51100000000E-03 0.  1.
        -12    1    4    4    0    0 -0.69549815565E+01 -0.10106753802E-01 -0.12138408965E+02  0.13989740627E+02  0.00000000000E+00 0.  1.
</event>
<event>
 8    1  0.2509217E-006  0.9118800E+02  0.7816164E-02  0.1184000E+00
        -11   -1    0    0    0    0  0.00000000000E+00  0.00000000000E+00  0.45593999997E+02  0.45594000000E+02  0.51100000000E-03 0. -1.
         11   -1    0    0    0    0 -0.00000000000E+00 -0.00000000000E+00 -0.45593999997E+02  0.45594000000E+02  0.51100000000E-03 0.  1.
         23    2    1    2    0    0  0.88817841970E-15  0.17763568394E-14  0.00000000000E+00  0.91188000000E+02  0.91188000000E+02 0.  0.
    9900012    2    3    3    0    0 -0.25174550960E+01 -0.11809755850E+02  0.34784658477E+02  0.54367076889E+02  0.39999983384E+02 0.  0.
        -12    1    3    3    0    0  0.25174550960E+01  0.11809755850E+02 -0.34784658477E+02  0.36820923111E+02  0.00000000000E+00 0.  1.
         11    1    4    4    0    0 -0.12426256164E+02 -0.29889802778E+01  0.78442268997E+01  0.14995924156E+02  0.51100000000E-03 0. -1.
        -11    1    4    4    0    0 -0.49420058440E+01 -0.95460588750E+01  0.29501306208E+01  0.11146924811E+02  0.51100000000E-03 0.  1.
         12    1    4    4    0    0  0.14850806912E+02  0.72528330311E+00  0.23990300956E+02  0.28224227922E+02  0.00000000000E+00 0. -1.
</event>
<event>
 8    1  0.2509217E-006  0.9118800E+02  0.7816164E-02  0.1184000E+00
        -11   -1    0    0    0    0  0.00000000000E+00  0.00000000000E+00  0.45593999997E+02  0.45594000000E+02  0.51100000000E-03 0. -1.
         11   -1    0    0    0    0 -0.00000000000E+00 -0.00000000000E+00 -0.45593999997E+02  0.45594000000E+02  0.51100000000E-03 0.  1.
         23    2    1    2    0    0 -0.88817841970E-15 -0.71054273576E-14  0.00000000000E+00  0.91188000000E+02  0.91188000000E+02 0.  0.
    9900012    2    3    3    0    0 -0.33389565142E+01  0.34920123622E+02  0.11189975437E+02  0.54367092697E+02  0.40000019421E+02 0.  0.
        -12    1    3    3    0    0  0.33389565142E+01 -0.34920123622E+02 -0.11189975437E+02  0.36820907303E+02  0.00000000000E+00 0.  1.
         11    1    4    4    0    0 -0.58075698983E+01  0.94649962741E+01 -0.81469288153E+01  0.13772671200E+02  0.51100000000E-03 0. -1.
        -11    1    4    4    0    0  0.59089714704E+01  0.28344823711E+02  0.10717100001E+02  0.30873956788E+02  0.51100000000E-03 0.  1.
         12    1    4    4    0    0 -0.34403580863E+01 -0.28896963633E+01  0.86198042514E+01  0.97204647094E+01  0.00000000000E+00 0. -1.
</event>
<event>
 8    1  0.2509217E-006  0.9118800E+02  0.7816164E-02  0.1184000E+00
        -11   -1    0    0    0    0  0.00000000000E+00  0.00000000000E+00  0.45593999997E+02  0.45594000000E+02  0.51100000000E-03 0.  1.
         11   -1    0    0    0    0 -0.00000000000E+00 -0.00000000000E+00 -0.45593999997E+02  0.45594000000E+02  0.51100000000E-03 0. -1.
         23    2    1    2    0    0  0.17763568394E-14  0.00000000000E+00 -0.77715611724E-15  0.91188000000E+02  0.91188000000E+02 0.  0.
    9900012    2    3    3    0    0 -0.14833999736E+02 -0.33696805058E+02 -0.50715924801E+00  0.54367089775E+02  0.40000012761E+02 0.  0.
         12    1    3    3    0    0  0.14833999736E+02  0.33696805058E+02  0.50715924801E+00  0.36820910225E+02  0.00000000000E+00 0. -1.
         11    1    4    4    0    0 -0.12616774126E+02 -0.11450615249E+01 -0.11806131106E+02  0.17317011497E+02  0.51100000000E-03 0. -1.
        -11    1    4    4    0    0 -0.67533634763E+01 -0.26659892484E+02  0.10963711861E+02  0.29606768881E+02  0.51100000000E-03 0.  1.
         12    1    4    4    0    0  0.45361378662E+01 -0.58918510484E+01  0.33525999724E+00  0.74433093973E+01  0.00000000000E+00 0. -1.
</event>
<event>
 8    1  0.2509217E-006  0.9118800E+02  0.7816164E-02  0.1184000E+00
        -11   -1    0    0    0    0  0.00000000000E+00  0.00000000000E+00  0.45593999997E+02  0.45594000000E+02  0.51100000000E-03 0.  1.
         11   -1    0    0    0    0 -0.00000000000E+00 -0.00000000000E+00 -0.45593999997E+02  0.45594000000E+02  0.51100000000E-03 0. -1.
         23    2    1    2    0    0 -0.35527136788E-14 -0.17763568394E-14 -0.17763568394E-14  0.91188000000E+02  0.91188000000E+02 0.  0.
    9900012    2    3    3    0    0 -0.31170506079E+02 -0.15452704270E+02 -0.12057913298E+02  0.54367084862E+02  0.40000001560E+02 0.  0.
        -12    1    3    3    0    0  0.31170506079E+02  0.15452704270E+02  0.12057913298E+02  0.36820915138E+02  0.00000000000E+00 0.  1.
         11    1    4    4    0    0 -0.78162501680E+01  0.60778994459E+01 -0.46583425374E+01  0.10942339047E+02  0.51100000000E-03 0. -1.
        -11    1    4    4    0    0  0.44618344702E+01  0.15245841401E+01  0.32881824611E+01  0.57484317686E+01  0.51100000000E-03 0.  1.
         12    1    4    4    0    0 -0.27816090382E+02 -0.23055187856E+02 -0.10687753221E+02  0.37676314046E+02  0.00000000000E+00 0. -1.
</event>
<event>
 8    1  0.2509217E-006  0.9118800E+02  0.7816164E-02  0.1184000E+00
        -11   -1    0    0    0    0  0.00000000000E+00  0.00000000000E+00  0.45593999997E+02  0.45594000000E+02  0.51100000000E-03 0.  1.
         11   -1    0    0    0    0 -0.00000000000E+00 -0.00000000000E+00 -0.45593999997E+02  0.45594000000E+02  0.51100000000E-03 0. -1.
         23    2    1    2    0    0 -0.35527136788E-14 -0.35527136788E-14  0.00000000000E+00  0.91188000000E+02  0.91188000000E+02 0.  0.
    9900012    2    3    3    0    0 -0.19656560191E+02 -0.30629415060E+02 -0.55889928522E+01  0.54367105571E+02  0.40000048769E+02 0.  0.
         12    1    3    3    0    0  0.19656560191E+02  0.30629415060E+02  0.55889928522E+01  0.36820894429E+02  0.00000000000E+00 0. -1.
         11    1    4    4    0    0  0.48254929364E+01  0.47439749544E+01 -0.70478855976E+01  0.97705359170E+01  0.51100000000E-03 0. -1.
        -11    1    4    4    0    0 -0.65097359383E+01 -0.22584546746E+01 -0.85938977649E-02  0.68903812391E+01  0.51100000000E-03 0.  1.
         12    1    4    4    0    0 -0.17972317189E+02 -0.33114935340E+02  0.14674866432E+01  0.37706188415E+02  0.00000000000E+00 0. -1.
</event>
<event>
 8    1  0.2509217E-006  0.9118800E+02  0.7816164E-02  0.1184000E+00
        -11   -1    0    0    0    0  0.00000000000E+00  0.00000000000E+00  0.45593999997E+02  0.45594000000E+02  0.51100000000E-03 0.  1.
         11   -1    0    0    0    0 -0.00000000000E+00 -0.00000000000E+00 -0.45593999997E+02  0.45594000000E+02  0.51100000000E-03 0. -1.
         23    2    1    2    0    0  0.00000000000E+00  0.71054273576E-14  0.00000000000E+00  0.91188000000E+02  0.91188000000E+02 0.  0.
    9900012    2    3    3    0    0 -0.41649180019E+01  0.36093864989E+02  0.59721585040E+01  0.54367077836E+02  0.39999985544E+02 0.  0.
         12    1    3    3    0    0  0.41649180019E+01 -0.36093864989E+02 -0.59721585040E+01  0.36820922164E+02  0.00000000000E+00 0. -1.
         11    1    4    4    0    0  0.64050764439E+00  0.11097808183E+01 -0.31345411777E+01  0.33863272380E+01  0.51100000000E-03 0. -1.
        -11    1    4    4    0    0 -0.43798550979E+01 -0.58048435166E+01  0.70647257952E+01  0.10138525028E+02  0.51100000000E-03 0.  1.
        -12    1    4    4    0    0 -0.42557054834E+00  0.40788927687E+02  0.20419738864E+01  0.40842225570E+02  0.00000000000E+00 0.  1.
</event>
<event>
 8    1  0.2509217E-006  0.9118800E+02  0.7816164E-02  0.1184000E+00
        -11   -1    0    0    0    0  0.00000000000E+00  0.00000000000E+00  0.45593999997E+02  0.45594000000E+02  0.51100000000E-03 0. -1.
         11   -1    0    0    0    0 -0.00000000000E+00 -0.00000000000E+00 -0.45593999997E+02  0.45594000000E+02  0.51100000000E-03 0.  1.
         23    2    1    2    0    0  0.00000000000E+00  0.88817841970E-15  0.00000000000E+00  0.91188000000E+02  0.91188000000E+02 0.  0.
    9900012    2    3    3    0    0  0.11710426961E+02 -0.40075322578E+01 -0.34678336047E+02  0.54367062948E+02  0.39999951603E+02 0.  0.
         12    1    3    3    0    0 -0.11710426961E+02  0.40075322578E+01  0.34678336047E+02  0.36820937052E+02  0.00000000000E+00 0. -1.
         11    1    4    4    0    0  0.16312106247E+02 -0.42887583807E+01 -0.13981288200E+02  0.21907867962E+02  0.51100000000E-03 0. -1.
        -11    1    4    4    0    0  0.53625116097E+01  0.45983329285E+01 -0.20408136397E+02  0.21596139191E+02  0.51100000000E-03 0.  1.
        -12    1    4    4    0    0 -0.99641908957E+01 -0.43171068055E+01 -0.28891144987E+00  0.10863055795E+02  0.00000000000E+00 0.  1.
</event>
<event>
 8    1  0.2509217E-006  0.9118800E+02  0.7816164E-02  0.1184000E+00
        -11   -1    0    0    0    0  0.00000000000E+00  0.00000000000E+00  0.45593999997E+02  0.45594000000E+02  0.51100000000E-03 0.  1.
         11   -1    0    0    0    0 -0.00000000000E+00 -0.00000000000E+00 -0.45593999997E+02  0.45594000000E+02  0.51100000000E-03 0. -1.
         23    2    1    2    0    0 -0.17763568394E-14 -0.35527136788E-14 -0.35527136788E-14  0.91188000000E+02  0.91188000000E+02 0.  0.
    9900012    2    3    3    0    0  0.80278590913E+01  0.29413956774E+02  0.20643438165E+02  0.54367096779E+02  0.40000028728E+02 0.  0.
         12    1    3    3    0    0 -0.80278590913E+01 -0.29413956774E+02 -0.20643438165E+02  0.36820903221E+02  0.00000000000E+00 0. -1.
         11    1    4    4    0    0  0.18421930585E+02  0.19356491434E+02  0.11768481638E+02  0.29198261035E+02  0.51100000000E-03 0. -1.
        -11    1    4    4    0    0 -0.12539605346E+02  0.14050341703E+02  0.83682203566E+01  0.20607787761E+02  0.51100000000E-03 0.  1.
         12    1    4    4    0    0  0.21455338528E+01 -0.39928763628E+01  0.50673616967E+00  0.45610479835E+01  0.00000000000E+00 0. -1.
</event>
<event>
 8    1  0.2509217E-006  0.9118800E+02  0.7816164E-02  0.1184000E+00
        -11   -1    0    0    0    0  0.00000000000E+00  0.00000000000E+00  0.45593999997E+02  0.45594000000E+02  0.51100000000E-03 0.  1.
         11   -1    0    0    0    0 -0.00000000000E+00 -0.00000000000E+00 -0.45593999997E+02  0.45594000000E+02  0.51100000000E-03 0. -1.
         23    2    1    2    0    0 -0.88817841970E-15  0.71054273576E-14  0.00000000000E+00  0.91188000000E+02  0.91188000000E+02 0.  0.
    9900012    2    3    3    0    0 -0.13952449257E+01  0.32978140472E+02  0.16317944169E+02  0.54367085300E+02  0.40000002559E+02 0.  0.
         12    1    3    3    0    0  0.13952449257E+01 -0.32978140472E+02 -0.16317944169E+02  0.36820914700E+02  0.00000000000E+00 0. -1.
         11    1    4    4    0    0  0.25587581403E+01  0.59913490921E+01  0.83976771763E+01  0.10628475403E+02  0.51100000000E-03 0. -1.
        -11    1    4    4    0    0 -0.88797303962E+01  0.24274417618E+02  0.18480471753E+02  0.31774593610E+02  0.51100000000E-03 0.  1.
         12    1    4    4    0    0  0.49257273302E+01  0.27123737619E+01 -0.10560204760E+02  0.11964016288E+02  0.00000000000E+00 0. -1.
</event>
<event>
 8    1  0.2509217E-006  0.9118800E+02  0.7816164E-02  0.1184000E+00
        -11   -1    0    0    0    0  0.00000000000E+00  0.00000000000E+00  0.45593999997E+02  0.45594000000E+02  0.51100000000E-03 0. -1.
         11   -1    0    0    0    0 -0.00000000000E+00 -0.00000000000E+00 -0.45593999997E+02  0.45594000000E+02  0.51100000000E-03 0.  1.
         23    2    1    2    0    0  0.00000000000E+00  0.00000000000E+00  0.00000000000E+00  0.91188000000E+02  0.91188000000E+02 0.  0.
    9900012    2    3    3    0    0  0.24413672951E+02 -0.66673891291E+01 -0.26744952243E+02  0.54367163844E+02  0.40000181614E+02 0.  0.
         12    1    3    3    0    0 -0.24413672951E+02  0.66673891291E+01  0.26744952243E+02  0.36820836156E+02  0.00000000000E+00 0. -1.
         11    1    4    4    0    0  0.29156565135E+01  0.71279424221E+01 -0.61998402428E+00  0.77261242890E+01  0.51100000000E-03 0. -1.
        -11    1    4    4    0    0  0.21431005222E+02 -0.22548602843E+01 -0.27589414047E+02  0.35007829802E+02  0.51100000000E-03 0.  1.
         12    1    4    4    0    0  0.67011215846E-01 -0.11540471267E+02  0.14644458283E+01  0.11633209753E+02  0.00000000000E+00 0. -1.
</event>
<event>
 8    1  0.2509217E-006  0.9118800E+02  0.7816164E-02  0.1184000E+00
        -11   -1    0    0    0    0  0.00000000000E+00  0.00000000000E+00  0.45593999997E+02  0.45594000000E+02  0.51100000000E-03 0. -1.
         11   -1    0    0    0    0 -0.00000000000E+00 -0.00000000000E+00 -0.45593999997E+02  0.45594000000E+02  0.51100000000E-03 0.  1.
         23    2    1    2    0    0  0.00000000000E+00  0.00000000000E+00 -0.35527136788E-14  0.91188000000E+02  0.91188000000E+02 0.  0.
    9900012    2    3    3    0    0 -0.20540367339E+02 -0.22388681737E+02 -0.20799527159E+02  0.54367080805E+02  0.39999992310E+02 0.  0.
         12    1    3    3    0    0  0.20540367339E+02  0.22388681737E+02  0.20799527159E+02  0.36820919195E+02  0.00000000000E+00 0. -1.
         11    1    4    4    0    0 -0.12467572604E+02 -0.29317407299E+02 -0.22589582354E+02  0.39054320741E+02  0.51100000000E-03 0. -1.
        -11    1    4    4    0    0  0.26735073876E+01  0.21629349220E+01  0.13879482663E+00  0.34416846882E+01  0.51100000000E-03 0.  1.
         12    1    4    4    0    0 -0.10746302123E+02  0.47657906403E+01  0.16512603683E+01  0.11871075375E+02  0.00000000000E+00 0. -1.
</event>
<event>
 8    1  0.2509217E-006  0.9118800E+02  0.7816164E-02  0.1184000E+00
        -11   -1    0    0    0    0  0.00000000000E+00  0.00000000000E+00  0.45593999997E+02  0.45594000000E+02  0.51100000000E-03 0.  1.
         11   -1    0    0    0    0 -0.00000000000E+00 -0.00000000000E+00 -0.45593999997E+02  0.45594000000E+02  0.51100000000E-03 0. -1.
         23    2    1    2    0    0  0.00000000000E+00 -0.17763568394E-14  0.00000000000E+00  0.91188000000E+02  0.91188000000E+02 0.  0.
    9900012    2    3    3    0    0  0.14461009424E+02 -0.97955635634E+01 -0.32414595838E+02  0.54367083629E+02  0.39999998749E+02 0.  0.
        -12    1    3    3    0    0 -0.14461009424E+02  0.97955635634E+01  0.32414595838E+02  0.36820916371E+02  0.00000000000E+00 0.  1.
         11    1    4    4    0    0  0.61891956027E+01  0.58365759249E+01 -0.35161650093E+01  0.92051712298E+01  0.51100000000E-03 0. -1.
        -11    1    4    4    0    0  0.98465174633E+01  0.46556240240E+01 -0.14416764572E+01  0.10986681595E+02  0.51100000000E-03 0.  1.
        -12    1    4    4    0    0 -0.15747036422E+01 -0.20287763512E+02 -0.27456754371E+02  0.34175230804E+02  0.00000000000E+00 0.  1.
</event>
<event>
 8    1  0.2509217E-006  0.9118800E+02  0.7816164E-02  0.1184000E+00
        -11   -1    0    0    0    0  0.00000000000E+00  0.00000000000E+00  0.45593999997E+02  0.45594000000E+02  0.51100000000E-03 0.  1.
         11   -1    0    0    0    0 -0.00000000000E+00 -0.00000000000E+00 -0.45593999997E+02  0.45594000000E+02  0.51100000000E-03 0. -1.
         23    2    1    2    0    0 -0.44408920985E-15  0.00000000000E+00 -0.35527136788E-14  0.91188000000E+02  0.91188000000E+02 0.  0.
    9900012    2    3    3    0    0  0.30242878595E+01 -0.18496054507E+02 -0.31694312668E+02  0.54367084682E+02  0.40000001149E+02 0.  0.
        -12    1    3    3    0    0 -0.30242878595E+01  0.18496054507E+02  0.31694312668E+02  0.36820915318E+02  0.00000000000E+00 0.  1.
         11    1    4    4    0    0  0.65899732236E+01 -0.19275318493E+02 -0.84077060457E+01  0.22037585424E+02  0.51100000000E-03 0.  1.
        -11    1    4    4    0    0  0.51673357053E+01 -0.78848196847E+01 -0.14163664282E+02  0.17014144878E+02  0.51100000000E-03 0. -1.
        -12    1    4    4    0    0 -0.87330210695E+01  0.86640836709E+01 -0.91229423402E+01  0.15315354380E+02  0.00000000000E+00 0.  1.
</event>
<event>
 8    1  0.2509217E-006  0.9118800E+02  0.7816164E-02  0.1184000E+00
        -11   -1    0    0    0    0  0.00000000000E+00  0.00000000000E+00  0.45593999997E+02  0.45594000000E+02  0.51100000000E-03 0. -1.
         11   -1    0    0    0    0 -0.00000000000E+00 -0.00000000000E+00 -0.45593999997E+02  0.45594000000E+02  0.51100000000E-03 0.  1.
         23    2    1    2    0    0  0.00000000000E+00  0.00000000000E+00  0.00000000000E+00  0.91188000000E+02  0.91188000000E+02 0.  0.
    9900012    2    3    3    0    0  0.90348332334E+01 -0.23732696825E+02  0.26662907871E+02  0.54367085206E+02  0.40000002344E+02 0.  0.
        -12    1    3    3    0    0 -0.90348332334E+01  0.23732696825E+02 -0.26662907871E+02  0.36820914794E+02  0.00000000000E+00 0.  1.
         11    1    4    4    0    0  0.58309764519E+01 -0.16115916868E+02  0.14543604634E+02  0.22477533202E+02  0.51100000000E-03 0. -1.
        -11    1    4    4    0    0  0.27565619325E+01 -0.13836477503E+02 -0.39515316601E+01  0.14651325745E+02  0.51100000000E-03 0.  1.
        -12    1    4    4    0    0  0.44729484905E+00  0.62196975453E+01  0.16070834897E+02  0.17238226258E+02  0.00000000000E+00 0.  1.
</event>
<event>
 8    1  0.2509217E-006  0.9118800E+02  0.7816164E-02  0.1184000E+00
        -11   -1    0    0    0    0  0.00000000000E+00  0.00000000000E+00  0.45593999997E+02  0.45594000000E+02  0.51100000000E-03 0. -1.
         11   -1    0    0    0    0 -0.00000000000E+00 -0.00000000000E+00 -0.45593999997E+02  0.45594000000E+02  0.51100000000E-03 0.  1.
         23    2    1    2    0    0  0.00000000000E+00  0.44408920985E-15  0.00000000000E+00  0.91188000000E+02  0.91188000000E+02 0.  0.
    9900012    2    3    3    0    0 -0.84931721814E+01  0.18767296306E+01 -0.35778812441E+02  0.54367088720E+02  0.40000010356E+02 0.  0.
         12    1    3    3    0    0  0.84931721814E+01 -0.18767296306E+01  0.35778812441E+02  0.36820911280E+02  0.00000000000E+00 0. -1.
         11    1    4    4    0    0 -0.19199677505E+00  0.83523730264E+01 -0.66062632025E+01  0.10650901919E+02  0.51100000000E-03 0. -1.
        -11    1    4    4    0    0  0.96157140320E+01 -0.10390905824E+02 -0.11383858753E+02  0.18166593532E+02  0.51100000000E-03 0.  1.
        -12    1    4    4    0    0 -0.17916889438E+02  0.39152624286E+01 -0.17788690485E+02  0.25549593269E+02  0.00000000000E+00 0.  1.
</event>
<event>
 8    1  0.2509217E-006  0.9118800E+02  0.7816164E-02  0.1184000E+00
        -11   -1    0    0    0    0  0.00000000000E+00  0.00000000000E+00  0.45593999997E+02  0.45594000000E+02  0.51100000000E-03 0.  1.
         11   -1    0    0    0    0 -0.00000000000E+00 -0.00000000000E+00 -0.45593999997E+02  0.45594000000E+02  0.51100000000E-03 0. -1.
         23    2    1    2    0    0 -0.35527136788E-14  0.48849813084E-14 -0.35527136788E-14  0.91188000000E+02  0.91188000000E+02 0.  0.
    9900012    2    3    3    0    0  0.25115456775E+02  0.21953537632E+01  0.26835839968E+02  0.54367244251E+02  0.40000364916E+02 0.  0.
         12    1    3    3    0    0 -0.25115456775E+02 -0.21953537632E+01 -0.26835839968E+02  0.36820755749E+02  0.00000000000E+00 0. -1.
         11    1    4    4    0    0  0.99144103226E+01  0.19619044041E+02  0.14499421131E+02  0.26333166056E+02  0.51100000000E-03 0. -1.
        -11    1    4    4    0    0 -0.45311988863E+00 -0.53832366365E+01  0.31429744353E+01  0.62500274304E+01  0.51100000000E-03 0.  1.
         12    1    4    4    0    0  0.15654166341E+02 -0.12040453641E+02  0.91934444014E+01  0.21784050764E+02  0.00000000000E+00 0. -1.
</event>
<event>
 8    1  0.2509217E-006  0.9118800E+02  0.7816164E-02  0.1184000E+00
        -11   -1    0    0    0    0  0.00000000000E+00  0.00000000000E+00  0.45593999997E+02  0.45594000000E+02  0.51100000000E-03 0. -1.
         11   -1    0    0    0    0 -0.00000000000E+00 -0.00000000000E+00 -0.45593999997E+02  0.45594000000E+02  0.51100000000E-03 0.  1.
         23    2    1    2    0    0  0.00000000000E+00  0.17763568394E-14  0.35527136788E-14  0.91188000000E+02  0.91188000000E+02 0.  0.
    9900012    2    3    3    0    0 -0.20337209242E+02 -0.11167817986E+02  0.28591218221E+02  0.54367082064E+02  0.39999995180E+02 0.  0.
        -12    1    3    3    0    0  0.20337209242E+02  0.11167817986E+02 -0.28591218221E+02  0.36820917936E+02  0.00000000000E+00 0.  1.
         11    1    4    4    0    0 -0.27128874501E+01 -0.98174582642E+00 -0.38239878528E+01  0.47902470233E+01  0.51100000000E-03 0. -1.
        -11    1    4    4    0    0 -0.14301729893E+00  0.10435579842E+02  0.10080433518E+02  0.14509890446E+02  0.51100000000E-03 0.  1.
         12    1    4    4    0    0 -0.17481304493E+02 -0.20621652001E+02  0.22334772556E+02  0.35066944594E+02  0.00000000000E+00 0. -1.
</event>
<event>
 8    1  0.2509217E-006  0.9118800E+02  0.7816164E-02  0.1184000E+00
        -11   -1    0    0    0    0  0.00000000000E+00  0.00000000000E+00  0.45593999997E+02  0.45594000000E+02  0.51100000000E-03 0.  1.
         11   -1    0    0    0    0 -0.00000000000E+00 -0.00000000000E+00 -0.45593999997E+02  0.45594000000E+02  0.51100000000E-03 0. -1.
         23    2    1    2    0    0  0.88817841970E-15 -0.17763568394E-14  0.71054273576E-14  0.91188000000E+02  0.91188000000E+02 0.  0.
    9900012    2    3    3    0    0 -0.57784359714E+01 -0.13910780787E+02  0.33598794008E+02  0.54367094210E+02  0.40000022872E+02 0.  0.
         12    1    3    3    0    0  0.57784359714E+01  0.13910780787E+02 -0.33598794008E+02  0.36820905790E+02  0.00000000000E+00 0. -1.
         11    1    4    4    0    0 -0.28242055476E+00 -0.14756675158E+00 -0.35576255504E+00  0.47760294451E+00  0.51100000000E-03 0. -1.
        -11    1    4    4    0    0 -0.18352187972E+02  0.16544877736E+00  0.28963145620E+02  0.34288394263E+02  0.51100000000E-03 0.  1.
        -12    1    4    4    0    0  0.12856172555E+02 -0.13928662813E+02  0.49914109425E+01  0.19601097003E+02  0.00000000000E+00 0.  1.
</event>
<event>
 8    1  0.2509217E-006  0.9118800E+02  0.7816164E-02  0.1184000E+00
        -11   -1    0    0    0    0  0.00000000000E+00  0.00000000000E+00  0.45593999997E+02  0.45594000000E+02  0.51100000000E-03 0.  1.
         11   -1    0    0    0    0 -0.00000000000E+00 -0.00000000000E+00 -0.45593999997E+02  0.45594000000E+02  0.51100000000E-03 0. -1.
         23    2    1    2    0    0  0.00000000000E+00  0.00000000000E+00  0.00000000000E+00  0.91188000000E+02  0.91188000000E+02 0.  0.
    9900012    2    3    3    0    0  0.29332037767E+02 -0.51690209566E+01  0.21649324117E+02  0.54367075895E+02  0.39999981118E+02 0.  0.
         12    1    3    3    0    0 -0.29332037767E+02  0.51690209566E+01 -0.21649324117E+02  0.36820924105E+02  0.00000000000E+00 0. -1.
         11    1    4    4    0    0 -0.30913776768E+01 -0.22505485559E+01  0.38196643259E+01  0.54047590665E+01  0.51100000000E-03 0. -1.
        -11    1    4    4    0    0 -0.64702185088E+01 -0.12599004427E+01  0.15830454394E+01  0.67791673384E+01  0.51100000000E-03 0.  1.
        -12    1    4    4    0    0  0.38893633953E+02 -0.16585719581E+01  0.16246614352E+02  0.42183149490E+02  0.00000000000E+00 0.  1.
</event>
<event>
 8    1  0.2509217E-006  0.9118800E+02  0.7816164E-02  0.1184000E+00
        -11   -1    0    0    0    0  0.00000000000E+00  0.00000000000E+00  0.45593999997E+02  0.45594000000E+02  0.51100000000E-03 0.  1.
         11   -1    0    0    0    0 -0.00000000000E+00 -0.00000000000E+00 -0.45593999997E+02  0.45594000000E+02  0.51100000000E-03 0. -1.
         23    2    1    2    0    0  0.20816681712E-15 -0.88817841970E-15  0.71054273576E-14  0.91188000000E+02  0.91188000000E+02 0.  0.
    9900012    2    3    3    0    0 -0.10255701837E+00  0.53470084415E+01 -0.36430468216E+02  0.54367081602E+02  0.39999994128E+02 0.  0.
        -12    1    3    3    0    0  0.10255701837E+00 -0.53470084415E+01  0.36430468216E+02  0.36820918398E+02  0.00000000000E+00 0.  1.
         11    1    4    4    0    0  0.31975918723E+01 -0.27573742734E+01 -0.43834035321E+01  0.60862084627E+01  0.51100000000E-03 0. -1.
        -11    1    4    4    0    0 -0.89555696582E+00 -0.13404790574E+02 -0.69014922353E+01  0.15103675975E+02  0.51100000000E-03 0.  1.
         12    1    4    4    0    0 -0.24045919249E+01  0.21509173289E+02 -0.25145572449E+02  0.33177197164E+02  0.00000000000E+00 0. -1.
</event>
<event>
 8    1  0.2509217E-006  0.9118800E+02  0.7816164E-02  0.1184000E+00
        -11   -1    0    0    0    0  0.00000000000E+00  0.00000000000E+00  0.45593999997E+02  0.45594000000E+02  0.51100000000E-03 0.  1.
         11   -1    0    0    0    0 -0.00000000000E+00 -0.00000000000E+00 -0.45593999997E+02  0.45594000000E+02  0.51100000000E-03 0. -1.
         23    2    1    2    0    0  0.00000000000E+00  0.35527136788E-14  0.00000000000E+00  0.91188000000E+02  0.91188000000E+02 0.  0.
    9900012    2    3    3    0    0  0.17142704262E+02 -0.23818408734E+02  0.22239394661E+02  0.54367087750E+02  0.40000008144E+02 0.  0.
         12    1    3    3    0    0 -0.17142704262E+02  0.23818408734E+02 -0.22239394661E+02  0.36820912250E+02  0.00000000000E+00 0. -1.
         11    1    4    4    0    0  0.14380174652E+02 -0.10292017734E+02 -0.43846318531E+01  0.18219221960E+02  0.51100000000E-03 0. -1.
        -11    1    4    4    0    0  0.35414781795E+01 -0.81727175578E+01 -0.73862308154E-01  0.89073472974E+01  0.51100000000E-03 0.  1.
         12    1    4    4    0    0 -0.77894856977E+00 -0.53536734423E+01  0.26697888822E+02  0.27240518493E+02  0.00000000000E+00 0. -1.
</event>
<event>
 8    1  0.2509217E-006  0.9118800E+02  0.7816164E-02  0.1184000E+00
        -11   -1    0    0    0    0  0.00000000000E+00  0.00000000000E+00  0.45593999997E+02  0.45594000000E+02  0.51100000000E-03 0.  1.
         11   -1    0    0    0    0 -0.00000000000E+00 -0.00000000000E+00 -0.45593999997E+02  0.45594000000E+02  0.51100000000E-03 0. -1.
         23    2    1    2    0    0  0.00000000000E+00  0.00000000000E+00  0.00000000000E+00  0.91188000000E+02  0.91188000000E+02 0.  0.
    9900012    2    3    3    0    0 -0.25916358315E+02 -0.83998210832E+01 -0.24770236010E+02  0.54367092698E+02  0.40000019423E+02 0.  0.
        -12    1    3    3    0    0  0.25916358315E+02  0.83998210832E+01  0.24770236010E+02  0.36820907302E+02  0.00000000000E+00 0.  1.
         11    1    4    4    0    0 -0.25254321658E+02 -0.10729725783E+02 -0.23960736610E+02  0.36428349907E+02  0.51100000000E-03 0. -1.
        -11    1    4    4    0    0  0.21056544478E+01 -0.65059934892E+01 -0.42609757655E+01  0.80571487929E+01  0.51100000000E-03 0.  1.
         12    1    4    4    0    0 -0.27676911046E+01  0.88358981886E+01  0.34514763649E+01  0.98815939983E+01  0.00000000000E+00 0. -1.
</event>
<event>
 8    1  0.2509217E-006  0.9118800E+02  0.7816164E-02  0.1184000E+00
        -11   -1    0    0    0    0  0.00000000000E+00  0.00000000000E+00  0.45593999997E+02  0.45594000000E+02  0.51100000000E-03 0.  1.
         11   -1    0    0    0    0 -0.00000000000E+00 -0.00000000000E+00 -0.45593999997E+02  0.45594000000E+02  0.51100000000E-03 0. -1.
         23    2    1    2    0    0 -0.17763568394E-14  0.35527136788E-14  0.00000000000E+00  0.91188000000E+02  0.91188000000E+02 0.  0.
    9900012    2    3    3    0    0  0.10441115777E+02 -0.30918532982E+02 -0.17053177700E+02  0.54367035182E+02  0.39999888305E+02 0.  0.
        -12    1    3    3    0    0 -0.10441115777E+02  0.30918532982E+02  0.17053177700E+02  0.36820964818E+02  0.00000000000E+00 0.  1.
         11    1    4    4    0    0  0.19870912843E+02 -0.15976764610E+02 -0.39143306368E+01  0.25795971957E+02  0.51100000000E-03 0. -1.
        -11    1    4    4    0    0 -0.35212066113E+01  0.30391941600E+01  0.12260031257E+01  0.48102682948E+01  0.51100000000E-03 0.  1.
        -12    1    4    4    0    0 -0.59085904546E+01 -0.17980962532E+02 -0.14364850189E+02  0.23760794930E+02  0.00000000000E+00 0.  1.
</event>
<event>
 8    1  0.2509217E-006  0.9118800E+02  0.7816164E-02  0.1184000E+00
        -11   -1    0    0    0    0  0.00000000000E+00  0.00000000000E+00  0.45593999997E+02  0.45594000000E+02  0.51100000000E-03 0.  1.
         11   -1    0    0    0    0 -0.00000000000E+00 -0.00000000000E+00 -0.45593999997E+02  0.45594000000E+02  0.51100000000E-03 0. -1.
         23    2    1    2    0    0  0.00000000000E+00  0.00000000000E+00  0.00000000000E+00  0.91188000000E+02  0.91188000000E+02 0.  0.
    9900012    2    3    3    0    0 -0.17554640091E+02  0.17701165496E+02 -0.27097659479E+02  0.54367084777E+02  0.40000001365E+02 0.  0.
        -12    1    3    3    0    0  0.17554640091E+02 -0.17701165496E+02  0.27097659479E+02  0.36820915223E+02  0.00000000000E+00 0.  1.
         11    1    4    4    0    0 -0.52323363765E+01  0.17349048721E+02 -0.72086919911E+01  0.19502104398E+02  0.51100000000E-03 0. -1.
        -11    1    4    4    0    0 -0.12160314958E+02  0.53583220368E+00  0.25403065310E+01  0.12434369046E+02  0.51100000000E-03 0.  1.
         12    1    4    4    0    0 -0.16198875653E+00 -0.18371542900E+00 -0.22429274019E+02  0.22430611332E+02  0.00000000000E+00 0. -1.
</event>
<event>
 8    1  0.2509217E-006  0.9118800E+02  0.7816164E-02  0.1184000E+00
        -11   -1    0    0    0    0  0.00000000000E+00  0.00000000000E+00  0.45593999997E+02  0.45594000000E+02  0.51100000000E-03 0. -1.
         11   -1    0    0    0    0 -0.00000000000E+00 -0.00000000000E+00 -0.45593999997E+02  0.45594000000E+02  0.51100000000E-03 0.  1.
         23    2    1    2    0    0  0.00000000000E+00  0.00000000000E+00  0.00000000000E+00  0.91188000000E+02  0.91188000000E+02 0.  0.
    9900012    2    3    3    0    0 -0.13236416821E+02  0.34299897656E+02 -0.20233079084E+01  0.54367089034E+02  0.40000011071E+02 0.  0.
         12    1    3    3    0    0  0.13236416821E+02 -0.34299897656E+02  0.20233079084E+01  0.36820910966E+02  0.00000000000E+00 0. -1.
         11    1    4    4    0    0 -0.55800857376E+01  0.21504241933E+01  0.28309700296E+01  0.66163488889E+01  0.51100000000E-03 0. -1.
        -11    1    4    4    0    0 -0.11790423079E+02  0.86204808657E+01  0.11676640677E+02  0.18699484071E+02  0.51100000000E-03 0.  1.
        -12    1    4    4    0    0  0.41340919961E+01  0.23528992597E+02 -0.16530918615E+02  0.29051256075E+02  0.00000000000E+00 0.  1.
</event>
<event>
 8    1  0.2509217E-006  0.9118800E+02  0.7816164E-02  0.1184000E+00
        -11   -1    0    0    0    0  0.00000000000E+00  0.00000000000E+00  0.45593999997E+02  0.45594000000E+02  0.51100000000E-03 0.  1.
         11   -1    0    0    0    0 -0.00000000000E+00 -0.00000000000E+00 -0.45593999997E+02  0.45594000000E+02  0.51100000000E-03 0. -1.
         23    2    1    2    0    0 -0.17763568394E-14  0.35527136788E-14  0.35527136788E-14  0.91188000000E+02  0.91188000000E+02 0.  0.
    9900012    2    3    3    0    0 -0.13793052188E+02  0.20880531490E+02  0.27009911205E+02  0.54367079489E+02  0.39999989312E+02 0.  0.
         12    1    3    3    0    0  0.13793052188E+02 -0.20880531490E+02 -0.27009911205E+02  0.36820920511E+02  0.00000000000E+00 0. -1.
         11    1    4    4    0    0 -0.12307976474E+02  0.83219518833E+01  0.15803791646E+02  0.21691034984E+02  0.51100000000E-03 0. -1.
        -11    1    4    4    0    0 -0.89010477198E+01 -0.16083320119E+01  0.13776199969E+02  0.16480262990E+02  0.51100000000E-03 0.  1.
        -12    1    4    4    0    0  0.74159720058E+01  0.14166911618E+02 -0.25700804098E+01  0.16195781516E+02  0.00000000000E+00 0.  1.
</event>
<event>
 8    1  0.2509217E-006  0.9118800E+02  0.7816164E-02  0.1184000E+00
        -11   -1    0    0    0    0  0.00000000000E+00  0.00000000000E+00  0.45593999997E+02  0.45594000000E+02  0.51100000000E-03 0. -1.
         11   -1    0    0    0    0 -0.00000000000E+00 -0.00000000000E+00 -0.45593999997E+02  0.45594000000E+02  0.51100000000E-03 0.  1.
         23    2    1    2    0    0  0.00000000000E+00  0.00000000000E+00  0.35527136788E-14  0.91188000000E+02  0.91188000000E+02 0.  0.
    9900012    2    3    3    0    0 -0.25290102666E+02 -0.18838054118E+02 -0.19008346214E+02  0.54367098305E+02  0.40000032206E+02 0.  0.
         12    1    3    3    0    0  0.25290102666E+02  0.18838054118E+02  0.19008346214E+02  0.36820901695E+02  0.00000000000E+00 0. -1.
         11    1    4    4    0    0 -0.97514451576E+01  0.52748758715E+01  0.14857892798E+00  0.11087699224E+02  0.51100000000E-03 0. -1.
        -11    1    4    4    0    0 -0.68761424603E+01 -0.33677447490E+01 -0.19336865866E+02  0.20797534027E+02  0.51100000000E-03 0.  1.
         12    1    4    4    0    0 -0.86625150483E+01 -0.20745185241E+02  0.17994072429E+00  0.22481865054E+02  0.00000000000E+00 0. -1.
</event>
<event>
 8    1  0.2509217E-006  0.9118800E+02  0.7816164E-02  0.1184000E+00
        -11   -1    0    0    0    0  0.00000000000E+00  0.00000000000E+00  0.45593999997E+02  0.45594000000E+02  0.51100000000E-03 0.  1.
         11   -1    0    0    0    0 -0.00000000000E+00 -0.00000000000E+00 -0.45593999997E+02  0.45594000000E+02  0.51100000000E-03 0. -1.
         23    2    1    2    0    0  0.00000000000E+00 -0.17763568394E-14 -0.35527136788E-14  0.91188000000E+02  0.91188000000E+02 0.  0.
    9900012    2    3    3    0    0  0.18208695196E+02  0.98264620447E+01  0.30457604310E+02  0.54367060341E+02  0.39999945659E+02 0.  0.
         12    1    3    3    0    0 -0.18208695196E+02 -0.98264620447E+01 -0.30457604310E+02  0.36820939659E+02  0.00000000000E+00 0. -1.
         11    1    4    4    0    0 -0.34382508499E+01  0.30583594810E+01 -0.32629987709E+01  0.56411251415E+01  0.51100000000E-03 0. -1.
        -11    1    4    4    0    0  0.81585178162E+00  0.13294977051E+02  0.11923368850E+02  0.17877045447E+02  0.51100000000E-03 0.  1.
         12    1    4    4    0    0  0.20831094264E+02 -0.65268744872E+01  0.21797234231E+02  0.30848889752E+02  0.00000000000E+00 0. -1.
</event>
<event>
 8    1  0.2509217E-006  0.9118800E+02  0.7816164E-02  0.1184000E+00
        -11   -1    0    0    0    0  0.00000000000E+00  0.00000000000E+00  0.45593999997E+02  0.45594000000E+02  0.51100000000E-03 0. -1.
         11   -1    0    0    0    0 -0.00000000000E+00 -0.00000000000E+00 -0.45593999997E+02  0.45594000000E+02  0.51100000000E-03 0.  1.
         23    2    1    2    0    0  0.00000000000E+00  0.00000000000E+00 -0.71054273576E-14  0.91188000000E+02  0.91188000000E+02 0.  0.
    9900012    2    3    3    0    0  0.11312408656E+02  0.11658243698E+02  0.33043813709E+02  0.54367097510E+02  0.40000030394E+02 0.  0.
        -12    1    3    3    0    0 -0.11312408656E+02 -0.11658243698E+02 -0.33043813709E+02  0.36820902490E+02  0.00000000000E+00 0.  1.
         11    1    4    4    0    0  0.25302495840E+00  0.69394480104E+01 -0.52914716679E+01  0.87303856153E+01  0.51100000000E-03 0. -1.
        -11    1    4    4    0    0 -0.49114265596E+00 -0.74908600556E+01  0.16097145028E+02  0.17761539455E+02  0.51100000000E-03 0.  1.
         12    1    4    4    0    0  0.11550526354E+02  0.12209655743E+02  0.22238140349E+02  0.27875172440E+02  0.00000000000E+00 0. -1.
</event>
<event>
 8    1  0.2509217E-006  0.9118800E+02  0.7816164E-02  0.1184000E+00
        -11   -1    0    0    0    0  0.00000000000E+00  0.00000000000E+00  0.45593999997E+02  0.45594000000E+02  0.51100000000E-03 0. -1.
         11   -1    0    0    0    0 -0.00000000000E+00 -0.00000000000E+00 -0.45593999997E+02  0.45594000000E+02  0.51100000000E-03 0.  1.
         23    2    1    2    0    0  0.00000000000E+00  0.00000000000E+00 -0.17763568394E-14  0.91188000000E+02  0.91188000000E+02 0.  0.
    9900012    2    3    3    0    0 -0.23522600975E+02  0.27433321176E+02 -0.70625777726E+01  0.54367083768E+02  0.39999999065E+02 0.  0.
         12    1    3    3    0    0  0.23522600975E+02 -0.27433321176E+02  0.70625777726E+01  0.36820916232E+02  0.00000000000E+00 0. -1.
         11    1    4    4    0    0 -0.44543694914E+01 -0.12023168431E+00 -0.87560032050E+01  0.98246351388E+01  0.51100000000E-03 0.  1.
        -11    1    4    4    0    0  0.12796821384E+01  0.12664267063E+02  0.11820696005E+02  0.17370955671E+02  0.51100000000E-03 0. -1.
        -12    1    4    4    0    0 -0.20347913622E+02  0.14889285797E+02 -0.10127270572E+02  0.27171492958E+02  0.00000000000E+00 0.  1.
</event>
<event>
 8    1  0.2509217E-006  0.9118800E+02  0.7816164E-02  0.1184000E+00
        -11   -1    0    0    0    0  0.00000000000E+00  0.00000000000E+00  0.45593999997E+02  0.45594000000E+02  0.51100000000E-03 0.  1.
         11   -1    0    0    0    0 -0.00000000000E+00 -0.00000000000E+00 -0.45593999997E+02  0.45594000000E+02  0.51100000000E-03 0. -1.
         23    2    1    2    0    0  0.88817841970E-15  0.00000000000E+00  0.00000000000E+00  0.91188000000E+02  0.91188000000E+02 0.  0.
    9900012    2    3    3    0    0  0.57903186112E+01 -0.31742493760E+02  0.17738823214E+02  0.54367088160E+02  0.40000009077E+02 0.  0.
         12    1    3    3    0    0 -0.57903186112E+01  0.31742493760E+02 -0.17738823214E+02  0.36820911840E+02  0.00000000000E+00 0. -1.
         11    1    4    4    0    0  0.93432858138E+01 -0.29154103019E+02  0.10900642740E+02  0.32497426437E+02  0.51100000000E-03 0. -1.
        -11    1    4    4    0    0  0.42527031710E+01 -0.93057672500E+01  0.50775758876E+01  0.11422108629E+02  0.51100000000E-03 0.  1.
         12    1    4    4    0    0 -0.78056703736E+01  0.67173765084E+01  0.17606045865E+01  0.10447553094E+02  0.00000000000E+00 0. -1.
</event>
<event>
 8    1  0.2509217E-006  0.9118800E+02  0.7816164E-02  0.1184000E+00
        -11   -1    0    0    0    0  0.00000000000E+00  0.00000000000E+00  0.45593999997E+02  0.45594000000E+02  0.51100000000E-03 0.  1.
         11   -1    0    0    0    0 -0.00000000000E+00 -0.00000000000E+00 -0.45593999997E+02  0.45594000000E+02  0.51100000000E-03 0. -1.
         23    2    1    2    0    0  0.00000000000E+00  0.00000000000E+00 -0.28310687128E-14  0.91188000000E+02  0.91188000000E+02 0.  0.
    9900012    2    3    3    0    0  0.26278400663E+01  0.36723913661E+02  0.48046894543E+00  0.54367051772E+02  0.39999926125E+02 0.  0.
        -12    1    3    3    0    0 -0.26278400663E+01 -0.36723913661E+02 -0.48046894543E+00  0.36820948228E+02  0.00000000000E+00 0.  1.
         11    1    4    4    0    0 -0.33146380219E+01  0.10205210273E+02  0.90734867935E+01  0.14052092541E+02  0.51100000000E-03 0. -1.
        -11    1    4    4    0    0  0.63786051175E+01  0.41840127384E+01 -0.15210707406E+02  0.17016409313E+02  0.51100000000E-03 0.  1.
        -12    1    4    4    0    0 -0.43612702940E+00  0.22334690650E+02  0.66176895583E+01  0.23298549918E+02  0.00000000000E+00 0.  1.
</event>
<event>
 8    1  0.2509217E-006  0.9118800E+02  0.7816164E-02  0.1184000E+00
        -11   -1    0    0    0    0  0.00000000000E+00  0.00000000000E+00  0.45593999997E+02  0.45594000000E+02  0.51100000000E-03 0.  1.
         11   -1    0    0    0    0 -0.00000000000E+00 -0.00000000000E+00 -0.45593999997E+02  0.45594000000E+02  0.51100000000E-03 0. -1.
         23    2    1    2    0    0  0.00000000000E+00 -0.88817841970E-15 -0.35527136788E-14  0.91188000000E+02  0.91188000000E+02 0.  0.
    9900012    2    3    3    0    0 -0.18069804586E+02 -0.44939045476E+01 -0.31765807624E+02  0.54367088145E+02  0.40000009044E+02 0.  0.
        -12    1    3    3    0    0  0.18069804586E+02  0.44939045476E+01  0.31765807624E+02  0.36820911855E+02  0.00000000000E+00 0.  1.
         11    1    4    4    0    0 -0.49905151028E+01  0.48428727143E+01 -0.36537104110E+02  0.37192991734E+02  0.51100000000E-03 0. -1.
        -11    1    4    4    0    0 -0.47572203691E+01 -0.44342201579E+01  0.36307724843E+01  0.74482187899E+01  0.51100000000E-03 0.  1.
         12    1    4    4    0    0 -0.83220691139E+01 -0.49025571040E+01  0.11405240021E+01  0.97258776208E+01  0.00000000000E+00 0. -1.
</event>
<event>
 8    1  0.2509217E-006  0.9118800E+02  0.7816164E-02  0.1184000E+00
        -11   -1    0    0    0    0  0.00000000000E+00  0.00000000000E+00  0.45593999997E+02  0.45594000000E+02  0.51100000000E-03 0.  1.
         11   -1    0    0    0    0 -0.00000000000E+00 -0.00000000000E+00 -0.45593999997E+02  0.45594000000E+02  0.51100000000E-03 0. -1.
         23    2    1    2    0    0  0.00000000000E+00  0.00000000000E+00  0.00000000000E+00  0.91188000000E+02  0.91188000000E+02 0.  0.
    9900012    2    3    3    0    0  0.87056320043E+00 -0.35974124387E+02  0.78028265463E+01  0.54367087358E+02  0.40000007250E+02 0.  0.
         12    1    3    3    0    0 -0.87056320043E+00  0.35974124387E+02 -0.78028265463E+01  0.36820912642E+02  0.00000000000E+00 0. -1.
         11    1    4    4    0    0  0.11914195711E+02 -0.19832175886E+02 -0.12200662549E+02  0.26155676758E+02  0.51100000000E-03 0. -1.
        -11    1    4    4    0    0 -0.71124385552E+01 -0.98195135476E+01  0.98535379374E+01  0.15623758788E+02  0.51100000000E-03 0.  1.
         12    1    4    4    0    0 -0.39311939549E+01 -0.63224349535E+01  0.10149951157E+02  0.12587651812E+02  0.00000000000E+00 0. -1.
</event>
<event>
 8    1  0.2509217E-006  0.9118800E+02  0.7816164E-02  0.1184000E+00
        -11   -1    0    0    0    0  0.00000000000E+00  0.00000000000E+00  0.45593999997E+02  0.45594000000E+02  0.51100000000E-03 0.  1.
         11   -1    0    0    0    0 -0.00000000000E+00 -0.00000000000E+00 -0.45593999997E+02  0.45594000000E+02  0.51100000000E-03 0. -1.
         23    2    1    2    0    0  0.17763568394E-14 -0.88817841970E-15  0.00000000000E+00  0.91188000000E+02  0.91188000000E+02 0.  0.
    9900012    2    3    3    0    0  0.90216300469E+01 -0.50111816353E+01 -0.35345119552E+02  0.54367092539E+02  0.40000019061E+02 0.  0.
        -12    1    3    3    0    0 -0.90216300469E+01  0.50111816353E+01  0.35345119552E+02  0.36820907461E+02  0.00000000000E+00 0.  1.
         11    1    4    4    0    0 -0.26404260745E+01  0.49666417454E+01 -0.74172519205E+01  0.93088670844E+01  0.51100000000E-03 0. -1.
        -11    1    4    4    0    0  0.55947888862E+01 -0.20221040526E+02 -0.92968689565E+01  0.22948287851E+02  0.51100000000E-03 0.  1.
        -12    1    4    4    0    0  0.60672672353E+01  0.10243217145E+02 -0.18630998675E+02  0.22109937604E+02  0.00000000000E+00 0.  1.
</event>
<event>
 8    1  0.2509217E-006  0.9118800E+02  0.7816164E-02  0.1184000E+00
        -11   -1    0    0    0    0  0.00000000000E+00  0.00000000000E+00  0.45593999997E+02  0.45594000000E+02  0.51100000000E-03 0.  1.
         11   -1    0    0    0    0 -0.00000000000E+00 -0.00000000000E+00 -0.45593999997E+02  0.45594000000E+02  0.51100000000E-03 0. -1.
         23    2    1    2    0    0  0.00000000000E+00 -0.71054273576E-14  0.00000000000E+00  0.91188000000E+02  0.91188000000E+02 0.  0.
    9900012    2    3    3    0    0 -0.19164413904E+02 -0.28802755091E+02  0.12605738196E+02  0.54367107879E+02  0.40000054031E+02 0.  0.
         12    1    3    3    0    0  0.19164413904E+02  0.28802755091E+02 -0.12605738196E+02  0.36820892121E+02  0.00000000000E+00 0. -1.
         11    1    4    4    0    0 -0.31706883572E+01 -0.10563888394E+01 -0.40990292970E+01  0.52887865790E+01  0.51100000000E-03 0. -1.
        -11    1    4    4    0    0 -0.14653052282E+02 -0.33639103002E+02  0.20412998689E+02  0.41987994804E+02  0.51100000000E-03 0.  1.
        -12    1    4    4    0    0 -0.13406732650E+01  0.58927367506E+01 -0.37082311954E+01  0.70903264955E+01  0.00000000000E+00 0.  1.
</event>
<event>
 8    1  0.2509217E-006  0.9118800E+02  0.7816164E-02  0.1184000E+00
        -11   -1    0    0    0    0  0.00000000000E+00  0.00000000000E+00  0.45593999997E+02  0.45594000000E+02  0.51100000000E-03 0.  1.
         11   -1    0    0    0    0 -0.00000000000E+00 -0.00000000000E+00 -0.45593999997E+02  0.45594000000E+02  0.51100000000E-03 0. -1.
         23    2    1    2    0    0  0.00000000000E+00  0.00000000000E+00  0.10658141036E-13  0.91188000000E+02  0.91188000000E+02 0.  0.
    9900012    2    3    3    0    0  0.14649742748E+02 -0.14243894444E+02  0.30631278817E+02  0.54367099230E+02  0.40000034316E+02 0.  0.
         12    1    3    3    0    0 -0.14649742748E+02  0.14243894444E+02 -0.30631278817E+02  0.36820900770E+02  0.00000000000E+00 0. -1.
         11    1    4    4    0    0 -0.29379469920E+01 -0.82207021172E+01 -0.35913577435E+01  0.94397736483E+01  0.51100000000E-03 0. -1.
        -11    1    4    4    0    0 -0.43495544908E+01 -0.46052400284E+01  0.12546127539E+02  0.14054614063E+02  0.51100000000E-03 0.  1.
         12    1    4    4    0    0  0.21937244231E+02 -0.14179522984E+01  0.21676509022E+02  0.30872711519E+02  0.00000000000E+00 0. -1.
</event>
<event>
 8    1  0.2509217E-006  0.9118800E+02  0.7816164E-02  0.1184000E+00
        -11   -1    0    0    0    0  0.00000000000E+00  0.00000000000E+00  0.45593999997E+02  0.45594000000E+02  0.51100000000E-03 0.  1.
         11   -1    0    0    0    0 -0.00000000000E+00 -0.00000000000E+00 -0.45593999997E+02  0.45594000000E+02  0.51100000000E-03 0. -1.
         23    2    1    2    0    0  0.00000000000E+00 -0.35527136788E-14  0.44408920985E-15  0.91188000000E+02  0.91188000000E+02 0.  0.
    9900012    2    3    3    0    0  0.29219290177E+02  0.22264203131E+02 -0.25127447370E+01  0.54367142519E+02  0.40000133001E+02 0.  0.
         12    1    3    3    0    0 -0.29219290177E+02 -0.22264203131E+02  0.25127447370E+01  0.36820857481E+02  0.00000000000E+00 0. -1.
         11    1    4    4    0    0 -0.48114021015E+01 -0.90039710032E+00 -0.67597803882E+00  0.49413815569E+01  0.51100000000E-03 0. -1.
        -11    1    4    4    0    0 -0.47693130910E+01  0.30560182292E+01  0.29993254787E+00  0.56723500043E+01  0.51100000000E-03 0.  1.
        -12    1    4    4    0    0  0.38800005370E+02  0.20108582002E+02 -0.21366992460E+01  0.43753410958E+02  0.00000000000E+00 0.  1.
</event>
<event>
 8    1  0.2509217E-006  0.9118800E+02  0.7816164E-02  0.1184000E+00
        -11   -1    0    0    0    0  0.00000000000E+00  0.00000000000E+00  0.45593999997E+02  0.45594000000E+02  0.51100000000E-03 0. -1.
         11   -1    0    0    0    0 -0.00000000000E+00 -0.00000000000E+00 -0.45593999997E+02  0.45594000000E+02  0.51100000000E-03 0.  1.
         23    2    1    2    0    0  0.00000000000E+00  0.17763568394E-14  0.35527136788E-14  0.91188000000E+02  0.91188000000E+02 0.  0.
    9900012    2    3    3    0    0 -0.28389997603E+02 -0.14412992952E+02  0.18494678937E+02  0.54367089111E+02  0.40000011245E+02 0.  0.
        -12    1    3    3    0    0  0.28389997603E+02  0.14412992952E+02 -0.18494678937E+02  0.36820910889E+02  0.00000000000E+00 0.  1.
         11    1    4    4    0    0 -0.96487184935E+01  0.53865658724E+00 -0.34020473551E+01  0.10245088870E+02  0.51100000000E-03 0.  1.
        -11    1    4    4    0    0 -0.48475057935E+01 -0.21234986934E+02  0.18315956094E+02  0.28458693406E+02  0.51100000000E-03 0. -1.
         12    1    4    4    0    0 -0.13893773316E+02  0.62833373944E+01  0.35807701982E+01  0.15663306834E+02  0.00000000000E+00 0. -1.
</event>
<event>
 8    1  0.2509217E-006  0.9118800E+02  0.7816164E-02  0.1184000E+00
        -11   -1    0    0    0    0  0.00000000000E+00  0.00000000000E+00  0.45593999997E+02  0.45594000000E+02  0.51100000000E-03 0. -1.
         11   -1    0    0    0    0 -0.00000000000E+00 -0.00000000000E+00 -0.45593999997E+02  0.45594000000E+02  0.51100000000E-03 0.  1.
         23    2    1    2    0    0  0.00000000000E+00  0.66613381478E-15 -0.17763568394E-14  0.91188000000E+02  0.91188000000E+02 0.  0.
    9900012    2    3    3    0    0  0.36276433129E+02 -0.58963565718E+00  0.62810692354E+01  0.54367094233E+02  0.40000022923E+02 0.  0.
        -12    1    3    3    0    0 -0.36276433129E+02  0.58963565718E+00 -0.62810692354E+01  0.36820905767E+02  0.00000000000E+00 0.  1.
         11    1    4    4    0    0  0.27151571442E+02 -0.47440227629E+01 -0.11778629225E+02  0.29974150370E+02  0.51100000000E-03 0. -1.
        -11    1    4    4    0    0  0.84700250164E+00 -0.28253115153E+01 -0.41548324114E+00  0.29786616091E+01  0.51100000000E-03 0.  1.
        -12    1    4    4    0    0  0.82778591854E+01  0.69796986210E+01  0.18475181702E+02  0.21414282254E+02  0.00000000000E+00 0.  1.
</event>
<event>
 8    1  0.2509217E-006  0.9118800E+02  0.7816164E-02  0.1184000E+00
        -11   -1    0    0    0    0  0.00000000000E+00  0.00000000000E+00  0.45593999997E+02  0.45594000000E+02  0.51100000000E-03 0. -1.
         11   -1    0    0    0    0 -0.00000000000E+00 -0.00000000000E+00 -0.45593999997E+02  0.45594000000E+02  0.51100000000E-03 0.  1.
         23    2    1    2    0    0  0.00000000000E+00  0.00000000000E+00  0.71054273576E-14  0.91188000000E+02  0.91188000000E+02 0.  0.
    9900012    2    3    3    0    0 -0.55141346693E+01  0.16091192205E+02 -0.32656496411E+02  0.54367096893E+02  0.40000028988E+02 0.  0.
         12    1    3    3    0    0  0.55141346693E+01 -0.16091192205E+02  0.32656496411E+02  0.36820903107E+02  0.00000000000E+00 0. -1.
         11    1    4    4    0    0 -0.49761740774E+01 -0.21452135737E+01  0.81590989429E+00  0.54799597573E+01  0.51100000000E-03 0. -1.
        -11    1    4    4    0    0 -0.35297507916E+01 -0.65495753467E+00  0.48633254746E+01  0.60448362224E+01  0.51100000000E-03 0.  1.
        -12    1    4    4    0    0  0.29917901997E+01  0.18891363314E+02 -0.38335731780E+02  0.42842300914E+02  0.00000000000E+00 0.  1.
</event>
<event>
 8    1  0.2509217E-006  0.9118800E+02  0.7816164E-02  0.1184000E+00
        -11   -1    0    0    0    0  0.00000000000E+00  0.00000000000E+00  0.45593999997E+02  0.45594000000E+02  0.51100000000E-03 0. -1.
         11   -1    0    0    0    0 -0.00000000000E+00 -0.00000000000E+00 -0.45593999997E+02  0.45594000000E+02  0.51100000000E-03 0.  1.
         23    2    1    2    0    0  0.00000000000E+00  0.00000000000E+00  0.00000000000E+00  0.91188000000E+02  0.91188000000E+02 0.  0.
    9900012    2    3    3    0    0 -0.98461526583E+01 -0.32311545756E+02  0.14655980259E+02  0.54367075667E+02  0.39999980599E+02 0.  0.
        -12    1    3    3    0    0  0.98461526583E+01  0.32311545756E+02 -0.14655980259E+02  0.36820924333E+02  0.00000000000E+00 0.  1.
         11    1    4    4    0    0  0.32641980298E+01 -0.30760005258E+02  0.15172284614E+02  0.34453318170E+02  0.51100000000E-03 0. -1.
        -11    1    4    4    0    0 -0.31870248592E+01  0.55070348880E+01 -0.36553690058E+01  0.73380026942E+01  0.51100000000E-03 0.  1.
         12    1    4    4    0    0 -0.99233258289E+01 -0.70585753865E+01  0.31390646513E+01  0.12575754804E+02  0.00000000000E+00 0. -1.
</event>
<event>
 8    1  0.2509217E-006  0.9118800E+02  0.7816164E-02  0.1184000E+00
        -11   -1    0    0    0    0  0.00000000000E+00  0.00000000000E+00  0.45593999997E+02  0.45594000000E+02  0.51100000000E-03 0.  1.
         11   -1    0    0    0    0 -0.00000000000E+00 -0.00000000000E+00 -0.45593999997E+02  0.45594000000E+02  0.51100000000E-03 0. -1.
         23    2    1    2    0    0  0.00000000000E+00  0.35527136788E-14  0.00000000000E+00  0.91188000000E+02  0.91188000000E+02 0.  0.
    9900012    2    3    3    0    0 -0.26493561544E+02 -0.25555926112E+02  0.87481335201E+00  0.54367089350E+02  0.40000011791E+02 0.  0.
         12    1    3    3    0    0  0.26493561544E+02  0.25555926112E+02 -0.87481335201E+00  0.36820910650E+02  0.00000000000E+00 0. -1.
         11    1    4    4    0    0 -0.23936453116E+01 -0.29741663601E+02  0.27174074250E+00  0.29839067260E+02  0.51100000000E-03 0. -1.
        -11    1    4    4    0    0 -0.19795414577E+01  0.70315691066E+00  0.37556384913E+00  0.21340249506E+01  0.51100000000E-03 0.  1.
         12    1    4    4    0    0 -0.22120374774E+02  0.34825805790E+01  0.22750876038E+00  0.22393997140E+02  0.00000000000E+00 0. -1.
</event>
<event>
 8    1  0.2509217E-006  0.9118800E+02  0.7816164E-02  0.1184000E+00
        -11   -1    0    0    0    0  0.00000000000E+00  0.00000000000E+00  0.45593999997E+02  0.45594000000E+02  0.51100000000E-03 0.  1.
         11   -1    0    0    0    0 -0.00000000000E+00 -0.00000000000E+00 -0.45593999997E+02  0.45594000000E+02  0.51100000000E-03 0. -1.
         23    2    1    2    0    0 -0.66613381478E-15  0.00000000000E+00  0.00000000000E+00  0.91188000000E+02  0.91188000000E+02 0.  0.
    9900012    2    3    3    0    0  0.11559294535E+01 -0.14684705244E+02 -0.33746131486E+02  0.54367107408E+02  0.40000052958E+02 0.  0.
        -12    1    3    3    0    0 -0.11559294535E+01  0.14684705244E+02  0.33746131486E+02  0.36820892592E+02  0.00000000000E+00 0.  1.
         11    1    4    4    0    0  0.55431927468E+01 -0.19811298923E+02 -0.39747730379E+01  0.20952645938E+02  0.51100000000E-03 0. -1.
        -11    1    4    4    0    0 -0.67077551318E+01 -0.96391439319E+00 -0.70584812849E+01  0.97849511075E+01  0.51100000000E-03 0.  1.
         12    1    4    4    0    0  0.23204918384E+01  0.60905080717E+01 -0.22712877163E+02  0.23629510363E+02  0.00000000000E+00 0. -1.
</event>
<event>
 8    1  0.2509217E-006  0.9118800E+02  0.7816164E-02  0.1184000E+00
        -11   -1    0    0    0    0  0.00000000000E+00  0.00000000000E+00  0.45593999997E+02  0.45594000000E+02  0.51100000000E-03 0. -1.
         11   -1    0    0    0    0 -0.00000000000E+00 -0.00000000000E+00 -0.45593999997E+02  0.45594000000E+02  0.51100000000E-03 0.  1.
         23    2    1    2    0    0 -0.22204460493E-15  0.00000000000E+00  0.00000000000E+00  0.91188000000E+02  0.91188000000E+02 0.  0.
    9900012    2    3    3    0    0 -0.13949058040E+01 -0.34076291925E+02 -0.13879571625E+02  0.54367055660E+02  0.39999934989E+02 0.  0.
         12    1    3    3    0    0  0.13949058040E+01  0.34076291925E+02  0.13879571625E+02  0.36820944340E+02  0.00000000000E+00 0. -1.
         11    1    4    4    0    0 -0.27973525246E+01 -0.87632318768E+01  0.13809257249E+01  0.93019551811E+01  0.51100000000E-03 0. -1.
        -11    1    4    4    0    0  0.28896637016E+01 -0.25965541989E+02  0.33892596935E+01  0.26344764350E+02  0.51100000000E-03 0.  1.
        -12    1    4    4    0    0 -0.14872169810E+01  0.65248194101E+00 -0.18649757043E+02  0.18720336130E+02  0.00000000000E+00 0.  1.
</event>
<event>
 8    1  0.2509217E-006  0.9118800E+02  0.7816164E-02  0.1184000E+00
        -11   -1    0    0    0    0  0.00000000000E+00  0.00000000000E+00  0.45593999997E+02  0.45594000000E+02  0.51100000000E-03 0.  1.
         11   -1    0    0    0    0 -0.00000000000E+00 -0.00000000000E+00 -0.45593999997E+02  0.45594000000E+02  0.51100000000E-03 0. -1.
         23    2    1    2    0    0  0.00000000000E+00  0.35527136788E-14 -0.17763568394E-14  0.91188000000E+02  0.91188000000E+02 0.  0.
    9900012    2    3    3    0    0 -0.21048187580E+02 -0.26936579490E+02 -0.13681333078E+02  0.54367022422E+02  0.39999859215E+02 0.  0.
        -12    1    3    3    0    0  0.21048187580E+02  0.26936579490E+02  0.13681333078E+02  0.36820977578E+02  0.00000000000E+00 0.  1.
         11    1    4    4    0    0  0.40676656496E+01 -0.68131311969E+01 -0.72711701486E+01  0.10762647264E+02  0.51100000000E-03 0. -1.
        -11    1    4    4    0    0  0.50429280442E+01 -0.86637157342E+01 -0.52612265074E+01  0.11321289600E+02  0.51100000000E-03 0.  1.
         12    1    4    4    0    0 -0.30158781273E+02 -0.11459732559E+02 -0.11489364216E+01  0.32283085558E+02  0.00000000000E+00 0. -1.
</event>
<event>
 8    1  0.2509217E-006  0.9118800E+02  0.7816164E-02  0.1184000E+00
        -11   -1    0    0    0    0  0.00000000000E+00  0.00000000000E+00  0.45593999997E+02  0.45594000000E+02  0.51100000000E-03 0. -1.
         11   -1    0    0    0    0 -0.00000000000E+00 -0.00000000000E+00 -0.45593999997E+02  0.45594000000E+02  0.51100000000E-03 0.  1.
         23    2    1    2    0    0 -0.88817841970E-15  0.17763568394E-14 -0.71054273576E-14  0.91188000000E+02  0.91188000000E+02 0.  0.
    9900012    2    3    3    0    0  0.52725266099E+01 -0.89673443766E+01  0.35320923338E+02  0.54367076227E+02  0.39999981875E+02 0.  0.
        -12    1    3    3    0    0 -0.52725266099E+01  0.89673443766E+01 -0.35320923338E+02  0.36820923773E+02  0.00000000000E+00 0.  1.
         11    1    4    4    0    0 -0.98900207836E+01  0.45189521291E+01  0.18490456267E+02  0.21450650635E+02  0.51100000000E-03 0. -1.
        -11    1    4    4    0    0  0.46602403331E+01 -0.13737962928E+02  0.17078548925E+02  0.22408174825E+02  0.51100000000E-03 0.  1.
        -12    1    4    4    0    0  0.10502307060E+02  0.25166642230E+00 -0.24808185310E+00  0.10508250767E+02  0.00000000000E+00 0.  1.
</event>
<event>
 8    1  0.2509217E-006  0.9118800E+02  0.7816164E-02  0.1184000E+00
        -11   -1    0    0    0    0  0.00000000000E+00  0.00000000000E+00  0.45593999997E+02  0.45594000000E+02  0.51100000000E-03 0.  1.
         11   -1    0    0    0    0 -0.00000000000E+00 -0.00000000000E+00 -0.45593999997E+02  0.45594000000E+02  0.51100000000E-03 0. -1.
         23    2    1    2    0    0  0.00000000000E+00  0.00000000000E+00 -0.71054273576E-14  0.91188000000E+02  0.91188000000E+02 0.  0.
    9900012    2    3    3    0    0 -0.43215873448E+01 -0.15629646032E+02 -0.33057786743E+02  0.54367092670E+02  0.40000019359E+02 0.  0.
        -12    1    3    3    0    0  0.43215873448E+01  0.15629646032E+02  0.33057786743E+02  0.36820907330E+02  0.00000000000E+00 0.  1.
         11    1    4    4    0    0 -0.46549862888E+01 -0.12643361543E+02 -0.16281802139E+02  0.21133399386E+02  0.51100000000E-03 0. -1.
        -11    1    4    4    0    0  0.23634488333E+01 -0.97437208361E+01  0.43732568425E+01  0.10938526491E+02  0.51100000000E-03 0.  1.
         12    1    4    4    0    0 -0.20300498893E+01  0.67574363469E+01 -0.21149241447E+02  0.22295166793E+02  0.00000000000E+00 0. -1.
</event>
<event>
 8    1  0.2509217E-006  0.9118800E+02  0.7816164E-02  0.1184000E+00
        -11   -1    0    0    0    0  0.00000000000E+00  0.00000000000E+00  0.45593999997E+02  0.45594000000E+02  0.51100000000E-03 0. -1.
         11   -1    0    0    0    0 -0.00000000000E+00 -0.00000000000E+00 -0.45593999997E+02  0.45594000000E+02  0.51100000000E-03 0.  1.
         23    2    1    2    0    0  0.00000000000E+00  0.00000000000E+00  0.00000000000E+00  0.91188000000E+02  0.91188000000E+02 0.  0.
    9900012    2    3    3    0    0  0.21359892917E+02 -0.21161948679E+02  0.21253371916E+02  0.54367096764E+02  0.40000028693E+02 0.  0.
        -12    1    3    3    0    0 -0.21359892917E+02  0.21161948679E+02 -0.21253371916E+02  0.36820903236E+02  0.00000000000E+00 0.  1.
         11    1    4    4    0    0  0.28270925958E+02 -0.13267051910E+02  0.10844926206E+02  0.33058619838E+02  0.51100000000E-03 0. -1.
        -11    1    4    4    0    0 -0.51553967956E+01  0.34987558553E+01  0.68137442309E+01  0.92329041671E+01  0.51100000000E-03 0.  1.
         12    1    4    4    0    0 -0.17556362455E+01 -0.11393652624E+02  0.35947014796E+01  0.12075572759E+02  0.00000000000E+00 0. -1.
</event>
<event>
 8    1  0.2509217E-006  0.9118800E+02  0.7816164E-02  0.1184000E+00
        -11   -1    0    0    0    0  0.00000000000E+00  0.00000000000E+00  0.45593999997E+02  0.45594000000E+02  0.51100000000E-03 0. -1.
         11   -1    0    0    0    0 -0.00000000000E+00 -0.00000000000E+00 -0.45593999997E+02  0.45594000000E+02  0.51100000000E-03 0.  1.
         23    2    1    2    0    0 -0.35527136788E-14  0.17763568394E-14  0.00000000000E+00  0.91188000000E+02  0.91188000000E+02 0.  0.
    9900012    2    3    3    0    0 -0.31084605622E+02  0.77739771431E+01  0.18140892164E+02  0.54367090237E+02  0.40000013813E+02 0.  0.
        -12    1    3    3    0    0  0.31084605622E+02 -0.77739771431E+01 -0.18140892164E+02  0.36820909763E+02  0.00000000000E+00 0.  1.
         11    1    4    4    0    0 -0.12268494238E+01  0.61014996244E+01  0.12042573044E+02  0.13555700755E+02  0.51100000000E-03 0. -1.
        -11    1    4    4    0    0 -0.26302758103E+02  0.11553308809E+02  0.86550283578E+01  0.30003725509E+02  0.51100000000E-03 0.  1.
        -12    1    4    4    0    0 -0.35549980951E+01 -0.98808312901E+01 -0.25567092378E+01  0.10807663974E+02  0.00000000000E+00 0.  1.
</event>
<event>
 8    1  0.2509217E-006  0.9118800E+02  0.7816164E-02  0.1184000E+00
        -11   -1    0    0    0    0  0.00000000000E+00  0.00000000000E+00  0.45593999997E+02  0.45594000000E+02  0.51100000000E-03 0. -1.
         11   -1    0    0    0    0 -0.00000000000E+00 -0.00000000000E+00 -0.45593999997E+02  0.45594000000E+02  0.51100000000E-03 0.  1.
         23    2    1    2    0    0  0.00000000000E+00 -0.35527136788E-14  0.35527136788E-14  0.91188000000E+02  0.91188000000E+02 0.  0.
    9900012    2    3    3    0    0 -0.14535177157E+02  0.29488923585E+02  0.16580470663E+02  0.54367082078E+02  0.39999995214E+02 0.  0.
        -12    1    3    3    0    0  0.14535177157E+02 -0.29488923585E+02 -0.16580470663E+02  0.36820917922E+02  0.00000000000E+00 0.  1.
         11    1    4    4    0    0 -0.67047047965E+01 -0.22304215901E+01 -0.93993117811E+00  0.71282057882E+01  0.51100000000E-03 0. -1.
        -11    1    4    4    0    0 -0.50248956687E+01 -0.13395030039E+01 -0.49407105518E+01  0.71731768274E+01  0.51100000000E-03 0.  1.
         12    1    4    4    0    0 -0.28055766918E+01  0.33058848179E+02  0.22461112393E+02  0.40065699463E+02  0.00000000000E+00 0. -1.
</event>
<event>
 8    1  0.2509217E-006  0.9118800E+02  0.7816164E-02  0.1184000E+00
        -11   -1    0    0    0    0  0.00000000000E+00  0.00000000000E+00  0.45593999997E+02  0.45594000000E+02  0.51100000000E-03 0.  1.
         11   -1    0    0    0    0 -0.00000000000E+00 -0.00000000000E+00 -0.45593999997E+02  0.45594000000E+02  0.51100000000E-03 0. -1.
         23    2    1    2    0    0  0.00000000000E+00  0.00000000000E+00  0.35527136788E-14  0.91188000000E+02  0.91188000000E+02 0.  0.
    9900012    2    3    3    0    0  0.22858720311E+02 -0.54526140476E+01 -0.28346580480E+02  0.54367072267E+02  0.39999972847E+02 0.  0.
        -12    1    3    3    0    0 -0.22858720311E+02  0.54526140476E+01  0.28346580480E+02  0.36820927733E+02  0.00000000000E+00 0.  1.
         11    1    4    4    0    0  0.13063764777E+02 -0.45432938450E+01 -0.21093110519E+01  0.13991163729E+02  0.51100000000E-03 0. -1.
        -11    1    4    4    0    0 -0.29946331100E+01  0.44004015452E+01  0.43018437042E+01  0.68437724055E+01  0.51100000000E-03 0.  1.
         12    1    4    4    0    0  0.12789588645E+02 -0.53097217477E+01 -0.30539113132E+02  0.33532136133E+02  0.00000000000E+00 0. -1.
</event>
<event>
 8    1  0.2509217E-006  0.9118800E+02  0.7816164E-02  0.1184000E+00
        -11   -1    0    0    0    0  0.00000000000E+00  0.00000000000E+00  0.45593999997E+02  0.45594000000E+02  0.51100000000E-03 0. -1.
         11   -1    0    0    0    0 -0.00000000000E+00 -0.00000000000E+00 -0.45593999997E+02  0.45594000000E+02  0.51100000000E-03 0.  1.
         23    2    1    2    0    0  0.17763568394E-14 -0.44408920985E-15  0.71054273576E-14  0.91188000000E+02  0.91188000000E+02 0.  0.
    9900012    2    3    3    0    0  0.45865083092E+01  0.30903679507E+01  0.36403209685E+02  0.54367080566E+02  0.39999991767E+02 0.  0.
        -12    1    3    3    0    0 -0.45865083092E+01 -0.30903679507E+01 -0.36403209685E+02  0.36820919434E+02  0.00000000000E+00 0.  1.
         11    1    4    4    0    0  0.80977337908E+01  0.35163572442E+01  0.16340006079E+01  0.89781968715E+01  0.51100000000E-03 0. -1.
        -11    1    4    4    0    0 -0.98344967538E+01  0.11670950967E+02  0.15293078472E+02  0.21605709252E+02  0.51100000000E-03 0.  1.
         12    1    4    4    0    0  0.63232712722E+01 -0.12096940260E+02  0.19476130605E+02  0.23783174443E+02  0.00000000000E+00 0. -1.
</event>
<event>
 8    1  0.2509217E-006  0.9118800E+02  0.7816164E-02  0.1184000E+00
        -11   -1    0    0    0    0  0.00000000000E+00  0.00000000000E+00  0.45593999997E+02  0.45594000000E+02  0.51100000000E-03 0. -1.
         11   -1    0    0    0    0 -0.00000000000E+00 -0.00000000000E+00 -0.45593999997E+02  0.45594000000E+02  0.51100000000E-03 0.  1.
         23    2    1    2    0    0  0.00000000000E+00  0.00000000000E+00  0.00000000000E+00  0.91188000000E+02  0.91188000000E+02 0.  0.
    9900012    2    3    3    0    0 -0.28853371625E+02  0.20520246579E+02 -0.10108229621E+02  0.54367165139E+02  0.40000184567E+02 0.  0.
         12    1    3    3    0    0  0.28853371625E+02 -0.20520246579E+02  0.10108229621E+02  0.36820834861E+02  0.00000000000E+00 0. -1.
         11    1    4    4    0    0 -0.26320205088E+02 -0.72915791346E-01  0.13829710240E+01  0.26356614382E+02  0.51100000000E-03 0. -1.
        -11    1    4    4    0    0 -0.49915929782E+01  0.54941993146E+01 -0.10259410213E+02  0.12663243058E+02  0.51100000000E-03 0.  1.
         12    1    4    4    0    0  0.24584264410E+01  0.15098963055E+02 -0.12317904319E+01  0.15347307698E+02  0.00000000000E+00 0. -1.
</event>
<event>
 8    1  0.2509217E-006  0.9118800E+02  0.7816164E-02  0.1184000E+00
        -11   -1    0    0    0    0  0.00000000000E+00  0.00000000000E+00  0.45593999997E+02  0.45594000000E+02  0.51100000000E-03 0. -1.
         11   -1    0    0    0    0 -0.00000000000E+00 -0.00000000000E+00 -0.45593999997E+02  0.45594000000E+02  0.51100000000E-03 0.  1.
         23    2    1    2    0    0  0.71054273576E-14 -0.17763568394E-14 -0.35527136788E-14  0.91188000000E+02  0.91188000000E+02 0.  0.
    9900012    2    3    3    0    0  0.24296359641E+02 -0.91123609071E+01 -0.26123421815E+02  0.54367063287E+02  0.39999952375E+02 0.  0.
         12    1    3    3    0    0 -0.24296359641E+02  0.91123609071E+01  0.26123421815E+02  0.36820936713E+02  0.00000000000E+00 0. -1.
         11    1    4    4    0    0  0.68347463825E+01 -0.17884702051E+02 -0.13112029722E+02  0.23205638307E+02  0.51100000000E-03 0. -1.
        -11    1    4    4    0    0  0.20300582252E+02  0.86610519448E+01 -0.15828761447E+02  0.27160212624E+02  0.51100000000E-03 0.  1.
         12    1    4    4    0    0 -0.28389689938E+01  0.11128919926E+00  0.28173693541E+01  0.40012123552E+01  0.00000000000E+00 0. -1.
</event>
<event>
 8    1  0.2509217E-006  0.9118800E+02  0.7816164E-02  0.1184000E+00
        -11   -1    0    0    0    0  0.00000000000E+00  0.00000000000E+00  0.45593999997E+02  0.45594000000E+02  0.51100000000E-03 0. -1.
         11   -1    0    0    0    0 -0.00000000000E+00 -0.00000000000E+00 -0.45593999997E+02  0.45594000000E+02  0.51100000000E-03 0.  1.
         23    2    1    2    0    0  0.44408920985E-15  0.35527136788E-14  0.00000000000E+00  0.91188000000E+02  0.91188000000E+02 0.  0.
    9900012    2    3    3    0    0  0.37457708030E+01 -0.26815034265E+02 -0.24954006379E+02  0.54367091593E+02  0.40000016905E+02 0.  0.
         12    1    3    3    0    0 -0.37457708030E+01  0.26815034265E+02  0.24954006379E+02  0.36820908407E+02  0.00000000000E+00 0. -1.
         11    1    4    4    0    0 -0.25811119602E+01  0.56145023626E+01 -0.10709380105E+01  0.62714977648E+01  0.51100000000E-03 0. -1.
        -11    1    4    4    0    0  0.15712601575E+02 -0.24570184914E+02 -0.19543617959E+02  0.35107447047E+02  0.51100000000E-03 0.  1.
         12    1    4    4    0    0 -0.93857188116E+01 -0.78593517131E+01 -0.43394504098E+01  0.12988146782E+02  0.00000000000E+00 0. -1.
</event>
<event>
 8    1  0.2509217E-006  0.9118800E+02  0.7816164E-02  0.1184000E+00
        -11   -1    0    0    0    0  0.00000000000E+00  0.00000000000E+00  0.45593999997E+02  0.45594000000E+02  0.51100000000E-03 0. -1.
         11   -1    0    0    0    0 -0.00000000000E+00 -0.00000000000E+00 -0.45593999997E+02  0.45594000000E+02  0.51100000000E-03 0.  1.
         23    2    1    2    0    0 -0.88817841970E-15 -0.88817841970E-15  0.00000000000E+00  0.91188000000E+02  0.91188000000E+02 0.  0.
    9900012    2    3    3    0    0 -0.68685873078E+01 -0.68090683569E+01  0.35528005720E+02  0.54367080757E+02  0.39999992201E+02 0.  0.
        -12    1    3    3    0    0  0.68685873078E+01  0.68090683569E+01 -0.35528005720E+02  0.36820919243E+02  0.00000000000E+00 0.  1.
         11    1    4    4    0    0 -0.31845735749E+01 -0.79552331636E+01  0.54258104507E+01  0.10142320388E+02  0.51100000000E-03 0. -1.
        -11    1    4    4    0    0 -0.35986934154E+01  0.14156121178E+02  0.41346313187E+01  0.15180300969E+02  0.51100000000E-03 0.  1.
         12    1    4    4    0    0 -0.85320317465E-01 -0.13009956371E+02  0.25967563950E+02  0.29044459400E+02  0.00000000000E+00 0. -1.
</event>
<event>
 8    1  0.2509217E-006  0.9118800E+02  0.7816164E-02  0.1184000E+00
        -11   -1    0    0    0    0  0.00000000000E+00  0.00000000000E+00  0.45593999997E+02  0.45594000000E+02  0.51100000000E-03 0.  1.
         11   -1    0    0    0    0 -0.00000000000E+00 -0.00000000000E+00 -0.45593999997E+02  0.45594000000E+02  0.51100000000E-03 0. -1.
         23    2    1    2    0    0  0.35527136788E-14 -0.17763568394E-14  0.35527136788E-14  0.91188000000E+02  0.91188000000E+02 0.  0.
    9900012    2    3    3    0    0  0.28879660257E+02 -0.12818753532E+02  0.18905616693E+02  0.54367115149E+02  0.40000070605E+02 0.  0.
         12    1    3    3    0    0 -0.28879660257E+02  0.12818753532E+02 -0.18905616693E+02  0.36820884851E+02  0.00000000000E+00 0. -1.
         11    1    4    4    0    0  0.12638319730E+02 -0.11056605488E+02 -0.37175123733E+01  0.17198707772E+02  0.51100000000E-03 0. -1.
        -11    1    4    4    0    0  0.40617704081E+00 -0.10702031356E+02  0.49057872139E+01  0.11779864320E+02  0.51100000000E-03 0.  1.
        -12    1    4    4    0    0  0.15835163486E+02  0.89398833120E+01  0.17717341852E+02  0.25388543057E+02  0.00000000000E+00 0.  1.
</event>
<event>
 8    1  0.2509217E-006  0.9118800E+02  0.7816164E-02  0.1184000E+00
        -11   -1    0    0    0    0  0.00000000000E+00  0.00000000000E+00  0.45593999997E+02  0.45594000000E+02  0.51100000000E-03 0.  1.
         11   -1    0    0    0    0 -0.00000000000E+00 -0.00000000000E+00 -0.45593999997E+02  0.45594000000E+02  0.51100000000E-03 0. -1.
         23    2    1    2    0    0  0.00000000000E+00  0.00000000000E+00  0.00000000000E+00  0.91188000000E+02  0.91188000000E+02 0.  0.
    9900012    2    3    3    0    0 -0.27107235311E+02 -0.53424001302E+01  0.24340019976E+02  0.54367081790E+02  0.39999994557E+02 0.  0.
         12    1    3    3    0    0  0.27107235311E+02  0.53424001302E+01 -0.24340019976E+02  0.36820918210E+02  0.00000000000E+00 0. -1.
         11    1    4    4    0    0  0.50631050146E+00 -0.11439932539E+01 -0.33353641932E+01  0.35622640907E+01  0.51100000000E-03 0. -1.
        -11    1    4    4    0    0 -0.20287186377E+02  0.75368846864E+01  0.29777730097E+02  0.36811516837E+02  0.51100000000E-03 0.  1.
         12    1    4    4    0    0 -0.73263594356E+01 -0.11735291563E+02 -0.21023459269E+01  0.13993300863E+02  0.00000000000E+00 0. -1.
</event>
<event>
 8    1  0.2509217E-006  0.9118800E+02  0.7816164E-02  0.1184000E+00
        -11   -1    0    0    0    0  0.00000000000E+00  0.00000000000E+00  0.45593999997E+02  0.45594000000E+02  0.51100000000E-03 0. -1.
         11   -1    0    0    0    0 -0.00000000000E+00 -0.00000000000E+00 -0.45593999997E+02  0.45594000000E+02  0.51100000000E-03 0.  1.
         23    2    1    2    0    0  0.00000000000E+00  0.00000000000E+00 -0.35527136788E-14  0.91188000000E+02  0.91188000000E+02 0.  0.
    9900012    2    3    3    0    0  0.80900804651E+01  0.33924059324E+02 -0.11810498098E+02  0.54367094684E+02  0.40000023952E+02 0.  0.
         12    1    3    3    0    0 -0.80900804651E+01 -0.33924059324E+02  0.11810498098E+02  0.36820905316E+02  0.00000000000E+00 0. -1.
         11    1    4    4    0    0  0.12467586162E+02  0.12400689015E+02 -0.78524145918E+01  0.19258198460E+02  0.51100000000E-03 0. -1.
        -11    1    4    4    0    0  0.57609086170E+00  0.83686170133E+01 -0.15032093246E+02  0.17214222579E+02  0.51100000000E-03 0.  1.
         12    1    4    4    0    0 -0.49535965587E+01  0.13154753295E+02  0.11074009739E+02  0.17894673644E+02  0.00000000000E+00 0. -1.
</event>
<event>
 8    1  0.2509217E-006  0.9118800E+02  0.7816164E-02  0.1184000E+00
        -11   -1    0    0    0    0  0.00000000000E+00  0.00000000000E+00  0.45593999997E+02  0.45594000000E+02  0.51100000000E-03 0. -1.
         11   -1    0    0    0    0 -0.00000000000E+00 -0.00000000000E+00 -0.45593999997E+02  0.45594000000E+02  0.51100000000E-03 0.  1.
         23    2    1    2    0    0  0.00000000000E+00  0.22204460493E-14 -0.35527136788E-14  0.91188000000E+02  0.91188000000E+02 0.  0.
    9900012    2    3    3    0    0  0.22977909804E+02  0.10155510119E+01  0.28753525473E+02  0.54367069676E+02  0.39999966940E+02 0.  0.
        -12    1    3    3    0    0 -0.22977909804E+02 -0.10155510119E+01 -0.28753525473E+02  0.36820930324E+02  0.00000000000E+00 0.  1.
         11    1    4    4    0    0 -0.56355533576E+00  0.13546812759E+02  0.10893146534E+02  0.17392365343E+02  0.51100000000E-03 0. -1.
        -11    1    4    4    0    0  0.21774750166E+02 -0.16177891869E+02  0.18552097973E+02  0.32864026984E+02  0.51100000000E-03 0.  1.
        -12    1    4    4    0    0  0.17667149741E+01  0.36466301216E+01 -0.69171903469E+00  0.41106773488E+01  0.00000000000E+00 0.  1.
</event>
<event>
 8    1  0.2509217E-006  0.9118800E+02  0.7816164E-02  0.1184000E+00
        -11   -1    0    0    0    0  0.00000000000E+00  0.00000000000E+00  0.45593999997E+02  0.45594000000E+02  0.51100000000E-03 0. -1.
         11   -1    0    0    0    0 -0.00000000000E+00 -0.00000000000E+00 -0.45593999997E+02  0.45594000000E+02  0.51100000000E-03 0.  1.
         23    2    1    2    0    0  0.00000000000E+00  0.00000000000E+00  0.00000000000E+00  0.91188000000E+02  0.91188000000E+02 0.  0.
    9900012    2    3    3    0    0  0.19490629762E+02 -0.65728275629E+01  0.30540033403E+02  0.54367077266E+02  0.39999984244E+02 0.  0.
        -12    1    3    3    0    0 -0.19490629762E+02  0.65728275629E+01 -0.30540033403E+02  0.36820922734E+02  0.00000000000E+00 0.  1.
         11    1    4    4    0    0  0.21942444859E+01 -0.32620664689E+01  0.30159802197E+02  0.30414954469E+02  0.51100000000E-03 0. -1.
        -11    1    4    4    0    0  0.70071969887E+01  0.15462688739E+01  0.76193737869E+01  0.10466451846E+02  0.51100000000E-03 0.  1.
        -12    1    4    4    0    0  0.10289188288E+02 -0.48570299678E+01 -0.72391425808E+01  0.13485670952E+02  0.00000000000E+00 0.  1.
</event>
<event>
 8    1  0.2509217E-006  0.9118800E+02  0.7816164E-02  0.1184000E+00
        -11   -1    0    0    0    0  0.00000000000E+00  0.00000000000E+00  0.45593999997E+02  0.45594000000E+02  0.51100000000E-03 0. -1.
         11   -1    0    0    0    0 -0.00000000000E+00 -0.00000000000E+00 -0.45593999997E+02  0.45594000000E+02  0.51100000000E-03 0.  1.
         23    2    1    2    0    0  0.35527136788E-14  0.88817841970E-15  0.00000000000E+00  0.91188000000E+02  0.91188000000E+02 0.  0.
    9900012    2    3    3    0    0  0.27944679340E+02  0.49323219847E+01 -0.23463718358E+02  0.54367095845E+02  0.40000026598E+02 0.  0.
         12    1    3    3    0    0 -0.27944679340E+02 -0.49323219847E+01  0.23463718358E+02  0.36820904155E+02  0.00000000000E+00 0. -1.
         11    1    4    4    0    0  0.10329199054E+02 -0.10522425214E+02 -0.69282381912E+01  0.16291539835E+02  0.51100000000E-03 0. -1.
        -11    1    4    4    0    0 -0.45056305137E+00  0.90293068129E+01 -0.16598432568E+02  0.18900776506E+02  0.51100000000E-03 0.  1.
        -12    1    4    4    0    0  0.18066043338E+02  0.64254403860E+01  0.62952400837E-01  0.19174779504E+02  0.00000000000E+00 0.  1.
</event>
<event>
 8    1  0.2509217E-006  0.9118800E+02  0.7816164E-02  0.1184000E+00
        -11   -1    0    0    0    0  0.00000000000E+00  0.00000000000E+00  0.45593999997E+02  0.45594000000E+02  0.51100000000E-03 0.  1.
         11   -1    0    0    0    0 -0.00000000000E+00 -0.00000000000E+00 -0.45593999997E+02  0.45594000000E+02  0.51100000000E-03 0. -1.
         23    2    1    2    0    0  0.35527136788E-14 -0.17763568394E-14  0.00000000000E+00  0.91188000000E+02  0.91188000000E+02 0.  0.
    9900012    2    3    3    0    0 -0.21165895887E+02 -0.15117083551E+02  0.26062593087E+02  0.54367080372E+02  0.39999991325E+02 0.  0.
         12    1    3    3    0    0  0.21165895887E+02  0.15117083551E+02 -0.26062593087E+02  0.36820919628E+02  0.00000000000E+00 0. -1.
         11    1    4    4    0    0 -0.33967817260E+01 -0.12001649836E+02 -0.37838673002E+00  0.12478818120E+02  0.51100000000E-03 0. -1.
        -11    1    4    4    0    0  0.35852100523E+01  0.51570548287E+01 -0.76466012809E+00  0.63272151060E+01  0.51100000000E-03 0.  1.
        -12    1    4    4    0    0 -0.21354324214E+02 -0.82724885432E+01  0.27205639946E+02  0.35561047147E+02  0.00000000000E+00 0.  1.
</event>
<event>
 8    1  0.2509217E-006  0.9118800E+02  0.7816164E-02  0.1184000E+00
        -11   -1    0    0    0    0  0.00000000000E+00  0.00000000000E+00  0.45593999997E+02  0.45594000000E+02  0.51100000000E-03 0.  1.
         11   -1    0    0    0    0 -0.00000000000E+00 -0.00000000000E+00 -0.45593999997E+02  0.45594000000E+02  0.51100000000E-03 0. -1.
         23    2    1    2    0    0  0.00000000000E+00 -0.35527136788E-14 -0.13322676296E-14  0.91188000000E+02  0.91188000000E+02 0.  0.
    9900012    2    3    3    0    0  0.31625650406E+02  0.18752952388E+02  0.19801887258E+01  0.54367134526E+02  0.40000114779E+02 0.  0.
         12    1    3    3    0    0 -0.31625650406E+02 -0.18752952388E+02 -0.19801887258E+01  0.36820865474E+02  0.00000000000E+00 0. -1.
         11    1    4    4    0    0  0.22073119601E+02  0.54730413940E+01 -0.11522687187E+02  0.25494099539E+02  0.51100000000E-03 0. -1.
        -11    1    4    4    0    0  0.35674714133E+01  0.16173498552E+02  0.36053178957E+01  0.16950139383E+02  0.51100000000E-03 0.  1.
        -12    1    4    4    0    0  0.59850593920E+01 -0.28935875584E+01  0.98975580176E+01  0.11922895604E+02  0.00000000000E+00 0.  1.
</event>
<event>
 8    1  0.2509217E-006  0.9118800E+02  0.7816164E-02  0.1184000E+00
        -11   -1    0    0    0    0  0.00000000000E+00  0.00000000000E+00  0.45593999997E+02  0.45594000000E+02  0.51100000000E-03 0. -1.
         11   -1    0    0    0    0 -0.00000000000E+00 -0.00000000000E+00 -0.45593999997E+02  0.45594000000E+02  0.51100000000E-03 0.  1.
         23    2    1    2    0    0  0.35527136788E-14  0.35527136788E-14  0.35527136788E-14  0.91188000000E+02  0.91188000000E+02 0.  0.
    9900012    2    3    3    0    0 -0.28334187571E+02  0.12652589265E+02  0.19820698906E+02  0.54367159359E+02  0.40000171389E+02 0.  0.
        -12    1    3    3    0    0  0.28334187571E+02 -0.12652589265E+02 -0.19820698906E+02  0.36820840641E+02  0.00000000000E+00 0.  1.
         11    1    4    4    0    0  0.29518284602E+00 -0.49265090762E+01  0.97390175788E+01  0.10918154068E+02  0.51100000000E-03 0. -1.
        -11    1    4    4    0    0  0.38944304995E+01 -0.10018072185E+01  0.36754457919E+01  0.54478535818E+01  0.51100000000E-03 0.  1.
        -12    1    4    4    0    0 -0.32523800916E+02  0.18580905559E+02  0.64062355358E+01  0.38001151709E+02  0.00000000000E+00 0.  1.
</event>
<event>
 8    1  0.2509217E-006  0.9118800E+02  0.7816164E-02  0.1184000E+00
        -11   -1    0    0    0    0  0.00000000000E+00  0.00000000000E+00  0.45593999997E+02  0.45594000000E+02  0.51100000000E-03 0.  1.
         11   -1    0    0    0    0 -0.00000000000E+00 -0.00000000000E+00 -0.45593999997E+02  0.45594000000E+02  0.51100000000E-03 0. -1.
         23    2    1    2    0    0  0.35527136788E-14 -0.88817841970E-15  0.00000000000E+00  0.91188000000E+02  0.91188000000E+02 0.  0.
    9900012    2    3    3    0    0 -0.29920805999E+02 -0.33607960301E+01  0.21195064999E+02  0.54367077118E+02  0.39999983906E+02 0.  0.
         12    1    3    3    0    0  0.29920805999E+02  0.33607960301E+01 -0.21195064999E+02  0.36820922882E+02  0.00000000000E+00 0. -1.
         11    1    4    4    0    0 -0.23898089543E+02  0.43422314415E+01 -0.49966931243E+01  0.24797995890E+02  0.51100000000E-03 0. -1.
        -11    1    4    4    0    0 -0.75229728661E+01 -0.20364157959E+01  0.16380285274E+02  0.18139896801E+02  0.51100000000E-03 0.  1.
         12    1    4    4    0    0  0.15002564109E+01 -0.56666116758E+01  0.98114728500E+01  0.11429184427E+02  0.00000000000E+00 0. -1.
</event>
<event>
 8    1  0.2509217E-006  0.9118800E+02  0.7816164E-02  0.1184000E+00
        -11   -1    0    0    0    0  0.00000000000E+00  0.00000000000E+00  0.45593999997E+02  0.45594000000E+02  0.51100000000E-03 0.  1.
         11   -1    0    0    0    0 -0.00000000000E+00 -0.00000000000E+00 -0.45593999997E+02  0.45594000000E+02  0.51100000000E-03 0. -1.
         23    2    1    2    0    0 -0.35527136788E-14  0.00000000000E+00  0.00000000000E+00  0.91188000000E+02  0.91188000000E+02 0.  0.
    9900012    2    3    3    0    0  0.25820144599E+02 -0.26212296772E+02  0.14192656481E+01  0.54367099900E+02  0.40000035843E+02 0.  0.
        -12    1    3    3    0    0 -0.25820144599E+02  0.26212296772E+02 -0.14192656481E+01  0.36820900100E+02  0.00000000000E+00 0.  1.
         11    1    4    4    0    0  0.17965182715E+02 -0.13134209997E+02 -0.22598511875E+01  0.22368777121E+02  0.51100000000E-03 0. -1.
        -11    1    4    4    0    0 -0.10546134809E+02 -0.43973944922E+01  0.86734734988E+00  0.11459071926E+02  0.51100000000E-03 0.  1.
        -12    1    4    4    0    0  0.18401096692E+02 -0.86806922828E+01  0.28117694857E+01  0.20539250854E+02  0.00000000000E+00 0.  1.
</event>
<event>
 8    1  0.2509217E-006  0.9118800E+02  0.7816164E-02  0.1184000E+00
        -11   -1    0    0    0    0  0.00000000000E+00  0.00000000000E+00  0.45593999997E+02  0.45594000000E+02  0.51100000000E-03 0.  1.
         11   -1    0    0    0    0 -0.00000000000E+00 -0.00000000000E+00 -0.45593999997E+02  0.45594000000E+02  0.51100000000E-03 0. -1.
         23    2    1    2    0    0 -0.21649348980E-14  0.71054273576E-14  0.17763568394E-14  0.91188000000E+02  0.91188000000E+02 0.  0.
    9900012    2    3    3    0    0 -0.45871762643E+00  0.34828096269E+02  0.11940383127E+02  0.54367089354E+02  0.40000011801E+02 0.  0.
        -12    1    3    3    0    0  0.45871762643E+00 -0.34828096269E+02 -0.11940383127E+02  0.36820910646E+02  0.00000000000E+00 0.  1.
         11    1    4    4    0    0 -0.97983603109E+01  0.21794166591E+02  0.65783498978E+01  0.24784435637E+02  0.51100000000E-03 0. -1.
        -11    1    4    4    0    0 -0.81562100783E+01  0.43510714335E+01  0.37784942982E+01  0.99866212947E+01  0.51100000000E-03 0.  1.
         12    1    4    4    0    0  0.17495852763E+02  0.86828582442E+01  0.15835389305E+01  0.19596032423E+02  0.00000000000E+00 0. -1.
</event>
<event>
 8    1  0.2509217E-006  0.9118800E+02  0.7816164E-02  0.1184000E+00
        -11   -1    0    0    0    0  0.00000000000E+00  0.00000000000E+00  0.45593999997E+02  0.45594000000E+02  0.51100000000E-03 0. -1.
         11   -1    0    0    0    0 -0.00000000000E+00 -0.00000000000E+00 -0.45593999997E+02  0.45594000000E+02  0.51100000000E-03 0.  1.
         23    2    1    2    0    0  0.71054273576E-14 -0.18873791419E-14 -0.17763568394E-14  0.91188000000E+02  0.91188000000E+02 0.  0.
    9900012    2    3    3    0    0 -0.34193184873E+02  0.95666347127E+00  0.13626825618E+02  0.54367089186E+02  0.40000011416E+02 0.  0.
        -12    1    3    3    0    0  0.34193184873E+02 -0.95666347127E+00 -0.13626825618E+02  0.36820910814E+02  0.00000000000E+00 0.  1.
         11    1    4    4    0    0 -0.58407207467E+01  0.45767378226E+01  0.96628057814E+01  0.12183200063E+02  0.51100000000E-03 0. -1.
        -11    1    4    4    0    0  0.14196790405E+01 -0.74364095020E+01  0.89869338039E+01  0.11750772499E+02  0.51100000000E-03 0.  1.
        -12    1    4    4    0    0 -0.29772143167E+02  0.38163351507E+01 -0.50229139669E+01  0.30433116624E+02  0.00000000000E+00 0.  1.
</event>
<event>
 8    1  0.2509217E-006  0.9118800E+02  0.7816164E-02  0.1184000E+00
        -11   -1    0    0    0    0  0.00000000000E+00  0.00000000000E+00  0.45593999997E+02  0.45594000000E+02  0.51100000000E-03 0.  1.
         11   -1    0    0    0    0 -0.00000000000E+00 -0.00000000000E+00 -0.45593999997E+02  0.45594000000E+02  0.51100000000E-03 0. -1.
         23    2    1    2    0    0  0.88817841970E-15 -0.44408920985E-15  0.71054273576E-14  0.91188000000E+02  0.91188000000E+02 0.  0.
    9900012    2    3    3    0    0  0.57277415930E+01  0.38398662257E+01  0.36169437407E+02  0.54367084765E+02  0.40000001340E+02 0.  0.
         12    1    3    3    0    0 -0.57277415930E+01 -0.38398662257E+01 -0.36169437407E+02  0.36820915235E+02  0.00000000000E+00 0. -1.
         11    1    4    4    0    0 -0.96561992803E+01  0.28516944301E+00  0.42433549513E+01  0.10551282749E+02  0.51100000000E-03 0. -1.
        -11    1    4    4    0    0 -0.33325780271E+00  0.10403520479E+02  0.42149814201E+01  0.11229887255E+02  0.51100000000E-03 0.  1.
        -12    1    4    4    0    0  0.15717198676E+02 -0.68488236962E+01  0.27711101035E+02  0.32585914761E+02  0.00000000000E+00 0.  1.
</event>
<event>
 8    1  0.2509217E-006  0.9118800E+02  0.7816164E-02  0.1184000E+00
        -11   -1    0    0    0    0  0.00000000000E+00  0.00000000000E+00  0.45593999997E+02  0.45594000000E+02  0.51100000000E-03 0.  1.
         11   -1    0    0    0    0 -0.00000000000E+00 -0.00000000000E+00 -0.45593999997E+02  0.45594000000E+02  0.51100000000E-03 0. -1.
         23    2    1    2    0    0 -0.17763568394E-14  0.00000000000E+00 -0.17763568394E-14  0.91188000000E+02  0.91188000000E+02 0.  0.
    9900012    2    3    3    0    0  0.60463355716E+01 -0.35321584499E+02  0.84621466818E+01  0.54367076168E+02  0.39999981741E+02 0.  0.
         12    1    3    3    0    0 -0.60463355716E+01  0.35321584499E+02 -0.84621466818E+01  0.36820923832E+02  0.00000000000E+00 0. -1.
         11    1    4    4    0    0  0.56260860509E+01 -0.55130513109E+01 -0.31996392903E+01  0.85020156938E+01  0.51100000000E-03 0. -1.
        -11    1    4    4    0    0 -0.13953210188E+02 -0.19464413547E+02 -0.11990751532E+01  0.23979016885E+02  0.51100000000E-03 0.  1.
         12    1    4    4    0    0  0.14373459708E+02 -0.10344119641E+02  0.12860861125E+02  0.21886043590E+02  0.00000000000E+00 0. -1.
</event>
<event>
 8    1  0.2509217E-006  0.9118800E+02  0.7816164E-02  0.1184000E+00
        -11   -1    0    0    0    0  0.00000000000E+00  0.00000000000E+00  0.45593999997E+02  0.45594000000E+02  0.51100000000E-03 0. -1.
         11   -1    0    0    0    0 -0.00000000000E+00 -0.00000000000E+00 -0.45593999997E+02  0.45594000000E+02  0.51100000000E-03 0.  1.
         23    2    1    2    0    0 -0.44408920985E-15  0.00000000000E+00  0.00000000000E+00  0.91188000000E+02  0.91188000000E+02 0.  0.
    9900012    2    3    3    0    0  0.33694546543E+01  0.55172841129E+01 -0.36248944558E+02  0.54367087053E+02  0.40000006555E+02 0.  0.
         12    1    3    3    0    0 -0.33694546543E+01 -0.55172841129E+01  0.36248944558E+02  0.36820912947E+02  0.00000000000E+00 0. -1.
         11    1    4    4    0    0  0.20353891660E+00  0.35459084259E+01  0.63703104727E+01  0.72935416935E+01  0.51100000000E-03 0. -1.
        -11    1    4    4    0    0 -0.63689272458E+01  0.67858618777E+01 -0.19810800796E+02  0.21887872993E+02  0.51100000000E-03 0.  1.
        -12    1    4    4    0    0  0.95348429835E+01 -0.48144861908E+01 -0.22808454235E+02  0.25185672367E+02  0.00000000000E+00 0.  1.
</event>
<event>
 8    1  0.2509217E-006  0.9118800E+02  0.7816164E-02  0.1184000E+00
        -11   -1    0    0    0    0  0.00000000000E+00  0.00000000000E+00  0.45593999997E+02  0.45594000000E+02  0.51100000000E-03 0.  1.
         11   -1    0    0    0    0 -0.00000000000E+00 -0.00000000000E+00 -0.45593999997E+02  0.45594000000E+02  0.51100000000E-03 0. -1.
         23    2    1    2    0    0  0.00000000000E+00  0.00000000000E+00  0.00000000000E+00  0.91188000000E+02  0.91188000000E+02 0.  0.
    9900012    2    3    3    0    0  0.35977165347E+02  0.44494820105E+01  0.64517998891E+01  0.54367081511E+02  0.39999993920E+02 0.  0.
         12    1    3    3    0    0 -0.35977165347E+02 -0.44494820105E+01 -0.64517998891E+01  0.36820918489E+02  0.00000000000E+00 0. -1.
         11    1    4    4    0    0  0.19240267951E+02 -0.98873964579E+01  0.96716794633E+00  0.21653727939E+02  0.51100000000E-03 0. -1.
        -11    1    4    4    0    0  0.30494839435E+00 -0.58683524247E+01 -0.77792128275E+00  0.59275387377E+01  0.51100000000E-03 0.  1.
         12    1    4    4    0    0  0.16431949002E+02  0.20205230893E+02  0.62625532256E+01  0.26785814834E+02  0.00000000000E+00 0. -1.
</event>
<event>
 8    1  0.2509217E-006  0.9118800E+02  0.7816164E-02  0.1184000E+00
        -11   -1    0    0    0    0  0.00000000000E+00  0.00000000000E+00  0.45593999997E+02  0.45594000000E+02  0.51100000000E-03 0.  1.
         11   -1    0    0    0    0 -0.00000000000E+00 -0.00000000000E+00 -0.45593999997E+02  0.45594000000E+02  0.51100000000E-03 0. -1.
         23    2    1    2    0    0  0.17763568394E-14  0.00000000000E+00  0.00000000000E+00  0.91188000000E+02  0.91188000000E+02 0.  0.
    9900012    2    3    3    0    0 -0.98964445490E+01 -0.14922688498E+02 -0.32173784945E+02  0.54367099897E+02  0.40000035835E+02 0.  0.
        -12    1    3    3    0    0  0.98964445490E+01  0.14922688498E+02  0.32173784945E+02  0.36820900103E+02  0.00000000000E+00 0.  1.
         11    1    4    4    0    0 -0.22111957362E+02 -0.15406770478E+02 -0.26974735316E+02  0.38130612118E+02  0.51100000000E-03 0. -1.
        -11    1    4    4    0    0  0.10952221046E+02  0.35768600269E+01 -0.57066173197E+01  0.12857315232E+02  0.51100000000E-03 0.  1.
         12    1    4    4    0    0  0.12632917667E+01 -0.30927780472E+01  0.50756769074E+00  0.33791725463E+01  0.00000000000E+00 0. -1.
</event>
<event>
 8    1  0.2509217E-006  0.9118800E+02  0.7816164E-02  0.1184000E+00
        -11   -1    0    0    0    0  0.00000000000E+00  0.00000000000E+00  0.45593999997E+02  0.45594000000E+02  0.51100000000E-03 0. -1.
         11   -1    0    0    0    0 -0.00000000000E+00 -0.00000000000E+00 -0.45593999997E+02  0.45594000000E+02  0.51100000000E-03 0.  1.
         23    2    1    2    0    0  0.00000000000E+00 -0.44408920985E-15 -0.35527136788E-14  0.91188000000E+02  0.91188000000E+02 0.  0.
    9900012    2    3    3    0    0 -0.27121358151E+02 -0.27711828510E+01  0.24749426712E+02  0.54367059696E+02  0.39999944188E+02 0.  0.
        -12    1    3    3    0    0  0.27121358151E+02  0.27711828510E+01 -0.24749426712E+02  0.36820940304E+02  0.00000000000E+00 0.  1.
         11    1    4    4    0    0 -0.97874246128E+01 -0.12251545705E+02  0.25682909072E+02  0.30091624605E+02  0.51100000000E-03 0. -1.
        -11    1    4    4    0    0  0.62706190877E+00 -0.20243899219E+01 -0.20068922446E+01  0.29187288219E+01  0.51100000000E-03 0.  1.
         12    1    4    4    0    0 -0.17960995447E+02  0.11504752776E+02  0.10734098841E+01  0.21356706269E+02  0.00000000000E+00 0. -1.
</event>
<event>
 8    1  0.2509217E-006  0.9118800E+02  0.7816164E-02  0.1184000E+00
        -11   -1    0    0    0    0  0.00000000000E+00  0.00000000000E+00  0.45593999997E+02  0.45594000000E+02  0.51100000000E-03 0. -1.
         11   -1    0    0    0    0 -0.00000000000E+00 -0.00000000000E+00 -0.45593999997E+02  0.45594000000E+02  0.51100000000E-03 0.  1.
         23    2    1    2    0    0  0.44408920985E-15 -0.35527136788E-14  0.00000000000E+00  0.91188000000E+02  0.91188000000E+02 0.  0.
    9900012    2    3    3    0    0 -0.27976333566E+01  0.24891543601E+02 -0.26988208591E+02  0.54367094278E+02  0.40000023025E+02 0.  0.
         12    1    3    3    0    0  0.27976333566E+01 -0.24891543601E+02  0.26988208591E+02  0.36820905722E+02  0.00000000000E+00 0. -1.
         11    1    4    4    0    0  0.58471904925E+00  0.58109207020E+01  0.40751831839E+01  0.71215036344E+01  0.51100000000E-03 0. -1.
        -11    1    4    4    0    0 -0.14293074395E+02  0.91639622692E+00 -0.14155700550E+02  0.20137418306E+02  0.51100000000E-03 0.  1.
        -12    1    4    4    0    0  0.10910721989E+02  0.18164226672E+02 -0.16907691224E+02  0.27108172337E+02  0.00000000000E+00 0.  1.
</event>
<event>
 8    1  0.2509217E-006  0.9118800E+02  0.7816164E-02  0.1184000E+00
        -11   -1    0    0    0    0  0.00000000000E+00  0.00000000000E+00  0.45593999997E+02  0.45594000000E+02  0.51100000000E-03 0. -1.
         11   -1    0    0    0    0 -0.00000000000E+00 -0.00000000000E+00 -0.45593999997E+02  0.45594000000E+02  0.51100000000E-03 0.  1.
         23    2    1    2    0    0  0.00000000000E+00  0.00000000000E+00  0.00000000000E+00  0.91188000000E+02  0.91188000000E+02 0.  0.
    9900012    2    3    3    0    0  0.14013160587E+02 -0.21506849096E+02 -0.26398224287E+02  0.54367089187E+02  0.40000011419E+02 0.  0.
         12    1    3    3    0    0 -0.14013160587E+02  0.21506849096E+02  0.26398224287E+02  0.36820910813E+02  0.00000000000E+00 0. -1.
         11    1    4    4    0    0  0.40517604800E+01  0.82819798685E+01  0.16587869312E+00  0.92214678621E+01  0.51100000000E-03 0. -1.
        -11    1    4    4    0    0 -0.27030200828E+01 -0.15127929681E+02 -0.18781673272E+02  0.24267505541E+02  0.51100000000E-03 0.  1.
         12    1    4    4    0    0  0.12664420190E+02 -0.14660899284E+02 -0.77824297072E+01  0.20878115784E+02  0.00000000000E+00 0. -1.
</event>
<event>
 8    1  0.2509217E-006  0.9118800E+02  0.7816164E-02  0.1184000E+00
        -11   -1    0    0    0    0  0.00000000000E+00  0.00000000000E+00  0.45593999997E+02  0.45594000000E+02  0.51100000000E-03 0.  1.
         11   -1    0    0    0    0 -0.00000000000E+00 -0.00000000000E+00 -0.45593999997E+02  0.45594000000E+02  0.51100000000E-03 0. -1.
         23    2    1    2    0    0  0.26645352591E-14  0.17763568394E-14  0.71054273576E-14  0.91188000000E+02  0.91188000000E+02 0.  0.
    9900012    2    3    3    0    0 -0.67836625568E+01 -0.13027028324E+02 -0.33764740049E+02  0.54367092689E+02  0.40000019403E+02 0.  0.
        -12    1    3    3    0    0  0.67836625568E+01  0.13027028324E+02  0.33764740049E+02  0.36820907311E+02  0.00000000000E+00 0.  1.
         11    1    4    4    0    0  0.16632735384E+01 -0.30885519912E+01  0.19635743319E+01  0.40201065513E+01  0.51100000000E-03 0. -1.
        -11    1    4    4    0    0 -0.27047268470E+01 -0.92444654042E+01  0.38318453070E+01  0.10366230108E+02  0.51100000000E-03 0.  1.
         12    1    4    4    0    0 -0.57422092482E+01 -0.69401092818E+00 -0.39560159688E+02  0.39980756030E+02  0.00000000000E+00 0. -1.
</event>
<event>
 8    1  0.2509217E-006  0.9118800E+02  0.7816164E-02  0.1184000E+00
        -11   -1    0    0    0    0  0.00000000000E+00  0.00000000000E+00  0.45593999997E+02  0.45594000000E+02  0.51100000000E-03 0.  1.
         11   -1    0    0    0    0 -0.00000000000E+00 -0.00000000000E+00 -0.45593999997E+02  0.45594000000E+02  0.51100000000E-03 0. -1.
         23    2    1    2    0    0  0.00000000000E+00 -0.35527136788E-14 -0.22204460493E-14  0.91188000000E+02  0.91188000000E+02 0.  0.
    9900012    2    3    3    0    0  0.33557258526E+02  0.14982395938E+02  0.22842180380E+01  0.54367089638E+02  0.40000012448E+02 0.  0.
         12    1    3    3    0    0 -0.33557258526E+02 -0.14982395938E+02 -0.22842180380E+01  0.36820910362E+02  0.00000000000E+00 0. -1.
         11    1    4    4    0    0  0.39210920842E+01 -0.96483570251E+00 -0.16578127998E+01  0.43651133554E+01  0.51100000000E-03 0.  1.
        -11    1    4    4    0    0  0.20136266188E+02 -0.20686604158E+01 -0.12530903391E+02  0.23806976120E+02  0.51100000000E-03 0. -1.
        -12    1    4    4    0    0  0.94999002533E+01  0.18015892056E+02  0.16472934229E+02  0.26195000163E+02  0.00000000000E+00 0.  1.
</event>
<event>
 8    1  0.2509217E-006  0.9118800E+02  0.7816164E-02  0.1184000E+00
        -11   -1    0    0    0    0  0.00000000000E+00  0.00000000000E+00  0.45593999997E+02  0.45594000000E+02  0.51100000000E-03 0. -1.
         11   -1    0    0    0    0 -0.00000000000E+00 -0.00000000000E+00 -0.45593999997E+02  0.45594000000E+02  0.51100000000E-03 0.  1.
         23    2    1    2    0    0  0.00000000000E+00  0.31086244690E-14  0.00000000000E+00  0.91188000000E+02  0.91188000000E+02 0.  0.
    9900012    2    3    3    0    0 -0.15280490766E+02  0.13925241373E+01  0.33471605391E+02  0.54367069960E+02  0.39999967588E+02 0.  0.
        -12    1    3    3    0    0  0.15280490766E+02 -0.13925241373E+01 -0.33471605391E+02  0.36820930040E+02  0.00000000000E+00 0.  1.
         11    1    4    4    0    0 -0.20193270669E+02  0.10683899451E+02  0.23449974099E+02  0.32738588444E+02  0.51100000000E-03 0. -1.
        -11    1    4    4    0    0 -0.32937119975E+01 -0.40296627570E+01  0.10656385027E+02  0.11859395548E+02  0.51100000000E-03 0.  1.
         12    1    4    4    0    0  0.82064919003E+01 -0.52617125572E+01 -0.63475373472E+00  0.97690859679E+01  0.00000000000E+00 0. -1.
</event>
<event>
 8    1  0.2509217E-006  0.9118800E+02  0.7816164E-02  0.1184000E+00
        -11   -1    0    0    0    0  0.00000000000E+00  0.00000000000E+00  0.45593999997E+02  0.45594000000E+02  0.51100000000E-03 0. -1.
         11   -1    0    0    0    0 -0.00000000000E+00 -0.00000000000E+00 -0.45593999997E+02  0.45594000000E+02  0.51100000000E-03 0.  1.
         23    2    1    2    0    0  0.00000000000E+00  0.00000000000E+00  0.00000000000E+00  0.91188000000E+02  0.91188000000E+02 0.  0.
    9900012    2    3    3    0    0  0.29176241829E+02  0.19428468172E+02 -0.11272194082E+02  0.54367070867E+02  0.39999969655E+02 0.  0.
        -12    1    3    3    0    0 -0.29176241829E+02 -0.19428468172E+02  0.11272194082E+02  0.36820929133E+02  0.00000000000E+00 0.  1.
         11    1    4    4    0    0  0.18911845777E+02 -0.54618481046E+01  0.18054557605E+01  0.19767381369E+02  0.51100000000E-03 0. -1.
        -11    1    4    4    0    0  0.23271890819E+01 -0.11033266885E+00 -0.74051183544E+01  0.77629736844E+01  0.51100000000E-03 0.  1.
        -12    1    4    4    0    0  0.79372069704E+01  0.25000648946E+02 -0.56725314885E+01  0.26836715814E+02  0.00000000000E+00 0.  1.
</event>
<event>
 8    1  0.2509217E-006  0.9118800E+02  0.7816164E-02  0.1184000E+00
        -11   -1    0    0    0    0  0.00000000000E+00  0.00000000000E+00  0.45593999997E+02  0.45594000000E+02  0.51100000000E-03 0.  1.
         11   -1    0    0    0    0 -0.00000000000E+00 -0.00000000000E+00 -0.45593999997E+02  0.45594000000E+02  0.51100000000E-03 0. -1.
         23    2    1    2    0    0  0.71054273576E-14  0.35527136788E-14  0.88817841970E-15  0.91188000000E+02  0.91188000000E+02 0.  0.
    9900012    2    3    3    0    0 -0.30200257674E+02  0.20346182319E+02  0.54548355193E+01  0.54367110154E+02  0.40000059217E+02 0.  0.
         12    1    3    3    0    0  0.30200257674E+02 -0.20346182319E+02 -0.54548355193E+01  0.36820889846E+02  0.00000000000E+00 0. -1.
         11    1    4    4    0    0 -0.25546093452E+01 -0.10779512132E+02  0.60363327352E+01  0.12615911535E+02  0.51100000000E-03 0. -1.
        -11    1    4    4    0    0 -0.19198893222E+02  0.19831219280E+02  0.49512360824E+00  0.27606519279E+02  0.51100000000E-03 0.  1.
         12    1    4    4    0    0 -0.84467551072E+01  0.11294475171E+02 -0.10766208241E+01  0.14144679340E+02  0.00000000000E+00 0. -1.
</event>
<event>
 8    1  0.2509217E-006  0.9118800E+02  0.7816164E-02  0.1184000E+00
        -11   -1    0    0    0    0  0.00000000000E+00  0.00000000000E+00  0.45593999997E+02  0.45594000000E+02  0.51100000000E-03 0.  1.
         11   -1    0    0    0    0 -0.00000000000E+00 -0.00000000000E+00 -0.45593999997E+02  0.45594000000E+02  0.51100000000E-03 0. -1.
         23    2    1    2    0    0  0.00000000000E+00 -0.35527136788E-14  0.00000000000E+00  0.91188000000E+02  0.91188000000E+02 0.  0.
    9900012    2    3    3    0    0  0.24036640444E+02 -0.25878042451E+02 -0.10408991130E+02  0.54367078484E+02  0.39999987021E+02 0.  0.
        -12    1    3    3    0    0 -0.24036640444E+02  0.25878042451E+02  0.10408991130E+02  0.36820921516E+02  0.00000000000E+00 0.  1.
         11    1    4    4    0    0  0.21708778779E+02 -0.67218303445E+01  0.13084360783E+01  0.22763261728E+02  0.51100000000E-03 0. -1.
        -11    1    4    4    0    0 -0.85645808649E+01 -0.92862446827E+01  0.27128791310E+00  0.12635663144E+02  0.51100000000E-03 0.  1.
         12    1    4    4    0    0  0.10892442529E+02 -0.98699674236E+01 -0.11988715121E+02  0.18968153612E+02  0.00000000000E+00 0. -1.
</event>
<event>
 8    1  0.2509217E-006  0.9118800E+02  0.7816164E-02  0.1184000E+00
        -11   -1    0    0    0    0  0.00000000000E+00  0.00000000000E+00  0.45593999997E+02  0.45594000000E+02  0.51100000000E-03 0.  1.
         11   -1    0    0    0    0 -0.00000000000E+00 -0.00000000000E+00 -0.45593999997E+02  0.45594000000E+02  0.51100000000E-03 0. -1.
         23    2    1    2    0    0  0.00000000000E+00 -0.17763568394E-14  0.00000000000E+00  0.91188000000E+02  0.91188000000E+02 0.  0.
    9900012    2    3    3    0    0 -0.61750667102E+01  0.15346715714E+02  0.32895688629E+02  0.54367089332E+02  0.40000011750E+02 0.  0.
         12    1    3    3    0    0  0.61750667102E+01 -0.15346715714E+02 -0.32895688629E+02  0.36820910668E+02  0.00000000000E+00 0. -1.
         11    1    4    4    0    0 -0.40934210202E+01  0.20434238238E+01 -0.26757308384E+01  0.53001143717E+01  0.51100000000E-03 0. -1.
        -11    1    4    4    0    0 -0.13842373795E+02  0.11898547798E+02  0.98315305432E+01  0.20732721603E+02  0.51100000000E-03 0.  1.
        -12    1    4    4    0    0  0.11760728105E+02  0.14047440918E+01  0.25739888924E+02  0.28334253357E+02  0.00000000000E+00 0.  1.
</event>
<event>
 8    1  0.2509217E-006  0.9118800E+02  0.7816164E-02  0.1184000E+00
        -11   -1    0    0    0    0  0.00000000000E+00  0.00000000000E+00  0.45593999997E+02  0.45594000000E+02  0.51100000000E-03 0. -1.
         11   -1    0    0    0    0 -0.00000000000E+00 -0.00000000000E+00 -0.45593999997E+02  0.45594000000E+02  0.51100000000E-03 0.  1.
         23    2    1    2    0    0  0.71054273576E-14  0.88817841970E-15 -0.17763568394E-14  0.91188000000E+02  0.91188000000E+02 0.  0.
    9900012    2    3    3    0    0 -0.36258135044E+02  0.37690994559E+01  0.51887479107E+01  0.54367060679E+02  0.39999946431E+02 0.  0.
        -12    1    3    3    0    0  0.36258135044E+02 -0.37690994559E+01 -0.51887479107E+01  0.36820939321E+02  0.00000000000E+00 0.  1.
         11    1    4    4    0    0  0.76833195388E+00 -0.35034219544E+01 -0.13568466907E+01  0.38347532626E+01  0.51100000000E-03 0. -1.
        -11    1    4    4    0    0 -0.14842396443E+02 -0.66813724548E+01 -0.10407069294E+02  0.19319538339E+02  0.51100000000E-03 0.  1.
         12    1    4    4    0    0 -0.22184070555E+02  0.13953893865E+02  0.16952663896E+02  0.31212769078E+02  0.00000000000E+00 0. -1.
</event>
<event>
 8    1  0.2509217E-006  0.9118800E+02  0.7816164E-02  0.1184000E+00
        -11   -1    0    0    0    0  0.00000000000E+00  0.00000000000E+00  0.45593999997E+02  0.45594000000E+02  0.51100000000E-03 0. -1.
         11   -1    0    0    0    0 -0.00000000000E+00 -0.00000000000E+00 -0.45593999997E+02  0.45594000000E+02  0.51100000000E-03 0.  1.
         23    2    1    2    0    0 -0.71054273576E-14  0.44408920985E-14  0.00000000000E+00  0.91188000000E+02  0.91188000000E+02 0.  0.
    9900012    2    3    3    0    0  0.35984617305E+02 -0.75509435985E+01 -0.19675982194E+01  0.54367070156E+02  0.39999968035E+02 0.  0.
         12    1    3    3    0    0 -0.35984617305E+02  0.75509435985E+01  0.19675982194E+01  0.36820929844E+02  0.00000000000E+00 0. -1.
         11    1    4    4    0    0  0.14587812113E+01  0.98179561338E+01  0.76881067635E+00  0.99554696215E+01  0.51100000000E-03 0. -1.
        -11    1    4    4    0    0  0.82082978148E+01  0.34553133732E+01 -0.59309838773E+01  0.10700089417E+02  0.51100000000E-03 0.  1.
         12    1    4    4    0    0  0.26317538279E+02 -0.20824213106E+02  0.31945749815E+01  0.33711511118E+02  0.00000000000E+00 0. -1.
</event>
<event>
 8    1  0.2509217E-006  0.9118800E+02  0.7816164E-02  0.1184000E+00
        -11   -1    0    0    0    0  0.00000000000E+00  0.00000000000E+00  0.45593999997E+02  0.45594000000E+02  0.51100000000E-03 0.  1.
         11   -1    0    0    0    0 -0.00000000000E+00 -0.00000000000E+00 -0.45593999997E+02  0.45594000000E+02  0.51100000000E-03 0. -1.
         23    2    1    2    0    0  0.00000000000E+00  0.00000000000E+00  0.00000000000E+00  0.91188000000E+02  0.91188000000E+02 0.  0.
    9900012    2    3    3    0    0  0.32212894002E+01  0.57280697338E+01  0.36229699411E+02  0.54367100939E+02  0.40000038210E+02 0.  0.
         12    1    3    3    0    0 -0.32212894002E+01 -0.57280697338E+01 -0.36229699411E+02  0.36820899061E+02  0.00000000000E+00 0. -1.
         11    1    4    4    0    0 -0.34528107262E+01 -0.19020518870E+00  0.15236690703E+02  0.15624174338E+02  0.51100000000E-03 0. -1.
        -11    1    4    4    0    0 -0.95164164916E+01  0.10378115690E+02  0.35325613009E+01  0.14517109138E+02  0.51100000000E-03 0.  1.
         12    1    4    4    0    0  0.16190516618E+02 -0.44598407679E+01  0.17460447408E+02  0.24225817462E+02  0.00000000000E+00 0. -1.
</event>
<event>
 8    1  0.2509217E-006  0.9118800E+02  0.7816164E-02  0.1184000E+00
        -11   -1    0    0    0    0  0.00000000000E+00  0.00000000000E+00  0.45593999997E+02  0.45594000000E+02  0.51100000000E-03 0. -1.
         11   -1    0    0    0    0 -0.00000000000E+00 -0.00000000000E+00 -0.45593999997E+02  0.45594000000E+02  0.51100000000E-03 0.  1.
         23    2    1    2    0    0  0.00000000000E+00  0.88817841970E-15 -0.71054273576E-14  0.91188000000E+02  0.91188000000E+02 0.  0.
    9900012    2    3    3    0    0  0.90756643915E+01 -0.71551110055E+01  0.34960186545E+02  0.54367109993E+02  0.40000058850E+02 0.  0.
        -12    1    3    3    0    0 -0.90756643915E+01  0.71551110055E+01 -0.34960186545E+02  0.36820890007E+02  0.00000000000E+00 0.  1.
         11    1    4    4    0    0 -0.38160914673E+01  0.52328113196E+01  0.17897817617E+02  0.19033568875E+02  0.51100000000E-03 0. -1.
        -11    1    4    4    0    0  0.16566578606E+02 -0.17852175983E+02  0.13552908715E+02  0.27871724901E+02  0.51100000000E-03 0.  1.
        -12    1    4    4    0    0 -0.36748227475E+01  0.54642536583E+01  0.35094602127E+01  0.74618162168E+01  0.00000000000E+00 0.  1.
</event>
<event>
 8    1  0.2509217E-006  0.9118800E+02  0.7816164E-02  0.1184000E+00
        -11   -1    0    0    0    0  0.00000000000E+00  0.00000000000E+00  0.45593999997E+02  0.45594000000E+02  0.51100000000E-03 0.  1.
         11   -1    0    0    0    0 -0.00000000000E+00 -0.00000000000E+00 -0.45593999997E+02  0.45594000000E+02  0.51100000000E-03 0. -1.
         23    2    1    2    0    0  0.71054273576E-14 -0.17763568394E-14  0.35527136788E-14  0.91188000000E+02  0.91188000000E+02 0.  0.
    9900012    2    3    3    0    0  0.29005463812E+02 -0.58732545024E+01 -0.21908171085E+02  0.54367081900E+02  0.39999994808E+02 0.  0.
        -12    1    3    3    0    0 -0.29005463812E+02  0.58732545024E+01  0.21908171085E+02  0.36820918100E+02  0.00000000000E+00 0.  1.
         11    1    4    4    0    0  0.15001481460E+02 -0.19412087091E+01 -0.13692395938E+02  0.20403294930E+02  0.51100000000E-03 0. -1.
        -11    1    4    4    0    0  0.52611206793E+01 -0.14489370969E+02  0.36417866126E+01  0.15839314123E+02  0.51100000000E-03 0.  1.
        -12    1    4    4    0    0  0.87428616735E+01  0.10557325176E+02 -0.11857561759E+02  0.18124472847E+02  0.00000000000E+00 0.  1.
</event>
<event>
 8    1  0.2509217E-006  0.9118800E+02  0.7816164E-02  0.1184000E+00
        -11   -1    0    0    0    0  0.00000000000E+00  0.00000000000E+00  0.45593999997E+02  0.45594000000E+02  0.51100000000E-03 0.  1.
         11   -1    0    0    0    0 -0.00000000000E+00 -0.00000000000E+00 -0.45593999997E+02  0.45594000000E+02  0.51100000000E-03 0. -1.
         23    2    1    2    0    0  0.00000000000E+00  0.00000000000E+00  0.00000000000E+00  0.91188000000E+02  0.91188000000E+02 0.  0.
    9900012    2    3    3    0    0 -0.11016810710E+02  0.84085472974E+01 -0.34113110538E+02  0.54367107881E+02  0.40000054036E+02 0.  0.
         12    1    3    3    0    0  0.11016810710E+02 -0.84085472974E+01  0.34113110538E+02  0.36820892119E+02  0.00000000000E+00 0. -1.
         11    1    4    4    0    0 -0.19073590033E+01  0.77640914899E+01  0.73857449657E+01  0.10884317341E+02  0.51100000000E-03 0. -1.
        -11    1    4    4    0    0 -0.88157341587E+01 -0.18388183505E+00 -0.18780968271E+02  0.20747909551E+02  0.51100000000E-03 0.  1.
         12    1    4    4    0    0 -0.29371754799E+00  0.82833764251E+00 -0.22717887233E+02  0.22734880989E+02  0.00000000000E+00 0. -1.
</event>
<event>
 8    1  0.2509217E-006  0.9118800E+02  0.7816164E-02  0.1184000E+00
        -11   -1    0    0    0    0  0.00000000000E+00  0.00000000000E+00  0.45593999997E+02  0.45594000000E+02  0.51100000000E-03 0. -1.
         11   -1    0    0    0    0 -0.00000000000E+00 -0.00000000000E+00 -0.45593999997E+02  0.45594000000E+02  0.51100000000E-03 0.  1.
         23    2    1    2    0    0  0.17763568394E-14  0.13322676296E-14  0.00000000000E+00  0.91188000000E+02  0.91188000000E+02 0.  0.
    9900012    2    3    3    0    0  0.12631081596E+02  0.14321455961E+01 -0.34556972295E+02  0.54367087498E+02  0.40000007569E+02 0.  0.
         12    1    3    3    0    0 -0.12631081596E+02 -0.14321455961E+01  0.34556972295E+02  0.36820912502E+02  0.00000000000E+00 0. -1.
         11    1    4    4    0    0  0.85614412078E+01 -0.12376112641E+02 -0.84068440361E+00  0.15072265595E+02  0.51100000000E-03 0. -1.
        -11    1    4    4    0    0  0.54208890892E+01 -0.29721325775E+00 -0.55434139982E+01  0.77591116280E+01  0.51100000000E-03 0.  1.
         12    1    4    4    0    0 -0.13512487012E+01  0.14105471495E+02 -0.28172873893E+02  0.31535710275E+02  0.00000000000E+00 0. -1.
</event>
<event>
 8    1  0.2509217E-006  0.9118800E+02  0.7816164E-02  0.1184000E+00
        -11   -1    0    0    0    0  0.00000000000E+00  0.00000000000E+00  0.45593999997E+02  0.45594000000E+02  0.51100000000E-03 0. -1.
         11   -1    0    0    0    0 -0.00000000000E+00 -0.00000000000E+00 -0.45593999997E+02  0.45594000000E+02  0.51100000000E-03 0.  1.
         23    2    1    2    0    0  0.35527136788E-14  0.00000000000E+00  0.17763568394E-14  0.91188000000E+02  0.91188000000E+02 0.  0.
    9900012    2    3    3    0    0  0.21395747439E+02  0.28651584772E+02 -0.87799908537E+01  0.54367088037E+02  0.40000008797E+02 0.  0.
        -12    1    3    3    0    0 -0.21395747439E+02 -0.28651584772E+02  0.87799908537E+01  0.36820911963E+02  0.00000000000E+00 0.  1.
         11    1    4    4    0    0 -0.40298007698E+01  0.59702488132E+01 -0.26169587658E+01  0.76636569977E+01  0.51100000000E-03 0. -1.
        -11    1    4    4    0    0  0.81389975600E+01  0.25848133853E+02  0.23018316639E+01  0.27196833166E+02  0.51100000000E-03 0.  1.
         12    1    4    4    0    0  0.17286550649E+02 -0.31667978947E+01 -0.84648637518E+01  0.19506597873E+02  0.00000000000E+00 0. -1.
</event>
<event>
 8    1  0.2509217E-006  0.9118800E+02  0.7816164E-02  0.1184000E+00
        -11   -1    0    0    0    0  0.00000000000E+00  0.00000000000E+00  0.45593999997E+02  0.45594000000E+02  0.51100000000E-03 0. -1.
         11   -1    0    0    0    0 -0.00000000000E+00 -0.00000000000E+00 -0.45593999997E+02  0.45594000000E+02  0.51100000000E-03 0.  1.
         23    2    1    2    0    0 -0.35527136788E-14  0.17763568394E-14  0.00000000000E+00  0.91188000000E+02  0.91188000000E+02 0.  0.
    9900012    2    3    3    0    0 -0.28938009995E+02 -0.10641552083E+02 -0.20127798019E+02  0.54367091452E+02  0.40000016584E+02 0.  0.
         12    1    3    3    0    0  0.28938009995E+02  0.10641552083E+02  0.20127798019E+02  0.36820908548E+02  0.00000000000E+00 0. -1.
         11    1    4    4    0    0  0.14867730088E+01 -0.60768552535E+01  0.61351106005E+01  0.87623196754E+01  0.51100000000E-03 0. -1.
        -11    1    4    4    0    0  0.28382807386E+01  0.12337459513E+01 -0.44018224481E+01  0.53808928394E+01  0.51100000000E-03 0.  1.
        -12    1    4    4    0    0 -0.33263063742E+02 -0.57984427807E+01 -0.21861086172E+02  0.40223878938E+02  0.00000000000E+00 0.  1.
</event>
<event>
 8    1  0.2509217E-006  0.9118800E+02  0.7816164E-02  0.1184000E+00
        -11   -1    0    0    0    0  0.00000000000E+00  0.00000000000E+00  0.45593999997E+02  0.45594000000E+02  0.51100000000E-03 0.  1.
         11   -1    0    0    0    0 -0.00000000000E+00 -0.00000000000E+00 -0.45593999997E+02  0.45594000000E+02  0.51100000000E-03 0. -1.
         23    2    1    2    0    0 -0.88817841970E-15 -0.71054273576E-14  0.00000000000E+00  0.91188000000E+02  0.91188000000E+02 0.  0.
    9900012    2    3    3    0    0  0.74609192497E+01  0.30549378924E+02  0.19153308651E+02  0.54367094240E+02  0.40000022939E+02 0.  0.
        -12    1    3    3    0    0 -0.74609192497E+01 -0.30549378924E+02 -0.19153308651E+02  0.36820905760E+02  0.00000000000E+00 0.  1.
         11    1    4    4    0    0 -0.11747700106E+02  0.62203525791E+01  0.67075098447E+01  0.14889322771E+02  0.51100000000E-03 0. -1.
        -11    1    4    4    0    0 -0.12865066180E+01  0.48030152214E+01  0.98719558722E+01  0.11053486667E+02  0.51100000000E-03 0.  1.
         12    1    4    4    0    0  0.20495125974E+02  0.19526011124E+02  0.25738429342E+01  0.28424284802E+02  0.00000000000E+00 0. -1.
</event>
<event>
 8    1  0.2509217E-006  0.9118800E+02  0.7816164E-02  0.1184000E+00
        -11   -1    0    0    0    0  0.00000000000E+00  0.00000000000E+00  0.45593999997E+02  0.45594000000E+02  0.51100000000E-03 0. -1.
         11   -1    0    0    0    0 -0.00000000000E+00 -0.00000000000E+00 -0.45593999997E+02  0.45594000000E+02  0.51100000000E-03 0.  1.
         23    2    1    2    0    0  0.00000000000E+00  0.00000000000E+00  0.13322676296E-14  0.91188000000E+02  0.91188000000E+02 0.  0.
    9900012    2    3    3    0    0 -0.25501359671E+02 -0.26413537664E+02  0.27901689180E+01  0.54367090728E+02  0.40000014933E+02 0.  0.
         12    1    3    3    0    0  0.25501359671E+02  0.26413537664E+02 -0.27901689180E+01  0.36820909272E+02  0.00000000000E+00 0. -1.
         11    1    4    4    0    0 -0.24652374953E+00  0.16244329491E+01  0.54731580964E+01  0.57144567698E+01  0.51100000000E-03 0. -1.
        -11    1    4    4    0    0 -0.25131845739E+02 -0.20817824756E+02 -0.13770760864E+02  0.35420691027E+02  0.51100000000E-03 0.  1.
        -12    1    4    4    0    0 -0.12299018292E+00 -0.72201458574E+01  0.11087771686E+02  0.13231942932E+02  0.00000000000E+00 0.  1.
</event>
<event>
 8    1  0.2509217E-006  0.9118800E+02  0.7816164E-02  0.1184000E+00
        -11   -1    0    0    0    0  0.00000000000E+00  0.00000000000E+00  0.45593999997E+02  0.45594000000E+02  0.51100000000E-03 0.  1.
         11   -1    0    0    0    0 -0.00000000000E+00 -0.00000000000E+00 -0.45593999997E+02  0.45594000000E+02  0.51100000000E-03 0. -1.
         23    2    1    2    0    0  0.00000000000E+00 -0.35527136788E-14 -0.35527136788E-14  0.91188000000E+02  0.91188000000E+02 0.  0.
    9900012    2    3    3    0    0  0.20206686072E+01  0.29257888071E+02  0.22263683548E+02  0.54367099398E+02  0.40000034698E+02 0.  0.
         12    1    3    3    0    0 -0.20206686072E+01 -0.29257888071E+02 -0.22263683548E+02  0.36820900602E+02  0.00000000000E+00 0. -1.
         11    1    4    4    0    0  0.16307881856E+02  0.13523732023E+02  0.63564375709E+01  0.22118829927E+02  0.51100000000E-03 0. -1.
        -11    1    4    4    0    0 -0.87493246123E+01  0.17243091624E+02  0.17721737234E+02  0.26228512363E+02  0.51100000000E-03 0.  1.
         12    1    4    4    0    0 -0.55378886368E+01 -0.15089355760E+01 -0.18144912571E+01  0.60197571087E+01  0.00000000000E+00 0. -1.
</event>
<event>
 8    1  0.2509217E-006  0.9118800E+02  0.7816164E-02  0.1184000E+00
        -11   -1    0    0    0    0  0.00000000000E+00  0.00000000000E+00  0.45593999997E+02  0.45594000000E+02  0.51100000000E-03 0.  1.
         11   -1    0    0    0    0 -0.00000000000E+00 -0.00000000000E+00 -0.45593999997E+02  0.45594000000E+02  0.51100000000E-03 0. -1.
         23    2    1    2    0    0  0.17763568394E-14  0.00000000000E+00  0.71054273576E-14  0.91188000000E+02  0.91188000000E+02 0.  0.
    9900012    2    3    3    0    0 -0.96106546582E+01 -0.22718724113E+02 -0.27336315897E+02  0.54367091875E+02  0.40000017548E+02 0.  0.
        -12    1    3    3    0    0  0.96106546582E+01  0.22718724113E+02  0.27336315897E+02  0.36820908125E+02  0.00000000000E+00 0.  1.
         11    1    4    4    0    0  0.31799093551E+00 -0.35473451131E+01 -0.11570600888E+02  0.12106344649E+02  0.51100000000E-03 0. -1.
        -11    1    4    4    0    0 -0.20556183235E+02 -0.18668359894E+02 -0.15081573862E+02  0.31599338612E+02  0.51100000000E-03 0.  1.
         12    1    4    4    0    0  0.10627537641E+02 -0.50301910610E+00 -0.68414114806E+00  0.10661408615E+02  0.00000000000E+00 0. -1.
</event>
<event>
 8    1  0.2509217E-006  0.9118800E+02  0.7816164E-02  0.1184000E+00
        -11   -1    0    0    0    0  0.00000000000E+00  0.00000000000E+00  0.45593999997E+02  0.45594000000E+02  0.51100000000E-03 0.  1.
         11   -1    0    0    0    0 -0.00000000000E+00 -0.00000000000E+00 -0.45593999997E+02  0.45594000000E+02  0.51100000000E-03 0. -1.
         23    2    1    2    0    0 -0.17763568394E-14  0.00000000000E+00  0.00000000000E+00  0.91188000000E+02  0.91188000000E+02 0.  0.
    9900012    2    3    3    0    0 -0.10484749874E+02  0.18705896267E+02 -0.29932278433E+02  0.54367057220E+02  0.39999938544E+02 0.  0.
        -12    1    3    3    0    0  0.10484749874E+02 -0.18705896267E+02  0.29932278433E+02  0.36820942780E+02  0.00000000000E+00 0.  1.
         11    1    4    4    0    0  0.36536800755E+01 -0.68391501655E+01 -0.78688389267E+01  0.11047261172E+02  0.51100000000E-03 0. -1.
        -11    1    4    4    0    0 -0.56270506378E+01 -0.36496891508E+01 -0.24866193194E+01  0.71531255881E+01  0.51100000000E-03 0.  1.
         12    1    4    4    0    0 -0.85113793117E+01  0.29194735583E+02 -0.19576820187E+02  0.36166670460E+02  0.00000000000E+00 0. -1.
</event>
<event>
 8    1  0.2509217E-006  0.9118800E+02  0.7816164E-02  0.1184000E+00
        -11   -1    0    0    0    0  0.00000000000E+00  0.00000000000E+00  0.45593999997E+02  0.45594000000E+02  0.51100000000E-03 0.  1.
         11   -1    0    0    0    0 -0.00000000000E+00 -0.00000000000E+00 -0.45593999997E+02  0.45594000000E+02  0.51100000000E-03 0. -1.
         23    2    1    2    0    0 -0.35527136788E-14  0.00000000000E+00  0.22204460493E-15  0.91188000000E+02  0.91188000000E+02 0.  0.
    9900012    2    3    3    0    0  0.31748509730E+02  0.18550904278E+02 -0.19172566217E+01  0.54367084849E+02  0.40000001530E+02 0.  0.
        -12    1    3    3    0    0 -0.31748509730E+02 -0.18550904278E+02  0.19172566217E+01  0.36820915151E+02  0.00000000000E+00 0.  1.
         11    1    4    4    0    0 -0.38694073137E+01  0.52085095060E+00 -0.66485851708E+01  0.77102064633E+01  0.51100000000E-03 0. -1.
        -11    1    4    4    0    0  0.53273494933E+01 -0.53637369174E+01  0.35860400360E+01  0.83671984406E+01  0.51100000000E-03 0.  1.
        -12    1    4    4    0    0  0.30290567550E+02  0.23393790244E+02  0.11452885131E+01  0.38289679945E+02  0.00000000000E+00 0.  1.
</event>
<event>
 8    1  0.2509217E-006  0.9118800E+02  0.7816164E-02  0.1184000E+00
        -11   -1    0    0    0    0  0.00000000000E+00  0.00000000000E+00  0.45593999997E+02  0.45594000000E+02  0.51100000000E-03 0.  1.
         11   -1    0    0    0    0 -0.00000000000E+00 -0.00000000000E+00 -0.45593999997E+02  0.45594000000E+02  0.51100000000E-03 0. -1.
         23    2    1    2    0    0  0.35527136788E-14  0.00000000000E+00  0.00000000000E+00  0.91188000000E+02  0.91188000000E+02 0.  0.
    9900012    2    3    3    0    0  0.18974840462E+02 -0.23138333337E+02 -0.21455835523E+02  0.54367083143E+02  0.39999997642E+02 0.  0.
        -12    1    3    3    0    0 -0.18974840462E+02  0.23138333337E+02  0.21455835523E+02  0.36820916857E+02  0.00000000000E+00 0.  1.
         11    1    4    4    0    0  0.70597472267E+01 -0.14870880203E+02 -0.83409894892E+01  0.18454138149E+02  0.51100000000E-03 0. -1.
        -11    1    4    4    0    0 -0.22280175879E+01 -0.16542973049E+02 -0.92227067476E+01  0.19070719433E+02  0.51100000000E-03 0.  1.
         12    1    4    4    0    0  0.14143110824E+02  0.82755199151E+01 -0.38921392862E+01  0.16842225561E+02  0.00000000000E+00 0. -1.
</event>
<event>
 8    1  0.2509217E-006  0.9118800E+02  0.7816164E-02  0.1184000E+00
        -11   -1    0    0    0    0  0.00000000000E+00  0.00000000000E+00  0.45593999997E+02  0.45594000000E+02  0.51100000000E-03 0.  1.
         11   -1    0    0    0    0 -0.00000000000E+00 -0.00000000000E+00 -0.45593999997E+02  0.45594000000E+02  0.51100000000E-03 0. -1.
         23    2    1    2    0    0 -0.22204460493E-15  0.00000000000E+00 -0.35527136788E-14  0.91188000000E+02  0.91188000000E+02 0.  0.
    9900012    2    3    3    0    0  0.87021857993E+00 -0.32134936521E+02 -0.17954457798E+02  0.54367163774E+02  0.40000181456E+02 0.  0.
        -12    1    3    3    0    0 -0.87021857993E+00  0.32134936521E+02  0.17954457798E+02  0.36820836226E+02  0.00000000000E+00 0.  1.
         11    1    4    4    0    0 -0.28675565966E+01 -0.21588794777E+01  0.91697378925E+01  0.98472196437E+01  0.51100000000E-03 0. -1.
        -11    1    4    4    0    0  0.39697384641E+00 -0.94778286563E+01  0.10216484955E+01  0.95409952407E+01  0.51100000000E-03 0.  1.
         12    1    4    4    0    0  0.33408013301E+01 -0.20498228387E+02 -0.28145844186E+02  0.34978948890E+02  0.00000000000E+00 0. -1.
</event>
<event>
 8    1  0.2509217E-006  0.9118800E+02  0.7816164E-02  0.1184000E+00
        -11   -1    0    0    0    0  0.00000000000E+00  0.00000000000E+00  0.45593999997E+02  0.45594000000E+02  0.51100000000E-03 0.  1.
         11   -1    0    0    0    0 -0.00000000000E+00 -0.00000000000E+00 -0.45593999997E+02  0.45594000000E+02  0.51100000000E-03 0. -1.
         23    2    1    2    0    0  0.17763568394E-14  0.35527136788E-14  0.35527136788E-14  0.91188000000E+02  0.91188000000E+02 0.  0.
    9900012    2    3    3    0    0  0.15503823133E+02  0.22794877055E+02 -0.24409109484E+02  0.54367087769E+02  0.40000008188E+02 0.  0.
        -12    1    3    3    0    0 -0.15503823133E+02 -0.22794877055E+02  0.24409109484E+02  0.36820912231E+02  0.00000000000E+00 0.  1.
         11    1    4    4    0    0  0.45114097454E+01  0.13911761261E+02 -0.27793985742E+02  0.31406934950E+02  0.51100000000E-03 0. -1.
        -11    1    4    4    0    0  0.11374945467E+02 -0.20880558381E+01  0.31227413217E+01  0.11979185080E+02  0.51100000000E-03 0.  1.
        -12    1    4    4    0    0 -0.38253207883E+00  0.10971171632E+02  0.26213493632E+00  0.10980967740E+02  0.00000000000E+00 0.  1.
</event>
<event>
 8    1  0.2509217E-006  0.9118800E+02  0.7816164E-02  0.1184000E+00
        -11   -1    0    0    0    0  0.00000000000E+00  0.00000000000E+00  0.45593999997E+02  0.45594000000E+02  0.51100000000E-03 0.  1.
         11   -1    0    0    0    0 -0.00000000000E+00 -0.00000000000E+00 -0.45593999997E+02  0.45594000000E+02  0.51100000000E-03 0. -1.
         23    2    1    2    0    0  0.00000000000E+00 -0.35527136788E-14  0.00000000000E+00  0.91188000000E+02  0.91188000000E+02 0.  0.
    9900012    2    3    3    0    0 -0.15823871994E+02  0.31633780402E+02 -0.10231741114E+02  0.54367088636E+02  0.40000010164E+02 0.  0.
        -12    1    3    3    0    0  0.15823871994E+02 -0.31633780402E+02  0.10231741114E+02  0.36820911364E+02  0.00000000000E+00 0.  1.
         11    1    4    4    0    0 -0.10115271570E+02  0.15451901827E+02  0.65134842815E+01  0.19583295605E+02  0.51100000000E-03 0. -1.
        -11    1    4    4    0    0 -0.31277922532E+01 -0.39982575081E+01 -0.13187199270E+02  0.14130512104E+02  0.51100000000E-03 0.  1.
        -12    1    4    4    0    0 -0.25808081714E+01  0.20180136083E+02 -0.35580261258E+01  0.20653280927E+02  0.00000000000E+00 0.  1.
</event>
<event>
 8    1  0.2509217E-006  0.9118800E+02  0.7816164E-02  0.1184000E+00
        -11   -1    0    0    0    0  0.00000000000E+00  0.00000000000E+00  0.45593999997E+02  0.45594000000E+02  0.51100000000E-03 0.  1.
         11   -1    0    0    0    0 -0.00000000000E+00 -0.00000000000E+00 -0.45593999997E+02  0.45594000000E+02  0.51100000000E-03 0. -1.
         23    2    1    2    0    0  0.00000000000E+00 -0.35527136788E-14  0.00000000000E+00  0.91188000000E+02  0.91188000000E+02 0.  0.
    9900012    2    3    3    0    0  0.11491330551E+02  0.29495342316E+02  0.18808365829E+02  0.54367074953E+02  0.39999978970E+02 0.  0.
         12    1    3    3    0    0 -0.11491330551E+02 -0.29495342316E+02 -0.18808365829E+02  0.36820925047E+02  0.00000000000E+00 0. -1.
         11    1    4    4    0    0 -0.11446326631E+00  0.56439960840E+01 -0.70120877116E+01  0.90020646505E+01  0.51100000000E-03 0. -1.
        -11    1    4    4    0    0  0.10796986062E+02 -0.16302499826E+00  0.10400871249E+01  0.10848191862E+02  0.51100000000E-03 0.  1.
        -12    1    4    4    0    0  0.80880775539E+00  0.24014371230E+02  0.24780366416E+02  0.34516818441E+02  0.00000000000E+00 0.  1.
</event>
<event>
 8    1  0.2509217E-006  0.9118800E+02  0.7816164E-02  0.1184000E+00
        -11   -1    0    0    0    0  0.00000000000E+00  0.00000000000E+00  0.45593999997E+02  0.45594000000E+02  0.51100000000E-03 0. -1.
         11   -1    0    0    0    0 -0.00000000000E+00 -0.00000000000E+00 -0.45593999997E+02  0.45594000000E+02  0.51100000000E-03 0.  1.
         23    2    1    2    0    0  0.00000000000E+00 -0.17763568394E-14  0.00000000000E+00  0.91188000000E+02  0.91188000000E+02 0.  0.
    9900012    2    3    3    0    0  0.22281122143E+02 -0.13549432028E+02 -0.25995093062E+02  0.54367076933E+02  0.39999983483E+02 0.  0.
         12    1    3    3    0    0 -0.22281122143E+02  0.13549432028E+02  0.25995093062E+02  0.36820923067E+02  0.00000000000E+00 0. -1.
         11    1    4    4    0    0  0.14795724438E+02  0.10908686418E+02 -0.85877772588E+00  0.18402456370E+02  0.51100000000E-03 0. -1.
        -11    1    4    4    0    0  0.25689625025E+01 -0.12910771996E+02 -0.13307431821E+02  0.18718315731E+02  0.51100000000E-03 0.  1.
         12    1    4    4    0    0  0.49164352024E+01 -0.11547346450E+02 -0.11828883515E+02  0.17246304832E+02  0.00000000000E+00 0. -1.
</event>
<event>
 8    1  0.2509217E-006  0.9118800E+02  0.7816164E-02  0.1184000E+00
        -11   -1    0    0    0    0  0.00000000000E+00  0.00000000000E+00  0.45593999997E+02  0.45594000000E+02  0.51100000000E-03 0. -1.
         11   -1    0    0    0    0 -0.00000000000E+00 -0.00000000000E+00 -0.45593999997E+02  0.45594000000E+02  0.51100000000E-03 0.  1.
         23    2    1    2    0    0  0.17763568394E-14  0.00000000000E+00  0.35527136788E-14  0.91188000000E+02  0.91188000000E+02 0.  0.
    9900012    2    3    3    0    0  0.15743758886E+02  0.19267469641E+02  0.27141909158E+02  0.54367020070E+02  0.39999853853E+02 0.  0.
        -12    1    3    3    0    0 -0.15743758886E+02 -0.19267469641E+02 -0.27141909158E+02  0.36820979930E+02  0.00000000000E+00 0.  1.
         11    1    4    4    0    0 -0.86004040658E+01  0.35674047983E+01  0.45252501176E+00  0.93219153738E+01  0.51100000000E-03 0. -1.
        -11    1    4    4    0    0  0.46874622593E+01 -0.52913875878E+01  0.26041632694E+01  0.75334422167E+01  0.51100000000E-03 0.  1.
        -12    1    4    4    0    0  0.19656700693E+02  0.20991452431E+02  0.24085220877E+02  0.37511662479E+02  0.00000000000E+00 0.  1.
</event>
<event>
 8    1  0.2509217E-006  0.9118800E+02  0.7816164E-02  0.1184000E+00
        -11   -1    0    0    0    0  0.00000000000E+00  0.00000000000E+00  0.45593999997E+02  0.45594000000E+02  0.51100000000E-03 0. -1.
         11   -1    0    0    0    0 -0.00000000000E+00 -0.00000000000E+00 -0.45593999997E+02  0.45594000000E+02  0.51100000000E-03 0.  1.
         23    2    1    2    0    0  0.00000000000E+00  0.00000000000E+00  0.00000000000E+00  0.91188000000E+02  0.91188000000E+02 0.  0.
    9900012    2    3    3    0    0 -0.30318083951E+02 -0.18810298103E+02 -0.90975739427E+01  0.54367090440E+02  0.40000014277E+02 0.  0.
         12    1    3    3    0    0  0.30318083951E+02  0.18810298103E+02  0.90975739427E+01  0.36820909560E+02  0.00000000000E+00 0. -1.
         11    1    4    4    0    0 -0.75624373361E+01 -0.14942976927E+02  0.56821634987E+01  0.17685304640E+02  0.51100000000E-03 0. -1.
        -11    1    4    4    0    0 -0.82662234000E+01 -0.17119079568E+01 -0.19534606644E+02  0.21280552981E+02  0.51100000000E-03 0.  1.
         12    1    4    4    0    0 -0.14489423215E+02 -0.21554132186E+01  0.47548692031E+01  0.15401232820E+02  0.00000000000E+00 0. -1.
</event>
<event>
 8    1  0.2509217E-006  0.9118800E+02  0.7816164E-02  0.1184000E+00
        -11   -1    0    0    0    0  0.00000000000E+00  0.00000000000E+00  0.45593999997E+02  0.45594000000E+02  0.51100000000E-03 0. -1.
         11   -1    0    0    0    0 -0.00000000000E+00 -0.00000000000E+00 -0.45593999997E+02  0.45594000000E+02  0.51100000000E-03 0.  1.
         23    2    1    2    0    0 -0.71054273576E-14  0.00000000000E+00  0.00000000000E+00  0.91188000000E+02  0.91188000000E+02 0.  0.
    9900012    2    3    3    0    0  0.31772725042E+02 -0.90405874039E+01 -0.16264620269E+02  0.54367134317E+02  0.40000114302E+02 0.  0.
         12    1    3    3    0    0 -0.31772725042E+02  0.90405874039E+01  0.16264620269E+02  0.36820865683E+02  0.00000000000E+00 0. -1.
         11    1    4    4    0    0  0.23076324193E+01 -0.11384648378E+02  0.48516972634E+00  0.11626296745E+02  0.51100000000E-03 0. -1.
        -11    1    4    4    0    0  0.74388144316E+01 -0.78288640901E+01  0.32720506200E+01  0.11284209703E+02  0.51100000000E-03 0.  1.
        -12    1    4    4    0    0  0.22026278191E+02  0.10172925064E+02 -0.20021840615E+02  0.31456627869E+02  0.00000000000E+00 0.  1.
</event>
<event>
 8    1  0.2509217E-006  0.9118800E+02  0.7816164E-02  0.1184000E+00
        -11   -1    0    0    0    0  0.00000000000E+00  0.00000000000E+00  0.45593999997E+02  0.45594000000E+02  0.51100000000E-03 0. -1.
         11   -1    0    0    0    0 -0.00000000000E+00 -0.00000000000E+00 -0.45593999997E+02  0.45594000000E+02  0.51100000000E-03 0.  1.
         23    2    1    2    0    0  0.17763568394E-14 -0.17763568394E-14  0.71054273576E-14  0.91188000000E+02  0.91188000000E+02 0.  0.
    9900012    2    3    3    0    0 -0.10942686487E+02  0.14552906789E+02 -0.32003889366E+02  0.54367103513E+02  0.40000044078E+02 0.  0.
         12    1    3    3    0    0  0.10942686487E+02 -0.14552906789E+02  0.32003889366E+02  0.36820896487E+02  0.00000000000E+00 0. -1.
         11    1    4    4    0    0 -0.62810532346E+00  0.31621126903E+01  0.36990748773E+01  0.49067940829E+01  0.51100000000E-03 0. -1.
        -11    1    4    4    0    0  0.57764346557E+01  0.16351686560E+02 -0.19430453778E+02  0.26043951024E+02  0.51100000000E-03 0.  1.
         12    1    4    4    0    0 -0.16091015820E+02 -0.49608924609E+01 -0.16272510466E+02  0.23416358405E+02  0.00000000000E+00 0. -1.
</event>
<event>
 8    1  0.2509217E-006  0.9118800E+02  0.7816164E-02  0.1184000E+00
        -11   -1    0    0    0    0  0.00000000000E+00  0.00000000000E+00  0.45593999997E+02  0.45594000000E+02  0.51100000000E-03 0. -1.
         11   -1    0    0    0    0 -0.00000000000E+00 -0.00000000000E+00 -0.45593999997E+02  0.45594000000E+02  0.51100000000E-03 0.  1.
         23    2    1    2    0    0 -0.35527136788E-14 -0.17763568394E-14  0.00000000000E+00  0.91188000000E+02  0.91188000000E+02 0.  0.
    9900012    2    3    3    0    0  0.29385560506E+02 -0.13360508234E+02 -0.17713401951E+02  0.54367096220E+02  0.40000027453E+02 0.  0.
         12    1    3    3    0    0 -0.29385560506E+02  0.13360508234E+02  0.17713401951E+02  0.36820903780E+02  0.00000000000E+00 0. -1.
         11    1    4    4    0    0  0.15639536793E+01  0.60791544628E+01  0.25827511541E+01  0.67876854582E+01  0.51100000000E-03 0. -1.
        -11    1    4    4    0    0  0.32559344951E+01 -0.15540291173E+02 -0.66347707310E+00  0.15891568874E+02  0.51100000000E-03 0.  1.
         12    1    4    4    0    0  0.24565672331E+02 -0.38993715235E+01 -0.19632676032E+02  0.31687841888E+02  0.00000000000E+00 0. -1.
</event>
<event>
 8    1  0.2509217E-006  0.9118800E+02  0.7816164E-02  0.1184000E+00
        -11   -1    0    0    0    0  0.00000000000E+00  0.00000000000E+00  0.45593999997E+02  0.45594000000E+02  0.51100000000E-03 0.  1.
         11   -1    0    0    0    0 -0.00000000000E+00 -0.00000000000E+00 -0.45593999997E+02  0.45594000000E+02  0.51100000000E-03 0. -1.
         23    2    1    2    0    0  0.00000000000E+00 -0.17763568394E-14 -0.88817841970E-15  0.91188000000E+02  0.91188000000E+02 0.  0.
    9900012    2    3    3    0    0  0.35821198322E+02  0.68473492326E+01  0.50730266942E+01  0.54367081482E+02  0.39999993853E+02 0.  0.
        -12    1    3    3    0    0 -0.35821198322E+02 -0.68473492326E+01 -0.50730266942E+01  0.36820918518E+02  0.00000000000E+00 0.  1.
         11    1    4    4    0    0  0.18289728087E+02 -0.38923934445E+01  0.46254852826E+01  0.19262917603E+02  0.51100000000E-03 0. -1.
        -11    1    4    4    0    0  0.31057535194E+01  0.13108039110E+02  0.10737714306E+02  0.17226865734E+02  0.51100000000E-03 0.  1.
         12    1    4    4    0    0  0.14425716715E+02 -0.23682964330E+01 -0.10290172895E+02  0.17877298144E+02  0.00000000000E+00 0. -1.
</event>
<event>
 8    1  0.2509217E-006  0.9118800E+02  0.7816164E-02  0.1184000E+00
        -11   -1    0    0    0    0  0.00000000000E+00  0.00000000000E+00  0.45593999997E+02  0.45594000000E+02  0.51100000000E-03 0. -1.
         11   -1    0    0    0    0 -0.00000000000E+00 -0.00000000000E+00 -0.45593999997E+02  0.45594000000E+02  0.51100000000E-03 0.  1.
         23    2    1    2    0    0  0.00000000000E+00 -0.71054273576E-14  0.00000000000E+00  0.91188000000E+02  0.91188000000E+02 0.  0.
    9900012    2    3    3    0    0  0.10298118337E+02 -0.35100278750E+02 -0.42073053753E+01  0.54367051776E+02  0.39999926133E+02 0.  0.
         12    1    3    3    0    0 -0.10298118337E+02  0.35100278750E+02  0.42073053753E+01  0.36820948224E+02  0.00000000000E+00 0. -1.
         11    1    4    4    0    0 -0.28618222340E+01 -0.46250382975E+00  0.44277656922E-01  0.28992925109E+01  0.51100000000E-03 0. -1.
        -11    1    4    4    0    0 -0.43496055125E+00 -0.36922079366E+02 -0.65230705789E+01  0.37496394299E+02  0.51100000000E-03 0.  1.
        -12    1    4    4    0    0  0.13594901123E+02  0.22843044455E+01  0.22714875467E+01  0.13971364966E+02  0.00000000000E+00 0.  1.
</event>
<event>
 8    1  0.2509217E-006  0.9118800E+02  0.7816164E-02  0.1184000E+00
        -11   -1    0    0    0    0  0.00000000000E+00  0.00000000000E+00  0.45593999997E+02  0.45594000000E+02  0.51100000000E-03 0.  1.
         11   -1    0    0    0    0 -0.00000000000E+00 -0.00000000000E+00 -0.45593999997E+02  0.45594000000E+02  0.51100000000E-03 0. -1.
         23    2    1    2    0    0  0.00000000000E+00 -0.11102230246E-14  0.00000000000E+00  0.91188000000E+02  0.91188000000E+02 0.  0.
    9900012    2    3    3    0    0  0.23501449485E+02  0.93987995209E+00  0.28329921533E+02  0.54367001150E+02  0.39999810722E+02 0.  0.
         12    1    3    3    0    0 -0.23501449485E+02 -0.93987995209E+00 -0.28329921533E+02  0.36820998850E+02  0.00000000000E+00 0. -1.
         11    1    4    4    0    0  0.48635295675E+01  0.11561045726E+02 -0.27187558669E+01  0.12833679591E+02  0.51100000000E-03 0. -1.
        -11    1    4    4    0    0  0.21002278977E+02 -0.59008918880E+01  0.21541230977E+02  0.30658455270E+02  0.51100000000E-03 0.  1.
         12    1    4    4    0    0 -0.23643590592E+01 -0.47202738857E+01  0.95074464229E+01  0.10874866289E+02  0.00000000000E+00 0. -1.
</event>
<event>
 8    1  0.2509217E-006  0.9118800E+02  0.7816164E-02  0.1184000E+00
        -11   -1    0    0    0    0  0.00000000000E+00  0.00000000000E+00  0.45593999997E+02  0.45594000000E+02  0.51100000000E-03 0. -1.
         11   -1    0    0    0    0 -0.00000000000E+00 -0.00000000000E+00 -0.45593999997E+02  0.45594000000E+02  0.51100000000E-03 0.  1.
         23    2    1    2    0    0  0.00000000000E+00  0.00000000000E+00  0.35527136788E-14  0.91188000000E+02  0.91188000000E+02 0.  0.
    9900012    2    3    3    0    0 -0.10297051863E+02  0.28629569708E+02  0.20738794468E+02  0.54367093782E+02  0.40000021895E+02 0.  0.
        -12    1    3    3    0    0  0.10297051863E+02 -0.28629569708E+02 -0.20738794468E+02  0.36820906218E+02  0.00000000000E+00 0.  1.
         11    1    4    4    0    0 -0.87842361509E+01 -0.69322692935E+00  0.44411085240E+01  0.98674623644E+01  0.51100000000E-03 0. -1.
        -11    1    4    4    0    0 -0.92436014732E+01  0.16286375496E+02 -0.40182950919E+01  0.19152986469E+02  0.51100000000E-03 0.  1.
         12    1    4    4    0    0  0.77307857611E+01  0.13036421141E+02  0.20315981036E+02  0.25346644948E+02  0.00000000000E+00 0. -1.
</event>
<event>
 8    1  0.2509217E-006  0.9118800E+02  0.7816164E-02  0.1184000E+00
        -11   -1    0    0    0    0  0.00000000000E+00  0.00000000000E+00  0.45593999997E+02  0.45594000000E+02  0.51100000000E-03 0.  1.
         11   -1    0    0    0    0 -0.00000000000E+00 -0.00000000000E+00 -0.45593999997E+02  0.45594000000E+02  0.51100000000E-03 0. -1.
         23    2    1    2    0    0  0.17763568394E-14  0.00000000000E+00  0.00000000000E+00  0.91188000000E+02  0.91188000000E+02 0.  0.
    9900012    2    3    3    0    0 -0.12106013127E+02  0.18245852105E+02 -0.29602583251E+02  0.54367087355E+02  0.40000007243E+02 0.  0.
        -12    1    3    3    0    0  0.12106013127E+02 -0.18245852105E+02  0.29602583251E+02  0.36820912645E+02  0.00000000000E+00 0.  1.
         11    1    4    4    0    0  0.84397710093E+00  0.16574524797E+02 -0.29826094122E+02  0.34132434142E+02  0.51100000000E-03 0. -1.
        -11    1    4    4    0    0  0.23164420232E+01 -0.28753707762E+01  0.20128197883E+01  0.42053661563E+01  0.51100000000E-03 0.  1.
         12    1    4    4    0    0 -0.15266432251E+02  0.45466980835E+01 -0.17893089179E+01  0.16029287057E+02  0.00000000000E+00 0. -1.
</event>
<event>
 8    1  0.2509217E-006  0.9118800E+02  0.7816164E-02  0.1184000E+00
        -11   -1    0    0    0    0  0.00000000000E+00  0.00000000000E+00  0.45593999997E+02  0.45594000000E+02  0.51100000000E-03 0.  1.
         11   -1    0    0    0    0 -0.00000000000E+00 -0.00000000000E+00 -0.45593999997E+02  0.45594000000E+02  0.51100000000E-03 0. -1.
         23    2    1    2    0    0  0.35527136788E-14  0.17763568394E-14 -0.35527136788E-14  0.91188000000E+02  0.91188000000E+02 0.  0.
    9900012    2    3    3    0    0 -0.18148796322E+02 -0.15388176949E+02  0.28099877344E+02  0.54367110487E+02  0.40000059977E+02 0.  0.
         12    1    3    3    0    0  0.18148796322E+02  0.15388176949E+02 -0.28099877344E+02  0.36820889513E+02  0.00000000000E+00 0. -1.
         11    1    4    4    0    0 -0.62534211334E+01 -0.53080844483E+01 -0.68684399409E+00  0.82312083751E+01  0.51100000000E-03 0. -1.
        -11    1    4    4    0    0 -0.22475681602E+02 -0.11702093302E+02  0.20727852970E+02  0.32737427207E+02  0.51100000000E-03 0.  1.
        -12    1    4    4    0    0  0.10580306413E+02  0.16220008012E+01  0.80588683682E+01  0.13398474904E+02  0.00000000000E+00 0.  1.
</event>
<event>
 8    1  0.2509217E-006  0.9118800E+02  0.7816164E-02  0.1184000E+00
        -11   -1    0    0    0    0  0.00000000000E+00  0.00000000000E+00  0.45593999997E+02  0.45594000000E+02  0.51100000000E-03 0. -1.
         11   -1    0    0    0    0 -0.00000000000E+00 -0.00000000000E+00 -0.45593999997E+02  0.45594000000E+02  0.51100000000E-03 0.  1.
         23    2    1    2    0    0  0.00000000000E+00  0.00000000000E+00  0.35527136788E-14  0.91188000000E+02  0.91188000000E+02 0.  0.
    9900012    2    3    3    0    0 -0.16980241595E+02 -0.18683152717E+02  0.26802735377E+02  0.54367144173E+02  0.40000136772E+02 0.  0.
        -12    1    3    3    0    0  0.16980241595E+02  0.18683152717E+02 -0.26802735377E+02  0.36820855827E+02  0.00000000000E+00 0.  1.
         11    1    4    4    0    0 -0.17722941052E+01 -0.49916184731E+01  0.25340338747E+02  0.25888029076E+02  0.51100000000E-03 0.  1.
        -11    1    4    4    0    0  0.82696965156E+00 -0.31429016424E+01  0.76509360832E+01  0.83125527215E+01  0.51100000000E-03 0. -1.
        -12    1    4    4    0    0 -0.16034917142E+02 -0.10548632602E+02 -0.61885394526E+01  0.20166562376E+02  0.00000000000E+00 0.  1.
</event>
<event>
 8    1  0.2509217E-006  0.9118800E+02  0.7816164E-02  0.1184000E+00
        -11   -1    0    0    0    0  0.00000000000E+00  0.00000000000E+00  0.45593999997E+02  0.45594000000E+02  0.51100000000E-03 0. -1.
         11   -1    0    0    0    0 -0.00000000000E+00 -0.00000000000E+00 -0.45593999997E+02  0.45594000000E+02  0.51100000000E-03 0.  1.
         23    2    1    2    0    0  0.35527136788E-14  0.35527136788E-14  0.00000000000E+00  0.91188000000E+02  0.91188000000E+02 0.  0.
    9900012    2    3    3    0    0 -0.19550017649E+02  0.16817608240E+02  0.26282024531E+02  0.54367082705E+02  0.39999996643E+02 0.  0.
        -12    1    3    3    0    0  0.19550017649E+02 -0.16817608240E+02 -0.26282024531E+02  0.36820917295E+02  0.00000000000E+00 0.  1.
         11    1    4    4    0    0  0.10443052210E+01  0.11527235878E+02  0.28259088913E+01  0.11914424103E+02  0.51100000000E-03 0.  1.
        -11    1    4    4    0    0 -0.11285112243E+02  0.14173073677E+02  0.23389351242E+02  0.29585326221E+02  0.51100000000E-03 0. -1.
        -12    1    4    4    0    0 -0.93092106262E+01 -0.88827013149E+01  0.66764397684E-01  0.12867332382E+02  0.00000000000E+00 0.  1.
</event>
<event>
 8    1  0.2509217E-006  0.9118800E+02  0.7816164E-02  0.1184000E+00
        -11   -1    0    0    0    0  0.00000000000E+00  0.00000000000E+00  0.45593999997E+02  0.45594000000E+02  0.51100000000E-03 0.  1.
         11   -1    0    0    0    0 -0.00000000000E+00 -0.00000000000E+00 -0.45593999997E+02  0.45594000000E+02  0.51100000000E-03 0. -1.
         23    2    1    2    0    0  0.00000000000E+00  0.00000000000E+00  0.17763568394E-14  0.91188000000E+02  0.91188000000E+02 0.  0.
    9900012    2    3    3    0    0 -0.29029920918E+02 -0.22248571778E+02  0.42478980109E+01  0.54367083497E+02  0.39999998448E+02 0.  0.
        -12    1    3    3    0    0  0.29029920918E+02  0.22248571778E+02 -0.42478980109E+01  0.36820916503E+02  0.00000000000E+00 0.  1.
         11    1    4    4    0    0 -0.17115923332E+02 -0.25453239801E+02 -0.98123616828E+01  0.32204109830E+02  0.51100000000E-03 0. -1.
        -11    1    4    4    0    0 -0.59766992964E+01 -0.39992911834E+01  0.32846336185E+01  0.79059523600E+01  0.51100000000E-03 0.  1.
         12    1    4    4    0    0 -0.59372982889E+01  0.72039592071E+01  0.10775626075E+02  0.14257021307E+02  0.00000000000E+00 0. -1.
</event>
<event>
 8    1  0.2509217E-006  0.9118800E+02  0.7816164E-02  0.1184000E+00
        -11   -1    0    0    0    0  0.00000000000E+00  0.00000000000E+00  0.45593999997E+02  0.45594000000E+02  0.51100000000E-03 0. -1.
         11   -1    0    0    0    0 -0.00000000000E+00 -0.00000000000E+00 -0.45593999997E+02  0.45594000000E+02  0.51100000000E-03 0.  1.
         23    2    1    2    0    0 -0.35527136788E-14  0.00000000000E+00  0.00000000000E+00  0.91188000000E+02  0.91188000000E+02 0.  0.
    9900012    2    3    3    0    0  0.12532204141E+02  0.10903116182E+02 -0.32860999973E+02  0.54367090148E+02  0.40000013610E+02 0.  0.
         12    1    3    3    0    0 -0.12532204141E+02 -0.10903116182E+02  0.32860999973E+02  0.36820909852E+02  0.00000000000E+00 0. -1.
         11    1    4    4    0    0  0.10833716498E+02  0.18234748558E+01 -0.64405045774E+01  0.12734778097E+02  0.51100000000E-03 0. -1.
        -11    1    4    4    0    0 -0.10875055519E+02  0.55427631230E+01 -0.25816737746E+02  0.28556838125E+02  0.51100000000E-03 0.  1.
        -12    1    4    4    0    0  0.12573543162E+02  0.35368782036E+01 -0.60375764955E+00  0.13075473926E+02  0.00000000000E+00 0.  1.
</event>
<event>
 8    1  0.2509217E-006  0.9118800E+02  0.7816164E-02  0.1184000E+00
        -11   -1    0    0    0    0  0.00000000000E+00  0.00000000000E+00  0.45593999997E+02  0.45594000000E+02  0.51100000000E-03 0. -1.
         11   -1    0    0    0    0 -0.00000000000E+00 -0.00000000000E+00 -0.45593999997E+02  0.45594000000E+02  0.51100000000E-03 0.  1.
         23    2    1    2    0    0  0.35527136788E-14  0.00000000000E+00  0.00000000000E+00  0.91188000000E+02  0.91188000000E+02 0.  0.
    9900012    2    3    3    0    0 -0.23215667091E+02 -0.22097251355E+02 -0.18125232317E+02  0.54367085257E+02  0.40000002461E+02 0.  0.
         12    1    3    3    0    0  0.23215667091E+02  0.22097251355E+02  0.18125232317E+02  0.36820914743E+02  0.00000000000E+00 0. -1.
         11    1    4    4    0    0 -0.22915722010E+02 -0.37309669671E+01 -0.16352858886E+02  0.28398352483E+02  0.51100000000E-03 0. -1.
        -11    1    4    4    0    0 -0.12082642762E+01 -0.10137401070E+02 -0.10004293643E+02  0.14293799165E+02  0.51100000000E-03 0.  1.
         12    1    4    4    0    0  0.90831919465E+00 -0.82288833179E+01  0.82319202117E+01  0.11674933610E+02  0.00000000000E+00 0. -1.
</event>
<event>
 8    1  0.2509217E-006  0.9118800E+02  0.7816164E-02  0.1184000E+00
        -11   -1    0    0    0    0  0.00000000000E+00  0.00000000000E+00  0.45593999997E+02  0.45594000000E+02  0.51100000000E-03 0.  1.
         11   -1    0    0    0    0 -0.00000000000E+00 -0.00000000000E+00 -0.45593999997E+02  0.45594000000E+02  0.51100000000E-03 0. -1.
         23    2    1    2    0    0 -0.88817841970E-15  0.00000000000E+00  0.35527136788E-14  0.91188000000E+02  0.91188000000E+02 0.  0.
    9900012    2    3    3    0    0 -0.46628209405E+01 -0.19007109288E+02  0.31189225043E+02  0.54367083914E+02  0.39999999399E+02 0.  0.
         12    1    3    3    0    0  0.46628209405E+01  0.19007109288E+02 -0.31189225043E+02  0.36820916086E+02  0.00000000000E+00 0. -1.
         11    1    4    4    0    0 -0.25062991840E+01 -0.15257284656E+02 -0.24229681192E+01  0.15650464704E+02  0.51100000000E-03 0. -1.
        -11    1    4    4    0    0 -0.73828817528E+01 -0.87843858797E+01  0.16195596561E+02  0.19848670648E+02  0.51100000000E-03 0.  1.
        -12    1    4    4    0    0  0.52263599963E+01  0.50345612484E+01  0.17416596601E+02  0.18867948562E+02  0.00000000000E+00 0.  1.
</event>
<event>
 8    1  0.2509217E-006  0.9118800E+02  0.7816164E-02  0.1184000E+00
        -11   -1    0    0    0    0  0.00000000000E+00  0.00000000000E+00  0.45593999997E+02  0.45594000000E+02  0.51100000000E-03 0. -1.
         11   -1    0    0    0    0 -0.00000000000E+00 -0.00000000000E+00 -0.45593999997E+02  0.45594000000E+02  0.51100000000E-03 0.  1.
         23    2    1    2    0    0  0.35527136788E-14  0.00000000000E+00  0.00000000000E+00  0.91188000000E+02  0.91188000000E+02 0.  0.
    9900012    2    3    3    0    0  0.27948982012E+02  0.20021669222E+02  0.13182013238E+02  0.54367105023E+02  0.40000047521E+02 0.  0.
        -12    1    3    3    0    0 -0.27948982012E+02 -0.20021669222E+02 -0.13182013238E+02  0.36820894977E+02  0.00000000000E+00 0.  1.
         11    1    4    4    0    0  0.18923807823E+02  0.13481133197E+02 -0.24890898446E+01  0.23367649076E+02  0.51100000000E-03 0. -1.
        -11    1    4    4    0    0  0.22256406381E+01 -0.42666798630E+01 -0.48487450483E+01  0.68314246031E+01  0.51100000000E-03 0.  1.
         12    1    4    4    0    0  0.67995335505E+01  0.10807215887E+02  0.20519848131E+02  0.24168031344E+02  0.00000000000E+00 0. -1.
</event>
<event>
 8    1  0.2509217E-006  0.9118800E+02  0.7816164E-02  0.1184000E+00
        -11   -1    0    0    0    0  0.00000000000E+00  0.00000000000E+00  0.45593999997E+02  0.45594000000E+02  0.51100000000E-03 0. -1.
         11   -1    0    0    0    0 -0.00000000000E+00 -0.00000000000E+00 -0.45593999997E+02  0.45594000000E+02  0.51100000000E-03 0.  1.
         23    2    1    2    0    0  0.00000000000E+00  0.00000000000E+00  0.35527136788E-14  0.91188000000E+02  0.91188000000E+02 0.  0.
    9900012    2    3    3    0    0 -0.13058317924E+02  0.20827830789E+02 -0.27412813319E+02  0.54367074747E+02  0.39999978502E+02 0.  0.
        -12    1    3    3    0    0  0.13058317924E+02 -0.20827830789E+02  0.27412813319E+02  0.36820925253E+02  0.00000000000E+00 0.  1.
         11    1    4    4    0    0 -0.68384990141E+01 -0.29722015704E+00 -0.77431367051E+01  0.10334871788E+02  0.51100000000E-03 0. -1.
        -11    1    4    4    0    0  0.97246359994E+01  0.10369908996E+01 -0.15086652529E+02  0.17979181857E+02  0.51100000000E-03 0.  1.
         12    1    4    4    0    0 -0.15944454910E+02  0.20088060047E+02 -0.45830240849E+01  0.26053021102E+02  0.00000000000E+00 0. -1.
</event>
<event>
 8    1  0.2509217E-006  0.9118800E+02  0.7816164E-02  0.1184000E+00
        -11   -1    0    0    0    0  0.00000000000E+00  0.00000000000E+00  0.45593999997E+02  0.45594000000E+02  0.51100000000E-03 0.  1.
         11   -1    0    0    0    0 -0.00000000000E+00 -0.00000000000E+00 -0.45593999997E+02  0.45594000000E+02  0.51100000000E-03 0. -1.
         23    2    1    2    0    0  0.00000000000E+00  0.00000000000E+00  0.35527136788E-14  0.91188000000E+02  0.91188000000E+02 0.  0.
    9900012    2    3    3    0    0 -0.17542190012E+02  0.14476469139E+02  0.28956568623E+02  0.54367089425E+02  0.40000011963E+02 0.  0.
         12    1    3    3    0    0  0.17542190012E+02 -0.14476469139E+02 -0.28956568623E+02  0.36820910575E+02  0.00000000000E+00 0. -1.
         11    1    4    4    0    0 -0.64175648526E+01 -0.44706997160E+01 -0.57610143557E+01  0.97139889467E+01  0.51100000000E-03 0. -1.
        -11    1    4    4    0    0 -0.28340982336E+01 -0.29467417141E+01  0.23799881546E+01  0.47307233490E+01  0.51100000000E-03 0.  1.
         12    1    4    4    0    0 -0.82905269258E+01  0.21893910569E+02  0.32337594824E+02  0.39922377130E+02  0.00000000000E+00 0. -1.
</event>
<event>
 8    1  0.2509217E-006  0.9118800E+02  0.7816164E-02  0.1184000E+00
        -11   -1    0    0    0    0  0.00000000000E+00  0.00000000000E+00  0.45593999997E+02  0.45594000000E+02  0.51100000000E-03 0. -1.
         11   -1    0    0    0    0 -0.00000000000E+00 -0.00000000000E+00 -0.45593999997E+02  0.45594000000E+02  0.51100000000E-03 0.  1.
         23    2    1    2    0    0  0.35527136788E-14  0.35527136788E-14  0.35527136788E-14  0.91188000000E+02  0.91188000000E+02 0.  0.
    9900012    2    3    3    0    0  0.83649437768E+01  0.18796184762E+02  0.30537053435E+02  0.54367075535E+02  0.39999980296E+02 0.  0.
        -12    1    3    3    0    0 -0.83649437768E+01 -0.18796184762E+02 -0.30537053435E+02  0.36820924465E+02  0.00000000000E+00 0.  1.
         11    1    4    4    0    0 -0.10526950065E+01  0.72289194684E+01 -0.55316073289E+00  0.73260787953E+01  0.51100000000E-03 0. -1.
        -11    1    4    4    0    0 -0.11179640416E+02 -0.44679616876E+00  0.12718377198E+02  0.16939336040E+02  0.51100000000E-03 0.  1.
         12    1    4    4    0    0  0.20597279199E+02  0.12014061462E+02  0.18371836970E+02  0.30101660700E+02  0.00000000000E+00 0. -1.
</event>
<event>
 8    1  0.2509217E-006  0.9118800E+02  0.7816164E-02  0.1184000E+00
        -11   -1    0    0    0    0  0.00000000000E+00  0.00000000000E+00  0.45593999997E+02  0.45594000000E+02  0.51100000000E-03 0.  1.
         11   -1    0    0    0    0 -0.00000000000E+00 -0.00000000000E+00 -0.45593999997E+02  0.45594000000E+02  0.51100000000E-03 0. -1.
         23    2    1    2    0    0  0.35527136788E-14  0.00000000000E+00 -0.11102230246E-15  0.91188000000E+02  0.91188000000E+02 0.  0.
    9900012    2    3    3    0    0  0.19549398226E+02  0.31200229317E+02  0.37984143055E+00  0.54367115166E+02  0.40000070645E+02 0.  0.
         12    1    3    3    0    0 -0.19549398226E+02 -0.31200229317E+02 -0.37984143055E+00  0.36820884834E+02  0.00000000000E+00 0. -1.
         11    1    4    4    0    0  0.28953657920E+01 -0.56112255912E+01  0.30724964500E+01  0.70220531471E+01  0.51100000000E-03 0. -1.
        -11    1    4    4    0    0  0.15743095707E+02  0.14053477606E+02  0.74944454443E+01  0.22394463781E+02  0.51100000000E-03 0.  1.
        -12    1    4    4    0    0  0.91093672708E+00  0.22757977301E+02 -0.10187100464E+02  0.24950598238E+02  0.00000000000E+00 0.  1.
</event>
<event>
 8    1  0.2509217E-006  0.9118800E+02  0.7816164E-02  0.1184000E+00
        -11   -1    0    0    0    0  0.00000000000E+00  0.00000000000E+00  0.45593999997E+02  0.45594000000E+02  0.51100000000E-03 0.  1.
         11   -1    0    0    0    0 -0.00000000000E+00 -0.00000000000E+00 -0.45593999997E+02  0.45594000000E+02  0.51100000000E-03 0. -1.
         23    2    1    2    0    0  0.35527136788E-14  0.14710455076E-14  0.35527136788E-14  0.91188000000E+02  0.91188000000E+02 0.  0.
    9900012    2    3    3    0    0  0.22106082724E+02 -0.37673841534E-01  0.29446586522E+02  0.54367057989E+02  0.39999940298E+02 0.  0.
         12    1    3    3    0    0 -0.22106082724E+02  0.37673841534E-01 -0.29446586522E+02  0.36820942011E+02  0.00000000000E+00 0. -1.
         11    1    4    4    0    0  0.76336207262E+01 -0.22697596318E+01 -0.60533156818E+01  0.10003329705E+02  0.51100000000E-03 0.  1.
        -11    1    4    4    0    0  0.34064034738E+01 -0.79978758100E+01  0.42641728863E+01  0.96826015494E+01  0.51100000000E-03 0. -1.
        -12    1    4    4    0    0  0.11066058524E+02  0.10229961600E+02  0.31235729318E+02  0.34681126735E+02  0.00000000000E+00 0.  1.
</event>
<event>
 8    1  0.2509217E-006  0.9118800E+02  0.7816164E-02  0.1184000E+00
        -11   -1    0    0    0    0  0.00000000000E+00  0.00000000000E+00  0.45593999997E+02  0.45594000000E+02  0.51100000000E-03 0.  1.
         11   -1    0    0    0    0 -0.00000000000E+00 -0.00000000000E+00 -0.45593999997E+02  0.45594000000E+02  0.51100000000E-03 0. -1.
         23    2    1    2    0    0  0.35527136788E-14  0.35527136788E-14  0.17763568394E-14  0.91188000000E+02  0.91188000000E+02 0.  0.
    9900012    2    3    3    0    0 -0.24247673482E+02 -0.23887658578E+02  0.14043223150E+02  0.54367054628E+02  0.39999932636E+02 0.  0.
         12    1    3    3    0    0  0.24247673482E+02  0.23887658578E+02 -0.14043223150E+02  0.36820945372E+02  0.00000000000E+00 0. -1.
         11    1    4    4    0    0 -0.22013971531E+01  0.16189305054E+01 -0.87081720041E+00  0.28679972567E+01  0.51100000000E-03 0. -1.
        -11    1    4    4    0    0 -0.25361154652E+02 -0.10925330544E+02 -0.34366554417E+01  0.27827353695E+02  0.51100000000E-03 0.  1.
         12    1    4    4    0    0  0.33148783236E+01 -0.14581258540E+02  0.18350695792E+02  0.23671703677E+02  0.00000000000E+00 0. -1.
</event>
<event>
 8    1  0.2509217E-006  0.9118800E+02  0.7816164E-02  0.1184000E+00
        -11   -1    0    0    0    0  0.00000000000E+00  0.00000000000E+00  0.45593999997E+02  0.45594000000E+02  0.51100000000E-03 0. -1.
         11   -1    0    0    0    0 -0.00000000000E+00 -0.00000000000E+00 -0.45593999997E+02  0.45594000000E+02  0.51100000000E-03 0.  1.
         23    2    1    2    0    0 -0.17763568394E-14 -0.44408920985E-15  0.00000000000E+00  0.91188000000E+02  0.91188000000E+02 0.  0.
    9900012    2    3    3    0    0 -0.71248113802E+01 -0.24616602172E+01 -0.36040932624E+02  0.54367197012E+02  0.40000257228E+02 0.  0.
         12    1    3    3    0    0  0.71248113802E+01  0.24616602172E+01  0.36040932624E+02  0.36820802988E+02  0.00000000000E+00 0. -1.
         11    1    4    4    0    0  0.11649980093E+02  0.35072073197E+01  0.87534020291E+00  0.12197899822E+02  0.51100000000E-03 0. -1.
        -11    1    4    4    0    0 -0.95021739027E+01 -0.34357301406E+00 -0.18359181943E+02  0.20675321356E+02  0.51100000000E-03 0.  1.
         12    1    4    4    0    0 -0.92726175701E+01 -0.56252945228E+01 -0.18557090884E+02  0.21493975834E+02  0.00000000000E+00 0. -1.
</event>
<event>
 8    1  0.2509217E-006  0.9118800E+02  0.7816164E-02  0.1184000E+00
        -11   -1    0    0    0    0  0.00000000000E+00  0.00000000000E+00  0.45593999997E+02  0.45594000000E+02  0.51100000000E-03 0.  1.
         11   -1    0    0    0    0 -0.00000000000E+00 -0.00000000000E+00 -0.45593999997E+02  0.45594000000E+02  0.51100000000E-03 0. -1.
         23    2    1    2    0    0  0.00000000000E+00  0.00000000000E+00  0.71054273576E-14  0.91188000000E+02  0.91188000000E+02 0.  0.
    9900012    2    3    3    0    0  0.13081271943E+02 -0.40006228318E+01 -0.34185602593E+02  0.54367080900E+02  0.39999992528E+02 0.  0.
        -12    1    3    3    0    0 -0.13081271943E+02  0.40006228318E+01  0.34185602593E+02  0.36820919100E+02  0.00000000000E+00 0.  1.
         11    1    4    4    0    0  0.85235259044E+01 -0.64618283452E+01 -0.81161699042E+01  0.13426761843E+02  0.51100000000E-03 0. -1.
        -11    1    4    4    0    0  0.48479051219E+01 -0.48209855458E+01  0.53533433429E+01  0.86834538585E+01  0.51100000000E-03 0.  1.
         12    1    4    4    0    0 -0.29015908310E+00  0.72821910592E+01 -0.31422776032E+02  0.32256865199E+02  0.00000000000E+00 0. -1.
</event>
<event>
 8    1  0.2509217E-006  0.9118800E+02  0.7816164E-02  0.1184000E+00
        -11   -1    0    0    0    0  0.00000000000E+00  0.00000000000E+00  0.45593999997E+02  0.45594000000E+02  0.51100000000E-03 0.  1.
         11   -1    0    0    0    0 -0.00000000000E+00 -0.00000000000E+00 -0.45593999997E+02  0.45594000000E+02  0.51100000000E-03 0. -1.
         23    2    1    2    0    0 -0.11102230246E-15  0.00000000000E+00  0.00000000000E+00  0.91188000000E+02  0.91188000000E+02 0.  0.
    9900012    2    3    3    0    0  0.74508746016E+00  0.35062181480E+02 -0.11219126232E+02  0.54367074986E+02  0.39999979046E+02 0.  0.
        -12    1    3    3    0    0 -0.74508746016E+00 -0.35062181480E+02  0.11219126232E+02  0.36820925014E+02  0.00000000000E+00 0.  1.
         11    1    4    4    0    0  0.43465009605E+01  0.22405524551E+02  0.41052463246E+00  0.22826916825E+02  0.51100000000E-03 0. -1.
        -11    1    4    4    0    0 -0.84322571629E+01  0.10907140998E+02 -0.18430721268E+02  0.23016519553E+02  0.51100000000E-03 0.  1.
        -12    1    4    4    0    0  0.48308436626E+01  0.17495159308E+01  0.68010704034E+01  0.85236386078E+01  0.00000000000E+00 0.  1.
</event>
<event>
 8    1  0.2509217E-006  0.9118800E+02  0.7816164E-02  0.1184000E+00
        -11   -1    0    0    0    0  0.00000000000E+00  0.00000000000E+00  0.45593999997E+02  0.45594000000E+02  0.51100000000E-03 0. -1.
         11   -1    0    0    0    0 -0.00000000000E+00 -0.00000000000E+00 -0.45593999997E+02  0.45594000000E+02  0.51100000000E-03 0.  1.
         23    2    1    2    0    0  0.00000000000E+00  0.00000000000E+00  0.35527136788E-14  0.91188000000E+02  0.91188000000E+02 0.  0.
    9900012    2    3    3    0    0 -0.16040163300E+02 -0.18891428600E+02  0.27232465249E+02  0.54367080990E+02  0.39999992732E+02 0.  0.
        -12    1    3    3    0    0  0.16040163300E+02  0.18891428600E+02 -0.27232465249E+02  0.36820919010E+02  0.00000000000E+00 0.  1.
         11    1    4    4    0    0 -0.65764852746E+01 -0.94360920532E+01  0.15564339470E+02  0.19353001194E+02  0.51100000000E-03 0. -1.
        -11    1    4    4    0    0 -0.10723332283E+02 -0.50108633431E+01 -0.83400978309E+01  0.14479497187E+02  0.51100000000E-03 0.  1.
        -12    1    4    4    0    0  0.12596542576E+01 -0.44444732036E+01  0.20008223610E+02  0.20534582609E+02  0.00000000000E+00 0.  1.
</event>
<event>
 8    1  0.2509217E-006  0.9118800E+02  0.7816164E-02  0.1184000E+00
        -11   -1    0    0    0    0  0.00000000000E+00  0.00000000000E+00  0.45593999997E+02  0.45594000000E+02  0.51100000000E-03 0.  1.
         11   -1    0    0    0    0 -0.00000000000E+00 -0.00000000000E+00 -0.45593999997E+02  0.45594000000E+02  0.51100000000E-03 0. -1.
         23    2    1    2    0    0 -0.35527136788E-14 -0.17763568394E-14  0.00000000000E+00  0.91188000000E+02  0.91188000000E+02 0.  0.
    9900012    2    3    3    0    0 -0.19431672073E+02 -0.12165325494E+02  0.28813097806E+02  0.54367087068E+02  0.40000006590E+02 0.  0.
         12    1    3    3    0    0  0.19431672073E+02  0.12165325494E+02 -0.28813097806E+02  0.36820912932E+02  0.00000000000E+00 0. -1.
         11    1    4    4    0    0 -0.56352399500E+00 -0.12879864986E+02  0.20610880976E+02  0.24310839069E+02  0.51100000000E-03 0. -1.
        -11    1    4    4    0    0 -0.53390204188E+01  0.68415503087E+01  0.11921620264E+02  0.14745744458E+02  0.51100000000E-03 0.  1.
         12    1    4    4    0    0 -0.13529127660E+02 -0.61270108163E+01 -0.37194034339E+01  0.15310503541E+02  0.00000000000E+00 0. -1.
</event>
<event>
 8    1  0.2509217E-006  0.9118800E+02  0.7816164E-02  0.1184000E+00
        -11   -1    0    0    0    0  0.00000000000E+00  0.00000000000E+00  0.45593999997E+02  0.45594000000E+02  0.51100000000E-03 0.  1.
         11   -1    0    0    0    0 -0.00000000000E+00 -0.00000000000E+00 -0.45593999997E+02  0.45594000000E+02  0.51100000000E-03 0. -1.
         23    2    1    2    0    0 -0.35527136788E-14 -0.35527136788E-14  0.35527136788E-14  0.91188000000E+02  0.91188000000E+02 0.  0.
    9900012    2    3    3    0    0  0.21333971794E+02  0.20628873472E+02 -0.21796598028E+02  0.54367075802E+02  0.39999980905E+02 0.  0.
        -12    1    3    3    0    0 -0.21333971794E+02 -0.20628873472E+02  0.21796598028E+02  0.36820924198E+02  0.00000000000E+00 0.  1.
         11    1    4    4    0    0  0.17149838422E+02  0.18665178416E+02  0.21553003114E+01  0.25439165924E+02  0.51100000000E-03 0. -1.
        -11    1    4    4    0    0  0.60570518371E+01  0.70899095421E+01 -0.87944276122E+01  0.12817825539E+02  0.51100000000E-03 0.  1.
        -12    1    4    4    0    0 -0.18729184660E+01 -0.51262144859E+01 -0.15157470728E+02  0.16110084338E+02  0.00000000000E+00 0.  1.
</event>
<event>
 8    1  0.2509217E-006  0.9118800E+02  0.7816164E-02  0.1184000E+00
        -11   -1    0    0    0    0  0.00000000000E+00  0.00000000000E+00  0.45593999997E+02  0.45594000000E+02  0.51100000000E-03 0. -1.
         11   -1    0    0    0    0 -0.00000000000E+00 -0.00000000000E+00 -0.45593999997E+02  0.45594000000E+02  0.51100000000E-03 0.  1.
         23    2    1    2    0    0  0.00000000000E+00  0.35527136788E-14 -0.13322676296E-14  0.91188000000E+02  0.91188000000E+02 0.  0.
    9900012    2    3    3    0    0 -0.20338511697E+02 -0.30502627201E+02  0.34206693199E+01  0.54367268030E+02  0.40000419126E+02 0.  0.
        -12    1    3    3    0    0  0.20338511697E+02  0.30502627201E+02 -0.34206693199E+01  0.36820731970E+02  0.00000000000E+00 0.  1.
         11    1    4    4    0    0 -0.50433730873E+01  0.77068906373E+01 -0.18680410287E+01  0.93979440804E+01  0.51100000000E-03 0. -1.
        -11    1    4    4    0    0 -0.76125471097E+00 -0.23293911731E+02 -0.64346949702E+00  0.23315228623E+02  0.51100000000E-03 0.  1.
         12    1    4    4    0    0 -0.14533883899E+02 -0.14915606107E+02  0.59321798456E+01  0.21654095327E+02  0.00000000000E+00 0. -1.
</event>
<event>
 8    1  0.2509217E-006  0.9118800E+02  0.7816164E-02  0.1184000E+00
        -11   -1    0    0    0    0  0.00000000000E+00  0.00000000000E+00  0.45593999997E+02  0.45594000000E+02  0.51100000000E-03 0.  1.
         11   -1    0    0    0    0 -0.00000000000E+00 -0.00000000000E+00 -0.45593999997E+02  0.45594000000E+02  0.51100000000E-03 0. -1.
         23    2    1    2    0    0  0.49960036108E-15  0.35527136788E-14  0.35527136788E-14  0.91188000000E+02  0.91188000000E+02 0.  0.
    9900012    2    3    3    0    0  0.38347010236E+00  0.28867289372E+02  0.22854144499E+02  0.54367090644E+02  0.40000014741E+02 0.  0.
         12    1    3    3    0    0 -0.38347010236E+00 -0.28867289372E+02 -0.22854144499E+02  0.36820909356E+02  0.00000000000E+00 0. -1.
         11    1    4    4    0    0 -0.86202573846E+01 -0.20008051289E+01  0.26198043542E+01  0.92290537790E+01  0.51100000000E-03 0. -1.
        -11    1    4    4    0    0 -0.54315707423E+01  0.23153751001E+02  0.97664670172E+01  0.25709570677E+02  0.51100000000E-03 0.  1.
         12    1    4    4    0    0  0.14435298229E+02  0.77143435007E+01  0.10467873127E+02  0.19428466188E+02  0.00000000000E+00 0. -1.
</event>
<event>
 8    1  0.2509217E-006  0.9118800E+02  0.7816164E-02  0.1184000E+00
        -11   -1    0    0    0    0  0.00000000000E+00  0.00000000000E+00  0.45593999997E+02  0.45594000000E+02  0.51100000000E-03 0.  1.
         11   -1    0    0    0    0 -0.00000000000E+00 -0.00000000000E+00 -0.45593999997E+02  0.45594000000E+02  0.51100000000E-03 0. -1.
         23    2    1    2    0    0  0.00000000000E+00 -0.35527136788E-14  0.00000000000E+00  0.91188000000E+02  0.91188000000E+02 0.  0.
    9900012    2    3    3    0    0  0.80720232156E+01 -0.23511642573E+02  0.27162948721E+02  0.54367072819E+02  0.39999974105E+02 0.  0.
         12    1    3    3    0    0 -0.80720232156E+01  0.23511642573E+02 -0.27162948721E+02  0.36820927181E+02  0.00000000000E+00 0. -1.
         11    1    4    4    0    0  0.30608342971E+01 -0.24711850178E+01  0.10523825733E+02  0.11235050970E+02  0.51100000000E-03 0. -1.
        -11    1    4    4    0    0  0.10856497518E+02  0.57638021909E+01  0.63200356469E+01  0.13821280870E+02  0.51100000000E-03 0.  1.
        -12    1    4    4    0    0 -0.58453085992E+01 -0.26804259746E+02  0.10319087341E+02  0.29310740978E+02  0.00000000000E+00 0.  1.
</event>
<event>
 8    1  0.2509217E-006  0.9118800E+02  0.7816164E-02  0.1184000E+00
        -11   -1    0    0    0    0  0.00000000000E+00  0.00000000000E+00  0.45593999997E+02  0.45594000000E+02  0.51100000000E-03 0.  1.
         11   -1    0    0    0    0 -0.00000000000E+00 -0.00000000000E+00 -0.45593999997E+02  0.45594000000E+02  0.51100000000E-03 0. -1.
         23    2    1    2    0    0  0.17763568394E-14 -0.35527136788E-14  0.00000000000E+00  0.91188000000E+02  0.91188000000E+02 0.  0.
    9900012    2    3    3    0    0  0.13364213068E+02 -0.11961337758E+02  0.32157488195E+02  0.54367084220E+02  0.40000000095E+02 0.  0.
         12    1    3    3    0    0 -0.13364213068E+02  0.11961337758E+02 -0.32157488195E+02  0.36820915780E+02  0.00000000000E+00 0. -1.
         11    1    4    4    0    0  0.11745721704E+02 -0.17466794178E+02  0.25158667095E+01  0.21198595774E+02  0.51100000000E-03 0. -1.
        -11    1    4    4    0    0 -0.15904478743E+01 -0.33406023679E+01  0.25616646500E+01  0.45001416268E+01  0.51100000000E-03 0.  1.
        -12    1    4    4    0    0  0.32089392385E+01  0.88460587883E+01  0.27079956836E+02  0.28668346819E+02  0.00000000000E+00 0.  1.
</event>
<event>
 8    1  0.2509217E-006  0.9118800E+02  0.7816164E-02  0.1184000E+00
        -11   -1    0    0    0    0  0.00000000000E+00  0.00000000000E+00  0.45593999997E+02  0.45594000000E+02  0.51100000000E-03 0. -1.
         11   -1    0    0    0    0 -0.00000000000E+00 -0.00000000000E+00 -0.45593999997E+02  0.45594000000E+02  0.51100000000E-03 0.  1.
         23    2    1    2    0    0  0.35527136788E-14 -0.88817841970E-15  0.00000000000E+00  0.91188000000E+02  0.91188000000E+02 0.  0.
    9900012    2    3    3    0    0  0.27484078517E+02  0.21583029549E+01 -0.24407946925E+02  0.54367072301E+02  0.39999972924E+02 0.  0.
         12    1    3    3    0    0 -0.27484078517E+02 -0.21583029549E+01  0.24407946925E+02  0.36820927699E+02  0.00000000000E+00 0. -1.
         11    1    4    4    0    0 -0.85094720153E+00  0.94257213737E+01  0.65671704473E+01  0.11519377696E+02  0.51100000000E-03 0. -1.
        -11    1    4    4    0    0  0.19817054826E+02 -0.51506872076E+01 -0.24563197468E+02  0.31978053581E+02  0.51100000000E-03 0.  1.
         12    1    4    4    0    0  0.85179708920E+01 -0.21167312111E+01 -0.64119199038E+01  0.10869641024E+02  0.00000000000E+00 0. -1.
</event>
<event>
 8    1  0.2509217E-006  0.9118800E+02  0.7816164E-02  0.1184000E+00
        -11   -1    0    0    0    0  0.00000000000E+00  0.00000000000E+00  0.45593999997E+02  0.45594000000E+02  0.51100000000E-03 0.  1.
         11   -1    0    0    0    0 -0.00000000000E+00 -0.00000000000E+00 -0.45593999997E+02  0.45594000000E+02  0.51100000000E-03 0. -1.
         23    2    1    2    0    0  0.88817841970E-15  0.00000000000E+00  0.71054273576E-14  0.91188000000E+02  0.91188000000E+02 0.  0.
    9900012    2    3    3    0    0  0.69482620952E+01 -0.57752924817E+01  0.35695176151E+02  0.54367109872E+02  0.40000058575E+02 0.  0.
         12    1    3    3    0    0 -0.69482620952E+01  0.57752924817E+01 -0.35695176151E+02  0.36820890128E+02  0.00000000000E+00 0. -1.
         11    1    4    4    0    0 -0.10953881330E+02  0.58870947250E+01  0.10565611700E+02  0.16318013095E+02  0.51100000000E-03 0. -1.
        -11    1    4    4    0    0  0.48421522005E+01 -0.10409147452E+02  0.22856045432E+01  0.11705587426E+02  0.51100000000E-03 0.  1.
         12    1    4    4    0    0  0.13059991225E+02 -0.12532397550E+01  0.22843959907E+02  0.26343509351E+02  0.00000000000E+00 0. -1.
</event>
<event>
 8    1  0.2509217E-006  0.9118800E+02  0.7816164E-02  0.1184000E+00
        -11   -1    0    0    0    0  0.00000000000E+00  0.00000000000E+00  0.45593999997E+02  0.45594000000E+02  0.51100000000E-03 0.  1.
         11   -1    0    0    0    0 -0.00000000000E+00 -0.00000000000E+00 -0.45593999997E+02  0.45594000000E+02  0.51100000000E-03 0. -1.
         23    2    1    2    0    0  0.44408920985E-15  0.00000000000E+00  0.35527136788E-14  0.91188000000E+02  0.91188000000E+02 0.  0.
    9900012    2    3    3    0    0 -0.22297877967E+01 -0.26043311433E+02  0.25933564749E+02  0.54367139002E+02  0.40000124983E+02 0.  0.
         12    1    3    3    0    0  0.22297877967E+01  0.26043311433E+02 -0.25933564749E+02  0.36820860998E+02  0.00000000000E+00 0. -1.
         11    1    4    4    0    0 -0.79728893249E+01 -0.17917803786E+02  0.76567231941E+01  0.21053267372E+02  0.51100000000E-03 0. -1.
        -11    1    4    4    0    0 -0.82509411559E+01 -0.97112653314E+01  0.13188867763E+02  0.18339382144E+02  0.51100000000E-03 0.  1.
         12    1    4    4    0    0  0.13994042684E+02  0.15857576842E+01  0.50879737928E+01  0.14974489487E+02  0.00000000000E+00 0. -1.
</event>
<event>
 8    1  0.2509217E-006  0.9118800E+02  0.7816164E-02  0.1184000E+00
        -11   -1    0    0    0    0  0.00000000000E+00  0.00000000000E+00  0.45593999997E+02  0.45594000000E+02  0.51100000000E-03 0.  1.
         11   -1    0    0    0    0 -0.00000000000E+00 -0.00000000000E+00 -0.45593999997E+02  0.45594000000E+02  0.51100000000E-03 0. -1.
         23    2    1    2    0    0  0.35527136788E-14 -0.17763568394E-14  0.35527136788E-14  0.91188000000E+02  0.91188000000E+02 0.  0.
    9900012    2    3    3    0    0 -0.25302720056E+02  0.14223245114E+02 -0.22655063241E+02  0.54367078851E+02  0.39999987857E+02 0.  0.
        -12    1    3    3    0    0  0.25302720056E+02 -0.14223245114E+02  0.22655063241E+02  0.36820921149E+02  0.00000000000E+00 0.  1.
         11    1    4    4    0    0 -0.17202985322E+02  0.24200006400E+02 -0.15892840886E+02  0.33677372306E+02  0.51100000000E-03 0. -1.
        -11    1    4    4    0    0 -0.11273316562E+02 -0.38759700977E+01 -0.14681601652E+01  0.12011090918E+02  0.51100000000E-03 0.  1.
         12    1    4    4    0    0  0.31735818285E+01 -0.61007911876E+01 -0.52940621902E+01  0.86786156275E+01  0.00000000000E+00 0. -1.
</event>
<event>
 8    1  0.2509217E-006  0.9118800E+02  0.7816164E-02  0.1184000E+00
        -11   -1    0    0    0    0  0.00000000000E+00  0.00000000000E+00  0.45593999997E+02  0.45594000000E+02  0.51100000000E-03 0.  1.
         11   -1    0    0    0    0 -0.00000000000E+00 -0.00000000000E+00 -0.45593999997E+02  0.45594000000E+02  0.51100000000E-03 0. -1.
         23    2    1    2    0    0  0.71054273576E-14  0.00000000000E+00  0.00000000000E+00  0.91188000000E+02  0.91188000000E+02 0.  0.
    9900012    2    3    3    0    0 -0.32111677106E+02  0.13453290999E+02  0.11984604976E+02  0.54367060282E+02  0.39999945524E+02 0.  0.
        -12    1    3    3    0    0  0.32111677106E+02 -0.13453290999E+02 -0.11984604976E+02  0.36820939718E+02  0.00000000000E+00 0.  1.
         11    1    4    4    0    0 -0.35198054343E+02  0.27857834729E+01  0.80291104373E+01  0.36209532361E+02  0.51100000000E-03 0. -1.
        -11    1    4    4    0    0 -0.48712805342E+01  0.63519953947E+01 -0.59259436750E+00  0.80267295882E+01  0.51100000000E-03 0.  1.
        -12    1    4    4    0    0  0.79576577710E+01  0.43155121316E+01  0.45480889066E+01  0.10130798333E+02  0.00000000000E+00 0.  1.
</event>
<event>
 8    1  0.2509217E-006  0.9118800E+02  0.7816164E-02  0.1184000E+00
        -11   -1    0    0    0    0  0.00000000000E+00  0.00000000000E+00  0.45593999997E+02  0.45594000000E+02  0.51100000000E-03 0.  1.
         11   -1    0    0    0    0 -0.00000000000E+00 -0.00000000000E+00 -0.45593999997E+02  0.45594000000E+02  0.51100000000E-03 0. -1.
         23    2    1    2    0    0  0.71054273576E-14 -0.17763568394E-14 -0.17763568394E-14  0.91188000000E+02  0.91188000000E+02 0.  0.
    9900012    2    3    3    0    0  0.33640115433E+02 -0.11004477617E+02 -0.10150054591E+02  0.54367088792E+02  0.40000010520E+02 0.  0.
         12    1    3    3    0    0 -0.33640115433E+02  0.11004477617E+02  0.10150054591E+02  0.36820911208E+02  0.00000000000E+00 0. -1.
         11    1    4    4    0    0  0.97308574944E+01 -0.80757087912E+01 -0.16386344256E+02  0.20698283465E+02  0.51100000000E-03 0. -1.
        -11    1    4    4    0    0  0.18382035328E+02 -0.49319620885E+01 -0.61144263166E+01  0.19990239676E+02  0.51100000000E-03 0.  1.
         12    1    4    4    0    0  0.55272226102E+01  0.20031932627E+01  0.12350715981E+02  0.13678565652E+02  0.00000000000E+00 0. -1.
</event>
<event>
 8    1  0.2509217E-006  0.9118800E+02  0.7816164E-02  0.1184000E+00
        -11   -1    0    0    0    0  0.00000000000E+00  0.00000000000E+00  0.45593999997E+02  0.45594000000E+02  0.51100000000E-03 0. -1.
         11   -1    0    0    0    0 -0.00000000000E+00 -0.00000000000E+00 -0.45593999997E+02  0.45594000000E+02  0.51100000000E-03 0.  1.
         23    2    1    2    0    0  0.00000000000E+00  0.00000000000E+00  0.00000000000E+00  0.91188000000E+02  0.91188000000E+02 0.  0.
    9900012    2    3    3    0    0  0.26093740326E+02 -0.61862158253E+01 -0.25231479041E+02  0.54367080878E+02  0.39999992477E+02 0.  0.
         12    1    3    3    0    0 -0.26093740326E+02  0.61862158253E+01  0.25231479041E+02  0.36820919122E+02  0.00000000000E+00 0. -1.
         11    1    4    4    0    0 -0.19449671907E+01  0.69532062167E-01 -0.65831428939E+01  0.68648017235E+01  0.51100000000E-03 0. -1.
        -11    1    4    4    0    0  0.24052290646E+02  0.24011596010E+01 -0.25974110768E+02  0.35481441391E+02  0.51100000000E-03 0.  1.
         12    1    4    4    0    0  0.39864168708E+01 -0.86569074885E+01  0.73257746208E+01  0.12020837763E+02  0.00000000000E+00 0. -1.
</event>
<event>
 8    1  0.2509217E-006  0.9118800E+02  0.7816164E-02  0.1184000E+00
        -11   -1    0    0    0    0  0.00000000000E+00  0.00000000000E+00  0.45593999997E+02  0.45594000000E+02  0.51100000000E-03 0. -1.
         11   -1    0    0    0    0 -0.00000000000E+00 -0.00000000000E+00 -0.45593999997E+02  0.45594000000E+02  0.51100000000E-03 0.  1.
         23    2    1    2    0    0 -0.35527136788E-14 -0.88817841970E-15 -0.35527136788E-14  0.91188000000E+02  0.91188000000E+02 0.  0.
    9900012    2    3    3    0    0 -0.21199867060E+02  0.12713998250E+01 -0.30078718179E+02  0.54367080564E+02  0.39999991761E+02 0.  0.
         12    1    3    3    0    0  0.21199867060E+02 -0.12713998250E+01  0.30078718179E+02  0.36820919436E+02  0.00000000000E+00 0. -1.
         11    1    4    4    0    0  0.39820527159E+01 -0.93575691678E+01 -0.58916747497E+01  0.11752985841E+02  0.51100000000E-03 0. -1.
        -11    1    4    4    0    0 -0.14296846217E+02 -0.48607148254E+01 -0.56638175410E+01  0.16127776963E+02  0.51100000000E-03 0.  1.
         12    1    4    4    0    0 -0.10885073559E+02  0.15489683818E+02 -0.18523225888E+02  0.26486317759E+02  0.00000000000E+00 0. -1.
</event>
<event>
 8    1  0.2509217E-006  0.9118800E+02  0.7816164E-02  0.1184000E+00
        -11   -1    0    0    0    0  0.00000000000E+00  0.00000000000E+00  0.45593999997E+02  0.45594000000E+02  0.51100000000E-03 0.  1.
         11   -1    0    0    0    0 -0.00000000000E+00 -0.00000000000E+00 -0.45593999997E+02  0.45594000000E+02  0.51100000000E-03 0. -1.
         23    2    1    2    0    0  0.00000000000E+00  0.00000000000E+00 -0.35527136788E-14  0.91188000000E+02  0.91188000000E+02 0.  0.
    9900012    2    3    3    0    0  0.22772051259E+02  0.98946195867E+01 -0.27190264886E+02  0.54367077688E+02  0.39999985206E+02 0.  0.
        -12    1    3    3    0    0 -0.22772051259E+02 -0.98946195867E+01  0.27190264886E+02  0.36820922312E+02  0.00000000000E+00 0.  1.
         11    1    4    4    0    0 -0.24513942776E+01  0.11839184294E+01 -0.60782302407E+01  0.66600210114E+01  0.51100000000E-03 0. -1.
        -11    1    4    4    0    0  0.22267792595E+02  0.15739815341E+02 -0.22495448605E+01  0.27361594003E+02  0.51100000000E-03 0.  1.
         12    1    4    4    0    0  0.29556529411E+01 -0.70291141839E+01 -0.18862489785E+02  0.20345462674E+02  0.00000000000E+00 0. -1.
</event>
<event>
 8    1  0.2509217E-006  0.9118800E+02  0.7816164E-02  0.1184000E+00
        -11   -1    0    0    0    0  0.00000000000E+00  0.00000000000E+00  0.45593999997E+02  0.45594000000E+02  0.51100000000E-03 0. -1.
         11   -1    0    0    0    0 -0.00000000000E+00 -0.00000000000E+00 -0.45593999997E+02  0.45594000000E+02  0.51100000000E-03 0.  1.
         23    2    1    2    0    0  0.00000000000E+00 -0.88817841970E-15  0.00000000000E+00  0.91188000000E+02  0.91188000000E+02 0.  0.
    9900012    2    3    3    0    0  0.18634369392E+02  0.44045701539E+01  0.31450586301E+02  0.54367091001E+02  0.40000015555E+02 0.  0.
        -12    1    3    3    0    0 -0.18634369392E+02 -0.44045701539E+01 -0.31450586301E+02  0.36820908999E+02  0.00000000000E+00 0.  1.
         11    1    4    4    0    0  0.37313704282E+01  0.38167328466E+01  0.14275038792E+02  0.15240318490E+02  0.51100000000E-03 0. -1.
        -11    1    4    4    0    0  0.57411449611E+01 -0.14148780234E+02  0.15395262312E+02  0.21683238446E+02  0.51100000000E-03 0.  1.
        -12    1    4    4    0    0  0.91618540023E+01  0.14736617541E+02  0.17802851966E+01  0.17443534066E+02  0.00000000000E+00 0.  1.
</event>
<event>
 8    1  0.2509217E-006  0.9118800E+02  0.7816164E-02  0.1184000E+00
        -11   -1    0    0    0    0  0.00000000000E+00  0.00000000000E+00  0.45593999997E+02  0.45594000000E+02  0.51100000000E-03 0.  1.
         11   -1    0    0    0    0 -0.00000000000E+00 -0.00000000000E+00 -0.45593999997E+02  0.45594000000E+02  0.51100000000E-03 0. -1.
         23    2    1    2    0    0  0.00000000000E+00  0.35527136788E-14  0.88817841970E-15  0.91188000000E+02  0.91188000000E+02 0.  0.
    9900012    2    3    3    0    0 -0.22405565184E+02  0.28643854645E+02  0.57705225142E+01  0.54367099817E+02  0.40000035654E+02 0.  0.
        -12    1    3    3    0    0  0.22405565184E+02 -0.28643854645E+02 -0.57705225142E+01  0.36820900183E+02  0.00000000000E+00 0.  1.
         11    1    4    4    0    0  0.57948650651E+01  0.13804657425E+02 -0.34213673799E+01  0.15357564349E+02  0.51100000000E-03 0. -1.
        -11    1    4    4    0    0 -0.15287821056E+02  0.11241736498E+02 -0.48610456787E+01  0.19588871266E+02  0.51100000000E-03 0.  1.
        -12    1    4    4    0    0 -0.12912609193E+02  0.35974607225E+01  0.14052935573E+02  0.19420664202E+02  0.00000000000E+00 0.  1.
</event>
<event>
 8    1  0.2509217E-006  0.9118800E+02  0.7816164E-02  0.1184000E+00
        -11   -1    0    0    0    0  0.00000000000E+00  0.00000000000E+00  0.45593999997E+02  0.45594000000E+02  0.51100000000E-03 0.  1.
         11   -1    0    0    0    0 -0.00000000000E+00 -0.00000000000E+00 -0.45593999997E+02  0.45594000000E+02  0.51100000000E-03 0. -1.
         23    2    1    2    0    0  0.00000000000E+00  0.00000000000E+00  0.00000000000E+00  0.91188000000E+02  0.91188000000E+02 0.  0.
    9900012    2    3    3    0    0  0.27792839143E+02  0.11984526946E+02 -0.20969237872E+02  0.54367085689E+02  0.40000003446E+02 0.  0.
        -12    1    3    3    0    0 -0.27792839143E+02 -0.11984526946E+02  0.20969237872E+02  0.36820914311E+02  0.00000000000E+00 0.  1.
         11    1    4    4    0    0  0.22171977070E+02  0.28207269389E+01 -0.18102540186E+02  0.28762041462E+02  0.51100000000E-03 0. -1.
        -11    1    4    4    0    0 -0.10283996916E+01  0.15674562916E+01  0.94759259671E+01  0.96595910031E+01  0.51100000000E-03 0.  1.
         12    1    4    4    0    0  0.66492617647E+01  0.75963437156E+01 -0.12342623653E+02  0.15945453224E+02  0.00000000000E+00 0. -1.
</event>
<event>
 8    1  0.2509217E-006  0.9118800E+02  0.7816164E-02  0.1184000E+00
        -11   -1    0    0    0    0  0.00000000000E+00  0.00000000000E+00  0.45593999997E+02  0.45594000000E+02  0.51100000000E-03 0.  1.
         11   -1    0    0    0    0 -0.00000000000E+00 -0.00000000000E+00 -0.45593999997E+02  0.45594000000E+02  0.51100000000E-03 0. -1.
         23    2    1    2    0    0  0.00000000000E+00 -0.17763568394E-14 -0.35527136788E-14  0.91188000000E+02  0.91188000000E+02 0.  0.
    9900012    2    3    3    0    0 -0.19140230431E+02  0.15344627662E+02 -0.27458557022E+02  0.54367104128E+02  0.40000045481E+02 0.  0.
        -12    1    3    3    0    0  0.19140230431E+02 -0.15344627662E+02  0.27458557022E+02  0.36820895872E+02  0.00000000000E+00 0.  1.
         11    1    4    4    0    0  0.41298575015E+00 -0.26891480949E+01  0.57230730034E+01  0.63368477629E+01  0.51100000000E-03 0. -1.
        -11    1    4    4    0    0 -0.16912407915E+02  0.17929339147E+01 -0.23266274900E+02  0.28819502103E+02  0.51100000000E-03 0.  1.
         12    1    4    4    0    0 -0.26408082670E+01  0.16240841843E+02 -0.99153551260E+01  0.19210754263E+02  0.00000000000E+00 0. -1.
</event>
<event>
 8    1  0.2509217E-006  0.9118800E+02  0.7816164E-02  0.1184000E+00
        -11   -1    0    0    0    0  0.00000000000E+00  0.00000000000E+00  0.45593999997E+02  0.45594000000E+02  0.51100000000E-03 0. -1.
         11   -1    0    0    0    0 -0.00000000000E+00 -0.00000000000E+00 -0.45593999997E+02  0.45594000000E+02  0.51100000000E-03 0.  1.
         23    2    1    2    0    0 -0.71054273576E-14  0.00000000000E+00  0.00000000000E+00  0.91188000000E+02  0.91188000000E+02 0.  0.
    9900012    2    3    3    0    0 -0.35824086565E+02 -0.38942082162E+01 -0.75664773914E+01  0.54367060089E+02  0.39999945085E+02 0.  0.
         12    1    3    3    0    0  0.35824086565E+02  0.38942082162E+01  0.75664773914E+01  0.36820939911E+02  0.00000000000E+00 0. -1.
         11    1    4    4    0    0 -0.19037407157E+02 -0.36006497390E+01 -0.48413347459E+01  0.19970630240E+02  0.51100000000E-03 0. -1.
        -11    1    4    4    0    0 -0.18137248094E+02 -0.33821179690E+01 -0.13658338448E+02  0.22955363204E+02  0.51100000000E-03 0.  1.
        -12    1    4    4    0    0  0.13505686868E+01  0.30885594919E+01  0.10933195803E+02  0.11441066645E+02  0.00000000000E+00 0.  1.
</event>
<event>
 8    1  0.2509217E-006  0.9118800E+02  0.7816164E-02  0.1184000E+00
        -11   -1    0    0    0    0  0.00000000000E+00  0.00000000000E+00  0.45593999997E+02  0.45594000000E+02  0.51100000000E-03 0.  1.
         11   -1    0    0    0    0 -0.00000000000E+00 -0.00000000000E+00 -0.45593999997E+02  0.45594000000E+02  0.51100000000E-03 0. -1.
         23    2    1    2    0    0  0.17763568394E-14 -0.44408920985E-15  0.00000000000E+00  0.91188000000E+02  0.91188000000E+02 0.  0.
    9900012    2    3    3    0    0 -0.52803951342E+01 -0.37567610386E+01 -0.36246153546E+02  0.54367089186E+02  0.40000011418E+02 0.  0.
        -12    1    3    3    0    0  0.52803951342E+01  0.37567610386E+01  0.36246153546E+02  0.36820910814E+02  0.00000000000E+00 0.  1.
         11    1    4    4    0    0  0.55664833465E+01  0.20318209006E+01 -0.10626793322E+02  0.12167282753E+02  0.51100000000E-03 0. -1.
        -11    1    4    4    0    0 -0.19556827540E+02 -0.33195021335E+01 -0.62148616881E+01  0.20787330370E+02  0.51100000000E-03 0.  1.
        -12    1    4    4    0    0  0.87099490598E+01 -0.24690798057E+01 -0.19404498536E+02  0.21412476063E+02  0.00000000000E+00 0.  1.
</event>
<event>
 8    1  0.2509217E-006  0.9118800E+02  0.7816164E-02  0.1184000E+00
        -11   -1    0    0    0    0  0.00000000000E+00  0.00000000000E+00  0.45593999997E+02  0.45594000000E+02  0.51100000000E-03 0.  1.
         11   -1    0    0    0    0 -0.00000000000E+00 -0.00000000000E+00 -0.45593999997E+02  0.45594000000E+02  0.51100000000E-03 0. -1.
         23    2    1    2    0    0  0.00000000000E+00  0.66613381478E-15  0.00000000000E+00  0.91188000000E+02  0.91188000000E+02 0.  0.
    9900012    2    3    3    0    0  0.22544284671E+02 -0.10652126701E+01 -0.29092940711E+02  0.54367100384E+02  0.40000036945E+02 0.  0.
        -12    1    3    3    0    0 -0.22544284671E+02  0.10652126701E+01  0.29092940711E+02  0.36820899616E+02  0.00000000000E+00 0.  1.
         11    1    4    4    0    0  0.27325228855E+02  0.20085218541E+01 -0.15712323951E+02  0.31584480623E+02  0.51100000000E-03 0. -1.
        -11    1    4    4    0    0 -0.18211557508E+01 -0.58943488820E+01  0.22951975713E+01  0.65823923588E+01  0.51100000000E-03 0.  1.
         12    1    4    4    0    0 -0.29597884341E+01  0.28206143579E+01 -0.15675814331E+02  0.16200227402E+02  0.00000000000E+00 0. -1.
</event>
<event>
 8    1  0.2509217E-006  0.9118800E+02  0.7816164E-02  0.1184000E+00
        -11   -1    0    0    0    0  0.00000000000E+00  0.00000000000E+00  0.45593999997E+02  0.45594000000E+02  0.51100000000E-03 0. -1.
         11   -1    0    0    0    0 -0.00000000000E+00 -0.00000000000E+00 -0.45593999997E+02  0.45594000000E+02  0.51100000000E-03 0.  1.
         23    2    1    2    0    0  0.00000000000E+00 -0.35527136788E-14  0.35527136788E-14  0.91188000000E+02  0.91188000000E+02 0.  0.
    9900012    2    3    3    0    0  0.22961498116E+02  0.22205195996E+02  0.18315740380E+02  0.54367252172E+02  0.40000382974E+02 0.  0.
        -12    1    3    3    0    0 -0.22961498116E+02 -0.22205195996E+02 -0.18315740380E+02  0.36820747828E+02  0.00000000000E+00 0.  1.
         11    1    4    4    0    0  0.13413346838E+01  0.41137591211E+01  0.14266943527E+02  0.14908650868E+02  0.51100000000E-03 0. -1.
        -11    1    4    4    0    0  0.18644463823E+02  0.57020103914E+01 -0.87752986695E+01  0.21380711418E+02  0.51100000000E-03 0.  1.
        -12    1    4    4    0    0  0.29756996101E+01  0.12389426483E+02  0.12824095523E+02  0.18077889886E+02  0.00000000000E+00 0.  1.
</event>
<event>
 8    1  0.2509217E-006  0.9118800E+02  0.7816164E-02  0.1184000E+00
        -11   -1    0    0    0    0  0.00000000000E+00  0.00000000000E+00  0.45593999997E+02  0.45594000000E+02  0.51100000000E-03 0. -1.
         11   -1    0    0    0    0 -0.00000000000E+00 -0.00000000000E+00 -0.45593999997E+02  0.45594000000E+02  0.51100000000E-03 0.  1.
         23    2    1    2    0    0  0.00000000000E+00  0.71054273576E-14  0.00000000000E+00  0.91188000000E+02  0.91188000000E+02 0.  0.
    9900012    2    3    3    0    0 -0.14238582533E+02 -0.33582674276E+02 -0.50246230915E+01  0.54367080928E+02  0.39999992591E+02 0.  0.
         12    1    3    3    0    0  0.14238582533E+02  0.33582674276E+02  0.50246230915E+01  0.36820919072E+02  0.00000000000E+00 0. -1.
         11    1    4    4    0    0 -0.97538326817E+01 -0.56921481749E+01 -0.62101247742E+01  0.12888112849E+02  0.51100000000E-03 0. -1.
        -11    1    4    4    0    0 -0.91851733332E+01 -0.30125600657E+02 -0.65372491965E+01  0.32166051226E+02  0.51100000000E-03 0.  1.
         12    1    4    4    0    0  0.47004234820E+01  0.22350745560E+01  0.77227508792E+01  0.93129168536E+01  0.00000000000E+00 0. -1.
</event>
<event>
 8    1  0.2509217E-006  0.9118800E+02  0.7816164E-02  0.1184000E+00
        -11   -1    0    0    0    0  0.00000000000E+00  0.00000000000E+00  0.45593999997E+02  0.45594000000E+02  0.51100000000E-03 0.  1.
         11   -1    0    0    0    0 -0.00000000000E+00 -0.00000000000E+00 -0.45593999997E+02  0.45594000000E+02  0.51100000000E-03 0. -1.
         23    2    1    2    0    0  0.13322676296E-14  0.00000000000E+00  0.00000000000E+00  0.91188000000E+02  0.91188000000E+02 0.  0.
    9900012    2    3    3    0    0 -0.37073260137E+01  0.94749293514E+01 -0.35387306648E+02  0.54367081704E+02  0.39999994360E+02 0.  0.
        -12    1    3    3    0    0  0.37073260137E+01 -0.94749293514E+01  0.35387306648E+02  0.36820918296E+02  0.00000000000E+00 0.  1.
         11    1    4    4    0    0  0.39071876822E+00 -0.64562900472E+00 -0.25439576987E+02  0.25450767680E+02  0.51100000000E-03 0. -1.
        -11    1    4    4    0    0 -0.11711608481E+02  0.64543021845E+01 -0.14158342172E+02  0.19475072355E+02  0.51100000000E-03 0.  1.
        -12    1    4    4    0    0  0.76135636994E+01  0.36662561716E+01  0.42106125115E+01  0.94412416685E+01  0.00000000000E+00 0.  1.
</event>
<event>
 8    1  0.2509217E-006  0.9118800E+02  0.7816164E-02  0.1184000E+00
        -11   -1    0    0    0    0  0.00000000000E+00  0.00000000000E+00  0.45593999997E+02  0.45594000000E+02  0.51100000000E-03 0.  1.
         11   -1    0    0    0    0 -0.00000000000E+00 -0.00000000000E+00 -0.45593999997E+02  0.45594000000E+02  0.51100000000E-03 0. -1.
         23    2    1    2    0    0  0.00000000000E+00  0.00000000000E+00  0.00000000000E+00  0.91188000000E+02  0.91188000000E+02 0.  0.
    9900012    2    3    3    0    0  0.36333094005E+02 -0.44239905696E+01 -0.40142749856E+01  0.54367084528E+02  0.40000000800E+02 0.  0.
        -12    1    3    3    0    0 -0.36333094005E+02  0.44239905696E+01  0.40142749856E+01  0.36820915472E+02  0.00000000000E+00 0.  1.
         11    1    4    4    0    0  0.96986087923E+01 -0.10986744863E+01 -0.92834553843E+01  0.13470435860E+02  0.51100000000E-03 0.  1.
        -11    1    4    4    0    0  0.26747695805E+02 -0.74494773731E+01 -0.64221330339E+01  0.28498732200E+02  0.51100000000E-03 0. -1.
        -12    1    4    4    0    0 -0.11321059298E+00  0.41241612898E+01  0.11691313433E+02  0.12397916469E+02  0.00000000000E+00 0.  1.
</event>
<event>
 8    1  0.2509217E-006  0.9118800E+02  0.7816164E-02  0.1184000E+00
        -11   -1    0    0    0    0  0.00000000000E+00  0.00000000000E+00  0.45593999997E+02  0.45594000000E+02  0.51100000000E-03 0.  1.
         11   -1    0    0    0    0 -0.00000000000E+00 -0.00000000000E+00 -0.45593999997E+02  0.45594000000E+02  0.51100000000E-03 0. -1.
         23    2    1    2    0    0  0.00000000000E+00  0.35527136788E-14  0.71054273576E-14  0.91188000000E+02  0.91188000000E+02 0.  0.
    9900012    2    3    3    0    0 -0.59943313991E+01  0.16834000052E+02 -0.32194169064E+02  0.54367080832E+02  0.39999992373E+02 0.  0.
        -12    1    3    3    0    0  0.59943313991E+01 -0.16834000052E+02  0.32194169064E+02  0.36820919168E+02  0.00000000000E+00 0.  1.
         11    1    4    4    0    0 -0.12347367581E+02 -0.41255757630E+01 -0.62717149369E+01  0.14450338061E+02  0.51100000000E-03 0.  1.
        -11    1    4    4    0    0  0.11938232528E+02  0.77386207894E+01 -0.61863089446E+01  0.15513802443E+02  0.51100000000E-03 0. -1.
         12    1    4    4    0    0 -0.55851963464E+01  0.13220955025E+02 -0.19736145182E+02  0.24402940328E+02  0.00000000000E+00 0. -1.
</event>
<event>
 8    1  0.2509217E-006  0.9118800E+02  0.7816164E-02  0.1184000E+00
        -11   -1    0    0    0    0  0.00000000000E+00  0.00000000000E+00  0.45593999997E+02  0.45594000000E+02  0.51100000000E-03 0. -1.
         11   -1    0    0    0    0 -0.00000000000E+00 -0.00000000000E+00 -0.45593999997E+02  0.45594000000E+02  0.51100000000E-03 0.  1.
         23    2    1    2    0    0 -0.35527136788E-14 -0.71054273576E-14  0.00000000000E+00  0.91188000000E+02  0.91188000000E+02 0.  0.
    9900012    2    3    3    0    0 -0.11596482202E+02 -0.30436314198E+02 -0.17173627757E+02  0.54367066935E+02  0.39999960691E+02 0.  0.
         12    1    3    3    0    0  0.11596482202E+02  0.30436314198E+02  0.17173627757E+02  0.36820933065E+02  0.00000000000E+00 0. -1.
         11    1    4    4    0    0 -0.72326581481E+01 -0.74777100679E+00 -0.53172092232E+01  0.90079531276E+01  0.51100000000E-03 0. -1.
        -11    1    4    4    0    0 -0.16962487449E+02 -0.85376306936E+01 -0.31695270637E+01  0.19252610742E+02  0.51100000000E-03 0.  1.
         12    1    4    4    0    0  0.12598663395E+02 -0.21150912498E+02 -0.86868914706E+01  0.26106503065E+02  0.00000000000E+00 0. -1.
</event>
<event>
 8    1  0.2509217E-006  0.9118800E+02  0.7816164E-02  0.1184000E+00
        -11   -1    0    0    0    0  0.00000000000E+00  0.00000000000E+00  0.45593999997E+02  0.45594000000E+02  0.51100000000E-03 0. -1.
         11   -1    0    0    0    0 -0.00000000000E+00 -0.00000000000E+00 -0.45593999997E+02  0.45594000000E+02  0.51100000000E-03 0.  1.
         23    2    1    2    0    0  0.17763568394E-14  0.00000000000E+00  0.00000000000E+00  0.91188000000E+02  0.91188000000E+02 0.  0.
    9900012    2    3    3    0    0 -0.10047520528E+02  0.30606405994E+02 -0.17834659017E+02  0.54367084492E+02  0.40000000716E+02 0.  0.
         12    1    3    3    0    0  0.10047520528E+02 -0.30606405994E+02  0.17834659017E+02  0.36820915508E+02  0.00000000000E+00 0. -1.
         11    1    4    4    0    0  0.90753501122E+01 -0.76036785369E+00 -0.28957072139E+01  0.95564250356E+01  0.51100000000E-03 0. -1.
        -11    1    4    4    0    0 -0.22049806855E+02  0.31395836120E+02 -0.11014925873E+02  0.39915173810E+02  0.51100000000E-03 0.  1.
        -12    1    4    4    0    0  0.29269362148E+01 -0.29062272432E-01 -0.39240259297E+01  0.48954856468E+01  0.00000000000E+00 0.  1.
</event>
<event>
 8    1  0.2509217E-006  0.9118800E+02  0.7816164E-02  0.1184000E+00
        -11   -1    0    0    0    0  0.00000000000E+00  0.00000000000E+00  0.45593999997E+02  0.45594000000E+02  0.51100000000E-03 0.  1.
         11   -1    0    0    0    0 -0.00000000000E+00 -0.00000000000E+00 -0.45593999997E+02  0.45594000000E+02  0.51100000000E-03 0. -1.
         23    2    1    2    0    0  0.00000000000E+00  0.00000000000E+00  0.00000000000E+00  0.91188000000E+02  0.91188000000E+02 0.  0.
    9900012    2    3    3    0    0 -0.11237992442E+02  0.17546819446E+02  0.30357801355E+02  0.54367089502E+02  0.40000012137E+02 0.  0.
         12    1    3    3    0    0  0.11237992442E+02 -0.17546819446E+02 -0.30357801355E+02  0.36820910498E+02  0.00000000000E+00 0. -1.
         11    1    4    4    0    0 -0.44257361501E+01  0.16989341164E+02  0.61818153723E+01  0.18612890566E+02  0.51100000000E-03 0. -1.
        -11    1    4    4    0    0 -0.78209299029E+01 -0.10262593733E+02  0.52498639372E+01  0.13930141647E+02  0.51100000000E-03 0.  1.
        -12    1    4    4    0    0  0.10086736114E+01  0.10820072016E+02  0.18926122046E+02  0.21824057289E+02  0.00000000000E+00 0.  1.
</event>
<event>
 8    1  0.2509217E-006  0.9118800E+02  0.7816164E-02  0.1184000E+00
        -11   -1    0    0    0    0  0.00000000000E+00  0.00000000000E+00  0.45593999997E+02  0.45594000000E+02  0.51100000000E-03 0.  1.
         11   -1    0    0    0    0 -0.00000000000E+00 -0.00000000000E+00 -0.45593999997E+02  0.45594000000E+02  0.51100000000E-03 0. -1.
         23    2    1    2    0    0  0.35527136788E-14  0.00000000000E+00 -0.17763568394E-14  0.91188000000E+02  0.91188000000E+02 0.  0.
    9900012    2    3    3    0    0 -0.96895730497E+01  0.32690683257E+02  0.13900062529E+02  0.54367077469E+02  0.39999984707E+02 0.  0.
         12    1    3    3    0    0  0.96895730497E+01 -0.32690683257E+02 -0.13900062529E+02  0.36820922531E+02  0.00000000000E+00 0. -1.
         11    1    4    4    0    0 -0.66218168968E+00 -0.28764074132E+01  0.24655393883E+01  0.38459184772E+01  0.51100000000E-03 0. -1.
        -11    1    4    4    0    0  0.59658765639E+01  0.43452649055E+01  0.13963126374E+02  0.15793730043E+02  0.51100000000E-03 0.  1.
         12    1    4    4    0    0 -0.14993267924E+02  0.31221825765E+02 -0.25286032326E+01  0.34727428949E+02  0.00000000000E+00 0. -1.
</event>
<event>
 8    1  0.2509217E-006  0.9118800E+02  0.7816164E-02  0.1184000E+00
        -11   -1    0    0    0    0  0.00000000000E+00  0.00000000000E+00  0.45593999997E+02  0.45594000000E+02  0.51100000000E-03 0. -1.
         11   -1    0    0    0    0 -0.00000000000E+00 -0.00000000000E+00 -0.45593999997E+02  0.45594000000E+02  0.51100000000E-03 0.  1.
         23    2    1    2    0    0  0.00000000000E+00  0.35527136788E-14  0.00000000000E+00  0.91188000000E+02  0.91188000000E+02 0.  0.
    9900012    2    3    3    0    0  0.15362580220E+02  0.19464247659E+02  0.27219728946E+02  0.54367089475E+02  0.40000012076E+02 0.  0.
        -12    1    3    3    0    0 -0.15362580220E+02 -0.19464247659E+02 -0.27219728946E+02  0.36820910525E+02  0.00000000000E+00 0.  1.
         11    1    4    4    0    0  0.24128743018E+02  0.15253218310E+02  0.23465948608E+02  0.36952775982E+02  0.51100000000E-03 0. -1.
        -11    1    4    4    0    0 -0.45273864678E+01  0.92997646501E+01  0.17129726540E+01  0.10484136891E+02  0.51100000000E-03 0.  1.
        -12    1    4    4    0    0 -0.42387763293E+01 -0.50887353010E+01  0.20408076846E+01  0.69301766023E+01  0.00000000000E+00 0.  1.
</event>
<event>
 8    1  0.2509217E-006  0.9118800E+02  0.7816164E-02  0.1184000E+00
        -11   -1    0    0    0    0  0.00000000000E+00  0.00000000000E+00  0.45593999997E+02  0.45594000000E+02  0.51100000000E-03 0. -1.
         11   -1    0    0    0    0 -0.00000000000E+00 -0.00000000000E+00 -0.45593999997E+02  0.45594000000E+02  0.51100000000E-03 0.  1.
         23    2    1    2    0    0 -0.17763568394E-14  0.00000000000E+00 -0.44408920985E-15  0.91188000000E+02  0.91188000000E+02 0.  0.
    9900012    2    3    3    0    0 -0.14084348260E+02 -0.33837906540E+02  0.35225271954E+01  0.54367068687E+02  0.39999964686E+02 0.  0.
        -12    1    3    3    0    0  0.14084348260E+02  0.33837906540E+02 -0.35225271954E+01  0.36820931313E+02  0.00000000000E+00 0.  1.
         11    1    4    4    0    0 -0.95090442296E+01 -0.96809275710E+01  0.15057006785E+02  0.20269576571E+02  0.51100000000E-03 0. -1.
        -11    1    4    4    0    0 -0.70340379707E+01  0.39657960359E+00 -0.48987132953E+00  0.70622191793E+01  0.51100000000E-03 0.  1.
        -12    1    4    4    0    0  0.24587339400E+01 -0.24553558572E+02 -0.11044608260E+02  0.27035272937E+02  0.00000000000E+00 0.  1.
</event>
<event>
 8    1  0.2509217E-006  0.9118800E+02  0.7816164E-02  0.1184000E+00
        -11   -1    0    0    0    0  0.00000000000E+00  0.00000000000E+00  0.45593999997E+02  0.45594000000E+02  0.51100000000E-03 0. -1.
         11   -1    0    0    0    0 -0.00000000000E+00 -0.00000000000E+00 -0.45593999997E+02  0.45594000000E+02  0.51100000000E-03 0.  1.
         23    2    1    2    0    0  0.35527136788E-14 -0.53290705182E-14  0.17763568394E-14  0.91188000000E+02  0.91188000000E+02 0.  0.
    9900012    2    3    3    0    0  0.31905231669E+02 -0.15792488102E+02 -0.94038712282E+01  0.54367091777E+02  0.40000017323E+02 0.  0.
        -12    1    3    3    0    0 -0.31905231669E+02  0.15792488102E+02  0.94038712282E+01  0.36820908223E+02  0.00000000000E+00 0.  1.
         11    1    4    4    0    0  0.14312149757E+02 -0.20833115938E+02  0.77356361327E+01  0.26432866228E+02  0.51100000000E-03 0. -1.
        -11    1    4    4    0    0 -0.13426561294E+01 -0.54892421083E+00 -0.39041867131E+01  0.41649390659E+01  0.51100000000E-03 0.  1.
         12    1    4    4    0    0  0.18935738042E+02  0.55895520470E+01 -0.13235320648E+02  0.23769286483E+02  0.00000000000E+00 0. -1.
</event>
<event>
 8    1  0.2509217E-006  0.9118800E+02  0.7816164E-02  0.1184000E+00
        -11   -1    0    0    0    0  0.00000000000E+00  0.00000000000E+00  0.45593999997E+02  0.45594000000E+02  0.51100000000E-03 0.  1.
         11   -1    0    0    0    0 -0.00000000000E+00 -0.00000000000E+00 -0.45593999997E+02  0.45594000000E+02  0.51100000000E-03 0. -1.
         23    2    1    2    0    0 -0.22204460493E-15  0.00000000000E+00  0.12212453271E-14  0.91188000000E+02  0.91188000000E+02 0.  0.
    9900012    2    3    3    0    0  0.10065537279E+01  0.36805368828E+02 -0.36313118797E+00  0.54367079462E+02  0.39999989250E+02 0.  0.
         12    1    3    3    0    0 -0.10065537279E+01 -0.36805368828E+02  0.36313118797E+00  0.36820920538E+02  0.00000000000E+00 0. -1.
         11    1    4    4    0    0 -0.17677034894E+01  0.67627979661E+01  0.12390956464E+02  0.14226595317E+02  0.51100000000E-03 0.  1.
        -11    1    4    4    0    0 -0.90010832165E+01  0.11314726523E+02  0.28579543814E+00  0.14461127710E+02  0.51100000000E-03 0. -1.
        -12    1    4    4    0    0  0.11775340434E+02  0.18727844340E+02 -0.13039883090E+02  0.25679356435E+02  0.00000000000E+00 0.  1.
</event>
<event>
 8    1  0.2509217E-006  0.9118800E+02  0.7816164E-02  0.1184000E+00
        -11   -1    0    0    0    0  0.00000000000E+00  0.00000000000E+00  0.45593999997E+02  0.45594000000E+02  0.51100000000E-03 0.  1.
         11   -1    0    0    0    0 -0.00000000000E+00 -0.00000000000E+00 -0.45593999997E+02  0.45594000000E+02  0.51100000000E-03 0. -1.
         23    2    1    2    0    0  0.00000000000E+00  0.00000000000E+00 -0.35527136788E-14  0.91188000000E+02  0.91188000000E+02 0.  0.
    9900012    2    3    3    0    0  0.17157751905E+02 -0.94452750417E+01  0.31179775306E+02  0.54367081229E+02  0.39999993277E+02 0.  0.
         12    1    3    3    0    0 -0.17157751905E+02  0.94452750417E+01 -0.31179775306E+02  0.36820918771E+02  0.00000000000E+00 0. -1.
         11    1    4    4    0    0  0.24767324196E+01 -0.30327544409E+01  0.38098983632E+00  0.39340763202E+01  0.51100000000E-03 0. -1.
        -11    1    4    4    0    0  0.31763992940E+01 -0.20221442016E+01 -0.84750943692E+01  0.92739314465E+01  0.51100000000E-03 0.  1.
        -12    1    4    4    0    0  0.11504620192E+02 -0.43903763992E+01  0.39273879838E+02  0.41159073462E+02  0.00000000000E+00 0.  1.
</event>
<event>
 8    1  0.2509217E-006  0.9118800E+02  0.7816164E-02  0.1184000E+00
        -11   -1    0    0    0    0  0.00000000000E+00  0.00000000000E+00  0.45593999997E+02  0.45594000000E+02  0.51100000000E-03 0. -1.
         11   -1    0    0    0    0 -0.00000000000E+00 -0.00000000000E+00 -0.45593999997E+02  0.45594000000E+02  0.51100000000E-03 0.  1.
         23    2    1    2    0    0  0.17763568394E-14  0.00000000000E+00  0.00000000000E+00  0.91188000000E+02  0.91188000000E+02 0.  0.
    9900012    2    3    3    0    0 -0.13537515940E+02 -0.16781448318E+02 -0.29847912910E+02  0.54367092209E+02  0.40000018309E+02 0.  0.
        -12    1    3    3    0    0  0.13537515940E+02  0.16781448318E+02  0.29847912910E+02  0.36820907791E+02  0.00000000000E+00 0.  1.
         11    1    4    4    0    0 -0.16337668185E+02 -0.22899136702E+01 -0.38371620931E+01  0.16937736553E+02  0.51100000000E-03 0. -1.
        -11    1    4    4    0    0 -0.42994154606E+01  0.46484912652E+01 -0.80243741769E+01  0.10221742784E+02  0.51100000000E-03 0.  1.
         12    1    4    4    0    0  0.70995677060E+01 -0.19140025913E+02 -0.17986376640E+02  0.27207612872E+02  0.00000000000E+00 0. -1.
</event>
<event>
 8    1  0.2509217E-006  0.9118800E+02  0.7816164E-02  0.1184000E+00
        -11   -1    0    0    0    0  0.00000000000E+00  0.00000000000E+00  0.45593999997E+02  0.45594000000E+02  0.51100000000E-03 0.  1.
         11   -1    0    0    0    0 -0.00000000000E+00 -0.00000000000E+00 -0.45593999997E+02  0.45594000000E+02  0.51100000000E-03 0. -1.
         23    2    1    2    0    0  0.88817841970E-15  0.71054273576E-14 -0.22204460493E-15  0.91188000000E+02  0.91188000000E+02 0.  0.
    9900012    2    3    3    0    0  0.39209239844E+01  0.36571410180E+02 -0.17142197203E+01  0.54367078818E+02  0.39999987782E+02 0.  0.
        -12    1    3    3    0    0 -0.39209239844E+01 -0.36571410180E+02  0.17142197203E+01  0.36820921182E+02  0.00000000000E+00 0.  1.
         11    1    4    4    0    0  0.18871970292E+01  0.55961301735E+01 -0.48983312277E+01  0.76727983567E+01  0.51100000000E-03 0. -1.
        -11    1    4    4    0    0  0.62799929106E+01  0.78846590843E+01 -0.14247503163E+02  0.17452722036E+02  0.51100000000E-03 0.  1.
         12    1    4    4    0    0 -0.42462659554E+01  0.23090620922E+02  0.17431614671E+02  0.29241558425E+02  0.00000000000E+00 0. -1.
</event>
<event>
 8    1  0.2509217E-006  0.9118800E+02  0.7816164E-02  0.1184000E+00
        -11   -1    0    0    0    0  0.00000000000E+00  0.00000000000E+00  0.45593999997E+02  0.45594000000E+02  0.51100000000E-03 0. -1.
         11   -1    0    0    0    0 -0.00000000000E+00 -0.00000000000E+00 -0.45593999997E+02  0.45594000000E+02  0.51100000000E-03 0.  1.
         23    2    1    2    0    0  0.17763568394E-14  0.00000000000E+00  0.00000000000E+00  0.91188000000E+02  0.91188000000E+02 0.  0.
    9900012    2    3    3    0    0 -0.87166450335E+01 -0.35350259707E+02  0.54905809469E+01  0.54367255288E+02  0.40000390078E+02 0.  0.
         12    1    3    3    0    0  0.87166450335E+01  0.35350259707E+02 -0.54905809469E+01  0.36820744712E+02  0.00000000000E+00 0. -1.
         11    1    4    4    0    0  0.14546110584E+02 -0.11463711145E+02  0.57823779148E+01  0.19402110734E+02  0.51100000000E-03 0. -1.
        -11    1    4    4    0    0 -0.17181796862E+02 -0.12116433166E+02 -0.35507057640E+01  0.21322045112E+02  0.51100000000E-03 0.  1.
         12    1    4    4    0    0 -0.60809587557E+01 -0.11770115397E+02  0.32589087961E+01  0.13643099442E+02  0.00000000000E+00 0. -1.
</event>
<event>
 8    1  0.2509217E-006  0.9118800E+02  0.7816164E-02  0.1184000E+00
        -11   -1    0    0    0    0  0.00000000000E+00  0.00000000000E+00  0.45593999997E+02  0.45594000000E+02  0.51100000000E-03 0. -1.
         11   -1    0    0    0    0 -0.00000000000E+00 -0.00000000000E+00 -0.45593999997E+02  0.45594000000E+02  0.51100000000E-03 0.  1.
         23    2    1    2    0    0  0.00000000000E+00 -0.35527136788E-14  0.00000000000E+00  0.91188000000E+02  0.91188000000E+02 0.  0.
    9900012    2    3    3    0    0  0.20941497169E+02 -0.22027581513E+02 -0.20785023253E+02  0.54367111328E+02  0.40000061894E+02 0.  0.
         12    1    3    3    0    0 -0.20941497169E+02  0.22027581513E+02  0.20785023253E+02  0.36820888672E+02  0.00000000000E+00 0. -1.
         11    1    4    4    0    0  0.21726179366E+01  0.53461262092E+01 -0.14582978631E+02  0.15683258595E+02  0.51100000000E-03 0. -1.
        -11    1    4    4    0    0  0.15350612392E+01 -0.62357666857E+01 -0.92289032546E+01  0.11243391602E+02  0.51100000000E-03 0.  1.
         12    1    4    4    0    0  0.17233817993E+02 -0.21137941037E+02  0.30268586330E+01  0.27440461131E+02  0.00000000000E+00 0. -1.
</event>
<event>
 8    1  0.2509217E-006  0.9118800E+02  0.7816164E-02  0.1184000E+00
        -11   -1    0    0    0    0  0.00000000000E+00  0.00000000000E+00  0.45593999997E+02  0.45594000000E+02  0.51100000000E-03 0. -1.
         11   -1    0    0    0    0 -0.00000000000E+00 -0.00000000000E+00 -0.45593999997E+02  0.45594000000E+02  0.51100000000E-03 0.  1.
         23    2    1    2    0    0  0.00000000000E+00  0.00000000000E+00  0.00000000000E+00  0.91188000000E+02  0.91188000000E+02 0.  0.
    9900012    2    3    3    0    0  0.14425565145E+02  0.18372550612E+02 -0.28462815687E+02  0.54367089873E+02  0.40000012983E+02 0.  0.
         12    1    3    3    0    0 -0.14425565145E+02 -0.18372550612E+02  0.28462815687E+02  0.36820910127E+02  0.00000000000E+00 0. -1.
         11    1    4    4    0    0 -0.38250768684E+01  0.12158751075E+02 -0.13788852461E+02  0.18777616814E+02  0.51100000000E-03 0. -1.
        -11    1    4    4    0    0  0.12544656945E+02  0.59540791212E+01 -0.22173385874E+02  0.26162540347E+02  0.51100000000E-03 0.  1.
        -12    1    4    4    0    0  0.57059850680E+01  0.25972041550E+00  0.74994226479E+01  0.94269327113E+01  0.00000000000E+00 0.  1.
</event>
<event>
 8    1  0.2509217E-006  0.9118800E+02  0.7816164E-02  0.1184000E+00
        -11   -1    0    0    0    0  0.00000000000E+00  0.00000000000E+00  0.45593999997E+02  0.45594000000E+02  0.51100000000E-03 0.  1.
         11   -1    0    0    0    0 -0.00000000000E+00 -0.00000000000E+00 -0.45593999997E+02  0.45594000000E+02  0.51100000000E-03 0. -1.
         23    2    1    2    0    0  0.00000000000E+00  0.88817841970E-15  0.00000000000E+00  0.91188000000E+02  0.91188000000E+02 0.  0.
    9900012    2    3    3    0    0 -0.27201295821E+02  0.38026954824E+01  0.24523639338E+02  0.54367083747E+02  0.39999999019E+02 0.  0.
         12    1    3    3    0    0  0.27201295821E+02 -0.38026954824E+01 -0.24523639338E+02  0.36820916253E+02  0.00000000000E+00 0. -1.
         11    1    4    4    0    0 -0.14246047308E+01 -0.21801826372E+01  0.30749719334E+01  0.40296584996E+01  0.51100000000E-03 0. -1.
        -11    1    4    4    0    0  0.76055818916E+00  0.14082211615E+02  0.17241465790E+02  0.22274543218E+02  0.51100000000E-03 0.  1.
         12    1    4    4    0    0 -0.26537249279E+02 -0.80993334951E+01  0.42072016145E+01  0.28062882030E+02  0.00000000000E+00 0. -1.
</event>
<event>
 8    1  0.2509217E-006  0.9118800E+02  0.7816164E-02  0.1184000E+00
        -11   -1    0    0    0    0  0.00000000000E+00  0.00000000000E+00  0.45593999997E+02  0.45594000000E+02  0.51100000000E-03 0. -1.
         11   -1    0    0    0    0 -0.00000000000E+00 -0.00000000000E+00 -0.45593999997E+02  0.45594000000E+02  0.51100000000E-03 0.  1.
         23    2    1    2    0    0  0.00000000000E+00  0.35527136788E-14  0.00000000000E+00  0.91188000000E+02  0.91188000000E+02 0.  0.
    9900012    2    3    3    0    0  0.30693243497E+02 -0.18694584054E+02  0.80136980697E+01  0.54367054520E+02  0.39999932388E+02 0.  0.
        -12    1    3    3    0    0 -0.30693243497E+02  0.18694584054E+02 -0.80136980697E+01  0.36820945480E+02  0.00000000000E+00 0.  1.
         11    1    4    4    0    0  0.14438559300E+02 -0.23125608195E+02 -0.45441211770E+01  0.27639008422E+02  0.51100000000E-03 0. -1.
        -11    1    4    4    0    0 -0.29297174880E+01  0.20830032868E+01  0.45712770958E+01  0.58153866423E+01  0.51100000000E-03 0.  1.
         12    1    4    4    0    0  0.19184401685E+02  0.23480208541E+01  0.79865421510E+01  0.20912659455E+02  0.00000000000E+00 0. -1.
</event>
<event>
 8    1  0.2509217E-006  0.9118800E+02  0.7816164E-02  0.1184000E+00
        -11   -1    0    0    0    0  0.00000000000E+00  0.00000000000E+00  0.45593999997E+02  0.45594000000E+02  0.51100000000E-03 0.  1.
         11   -1    0    0    0    0 -0.00000000000E+00 -0.00000000000E+00 -0.45593999997E+02  0.45594000000E+02  0.51100000000E-03 0. -1.
         23    2    1    2    0    0  0.35527136788E-14  0.71054273576E-14  0.00000000000E+00  0.91188000000E+02  0.91188000000E+02 0.  0.
    9900012    2    3    3    0    0  0.26448532842E+02  0.22764154297E+02 -0.11749315937E+02  0.54367108711E+02  0.40000055928E+02 0.  0.
        -12    1    3    3    0    0 -0.26448532842E+02 -0.22764154297E+02  0.11749315937E+02  0.36820891289E+02  0.00000000000E+00 0.  1.
         11    1    4    4    0    0 -0.45707506438E+01 -0.87686987966E+00 -0.68141229873E+01  0.82518443139E+01  0.51100000000E-03 0. -1.
        -11    1    4    4    0    0 -0.23107023794E+00 -0.33879220627E+01 -0.33456406972E+01  0.47670453421E+01  0.51100000000E-03 0.  1.
         12    1    4    4    0    0  0.31250353724E+02  0.27028946239E+02 -0.15895522528E+01  0.41348219055E+02  0.00000000000E+00 0. -1.
</event>
<event>
 8    1  0.2509217E-006  0.9118800E+02  0.7816164E-02  0.1184000E+00
        -11   -1    0    0    0    0  0.00000000000E+00  0.00000000000E+00  0.45593999997E+02  0.45594000000E+02  0.51100000000E-03 0. -1.
         11   -1    0    0    0    0 -0.00000000000E+00 -0.00000000000E+00 -0.45593999997E+02  0.45594000000E+02  0.51100000000E-03 0.  1.
         23    2    1    2    0    0 -0.17763568394E-14  0.35527136788E-14 -0.35527136788E-14  0.91188000000E+02  0.91188000000E+02 0.  0.
    9900012    2    3    3    0    0  0.14283553655E+02 -0.12433105948E+02  0.31578122516E+02  0.54367084066E+02  0.39999999746E+02 0.  0.
        -12    1    3    3    0    0 -0.14283553655E+02  0.12433105948E+02 -0.31578122516E+02  0.36820915934E+02  0.00000000000E+00 0.  1.
         11    1    4    4    0    0  0.28395216241E+01 -0.73251814307E+01  0.16540510606E+02  0.18311462460E+02  0.51100000000E-03 0. -1.
        -11    1    4    4    0    0 -0.25651340508E+01  0.10840615878E+02  0.79126848118E+01  0.13664166513E+02  0.51100000000E-03 0.  1.
         12    1    4    4    0    0  0.14009166082E+02 -0.15948540395E+02  0.71249270988E+01  0.22391455094E+02  0.00000000000E+00 0. -1.
</event>
<event>
 8    1  0.2509217E-006  0.9118800E+02  0.7816164E-02  0.1184000E+00
        -11   -1    0    0    0    0  0.00000000000E+00  0.00000000000E+00  0.45593999997E+02  0.45594000000E+02  0.51100000000E-03 0.  1.
         11   -1    0    0    0    0 -0.00000000000E+00 -0.00000000000E+00 -0.45593999997E+02  0.45594000000E+02  0.51100000000E-03 0. -1.
         23    2    1    2    0    0  0.17763568394E-14 -0.35527136788E-14 -0.35527136788E-14  0.91188000000E+02  0.91188000000E+02 0.  0.
    9900012    2    3    3    0    0 -0.12529955544E+02  0.23183077168E+02  0.25716222540E+02  0.54367096227E+02  0.40000027468E+02 0.  0.
         12    1    3    3    0    0  0.12529955544E+02 -0.23183077168E+02 -0.25716222540E+02  0.36820903773E+02  0.00000000000E+00 0. -1.
         11    1    4    4    0    0  0.42899091589E+01  0.18232985633E+02  0.79060797703E+01  0.20331039897E+02  0.51100000000E-03 0. -1.
        -11    1    4    4    0    0 -0.35160806983E+01  0.12912047681E+02  0.67279254015E+01  0.14978276912E+02  0.51100000000E-03 0.  1.
        -12    1    4    4    0    0 -0.13303784005E+02 -0.79619561461E+01  0.11082217369E+02  0.19057779418E+02  0.00000000000E+00 0.  1.
</event>
<event>
 8    1  0.2509217E-006  0.9118800E+02  0.7816164E-02  0.1184000E+00
        -11   -1    0    0    0    0  0.00000000000E+00  0.00000000000E+00  0.45593999997E+02  0.45594000000E+02  0.51100000000E-03 0. -1.
         11   -1    0    0    0    0 -0.00000000000E+00 -0.00000000000E+00 -0.45593999997E+02  0.45594000000E+02  0.51100000000E-03 0.  1.
         23    2    1    2    0    0 -0.88817841970E-15  0.00000000000E+00  0.00000000000E+00  0.91188000000E+02  0.91188000000E+02 0.  0.
    9900012    2    3    3    0    0  0.58383441732E+01  0.18866676816E+02 -0.31076390095E+02  0.54367085045E+02  0.40000001978E+02 0.  0.
         12    1    3    3    0    0 -0.58383441732E+01 -0.18866676816E+02  0.31076390095E+02  0.36820914955E+02  0.00000000000E+00 0. -1.
         11    1    4    4    0    0 -0.97816722886E+01 -0.33190621629E+01 -0.44823679326E+01  0.11260058124E+02  0.51100000000E-03 0. -1.
        -11    1    4    4    0    0  0.10909482962E+02  0.20622167081E+02 -0.29300263927E+02  0.37453919155E+02  0.51100000000E-03 0.  1.
         12    1    4    4    0    0  0.47105335002E+01  0.15635718981E+01  0.27062417649E+01  0.56531077671E+01  0.00000000000E+00 0. -1.
</event>
<event>
 8    1  0.2509217E-006  0.9118800E+02  0.7816164E-02  0.1184000E+00
        -11   -1    0    0    0    0  0.00000000000E+00  0.00000000000E+00  0.45593999997E+02  0.45594000000E+02  0.51100000000E-03 0. -1.
         11   -1    0    0    0    0 -0.00000000000E+00 -0.00000000000E+00 -0.45593999997E+02  0.45594000000E+02  0.51100000000E-03 0.  1.
         23    2    1    2    0    0  0.35527136788E-14 -0.35527136788E-14  0.00000000000E+00  0.91188000000E+02  0.91188000000E+02 0.  0.
    9900012    2    3    3    0    0 -0.20351394936E+02  0.30078928059E+02 -0.60716234945E+01  0.54367003260E+02  0.39999815532E+02 0.  0.
        -12    1    3    3    0    0  0.20351394936E+02 -0.30078928059E+02  0.60716234945E+01  0.36820996740E+02  0.00000000000E+00 0.  1.
         11    1    4    4    0    0 -0.86297780375E+01  0.23355936329E+02  0.91299606383E+01  0.26520350909E+02  0.51100000000E-03 0. -1.
        -11    1    4    4    0    0 -0.99895099077E+00  0.25550640251E+01 -0.16076791669E+02  0.16309184096E+02  0.51100000000E-03 0.  1.
        -12    1    4    4    0    0 -0.10722665907E+02  0.41679277051E+01  0.87520753624E+00  0.11537468256E+02  0.00000000000E+00 0.  1.
</event>
<event>
 8    1  0.2509217E-006  0.9118800E+02  0.7816164E-02  0.1184000E+00
        -11   -1    0    0    0    0  0.00000000000E+00  0.00000000000E+00  0.45593999997E+02  0.45594000000E+02  0.51100000000E-03 0.  1.
         11   -1    0    0    0    0 -0.00000000000E+00 -0.00000000000E+00 -0.45593999997E+02  0.45594000000E+02  0.51100000000E-03 0. -1.
         23    2    1    2    0    0  0.00000000000E+00  0.35527136788E-14  0.00000000000E+00  0.91188000000E+02  0.91188000000E+02 0.  0.
    9900012    2    3    3    0    0 -0.16383911041E+02 -0.28883026587E+02 -0.15909685881E+02  0.54367083788E+02  0.39999999112E+02 0.  0.
        -12    1    3    3    0    0  0.16383911041E+02  0.28883026587E+02  0.15909685881E+02  0.36820916212E+02  0.00000000000E+00 0.  1.
         11    1    4    4    0    0 -0.87043335351E+01  0.55958677352E+01  0.31718298323E+00  0.10352765974E+02  0.51100000000E-03 0.  1.
        -11    1    4    4    0    0 -0.71903791268E+00  0.98527604521E+00 -0.64640392171E+01  0.65781142941E+01  0.51100000000E-03 0. -1.
         12    1    4    4    0    0 -0.69605395929E+01 -0.35464170368E+02 -0.97628296475E+01  0.37436203520E+02  0.00000000000E+00 0. -1.
</event>
<event>
 8    1  0.2509217E-006  0.9118800E+02  0.7816164E-02  0.1184000E+00
        -11   -1    0    0    0    0  0.00000000000E+00  0.00000000000E+00  0.45593999997E+02  0.45594000000E+02  0.51100000000E-03 0. -1.
         11   -1    0    0    0    0 -0.00000000000E+00 -0.00000000000E+00 -0.45593999997E+02  0.45594000000E+02  0.51100000000E-03 0.  1.
         23    2    1    2    0    0 -0.17763568394E-14  0.00000000000E+00 -0.35527136788E-14  0.91188000000E+02  0.91188000000E+02 0.  0.
    9900012    2    3    3    0    0  0.56417595027E+01 -0.34082916880E+02  0.12739940003E+02  0.54367071920E+02  0.39999972057E+02 0.  0.
        -12    1    3    3    0    0 -0.56417595027E+01  0.34082916880E+02 -0.12739940003E+02  0.36820928080E+02  0.00000000000E+00 0.  1.
         11    1    4    4    0    0  0.13821687533E+01 -0.59623353976E+01 -0.25334671685E+01  0.66240689920E+01  0.51100000000E-03 0. -1.
        -11    1    4    4    0    0  0.14568262571E+02  0.70887354786E+00  0.40999160649E+01  0.15150778463E+02  0.51100000000E-03 0.  1.
         12    1    4    4    0    0 -0.10308671821E+02 -0.28829455031E+02  0.11173491107E+02  0.32592224465E+02  0.00000000000E+00 0. -1.
</event>
<event>
 8    1  0.2509217E-006  0.9118800E+02  0.7816164E-02  0.1184000E+00
        -11   -1    0    0    0    0  0.00000000000E+00  0.00000000000E+00  0.45593999997E+02  0.45594000000E+02  0.51100000000E-03 0.  1.
         11   -1    0    0    0    0 -0.00000000000E+00 -0.00000000000E+00 -0.45593999997E+02  0.45594000000E+02  0.51100000000E-03 0. -1.
         23    2    1    2    0    0 -0.35527136788E-14  0.00000000000E+00  0.00000000000E+00  0.91188000000E+02  0.91188000000E+02 0.  0.
    9900012    2    3    3    0    0 -0.30899216468E+02  0.86505166328E+01  0.18060975128E+02  0.54366921269E+02  0.39999628614E+02 0.  0.
         12    1    3    3    0    0  0.30899216468E+02 -0.86505166328E+01 -0.18060975128E+02  0.36821078731E+02  0.00000000000E+00 0. -1.
         11    1    4    4    0    0 -0.13777581522E+02  0.16126541629E+01 -0.79785523345E+01  0.16002490546E+02  0.51100000000E-03 0. -1.
        -11    1    4    4    0    0 -0.14439788993E+02  0.43910494826E+01  0.34751291384E+01  0.15487586787E+02  0.51100000000E-03 0.  1.
        -12    1    4    4    0    0 -0.26818459534E+01  0.26468129873E+01  0.22564398324E+02  0.22876843935E+02  0.00000000000E+00 0.  1.
</event>
<event>
 8    1  0.2509217E-006  0.9118800E+02  0.7816164E-02  0.1184000E+00
        -11   -1    0    0    0    0  0.00000000000E+00  0.00000000000E+00  0.45593999997E+02  0.45594000000E+02  0.51100000000E-03 0.  1.
         11   -1    0    0    0    0 -0.00000000000E+00 -0.00000000000E+00 -0.45593999997E+02  0.45594000000E+02  0.51100000000E-03 0. -1.
         23    2    1    2    0    0  0.00000000000E+00  0.00000000000E+00  0.00000000000E+00  0.91188000000E+02  0.91188000000E+02 0.  0.
    9900012    2    3    3    0    0 -0.20097809630E+02  0.10243708550E+02  0.29101948871E+02  0.54367096360E+02  0.40000027772E+02 0.  0.
         12    1    3    3    0    0  0.20097809630E+02 -0.10243708550E+02 -0.29101948871E+02  0.36820903640E+02  0.00000000000E+00 0. -1.
         11    1    4    4    0    0 -0.14671916146E+02  0.70301280195E+01  0.12793685259E+01  0.16319454876E+02  0.51100000000E-03 0. -1.
        -11    1    4    4    0    0  0.66742082653E+01  0.73883194660E+01  0.21665419764E+02  0.23843714776E+02  0.51100000000E-03 0.  1.
        -12    1    4    4    0    0 -0.12100101749E+02 -0.41747389360E+01  0.61571605815E+01  0.14203926708E+02  0.00000000000E+00 0.  1.
</event>
<event>
 8    1  0.2509217E-006  0.9118800E+02  0.7816164E-02  0.1184000E+00
        -11   -1    0    0    0    0  0.00000000000E+00  0.00000000000E+00  0.45593999997E+02  0.45594000000E+02  0.51100000000E-03 0.  1.
         11   -1    0    0    0    0 -0.00000000000E+00 -0.00000000000E+00 -0.45593999997E+02  0.45594000000E+02  0.51100000000E-03 0. -1.
         23    2    1    2    0    0 -0.35527136788E-14  0.44408920985E-15  0.35527136788E-14  0.91188000000E+02  0.91188000000E+02 0.  0.
    9900012    2    3    3    0    0 -0.22905147700E+02 -0.27844957659E+01  0.28694615816E+02  0.54367079524E+02  0.39999989391E+02 0.  0.
         12    1    3    3    0    0  0.22905147700E+02  0.27844957659E+01 -0.28694615816E+02  0.36820920476E+02  0.00000000000E+00 0. -1.
         11    1    4    4    0    0  0.69112768693E+00  0.57243509154E+00  0.21488241646E+02  0.21506972560E+02  0.51100000000E-03 0. -1.
        -11    1    4    4    0    0 -0.19794272220E+02 -0.61961921240E+01  0.13670510484E+02  0.24841273452E+02  0.51100000000E-03 0.  1.
         12    1    4    4    0    0 -0.38020031667E+01  0.28392612666E+01 -0.64641363132E+01  0.80188335121E+01  0.00000000000E+00 0. -1.
</event>
<event>
 8    1  0.2509217E-006  0.9118800E+02  0.7816164E-02  0.1184000E+00
        -11   -1    0    0    0    0  0.00000000000E+00  0.00000000000E+00  0.45593999997E+02  0.45594000000E+02  0.51100000000E-03 0.  1.
         11   -1    0    0    0    0 -0.00000000000E+00 -0.00000000000E+00 -0.45593999997E+02  0.45594000000E+02  0.51100000000E-03 0. -1.
         23    2    1    2    0    0  0.00000000000E+00  0.00000000000E+00  0.00000000000E+00  0.91188000000E+02  0.91188000000E+02 0.  0.
    9900012    2    3    3    0    0  0.23125056544E+02 -0.17254682641E+02 -0.22875489623E+02  0.54367077432E+02  0.39999984622E+02 0.  0.
        -12    1    3    3    0    0 -0.23125056544E+02  0.17254682641E+02  0.22875489623E+02  0.36820922568E+02  0.00000000000E+00 0.  1.
         11    1    4    4    0    0  0.23774297876E+01 -0.12840603718E+02 -0.28710195178E+02  0.31540586293E+02  0.51100000000E-03 0. -1.
        -11    1    4    4    0    0  0.98649480633E+01 -0.17958308540E+01  0.58980407693E+01  0.11633103366E+02  0.51100000000E-03 0.  1.
         12    1    4    4    0    0  0.10882678694E+02 -0.26182480688E+01 -0.63335214168E-01  0.11193387773E+02  0.00000000000E+00 0. -1.
</event>
<event>
 8    1  0.2509217E-006  0.9118800E+02  0.7816164E-02  0.1184000E+00
        -11   -1    0    0    0    0  0.00000000000E+00  0.00000000000E+00  0.45593999997E+02  0.45594000000E+02  0.51100000000E-03 0.  1.
         11   -1    0    0    0    0 -0.00000000000E+00 -0.00000000000E+00 -0.45593999997E+02  0.45594000000E+02  0.51100000000E-03 0. -1.
         23    2    1    2    0    0  0.00000000000E+00  0.00000000000E+00  0.00000000000E+00  0.91188000000E+02  0.91188000000E+02 0.  0.
    9900012    2    3    3    0    0  0.82066869606E+01  0.10694311903E+02  0.34264600511E+02  0.54367070270E+02  0.39999968295E+02 0.  0.
         12    1    3    3    0    0 -0.82066869606E+01 -0.10694311903E+02 -0.34264600511E+02  0.36820929730E+02  0.00000000000E+00 0. -1.
         11    1    4    4    0    0  0.11865960593E+01  0.30632490676E+01 -0.21579140053E+01  0.39304068713E+01  0.51100000000E-03 0. -1.
        -11    1    4    4    0    0  0.11522207388E+02 -0.84017475164E+01  0.28768804194E+02  0.32109106488E+02  0.51100000000E-03 0.  1.
        -12    1    4    4    0    0 -0.45021164866E+01  0.16032810352E+02  0.76537103229E+01  0.18327556911E+02  0.00000000000E+00 0.  1.
</event>
<event>
 8    1  0.2509217E-006  0.9118800E+02  0.7816164E-02  0.1184000E+00
        -11   -1    0    0    0    0  0.00000000000E+00  0.00000000000E+00  0.45593999997E+02  0.45594000000E+02  0.51100000000E-03 0.  1.
         11   -1    0    0    0    0 -0.00000000000E+00 -0.00000000000E+00 -0.45593999997E+02  0.45594000000E+02  0.51100000000E-03 0. -1.
         23    2    1    2    0    0  0.17763568394E-14 -0.25812685323E-14  0.71054273576E-14  0.91188000000E+02  0.91188000000E+02 0.  0.
    9900012    2    3    3    0    0 -0.12877009485E+02  0.14068061430E+00 -0.34495556731E+02  0.54367073905E+02  0.39999976581E+02 0.  0.
        -12    1    3    3    0    0  0.12877009485E+02 -0.14068061430E+00  0.34495556731E+02  0.36820926095E+02  0.00000000000E+00 0.  1.
         11    1    4    4    0    0  0.44135935773E+01  0.68008216077E+01 -0.24887797507E+02  0.26175053922E+02  0.51100000000E-03 0. -1.
        -11    1    4    4    0    0 -0.19083587902E+01 -0.10121407490E+02 -0.63258076987E+01  0.12087206714E+02  0.51100000000E-03 0.  1.
        -12    1    4    4    0    0 -0.15382244272E+02  0.34612664963E+01 -0.32819515250E+01  0.16104813269E+02  0.00000000000E+00 0.  1.
</event>
<event>
 8    1  0.2509217E-006  0.9118800E+02  0.7816164E-02  0.1184000E+00
        -11   -1    0    0    0    0  0.00000000000E+00  0.00000000000E+00  0.45593999997E+02  0.45594000000E+02  0.51100000000E-03 0.  1.
         11   -1    0    0    0    0 -0.00000000000E+00 -0.00000000000E+00 -0.45593999997E+02  0.45594000000E+02  0.51100000000E-03 0. -1.
         23    2    1    2    0    0 -0.17763568394E-14  0.00000000000E+00  0.35527136788E-14  0.91188000000E+02  0.91188000000E+02 0.  0.
    9900012    2    3    3    0    0  0.15065059135E+02  0.21858331669E+02 -0.25515433615E+02  0.54367081725E+02  0.39999994408E+02 0.  0.
        -12    1    3    3    0    0 -0.15065059135E+02 -0.21858331669E+02  0.25515433615E+02  0.36820918275E+02  0.00000000000E+00 0.  1.
         11    1    4    4    0    0  0.60585207645E+01  0.27940929597E+02 -0.23198740634E+01  0.28684194891E+02  0.51100000000E-03 0. -1.
        -11    1    4    4    0    0  0.44877426077E+01 -0.19752388931E+01 -0.11030566209E+02  0.12071238278E+02  0.51100000000E-03 0.  1.
         12    1    4    4    0    0  0.45187957626E+01 -0.41073590354E+01 -0.12164993342E+02  0.13611648556E+02  0.00000000000E+00 0. -1.
</event>
<event>
 8    1  0.2509217E-006  0.9118800E+02  0.7816164E-02  0.1184000E+00
        -11   -1    0    0    0    0  0.00000000000E+00  0.00000000000E+00  0.45593999997E+02  0.45594000000E+02  0.51100000000E-03 0.  1.
         11   -1    0    0    0    0 -0.00000000000E+00 -0.00000000000E+00 -0.45593999997E+02  0.45594000000E+02  0.51100000000E-03 0. -1.
         23    2    1    2    0    0 -0.13322676296E-14  0.00000000000E+00  0.00000000000E+00  0.91188000000E+02  0.91188000000E+02 0.  0.
    9900012    2    3    3    0    0 -0.34314632778E+01 -0.20112748864E+02  0.30650990923E+02  0.54367070467E+02  0.39999968745E+02 0.  0.
         12    1    3    3    0    0  0.34314632778E+01  0.20112748864E+02 -0.30650990923E+02  0.36820929533E+02  0.00000000000E+00 0. -1.
         11    1    4    4    0    0  0.48896476545E+01  0.29652499865E+01  0.64170593587E+01  0.85953483200E+01  0.51100000000E-03 0. -1.
        -11    1    4    4    0    0 -0.91426479463E+01 -0.24342184898E+02  0.30064565563E+02  0.39749315464E+02  0.51100000000E-03 0.  1.
         12    1    4    4    0    0  0.82153701393E+00  0.12641860476E+01 -0.58306339992E+01  0.60224066835E+01  0.00000000000E+00 0. -1.
</event>
<event>
 8    1  0.2509217E-006  0.9118800E+02  0.7816164E-02  0.1184000E+00
        -11   -1    0    0    0    0  0.00000000000E+00  0.00000000000E+00  0.45593999997E+02  0.45594000000E+02  0.51100000000E-03 0.  1.
         11   -1    0    0    0    0 -0.00000000000E+00 -0.00000000000E+00 -0.45593999997E+02  0.45594000000E+02  0.51100000000E-03 0. -1.
         23    2    1    2    0    0 -0.71054273576E-14 -0.71054273576E-14  0.00000000000E+00  0.91188000000E+02  0.91188000000E+02 0.  0.
    9900012    2    3    3    0    0 -0.23708950962E+02 -0.28014348338E+02 -0.29767420758E+01  0.54367094771E+02  0.40000024149E+02 0.  0.
         12    1    3    3    0    0  0.23708950962E+02  0.28014348338E+02  0.29767420758E+01  0.36820905229E+02  0.00000000000E+00 0. -1.
         11    1    4    4    0    0 -0.25959972258E+00  0.59536301881E+01  0.40816937458E+01  0.72231107238E+01  0.51100000000E-03 0. -1.
        -11    1    4    4    0    0 -0.20154374909E+02 -0.11295062402E+02  0.21967461868E+00  0.23104664461E+02  0.51100000000E-03 0.  1.
        -12    1    4    4    0    0 -0.32949763299E+01 -0.22672916124E+02 -0.72781104402E+01  0.24039319586E+02  0.00000000000E+00 0.  1.
</event>
<event>
 8    1  0.2509217E-006  0.9118800E+02  0.7816164E-02  0.1184000E+00
        -11   -1    0    0    0    0  0.00000000000E+00  0.00000000000E+00  0.45593999997E+02  0.45594000000E+02  0.51100000000E-03 0. -1.
         11   -1    0    0    0    0 -0.00000000000E+00 -0.00000000000E+00 -0.45593999997E+02  0.45594000000E+02  0.51100000000E-03 0.  1.
         23    2    1    2    0    0 -0.17763568394E-14 -0.88817841970E-15  0.00000000000E+00  0.91188000000E+02  0.91188000000E+02 0.  0.
    9900012    2    3    3    0    0  0.13445532214E+02  0.16682392402E+01  0.34237622208E+02  0.54367080224E+02  0.39999990987E+02 0.  0.
        -12    1    3    3    0    0 -0.13445532214E+02 -0.16682392402E+01 -0.34237622208E+02  0.36820919776E+02  0.00000000000E+00 0.  1.
         11    1    4    4    0    0 -0.25507766388E+01  0.61473156571E+01 -0.13855049765E+01  0.67982038474E+01  0.51100000000E-03 0.  1.
        -11    1    4    4    0    0  0.19777475764E+02 -0.11972166199E+02  0.26721229871E+02  0.35334196428E+02  0.51100000000E-03 0. -1.
         12    1    4    4    0    0 -0.37811669108E+01  0.74930897818E+01  0.89018973131E+01  0.12234679949E+02  0.00000000000E+00 0. -1.
</event>
<event>
 8    1  0.2509217E-006  0.9118800E+02  0.7816164E-02  0.1184000E+00
        -11   -1    0    0    0    0  0.00000000000E+00  0.00000000000E+00  0.45593999997E+02  0.45594000000E+02  0.51100000000E-03 0.  1.
         11   -1    0    0    0    0 -0.00000000000E+00 -0.00000000000E+00 -0.45593999997E+02  0.45594000000E+02  0.51100000000E-03 0. -1.
         23    2    1    2    0    0 -0.35527136788E-14  0.00000000000E+00  0.00000000000E+00  0.91188000000E+02  0.91188000000E+02 0.  0.
    9900012    2    3    3    0    0 -0.16842619682E+02  0.10887589309E+02  0.30879873253E+02  0.54367081885E+02  0.39999994774E+02 0.  0.
         12    1    3    3    0    0  0.16842619682E+02 -0.10887589309E+02 -0.30879873253E+02  0.36820918115E+02  0.00000000000E+00 0. -1.
         11    1    4    4    0    0 -0.82101939413E+00  0.12099402116E+00  0.21072673677E+02  0.21089008715E+02  0.51100000000E-03 0. -1.
        -11    1    4    4    0    0  0.57877283870E+01  0.77995673936E+01  0.40825012868E+01  0.10535552592E+02  0.51100000000E-03 0.  1.
         12    1    4    4    0    0 -0.21809328674E+02  0.29670278939E+01  0.57246982886E+01  0.22742520578E+02  0.00000000000E+00 0. -1.
</event>
<event>
 8    1  0.2509217E-006  0.9118800E+02  0.7816164E-02  0.1184000E+00
        -11   -1    0    0    0    0  0.00000000000E+00  0.00000000000E+00  0.45593999997E+02  0.45594000000E+02  0.51100000000E-03 0.  1.
         11   -1    0    0    0    0 -0.00000000000E+00 -0.00000000000E+00 -0.45593999997E+02  0.45594000000E+02  0.51100000000E-03 0. -1.
         23    2    1    2    0    0  0.00000000000E+00  0.44408920985E-14  0.00000000000E+00  0.91188000000E+02  0.91188000000E+02 0.  0.
    9900012    2    3    3    0    0  0.98485672032E+01  0.79162464023E+01  0.34584948881E+02  0.54367083089E+02  0.39999997518E+02 0.  0.
         12    1    3    3    0    0 -0.98485672032E+01 -0.79162464023E+01 -0.34584948881E+02  0.36820916911E+02  0.00000000000E+00 0. -1.
         11    1    4    4    0    0 -0.63774922159E+01  0.49997440441E+00  0.37995211732E+01  0.74403456086E+01  0.51100000000E-03 0. -1.
        -11    1    4    4    0    0  0.51506110560E+00 -0.11045291849E+02  0.79049097755E+01  0.13592327203E+02  0.51100000000E-03 0.  1.
        -12    1    4    4    0    0  0.15710998314E+02  0.18461563847E+02  0.22880517932E+02  0.33334410277E+02  0.00000000000E+00 0.  1.
</event>
<event>
 8    1  0.2509217E-006  0.9118800E+02  0.7816164E-02  0.1184000E+00
        -11   -1    0    0    0    0  0.00000000000E+00  0.00000000000E+00  0.45593999997E+02  0.45594000000E+02  0.51100000000E-03 0.  1.
         11   -1    0    0    0    0 -0.00000000000E+00 -0.00000000000E+00 -0.45593999997E+02  0.45594000000E+02  0.51100000000E-03 0. -1.
         23    2    1    2    0    0  0.35527136788E-14  0.35527136788E-14  0.00000000000E+00  0.91188000000E+02  0.91188000000E+02 0.  0.
    9900012    2    3    3    0    0  0.31085369486E+02  0.17489618089E+02  0.91428792504E+01  0.54367093195E+02  0.40000020556E+02 0.  0.
         12    1    3    3    0    0 -0.31085369486E+02 -0.17489618089E+02 -0.91428792504E+01  0.36820906805E+02  0.00000000000E+00 0. -1.
         11    1    4    4    0    0  0.30235992441E+02  0.27236600921E+01  0.79069127708E-01  0.30358521297E+02  0.51100000000E-03 0. -1.
        -11    1    4    4    0    0  0.74861308803E+01  0.50852421569E+01  0.82453021722E+01  0.12242828575E+02  0.51100000000E-03 0.  1.
         12    1    4    4    0    0 -0.66367538355E+01  0.96807158404E+01  0.81850795054E+00  0.11765743322E+02  0.00000000000E+00 0. -1.
</event>
<event>
 8    1  0.2509217E-006  0.9118800E+02  0.7816164E-02  0.1184000E+00
        -11   -1    0    0    0    0  0.00000000000E+00  0.00000000000E+00  0.45593999997E+02  0.45594000000E+02  0.51100000000E-03 0. -1.
         11   -1    0    0    0    0 -0.00000000000E+00 -0.00000000000E+00 -0.45593999997E+02  0.45594000000E+02  0.51100000000E-03 0.  1.
         23    2    1    2    0    0  0.00000000000E+00  0.88817841970E-15  0.00000000000E+00  0.91188000000E+02  0.91188000000E+02 0.  0.
    9900012    2    3    3    0    0 -0.17760061020E+02  0.54194772320E+01  0.31796062493E+02  0.54367080797E+02  0.39999992293E+02 0.  0.
        -12    1    3    3    0    0  0.17760061020E+02 -0.54194772320E+01 -0.31796062493E+02  0.36820919203E+02  0.00000000000E+00 0.  1.
         11    1    4    4    0    0 -0.12012094781E+02  0.67676240618E+01  0.31660567865E+02  0.34532343017E+02  0.51100000000E-03 0. -1.
        -11    1    4    4    0    0 -0.37878289441E+01  0.69889240614E+01  0.55565150019E+01  0.96988435843E+01  0.51100000000E-03 0.  1.
        -12    1    4    4    0    0 -0.19601372949E+01 -0.83370708911E+01 -0.54210203735E+01  0.10135894196E+02  0.00000000000E+00 0.  1.
</event>
<event>
 8    1  0.2509217E-006  0.9118800E+02  0.7816164E-02  0.1184000E+00
        -11   -1    0    0    0    0  0.00000000000E+00  0.00000000000E+00  0.45593999997E+02  0.45594000000E+02  0.51100000000E-03 0.  1.
         11   -1    0    0    0    0 -0.00000000000E+00 -0.00000000000E+00 -0.45593999997E+02  0.45594000000E+02  0.51100000000E-03 0. -1.
         23    2    1    2    0    0 -0.17763568394E-14 -0.71054273576E-14  0.53290705182E-14  0.91188000000E+02  0.91188000000E+02 0.  0.
    9900012    2    3    3    0    0  0.13211965620E+02  0.33883540286E+02 -0.57557936302E+01  0.54367088847E+02  0.40000010645E+02 0.  0.
         12    1    3    3    0    0 -0.13211965620E+02 -0.33883540286E+02  0.57557936302E+01  0.36820911153E+02  0.00000000000E+00 0. -1.
         11    1    4    4    0    0  0.73360389624E+01 -0.58204332476E+00 -0.84770947796E+01  0.11225746223E+02  0.51100000000E-03 0. -1.
        -11    1    4    4    0    0  0.74384422027E+01  0.10543087508E+02  0.11820734851E+02  0.17499053953E+02  0.51100000000E-03 0.  1.
        -12    1    4    4    0    0 -0.15625155456E+01  0.23922496103E+02 -0.90994337012E+01  0.25642288671E+02  0.00000000000E+00 0.  1.
</event>
<event>
 8    1  0.2509217E-006  0.9118800E+02  0.7816164E-02  0.1184000E+00
        -11   -1    0    0    0    0  0.00000000000E+00  0.00000000000E+00  0.45593999997E+02  0.45594000000E+02  0.51100000000E-03 0. -1.
         11   -1    0    0    0    0 -0.00000000000E+00 -0.00000000000E+00 -0.45593999997E+02  0.45594000000E+02  0.51100000000E-03 0.  1.
         23    2    1    2    0    0  0.00000000000E+00  0.35527136788E-14  0.35527136788E-14  0.91188000000E+02  0.91188000000E+02 0.  0.
    9900012    2    3    3    0    0 -0.16402761105E+02 -0.17266294317E+02 -0.28082094556E+02  0.54367088469E+02  0.40000009783E+02 0.  0.
         12    1    3    3    0    0  0.16402761105E+02  0.17266294317E+02  0.28082094556E+02  0.36820911531E+02  0.00000000000E+00 0. -1.
         11    1    4    4    0    0 -0.35784221450E+01  0.60298702687E+01  0.57263940128E+01  0.90529569289E+01  0.51100000000E-03 0. -1.
        -11    1    4    4    0    0  0.11224746779E+01 -0.42155405857E+01 -0.13384768509E+02  0.14077739880E+02  0.51100000000E-03 0.  1.
        -12    1    4    4    0    0 -0.13946813638E+02 -0.19080624000E+02 -0.20423720060E+02  0.31236391661E+02  0.00000000000E+00 0.  1.
</event>
<event>
 8    1  0.2509217E-006  0.9118800E+02  0.7816164E-02  0.1184000E+00
        -11   -1    0    0    0    0  0.00000000000E+00  0.00000000000E+00  0.45593999997E+02  0.45594000000E+02  0.51100000000E-03 0.  1.
         11   -1    0    0    0    0 -0.00000000000E+00 -0.00000000000E+00 -0.45593999997E+02  0.45594000000E+02  0.51100000000E-03 0. -1.
         23    2    1    2    0    0  0.00000000000E+00 -0.35527136788E-14  0.35527136788E-14  0.91188000000E+02  0.91188000000E+02 0.  0.
    9900012    2    3    3    0    0  0.84786160341E+01 -0.20499025698E+02  0.29388481260E+02  0.54367084541E+02  0.40000000828E+02 0.  0.
         12    1    3    3    0    0 -0.84786160341E+01  0.20499025698E+02 -0.29388481260E+02  0.36820915459E+02  0.00000000000E+00 0. -1.
         11    1    4    4    0    0 -0.12789808647E+01 -0.65291566569E+01  0.28584299821E+02  0.29348387950E+02  0.51100000000E-03 0. -1.
        -11    1    4    4    0    0 -0.10433159335E+01 -0.96438662906E+01 -0.61293640899E+01  0.11474396262E+02  0.51100000000E-03 0.  1.
         12    1    4    4    0    0  0.10800912832E+02 -0.43260027510E+01  0.69335455290E+01  0.13544300330E+02  0.00000000000E+00 0. -1.
</event>
<event>
 8    1  0.2509217E-006  0.9118800E+02  0.7816164E-02  0.1184000E+00
        -11   -1    0    0    0    0  0.00000000000E+00  0.00000000000E+00  0.45593999997E+02  0.45594000000E+02  0.51100000000E-03 0.  1.
         11   -1    0    0    0    0 -0.00000000000E+00 -0.00000000000E+00 -0.45593999997E+02  0.45594000000E+02  0.51100000000E-03 0. -1.
         23    2    1    2    0    0  0.17763568394E-14  0.35527136788E-14 -0.71054273576E-14  0.91188000000E+02  0.91188000000E+02 0.  0.
    9900012    2    3    3    0    0 -0.76664465684E+01 -0.29706977997E+02  0.20359298469E+02  0.54367082320E+02  0.39999995764E+02 0.  0.
         12    1    3    3    0    0  0.76664465684E+01  0.29706977997E+02 -0.20359298469E+02  0.36820917680E+02  0.00000000000E+00 0. -1.
         11    1    4    4    0    0  0.54859238434E+01 -0.10228433691E+02 -0.44666142159E+01  0.12436513137E+02  0.51100000000E-03 0. -1.
        -11    1    4    4    0    0 -0.14441479302E+02 -0.20824186168E+02  0.28300117430E+02  0.37988152111E+02  0.51100000000E-03 0.  1.
         12    1    4    4    0    0  0.12891088903E+01  0.13456418628E+01 -0.34742047454E+01  0.39424170716E+01  0.00000000000E+00 0. -1.
</event>
<event>
 8    1  0.2509217E-006  0.9118800E+02  0.7816164E-02  0.1184000E+00
        -11   -1    0    0    0    0  0.00000000000E+00  0.00000000000E+00  0.45593999997E+02  0.45594000000E+02  0.51100000000E-03 0.  1.
         11   -1    0    0    0    0 -0.00000000000E+00 -0.00000000000E+00 -0.45593999997E+02  0.45594000000E+02  0.51100000000E-03 0. -1.
         23    2    1    2    0    0  0.00000000000E+00  0.17763568394E-14 -0.35527136788E-14  0.91188000000E+02  0.91188000000E+02 0.  0.
    9900012    2    3    3    0    0 -0.25289388193E+02  0.12203225513E+02 -0.23818229555E+02  0.54367083020E+02  0.39999997360E+02 0.  0.
         12    1    3    3    0    0  0.25289388193E+02 -0.12203225513E+02  0.23818229555E+02  0.36820916980E+02  0.00000000000E+00 0. -1.
         11    1    4    4    0    0  0.52159030314E+01  0.11490122110E+02 -0.82225072420E+01  0.15061147902E+02  0.51100000000E-03 0. -1.
        -11    1    4    4    0    0 -0.24333831981E+02 -0.15356972534E+01 -0.23177716171E+01  0.24492158142E+02  0.51100000000E-03 0.  1.
        -12    1    4    4    0    0 -0.61714592440E+01  0.22488006573E+01 -0.13277950696E+02  0.14813776976E+02  0.00000000000E+00 0.  1.
</event>
<event>
 8    1  0.2509217E-006  0.9118800E+02  0.7816164E-02  0.1184000E+00
        -11   -1    0    0    0    0  0.00000000000E+00  0.00000000000E+00  0.45593999997E+02  0.45594000000E+02  0.51100000000E-03 0. -1.
         11   -1    0    0    0    0 -0.00000000000E+00 -0.00000000000E+00 -0.45593999997E+02  0.45594000000E+02  0.51100000000E-03 0.  1.
         23    2    1    2    0    0  0.00000000000E+00 -0.44408920985E-15  0.00000000000E+00  0.91188000000E+02  0.91188000000E+02 0.  0.
    9900012    2    3    3    0    0 -0.29740762273E+02  0.18639487343E+01 -0.21628500651E+02  0.54367091729E+02  0.40000017215E+02 0.  0.
         12    1    3    3    0    0  0.29740762273E+02 -0.18639487343E+01  0.21628500651E+02  0.36820908271E+02  0.00000000000E+00 0. -1.
         11    1    4    4    0    0 -0.10498167688E+02  0.15994266067E+02  0.18037200946E+01  0.19216697902E+02  0.51100000000E-03 0. -1.
        -11    1    4    4    0    0 -0.12596229722E+02 -0.12185049190E+02 -0.10363803283E+02  0.20360472631E+02  0.51100000000E-03 0.  1.
         12    1    4    4    0    0 -0.66463648621E+01 -0.19452681423E+01 -0.13068417463E+02  0.14789921197E+02  0.00000000000E+00 0. -1.
</event>
<event>
 8    1  0.2509217E-006  0.9118800E+02  0.7816164E-02  0.1184000E+00
        -11   -1    0    0    0    0  0.00000000000E+00  0.00000000000E+00  0.45593999997E+02  0.45594000000E+02  0.51100000000E-03 0.  1.
         11   -1    0    0    0    0 -0.00000000000E+00 -0.00000000000E+00 -0.45593999997E+02  0.45594000000E+02  0.51100000000E-03 0. -1.
         23    2    1    2    0    0  0.00000000000E+00  0.00000000000E+00  0.00000000000E+00  0.91188000000E+02  0.91188000000E+02 0.  0.
    9900012    2    3    3    0    0  0.20835867648E+02  0.25619522458E+02 -0.16287619513E+02  0.54367083919E+02  0.39999999410E+02 0.  0.
        -12    1    3    3    0    0 -0.20835867648E+02 -0.25619522458E+02  0.16287619513E+02  0.36820916081E+02  0.00000000000E+00 0.  1.
         11    1    4    4    0    0 -0.73709479202E+00  0.85736809329E+01 -0.91194683986E+01  0.12538581164E+02  0.51100000000E-03 0. -1.
        -11    1    4    4    0    0  0.28866706463E+02  0.91850247613E+01 -0.34961989340E+01  0.30493849038E+02  0.51100000000E-03 0.  1.
         12    1    4    4    0    0 -0.72937440231E+01  0.78608167639E+01 -0.36719521803E+01  0.11334653717E+02  0.00000000000E+00 0. -1.
</event>
<event>
 8    1  0.2509217E-006  0.9118800E+02  0.7816164E-02  0.1184000E+00
        -11   -1    0    0    0    0  0.00000000000E+00  0.00000000000E+00  0.45593999997E+02  0.45594000000E+02  0.51100000000E-03 0. -1.
         11   -1    0    0    0    0 -0.00000000000E+00 -0.00000000000E+00 -0.45593999997E+02  0.45594000000E+02  0.51100000000E-03 0.  1.
         23    2    1    2    0    0 -0.35527136788E-14  0.44408920985E-15  0.00000000000E+00  0.91188000000E+02  0.91188000000E+02 0.  0.
    9900012    2    3    3    0    0  0.24493187227E+02  0.29002750792E+01 -0.27339507432E+02  0.54367129794E+02  0.40000103992E+02 0.  0.
         12    1    3    3    0    0 -0.24493187227E+02 -0.29002750792E+01  0.27339507432E+02  0.36820870206E+02  0.00000000000E+00 0. -1.
         11    1    4    4    0    0  0.31504760907E+01 -0.17151913577E+01  0.35454775705E+01  0.50435892433E+01  0.51100000000E-03 0. -1.
        -11    1    4    4    0    0 -0.77395900553E+01  0.31532305422E+01 -0.11975880634E+02  0.14603624013E+02  0.51100000000E-03 0.  1.
        -12    1    4    4    0    0  0.29082301191E+02  0.14622358947E+01 -0.18909104369E+02  0.34719916538E+02  0.00000000000E+00 0.  1.
</event>
<event>
 8    1  0.2509217E-006  0.9118800E+02  0.7816164E-02  0.1184000E+00
        -11   -1    0    0    0    0  0.00000000000E+00  0.00000000000E+00  0.45593999997E+02  0.45594000000E+02  0.51100000000E-03 0. -1.
         11   -1    0    0    0    0 -0.00000000000E+00 -0.00000000000E+00 -0.45593999997E+02  0.45594000000E+02  0.51100000000E-03 0.  1.
         23    2    1    2    0    0 -0.17763568394E-14  0.35527136788E-14  0.00000000000E+00  0.91188000000E+02  0.91188000000E+02 0.  0.
    9900012    2    3    3    0    0 -0.98315322706E+01  0.29469748046E+02 -0.19764692752E+02  0.54367242861E+02  0.40000361749E+02 0.  0.
         12    1    3    3    0    0  0.98315322706E+01 -0.29469748046E+02  0.19764692752E+02  0.36820757139E+02  0.00000000000E+00 0. -1.
         11    1    4    4    0    0  0.20410159948E+01  0.25166378253E+00 -0.18246555908E+01  0.27492633989E+01  0.51100000000E-03 0. -1.
        -11    1    4    4    0    0 -0.13520136161E+02 -0.47280603858E+01 -0.67781498508E+01  0.15845881246E+02  0.51100000000E-03 0.  1.
         12    1    4    4    0    0  0.16475878953E+01  0.33946144649E+02 -0.11161887311E+02  0.35772098216E+02  0.00000000000E+00 0. -1.
</event>
<event>
 8    1  0.2509217E-006  0.9118800E+02  0.7816164E-02  0.1184000E+00
        -11   -1    0    0    0    0  0.00000000000E+00  0.00000000000E+00  0.45593999997E+02  0.45594000000E+02  0.51100000000E-03 0. -1.
         11   -1    0    0    0    0 -0.00000000000E+00 -0.00000000000E+00 -0.45593999997E+02  0.45594000000E+02  0.51100000000E-03 0.  1.
         23    2    1    2    0    0 -0.71054273576E-14  0.17763568394E-14  0.00000000000E+00  0.91188000000E+02  0.91188000000E+02 0.  0.
    9900012    2    3    3    0    0  0.33897946672E+02 -0.14171831004E+02  0.24224308847E+01  0.54367085373E+02  0.40000002724E+02 0.  0.
        -12    1    3    3    0    0 -0.33897946672E+02  0.14171831004E+02 -0.24224308847E+01  0.36820914627E+02  0.00000000000E+00 0.  1.
         11    1    4    4    0    0  0.18286456965E+02  0.34510729020E+01 -0.33161810575E+01  0.18902419675E+02  0.51100000000E-03 0. -1.
        -11    1    4    4    0    0  0.66756188798E+00  0.62609626666E+01 -0.12904176748E+01  0.64273221814E+01  0.51100000000E-03 0.  1.
        -12    1    4    4    0    0  0.14943927819E+02 -0.23883866573E+02  0.70290296170E+01  0.29037343516E+02  0.00000000000E+00 0.  1.
</event>
<event>
 8    1  0.2509217E-006  0.9118800E+02  0.7816164E-02  0.1184000E+00
        -11   -1    0    0    0    0  0.00000000000E+00  0.00000000000E+00  0.45593999997E+02  0.45594000000E+02  0.51100000000E-03 0. -1.
         11   -1    0    0    0    0 -0.00000000000E+00 -0.00000000000E+00 -0.45593999997E+02  0.45594000000E+02  0.51100000000E-03 0.  1.
         23    2    1    2    0    0  0.00000000000E+00  0.27755575616E-15  0.00000000000E+00  0.91188000000E+02  0.91188000000E+02 0.  0.
    9900012    2    3    3    0    0  0.27043696449E+02  0.45155509606E+00 -0.24984272749E+02  0.54367091477E+02  0.40000016641E+02 0.  0.
         12    1    3    3    0    0 -0.27043696449E+02 -0.45155509606E+00  0.24984272749E+02  0.36820908523E+02  0.00000000000E+00 0. -1.
         11    1    4    4    0    0  0.14939746554E+02  0.64302252462E+01  0.76551848071E+01  0.17976253183E+02  0.51100000000E-03 0. -1.
        -11    1    4    4    0    0  0.11089125086E+02 -0.23993291053E+01 -0.17929886364E+02  0.21218065430E+02  0.51100000000E-03 0.  1.
         12    1    4    4    0    0  0.10148248089E+01 -0.35793410448E+01 -0.14709571193E+02  0.15172772864E+02  0.00000000000E+00 0. -1.
</event>
<event>
 8    1  0.2509217E-006  0.9118800E+02  0.7816164E-02  0.1184000E+00
        -11   -1    0    0    0    0  0.00000000000E+00  0.00000000000E+00  0.45593999997E+02  0.45594000000E+02  0.51100000000E-03 0.  1.
         11   -1    0    0    0    0 -0.00000000000E+00 -0.00000000000E+00 -0.45593999997E+02  0.45594000000E+02  0.51100000000E-03 0. -1.
         23    2    1    2    0    0  0.00000000000E+00 -0.71054273576E-14 -0.35527136788E-14  0.91188000000E+02  0.91188000000E+02 0.  0.
    9900012    2    3    3    0    0 -0.11919763063E+02 -0.32431959143E+02 -0.12722790810E+02  0.54367053090E+02  0.39999929130E+02 0.  0.
        -12    1    3    3    0    0  0.11919763063E+02  0.32431959143E+02  0.12722790810E+02  0.36820946910E+02  0.00000000000E+00 0.  1.
         11    1    4    4    0    0 -0.66303055284E+01 -0.59923963761E+01  0.34562945456E+01  0.95820529103E+01  0.51100000000E-03 0. -1.
        -11    1    4    4    0    0 -0.13853498670E+02 -0.99184206207E+01  0.38266586534E+01  0.17462468604E+02  0.51100000000E-03 0.  1.
         12    1    4    4    0    0  0.85640411361E+01 -0.16521142146E+02 -0.20005744009E+02  0.27322531577E+02  0.00000000000E+00 0. -1.
</event>
<event>
 8    1  0.2509217E-006  0.9118800E+02  0.7816164E-02  0.1184000E+00
        -11   -1    0    0    0    0  0.00000000000E+00  0.00000000000E+00  0.45593999997E+02  0.45594000000E+02  0.51100000000E-03 0.  1.
         11   -1    0    0    0    0 -0.00000000000E+00 -0.00000000000E+00 -0.45593999997E+02  0.45594000000E+02  0.51100000000E-03 0. -1.
         23    2    1    2    0    0  0.00000000000E+00  0.00000000000E+00  0.00000000000E+00  0.91188000000E+02  0.91188000000E+02 0.  0.
    9900012    2    3    3    0    0 -0.25303426421E+02 -0.18516346347E+02  0.19304415869E+02  0.54367096389E+02  0.40000027839E+02 0.  0.
        -12    1    3    3    0    0  0.25303426421E+02  0.18516346347E+02 -0.19304415869E+02  0.36820903611E+02  0.00000000000E+00 0.  1.
         11    1    4    4    0    0 -0.29916604253E+02 -0.12996608437E+02  0.13667283790E+02  0.35365374129E+02  0.51100000000E-03 0. -1.
        -11    1    4    4    0    0  0.86579849227E+00  0.35388268037E+01  0.81107152066E+01  0.88913780484E+01  0.51100000000E-03 0.  1.
         12    1    4    4    0    0  0.37473793397E+01 -0.90585647139E+01 -0.24735831273E+01  0.10110344212E+02  0.00000000000E+00 0. -1.
</event>
<event>
 8    1  0.2509217E-006  0.9118800E+02  0.7816164E-02  0.1184000E+00
        -11   -1    0    0    0    0  0.00000000000E+00  0.00000000000E+00  0.45593999997E+02  0.45594000000E+02  0.51100000000E-03 0.  1.
         11   -1    0    0    0    0 -0.00000000000E+00 -0.00000000000E+00 -0.45593999997E+02  0.45594000000E+02  0.51100000000E-03 0. -1.
         23    2    1    2    0    0  0.00000000000E+00  0.35527136788E-14  0.35527136788E-14  0.91188000000E+02  0.91188000000E+02 0.  0.
    9900012    2    3    3    0    0  0.63208780427E+01  0.28331787943E+02  0.22652443754E+02  0.54367123920E+02  0.40000090600E+02 0.  0.
         12    1    3    3    0    0 -0.63208780427E+01 -0.28331787943E+02 -0.22652443754E+02  0.36820876080E+02  0.00000000000E+00 0. -1.
         11    1    4    4    0    0 -0.44437279929E+01  0.16960672125E+02 -0.51152154530E+01  0.18264078044E+02  0.51100000000E-03 0. -1.
        -11    1    4    4    0    0  0.15317104668E+02  0.74234773492E+01  0.19730660936E+02  0.26058025493E+02  0.51100000000E-03 0.  1.
         12    1    4    4    0    0 -0.45524986322E+01  0.39476384683E+01  0.80369982709E+01  0.10045020382E+02  0.00000000000E+00 0. -1.
</event>
<event>
 8    1  0.2509217E-006  0.9118800E+02  0.7816164E-02  0.1184000E+00
        -11   -1    0    0    0    0  0.00000000000E+00  0.00000000000E+00  0.45593999997E+02  0.45594000000E+02  0.51100000000E-03 0.  1.
         11   -1    0    0    0    0 -0.00000000000E+00 -0.00000000000E+00 -0.45593999997E+02  0.45594000000E+02  0.51100000000E-03 0. -1.
         23    2    1    2    0    0 -0.17763568394E-14 -0.35527136788E-14  0.35527136788E-14  0.91188000000E+02  0.91188000000E+02 0.  0.
    9900012    2    3    3    0    0 -0.13095541926E+02 -0.16634020245E+02  0.30126329633E+02  0.54367087667E+02  0.40000007954E+02 0.  0.
        -12    1    3    3    0    0  0.13095541926E+02  0.16634020245E+02 -0.30126329633E+02  0.36820912333E+02  0.00000000000E+00 0.  1.
         11    1    4    4    0    0 -0.13648666960E+02 -0.24905666618E+02  0.12827255823E+02  0.31162747499E+02  0.51100000000E-03 0. -1.
        -11    1    4    4    0    0 -0.40260922213E+01  0.13448912442E+01  0.13351810387E+02  0.14010317338E+02  0.51100000000E-03 0.  1.
        -12    1    4    4    0    0  0.45792172549E+01  0.69267551284E+01  0.39472634235E+01  0.91940228307E+01  0.00000000000E+00 0.  1.
</event>
<event>
 8    1  0.2509217E-006  0.9118800E+02  0.7816164E-02  0.1184000E+00
        -11   -1    0    0    0    0  0.00000000000E+00  0.00000000000E+00  0.45593999997E+02  0.45594000000E+02  0.51100000000E-03 0.  1.
         11   -1    0    0    0    0 -0.00000000000E+00 -0.00000000000E+00 -0.45593999997E+02  0.45594000000E+02  0.51100000000E-03 0. -1.
         23    2    1    2    0    0  0.00000000000E+00  0.00000000000E+00  0.00000000000E+00  0.91188000000E+02  0.91188000000E+02 0.  0.
    9900012    2    3    3    0    0 -0.15796460511E+02 -0.51329971110E+01 -0.32861911826E+02  0.54367067464E+02  0.39999961897E+02 0.  0.
        -12    1    3    3    0    0  0.15796460511E+02  0.51329971110E+01  0.32861911826E+02  0.36820932536E+02  0.00000000000E+00 0.  1.
         11    1    4    4    0    0 -0.14498932838E+02  0.58383837180E+00 -0.13053734958E+02  0.19518194519E+02  0.51100000000E-03 0. -1.
        -11    1    4    4    0    0 -0.14328745677E+02 -0.88044858158E+00 -0.71008421755E+01  0.16015932762E+02  0.51100000000E-03 0.  1.
         12    1    4    4    0    0  0.13031218004E+02 -0.48363869013E+01 -0.12707334692E+02  0.18832940182E+02  0.00000000000E+00 0. -1.
</event>
<event>
 8    1  0.2509217E-006  0.9118800E+02  0.7816164E-02  0.1184000E+00
        -11   -1    0    0    0    0  0.00000000000E+00  0.00000000000E+00  0.45593999997E+02  0.45594000000E+02  0.51100000000E-03 0. -1.
         11   -1    0    0    0    0 -0.00000000000E+00 -0.00000000000E+00 -0.45593999997E+02  0.45594000000E+02  0.51100000000E-03 0.  1.
         23    2    1    2    0    0 -0.35527136788E-14  0.35527136788E-14 -0.35527136788E-14  0.91188000000E+02  0.91188000000E+02 0.  0.
    9900012    2    3    3    0    0  0.15994385879E+02 -0.23722144231E+02  0.23178003704E+02  0.54367077113E+02  0.39999983895E+02 0.  0.
        -12    1    3    3    0    0 -0.15994385879E+02  0.23722144231E+02 -0.23178003704E+02  0.36820922887E+02  0.00000000000E+00 0.  1.
         11    1    4    4    0    0 -0.75355377420E+00 -0.93871807915E+00 -0.62668154094E+01  0.63813799886E+01  0.51100000000E-03 0. -1.
        -11    1    4    4    0    0 -0.14118732190E+01  0.44097011542E+01  0.67381882493E+01  0.81756976094E+01  0.51100000000E-03 0.  1.
         12    1    4    4    0    0  0.18159812872E+02 -0.27193127306E+02  0.22706630864E+02  0.39809999515E+02  0.00000000000E+00 0. -1.
</event>
<event>
 8    1  0.2509217E-006  0.9118800E+02  0.7816164E-02  0.1184000E+00
        -11   -1    0    0    0    0  0.00000000000E+00  0.00000000000E+00  0.45593999997E+02  0.45594000000E+02  0.51100000000E-03 0.  1.
         11   -1    0    0    0    0 -0.00000000000E+00 -0.00000000000E+00 -0.45593999997E+02  0.45594000000E+02  0.51100000000E-03 0. -1.
         23    2    1    2    0    0 -0.11102230246E-14  0.00000000000E+00  0.00000000000E+00  0.91188000000E+02  0.91188000000E+02 0.  0.
    9900012    2    3    3    0    0  0.14614911108E+01 -0.16515744268E+02 -0.32876655047E+02  0.54367079152E+02  0.39999988543E+02 0.  0.
        -12    1    3    3    0    0 -0.14614911108E+01  0.16515744268E+02  0.32876655047E+02  0.36820920848E+02  0.00000000000E+00 0.  1.
         11    1    4    4    0    0  0.17117643581E+02 -0.13207271305E+02 -0.16563076762E+02  0.27235661350E+02  0.51100000000E-03 0. -1.
        -11    1    4    4    0    0  0.59586260024E+00  0.33443985828E+01 -0.37824986345E+00  0.34180590017E+01  0.51100000000E-03 0.  1.
        -12    1    4    4    0    0 -0.16252015071E+02 -0.66528715456E+01 -0.15935328422E+02  0.23713358800E+02  0.00000000000E+00 0.  1.
</event>
<event>
 8    1  0.2509217E-006  0.9118800E+02  0.7816164E-02  0.1184000E+00
        -11   -1    0    0    0    0  0.00000000000E+00  0.00000000000E+00  0.45593999997E+02  0.45594000000E+02  0.51100000000E-03 0.  1.
         11   -1    0    0    0    0 -0.00000000000E+00 -0.00000000000E+00 -0.45593999997E+02  0.45594000000E+02  0.51100000000E-03 0. -1.
         23    2    1    2    0    0  0.00000000000E+00  0.00000000000E+00 -0.35527136788E-14  0.91188000000E+02  0.91188000000E+02 0.  0.
    9900012    2    3    3    0    0 -0.12206006978E+02 -0.28294891850E+02  0.20154532116E+02  0.54366909902E+02  0.39999602703E+02 0.  0.
         12    1    3    3    0    0  0.12206006978E+02  0.28294891850E+02 -0.20154532116E+02  0.36821090098E+02  0.00000000000E+00 0. -1.
         11    1    4    4    0    0  0.10012079658E+02 -0.54652328019E+01  0.37825170755E+01  0.12017401730E+02  0.51100000000E-03 0. -1.
        -11    1    4    4    0    0 -0.13509178781E+01 -0.13531404972E+02  0.13776349751E+02  0.19357471745E+02  0.51100000000E-03 0.  1.
         12    1    4    4    0    0 -0.20867168757E+02 -0.92982540764E+01  0.25956652895E+01  0.22992036428E+02  0.00000000000E+00 0. -1.
</event>
<event>
 8    1  0.2509217E-006  0.9118800E+02  0.7816164E-02  0.1184000E+00
        -11   -1    0    0    0    0  0.00000000000E+00  0.00000000000E+00  0.45593999997E+02  0.45594000000E+02  0.51100000000E-03 0.  1.
         11   -1    0    0    0    0 -0.00000000000E+00 -0.00000000000E+00 -0.45593999997E+02  0.45594000000E+02  0.51100000000E-03 0. -1.
         23    2    1    2    0    0 -0.17763568394E-14  0.00000000000E+00  0.00000000000E+00  0.91188000000E+02  0.91188000000E+02 0.  0.
    9900012    2    3    3    0    0  0.50775362480E+01  0.31105157061E+02 -0.19038618859E+02  0.54367066033E+02  0.39999958635E+02 0.  0.
         12    1    3    3    0    0 -0.50775362480E+01 -0.31105157061E+02  0.19038618859E+02  0.36820933967E+02  0.00000000000E+00 0. -1.
         11    1    4    4    0    0 -0.75344268139E+01  0.23883954030E+01 -0.85573535885E+01  0.11649048060E+02  0.51100000000E-03 0. -1.
        -11    1    4    4    0    0 -0.65281542756E+01  0.18622032681E+02 -0.59378117025E+01  0.20607147000E+02  0.51100000000E-03 0.  1.
        -12    1    4    4    0    0  0.19140117337E+02  0.10094728978E+02 -0.45434535682E+01  0.22110870972E+02  0.00000000000E+00 0.  1.
</event>
<event>
 8    1  0.2509217E-006  0.9118800E+02  0.7816164E-02  0.1184000E+00
        -11   -1    0    0    0    0  0.00000000000E+00  0.00000000000E+00  0.45593999997E+02  0.45594000000E+02  0.51100000000E-03 0. -1.
         11   -1    0    0    0    0 -0.00000000000E+00 -0.00000000000E+00 -0.45593999997E+02  0.45594000000E+02  0.51100000000E-03 0.  1.
         23    2    1    2    0    0  0.88817841970E-15 -0.71054273576E-14  0.17763568394E-14  0.91188000000E+02  0.91188000000E+02 0.  0.
    9900012    2    3    3    0    0  0.58413109786E+01 -0.33708915571E+02  0.13614984202E+02  0.54367086136E+02  0.40000004465E+02 0.  0.
         12    1    3    3    0    0 -0.58413109786E+01  0.33708915571E+02 -0.13614984202E+02  0.36820913864E+02  0.00000000000E+00 0. -1.
         11    1    4    4    0    0 -0.38884994170E+01 -0.16048408278E+02  0.19157966323E+02  0.25292281626E+02  0.51100000000E-03 0. -1.
        -11    1    4    4    0    0 -0.10742646788E+00  0.38272861424E+01  0.19315428980E+01  0.42884167113E+01  0.51100000000E-03 0.  1.
        -12    1    4    4    0    0  0.98372368634E+01 -0.21487793436E+02 -0.74745250190E+01  0.24786387799E+02  0.00000000000E+00 0.  1.
</event>
<event>
 8    1  0.2509217E-006  0.9118800E+02  0.7816164E-02  0.1184000E+00
        -11   -1    0    0    0    0  0.00000000000E+00  0.00000000000E+00  0.45593999997E+02  0.45594000000E+02  0.51100000000E-03 0.  1.
         11   -1    0    0    0    0 -0.00000000000E+00 -0.00000000000E+00 -0.45593999997E+02  0.45594000000E+02  0.51100000000E-03 0. -1.
         23    2    1    2    0    0  0.00000000000E+00 -0.88817841970E-15  0.00000000000E+00  0.91188000000E+02  0.91188000000E+02 0.  0.
    9900012    2    3    3    0    0  0.21867366920E+02  0.65987173732E+01 -0.28879968446E+02  0.54367117550E+02  0.40000076078E+02 0.  0.
        -12    1    3    3    0    0 -0.21867366920E+02 -0.65987173732E+01  0.28879968446E+02  0.36820882450E+02  0.00000000000E+00 0.  1.
         11    1    4    4    0    0  0.17693087975E+02  0.15510148887E+02 -0.24502893059E+02  0.33970602719E+02  0.51100000000E-03 0. -1.
        -11    1    4    4    0    0  0.79405598869E+01 -0.54894647123E+01 -0.92364235512E+01  0.13360323141E+02  0.51100000000E-03 0.  1.
        -12    1    4    4    0    0 -0.37662809411E+01 -0.34219668012E+01  0.48593481643E+01  0.70361916900E+01  0.00000000000E+00 0.  1.
</event>
<event>
 8    1  0.2509217E-006  0.9118800E+02  0.7816164E-02  0.1184000E+00
        -11   -1    0    0    0    0  0.00000000000E+00  0.00000000000E+00  0.45593999997E+02  0.45594000000E+02  0.51100000000E-03 0. -1.
         11   -1    0    0    0    0 -0.00000000000E+00 -0.00000000000E+00 -0.45593999997E+02  0.45594000000E+02  0.51100000000E-03 0.  1.
         23    2    1    2    0    0 -0.35527136788E-14  0.00000000000E+00  0.00000000000E+00  0.91188000000E+02  0.91188000000E+02 0.  0.
    9900012    2    3    3    0    0 -0.22285401111E+02 -0.78746291294E+01 -0.28233504761E+02  0.54367086409E+02  0.40000005087E+02 0.  0.
         12    1    3    3    0    0  0.22285401111E+02  0.78746291294E+01  0.28233504761E+02  0.36820913591E+02  0.00000000000E+00 0. -1.
         11    1    4    4    0    0  0.70845554413E+00  0.35017662147E+01 -0.13159983816E+00  0.35751356141E+01  0.51100000000E-03 0. -1.
        -11    1    4    4    0    0 -0.27500810448E+00 -0.43850186169E+00 -0.25430854023E+02  0.25436120968E+02  0.51100000000E-03 0.  1.
        -12    1    4    4    0    0 -0.22718848550E+02 -0.10937893482E+02 -0.26710508998E+01  0.25355829827E+02  0.00000000000E+00 0.  1.
</event>
<event>
 8    1  0.2509217E-006  0.9118800E+02  0.7816164E-02  0.1184000E+00
        -11   -1    0    0    0    0  0.00000000000E+00  0.00000000000E+00  0.45593999997E+02  0.45594000000E+02  0.51100000000E-03 0.  1.
         11   -1    0    0    0    0 -0.00000000000E+00 -0.00000000000E+00 -0.45593999997E+02  0.45594000000E+02  0.51100000000E-03 0. -1.
         23    2    1    2    0    0 -0.35527136788E-14  0.00000000000E+00  0.00000000000E+00  0.91188000000E+02  0.91188000000E+02 0.  0.
    9900012    2    3    3    0    0  0.17655220131E+02  0.22859213932E+02 -0.22837014734E+02  0.54367086086E+02  0.40000004351E+02 0.  0.
         12    1    3    3    0    0 -0.17655220131E+02 -0.22859213932E+02  0.22837014734E+02  0.36820913914E+02  0.00000000000E+00 0. -1.
         11    1    4    4    0    0 -0.35074974726E+01 -0.44451041144E+01  0.45062220685E+00  0.56801892348E+01  0.51100000000E-03 0. -1.
        -11    1    4    4    0    0  0.12845665410E+02  0.69333169131E+00 -0.14655688969E+02  0.19500796088E+02  0.51100000000E-03 0.  1.
        -12    1    4    4    0    0  0.83170521939E+01  0.26610986355E+02 -0.86319479719E+01  0.29186100763E+02  0.00000000000E+00 0.  1.
</event>
<event>
 8    1  0.2509217E-006  0.9118800E+02  0.7816164E-02  0.1184000E+00
        -11   -1    0    0    0    0  0.00000000000E+00  0.00000000000E+00  0.45593999997E+02  0.45594000000E+02  0.51100000000E-03 0. -1.
         11   -1    0    0    0    0 -0.00000000000E+00 -0.00000000000E+00 -0.45593999997E+02  0.45594000000E+02  0.51100000000E-03 0.  1.
         23    2    1    2    0    0  0.00000000000E+00  0.00000000000E+00  0.00000000000E+00  0.91188000000E+02  0.91188000000E+02 0.  0.
    9900012    2    3    3    0    0  0.23585930058E+02 -0.27905476987E+02  0.45572762453E+01  0.54367075116E+02  0.39999979341E+02 0.  0.
         12    1    3    3    0    0 -0.23585930058E+02  0.27905476987E+02 -0.45572762453E+01  0.36820924884E+02  0.00000000000E+00 0. -1.
         11    1    4    4    0    0  0.32910386820E+01 -0.25436617440E+02  0.63737825106E+01  0.26428725776E+02  0.51100000000E-03 0. -1.
        -11    1    4    4    0    0  0.17541294298E+02 -0.95252172443E+01 -0.32667207742E+01  0.20226176952E+02  0.51100000000E-03 0.  1.
         12    1    4    4    0    0  0.27535970774E+01  0.70563576972E+01  0.14502145090E+01  0.77121723877E+01  0.00000000000E+00 0. -1.
</event>
<event>
 8    1  0.2509217E-006  0.9118800E+02  0.7816164E-02  0.1184000E+00
        -11   -1    0    0    0    0  0.00000000000E+00  0.00000000000E+00  0.45593999997E+02  0.45594000000E+02  0.51100000000E-03 0.  1.
         11   -1    0    0    0    0 -0.00000000000E+00 -0.00000000000E+00 -0.45593999997E+02  0.45594000000E+02  0.51100000000E-03 0. -1.
         23    2    1    2    0    0  0.88817841970E-15  0.00000000000E+00 -0.71054273576E-14  0.91188000000E+02  0.91188000000E+02 0.  0.
    9900012    2    3    3    0    0  0.41428708623E+01  0.12033931631E+01  0.36567311619E+02  0.54367084570E+02  0.40000000894E+02 0.  0.
         12    1    3    3    0    0 -0.41428708623E+01 -0.12033931631E+01 -0.36567311619E+02  0.36820915430E+02  0.00000000000E+00 0. -1.
         11    1    4    4    0    0 -0.12414680802E+00  0.12317029406E+02  0.18132096749E+02  0.21920254528E+02  0.51100000000E-03 0. -1.
        -11    1    4    4    0    0 -0.56051421017E+01 -0.17939074925E+01  0.17918974512E+02  0.18860683176E+02  0.51100000000E-03 0.  1.
         12    1    4    4    0    0  0.98721597720E+01 -0.93197287501E+01  0.51624035812E+00  0.13586146865E+02  0.00000000000E+00 0. -1.
</event>
<event>
 8    1  0.2509217E-006  0.9118800E+02  0.7816164E-02  0.1184000E+00
        -11   -1    0    0    0    0  0.00000000000E+00  0.00000000000E+00  0.45593999997E+02  0.45594000000E+02  0.51100000000E-03 0.  1.
         11   -1    0    0    0    0 -0.00000000000E+00 -0.00000000000E+00 -0.45593999997E+02  0.45594000000E+02  0.51100000000E-03 0. -1.
         23    2    1    2    0    0  0.00000000000E+00  0.88817841970E-15  0.00000000000E+00  0.91188000000E+02  0.91188000000E+02 0.  0.
    9900012    2    3    3    0    0 -0.35741648261E+02  0.68406341549E+01  0.56142679657E+01  0.54367086095E+02  0.40000004370E+02 0.  0.
         12    1    3    3    0    0  0.35741648261E+02 -0.68406341549E+01 -0.56142679657E+01  0.36820913905E+02  0.00000000000E+00 0. -1.
         11    1    4    4    0    0 -0.30243354195E+02 -0.17605042577E+00 -0.83423506840E+01  0.31373337118E+02  0.51100000000E-03 0. -1.
        -11    1    4    4    0    0 -0.99825401316E+01  0.75279482002E+01  0.60500840983E+01  0.13889731079E+02  0.51100000000E-03 0.  1.
         12    1    4    4    0    0  0.44842460660E+01 -0.51126361953E+00  0.79065345515E+01  0.91040178978E+01  0.00000000000E+00 0. -1.
</event>
<event>
 8    1  0.2509217E-006  0.9118800E+02  0.7816164E-02  0.1184000E+00
        -11   -1    0    0    0    0  0.00000000000E+00  0.00000000000E+00  0.45593999997E+02  0.45594000000E+02  0.51100000000E-03 0.  1.
         11   -1    0    0    0    0 -0.00000000000E+00 -0.00000000000E+00 -0.45593999997E+02  0.45594000000E+02  0.51100000000E-03 0. -1.
         23    2    1    2    0    0  0.00000000000E+00  0.88817841970E-15  0.00000000000E+00  0.91188000000E+02  0.91188000000E+02 0.  0.
    9900012    2    3    3    0    0  0.34236884913E+02  0.69426155769E+01 -0.11636695535E+02  0.54367124365E+02  0.40000091614E+02 0.  0.
         12    1    3    3    0    0 -0.34236884913E+02 -0.69426155769E+01  0.11636695535E+02  0.36820875635E+02  0.00000000000E+00 0. -1.
         11    1    4    4    0    0 -0.54912681189E+01  0.11038374274E+01 -0.57511786227E+01  0.80279847054E+01  0.51100000000E-03 0. -1.
        -11    1    4    4    0    0  0.99078306195E+01  0.43166998931E+01  0.79636797392E+01  0.13424574511E+02  0.51100000000E-03 0.  1.
         12    1    4    4    0    0  0.29820322412E+02  0.15220782564E+01 -0.13849196652E+02  0.32914565148E+02  0.00000000000E+00 0. -1.
</event>
<event>
 8    1  0.2509217E-006  0.9118800E+02  0.7816164E-02  0.1184000E+00
        -11   -1    0    0    0    0  0.00000000000E+00  0.00000000000E+00  0.45593999997E+02  0.45594000000E+02  0.51100000000E-03 0. -1.
         11   -1    0    0    0    0 -0.00000000000E+00 -0.00000000000E+00 -0.45593999997E+02  0.45594000000E+02  0.51100000000E-03 0.  1.
         23    2    1    2    0    0  0.00000000000E+00  0.35527136788E-14  0.00000000000E+00  0.91188000000E+02  0.91188000000E+02 0.  0.
    9900012    2    3    3    0    0  0.25575200476E+02  0.20544706924E+02  0.16721607037E+02  0.54366973346E+02  0.39999747336E+02 0.  0.
         12    1    3    3    0    0 -0.25575200476E+02 -0.20544706924E+02 -0.16721607037E+02  0.36821026654E+02  0.00000000000E+00 0. -1.
         11    1    4    4    0    0  0.21597372641E+02  0.10115905370E+02  0.16177306254E+01  0.23903872052E+02  0.51100000000E-03 0. -1.
        -11    1    4    4    0    0 -0.57207497502E+00  0.40676659192E+01 -0.63867306036E+01  0.75936489168E+01  0.51100000000E-03 0.  1.
         12    1    4    4    0    0  0.45499028099E+01  0.63611356353E+01  0.21490607015E+02  0.22869452377E+02  0.00000000000E+00 0. -1.
</event>
<event>
 8    1  0.2509217E-006  0.9118800E+02  0.7816164E-02  0.1184000E+00
        -11   -1    0    0    0    0  0.00000000000E+00  0.00000000000E+00  0.45593999997E+02  0.45594000000E+02  0.51100000000E-03 0.  1.
         11   -1    0    0    0    0 -0.00000000000E+00 -0.00000000000E+00 -0.45593999997E+02  0.45594000000E+02  0.51100000000E-03 0. -1.
         23    2    1    2    0    0  0.88817841970E-15 -0.17763568394E-14  0.00000000000E+00  0.91188000000E+02  0.91188000000E+02 0.  0.
    9900012    2    3    3    0    0  0.50846035202E+01 -0.12977106825E+02  0.34081084711E+02  0.54367097925E+02  0.40000031340E+02 0.  0.
         12    1    3    3    0    0 -0.50846035202E+01  0.12977106825E+02 -0.34081084711E+02  0.36820902075E+02  0.00000000000E+00 0. -1.
         11    1    4    4    0    0  0.16722159947E+01  0.85074144183E+01  0.70937352676E+01  0.11202387546E+02  0.51100000000E-03 0. -1.
        -11    1    4    4    0    0  0.84311294698E+01 -0.37417005936E+00 -0.12258780472E+00  0.84403184419E+01  0.51100000000E-03 0.  1.
        -12    1    4    4    0    0 -0.50187419444E+01 -0.21110351184E+02  0.27109937248E+02  0.34724391937E+02  0.00000000000E+00 0.  1.
</event>
<event>
 8    1  0.2509217E-006  0.9118800E+02  0.7816164E-02  0.1184000E+00
        -11   -1    0    0    0    0  0.00000000000E+00  0.00000000000E+00  0.45593999997E+02  0.45594000000E+02  0.51100000000E-03 0.  1.
         11   -1    0    0    0    0 -0.00000000000E+00 -0.00000000000E+00 -0.45593999997E+02  0.45594000000E+02  0.51100000000E-03 0. -1.
         23    2    1    2    0    0  0.00000000000E+00  0.00000000000E+00  0.44408920985E-15  0.91188000000E+02  0.91188000000E+02 0.  0.
    9900012    2    3    3    0    0 -0.31583155738E+02  0.18730358858E+02 -0.27310416446E+01  0.54367073100E+02  0.39999974745E+02 0.  0.
        -12    1    3    3    0    0  0.31583155738E+02 -0.18730358858E+02  0.27310416446E+01  0.36820926900E+02  0.00000000000E+00 0.  1.
         11    1    4    4    0    0 -0.33806914145E+01 -0.37763522143E+01  0.54817238261E+01  0.74658694640E+01  0.51100000000E-03 0. -1.
        -11    1    4    4    0    0 -0.20152401160E+01  0.29262886061E+01  0.91953292874E+01  0.98579124918E+01  0.51100000000E-03 0.  1.
         12    1    4    4    0    0 -0.26187224208E+02  0.19580422466E+02 -0.17408094758E+02  0.37043291144E+02  0.00000000000E+00 0. -1.
</event>
<event>
 8    1  0.2509217E-006  0.9118800E+02  0.7816164E-02  0.1184000E+00
        -11   -1    0    0    0    0  0.00000000000E+00  0.00000000000E+00  0.45593999997E+02  0.45594000000E+02  0.51100000000E-03 0. -1.
         11   -1    0    0    0    0 -0.00000000000E+00 -0.00000000000E+00 -0.45593999997E+02  0.45594000000E+02  0.51100000000E-03 0.  1.
         23    2    1    2    0    0 -0.44408920985E-15  0.22204460493E-15  0.00000000000E+00  0.91188000000E+02  0.91188000000E+02 0.  0.
    9900012    2    3    3    0    0  0.21078652945E+01  0.16144162987E+01 -0.36725097149E+02  0.54367052202E+02  0.39999927105E+02 0.  0.
         12    1    3    3    0    0 -0.21078652945E+01 -0.16144162987E+01  0.36725097149E+02  0.36820947798E+02  0.00000000000E+00 0. -1.
         11    1    4    4    0    0  0.69898826604E+01  0.29107896232E+01 -0.67148829190E+01  0.10120316631E+02  0.51100000000E-03 0. -1.
        -11    1    4    4    0    0 -0.10160354567E+02 -0.13915132664E+02 -0.97370491900E+01  0.19790751607E+02  0.51100000000E-03 0.  1.
        -12    1    4    4    0    0  0.52783372011E+01  0.12618759340E+02 -0.20273165041E+02  0.24455983964E+02  0.00000000000E+00 0.  1.
</event>
<event>
 8    1  0.2509217E-006  0.9118800E+02  0.7816164E-02  0.1184000E+00
        -11   -1    0    0    0    0  0.00000000000E+00  0.00000000000E+00  0.45593999997E+02  0.45594000000E+02  0.51100000000E-03 0.  1.
         11   -1    0    0    0    0 -0.00000000000E+00 -0.00000000000E+00 -0.45593999997E+02  0.45594000000E+02  0.51100000000E-03 0. -1.
         23    2    1    2    0    0  0.00000000000E+00 -0.35527136788E-14  0.00000000000E+00  0.91188000000E+02  0.91188000000E+02 0.  0.
    9900012    2    3    3    0    0  0.16200722069E+02  0.20758764750E+02 -0.25736961504E+02  0.54367069852E+02  0.39999967341E+02 0.  0.
        -12    1    3    3    0    0 -0.16200722069E+02 -0.20758764750E+02  0.25736961504E+02  0.36820930148E+02  0.00000000000E+00 0.  1.
         11    1    4    4    0    0  0.42959591174E+00  0.76963278875E+01 -0.22783804953E+02  0.24052438213E+02  0.51100000000E-03 0. -1.
        -11    1    4    4    0    0  0.21398199422E+01  0.92629466837E+01 -0.10592663311E+02  0.14233254263E+02  0.51100000000E-03 0.  1.
        -12    1    4    4    0    0  0.13631306215E+02  0.37994901790E+01  0.76395067593E+01  0.16081377375E+02  0.00000000000E+00 0.  1.
</event>
<event>
 8    1  0.2509217E-006  0.9118800E+02  0.7816164E-02  0.1184000E+00
        -11   -1    0    0    0    0  0.00000000000E+00  0.00000000000E+00  0.45593999997E+02  0.45594000000E+02  0.51100000000E-03 0.  1.
         11   -1    0    0    0    0 -0.00000000000E+00 -0.00000000000E+00 -0.45593999997E+02  0.45594000000E+02  0.51100000000E-03 0. -1.
         23    2    1    2    0    0 -0.10658141036E-13  0.35527136788E-14 -0.17763568394E-14  0.91188000000E+02  0.91188000000E+02 0.  0.
    9900012    2    3    3    0    0  0.21890123476E+02 -0.27186528454E+02  0.11725803420E+02  0.54367091523E+02  0.40000016746E+02 0.  0.
         12    1    3    3    0    0 -0.21890123476E+02  0.27186528454E+02 -0.11725803420E+02  0.36820908477E+02  0.00000000000E+00 0. -1.
         11    1    4    4    0    0 -0.11616960313E+02 -0.66168840807E+01  0.64595276404E+00  0.13384848788E+02  0.51100000000E-03 0. -1.
        -11    1    4    4    0    0  0.23151885767E+02 -0.13367188400E+02  0.60980423179E+01  0.27420387683E+02  0.51100000000E-03 0.  1.
         12    1    4    4    0    0  0.10355198022E+02 -0.72024559743E+01  0.49818083377E+01  0.13561855052E+02  0.00000000000E+00 0. -1.
</event>
<event>
 8    1  0.2509217E-006  0.9118800E+02  0.7816164E-02  0.1184000E+00
        -11   -1    0    0    0    0  0.00000000000E+00  0.00000000000E+00  0.45593999997E+02  0.45594000000E+02  0.51100000000E-03 0.  1.
         11   -1    0    0    0    0 -0.00000000000E+00 -0.00000000000E+00 -0.45593999997E+02  0.45594000000E+02  0.51100000000E-03 0. -1.
         23    2    1    2    0    0  0.35527136788E-14  0.00000000000E+00  0.00000000000E+00  0.91188000000E+02  0.91188000000E+02 0.  0.
    9900012    2    3    3    0    0  0.30954675197E+02 -0.19635290010E+02  0.34699362971E+01  0.54367122930E+02  0.40000088343E+02 0.  0.
         12    1    3    3    0    0 -0.30954675197E+02  0.19635290010E+02 -0.34699362971E+01  0.36820877070E+02  0.00000000000E+00 0. -1.
         11    1    4    4    0    0  0.19243674899E+01 -0.17593415332E+00  0.13235652326E+02  0.13375972332E+02  0.51100000000E-03 0. -1.
        -11    1    4    4    0    0  0.22619604247E+02 -0.88702192230E+01  0.13777840451E+01  0.24335685207E+02  0.51100000000E-03 0.  1.
         12    1    4    4    0    0  0.64107034595E+01 -0.10589136634E+02 -0.11143500074E+02  0.16655465391E+02  0.00000000000E+00 0. -1.
</event>
<event>
 8    1  0.2509217E-006  0.9118800E+02  0.7816164E-02  0.1184000E+00
        -11   -1    0    0    0    0  0.00000000000E+00  0.00000000000E+00  0.45593999997E+02  0.45594000000E+02  0.51100000000E-03 0. -1.
         11   -1    0    0    0    0 -0.00000000000E+00 -0.00000000000E+00 -0.45593999997E+02  0.45594000000E+02  0.51100000000E-03 0.  1.
         23    2    1    2    0    0  0.44408920985E-15  0.35527136788E-14 -0.35527136788E-14  0.91188000000E+02  0.91188000000E+02 0.  0.
    9900012    2    3    3    0    0 -0.23567016347E+01 -0.22841613348E+02  0.28783471516E+02  0.54367060638E+02  0.39999946337E+02 0.  0.
        -12    1    3    3    0    0  0.23567016347E+01  0.22841613348E+02 -0.28783471516E+02  0.36820939362E+02  0.00000000000E+00 0.  1.
         11    1    4    4    0    0 -0.44016845582E+01 -0.45315288985E+01  0.32230182096E+02  0.32843480621E+02  0.51100000000E-03 0. -1.
        -11    1    4    4    0    0 -0.24676317781E+01 -0.20231607486E+01 -0.33447653413E+01  0.46227525844E+01  0.51100000000E-03 0.  1.
         12    1    4    4    0    0  0.45126147015E+01 -0.16286923701E+02 -0.10194523832E+00  0.16900827433E+02  0.00000000000E+00 0. -1.
</event>
<event>
 8    1  0.2509217E-006  0.9118800E+02  0.7816164E-02  0.1184000E+00
        -11   -1    0    0    0    0  0.00000000000E+00  0.00000000000E+00  0.45593999997E+02  0.45594000000E+02  0.51100000000E-03 0.  1.
         11   -1    0    0    0    0 -0.00000000000E+00 -0.00000000000E+00 -0.45593999997E+02  0.45594000000E+02  0.51100000000E-03 0. -1.
         23    2    1    2    0    0  0.44408920985E-15  0.00000000000E+00  0.00000000000E+00  0.91188000000E+02  0.91188000000E+02 0.  0.
    9900012    2    3    3    0    0  0.18010599680E+01 -0.17646396837E+02  0.32266715583E+02  0.54367081043E+02  0.39999992854E+02 0.  0.
         12    1    3    3    0    0 -0.18010599680E+01  0.17646396837E+02 -0.32266715583E+02  0.36820918957E+02  0.00000000000E+00 0. -1.
         11    1    4    4    0    0  0.12978789084E+02 -0.42684323818E+01  0.10663001539E+01  0.13704213854E+02  0.51100000000E-03 0. -1.
        -11    1    4    4    0    0  0.35864068596E+01 -0.75956669867E+01  0.18603816103E+02  0.20412213133E+02  0.51100000000E-03 0.  1.
        -12    1    4    4    0    0 -0.14764135975E+02 -0.57822974684E+01  0.12596599326E+02  0.20250654056E+02  0.00000000000E+00 0.  1.
</event>
<event>
 8    1  0.2509217E-006  0.9118800E+02  0.7816164E-02  0.1184000E+00
        -11   -1    0    0    0    0  0.00000000000E+00  0.00000000000E+00  0.45593999997E+02  0.45594000000E+02  0.51100000000E-03 0.  1.
         11   -1    0    0    0    0 -0.00000000000E+00 -0.00000000000E+00 -0.45593999997E+02  0.45594000000E+02  0.51100000000E-03 0. -1.
         23    2    1    2    0    0 -0.15543122345E-14  0.00000000000E+00 -0.17763568394E-14  0.91188000000E+02  0.91188000000E+02 0.  0.
    9900012    2    3    3    0    0 -0.12285671970E+01 -0.36321770247E+02 -0.59159995982E+01  0.54367089875E+02  0.40000012987E+02 0.  0.
         12    1    3    3    0    0  0.12285671970E+01  0.36321770247E+02  0.59159995982E+01  0.36820910125E+02  0.00000000000E+00 0. -1.
         11    1    4    4    0    0  0.42432199373E+01 -0.20127822610E+02 -0.12301744660E+02  0.23968042899E+02  0.51100000000E-03 0. -1.
        -11    1    4    4    0    0  0.82538502752E+01 -0.13134508926E+02  0.48491590876E+01  0.16252867846E+02  0.51100000000E-03 0.  1.
        -12    1    4    4    0    0 -0.13725637410E+02 -0.30594387106E+01  0.15365859746E+01  0.14146179130E+02  0.00000000000E+00 0.  1.
</event>
<event>
 8    1  0.2509217E-006  0.9118800E+02  0.7816164E-02  0.1184000E+00
        -11   -1    0    0    0    0  0.00000000000E+00  0.00000000000E+00  0.45593999997E+02  0.45594000000E+02  0.51100000000E-03 0.  1.
         11   -1    0    0    0    0 -0.00000000000E+00 -0.00000000000E+00 -0.45593999997E+02  0.45594000000E+02  0.51100000000E-03 0. -1.
         23    2    1    2    0    0  0.00000000000E+00 -0.35527136788E-14  0.00000000000E+00  0.91188000000E+02  0.91188000000E+02 0.  0.
    9900012    2    3    3    0    0 -0.10597401417E+02  0.20664112502E+02  0.28573942187E+02  0.54367073418E+02  0.39999975470E+02 0.  0.
         12    1    3    3    0    0  0.10597401417E+02 -0.20664112502E+02 -0.28573942187E+02  0.36820926582E+02  0.00000000000E+00 0. -1.
         11    1    4    4    0    0 -0.10133822201E+02  0.76941198395E+01  0.18298754488E+02  0.22287625459E+02  0.51100000000E-03 0. -1.
        -11    1    4    4    0    0 -0.91427090426E+01  0.14863925943E+02  0.14073124745E+02  0.22418257368E+02  0.51100000000E-03 0.  1.
         12    1    4    4    0    0  0.86791298266E+01 -0.18939332805E+01 -0.37979370465E+01  0.96611905905E+01  0.00000000000E+00 0. -1.
</event>
<event>
 8    1  0.2509217E-006  0.9118800E+02  0.7816164E-02  0.1184000E+00
        -11   -1    0    0    0    0  0.00000000000E+00  0.00000000000E+00  0.45593999997E+02  0.45594000000E+02  0.51100000000E-03 0.  1.
         11   -1    0    0    0    0 -0.00000000000E+00 -0.00000000000E+00 -0.45593999997E+02  0.45594000000E+02  0.51100000000E-03 0. -1.
         23    2    1    2    0    0 -0.35527136788E-14  0.38857805862E-15  0.00000000000E+00  0.91188000000E+02  0.91188000000E+02 0.  0.
    9900012    2    3    3    0    0  0.16092238537E+02  0.47664123424E+00  0.33114834391E+02  0.54367087670E+02  0.40000007962E+02 0.  0.
         12    1    3    3    0    0 -0.16092238537E+02 -0.47664123424E+00 -0.33114834391E+02  0.36820912330E+02  0.00000000000E+00 0. -1.
         11    1    4    4    0    0  0.17793522587E+01 -0.40493042713E+01  0.66149432991E+01  0.79574138169E+01  0.51100000000E-03 0. -1.
        -11    1    4    4    0    0  0.19681301482E+02  0.11170124832E+00  0.31985258001E+02  0.37555596585E+02  0.51100000000E-03 0.  1.
         12    1    4    4    0    0 -0.53684152027E+01  0.44142442572E+01 -0.54853669091E+01  0.88540772686E+01  0.00000000000E+00 0. -1.
</event>
<event>
 8    1  0.2509217E-006  0.9118800E+02  0.7816164E-02  0.1184000E+00
        -11   -1    0    0    0    0  0.00000000000E+00  0.00000000000E+00  0.45593999997E+02  0.45594000000E+02  0.51100000000E-03 0. -1.
         11   -1    0    0    0    0 -0.00000000000E+00 -0.00000000000E+00 -0.45593999997E+02  0.45594000000E+02  0.51100000000E-03 0.  1.
         23    2    1    2    0    0  0.00000000000E+00  0.17763568394E-14 -0.35527136788E-14  0.91188000000E+02  0.91188000000E+02 0.  0.
    9900012    2    3    3    0    0  0.12426372507E+02 -0.14374903420E+02 -0.31539317339E+02  0.54367066820E+02  0.39999960430E+02 0.  0.
         12    1    3    3    0    0 -0.12426372507E+02  0.14374903420E+02  0.31539317339E+02  0.36820933180E+02  0.00000000000E+00 0. -1.
         11    1    4    4    0    0 -0.93561713389E+01 -0.12510917223E+01  0.36232212887E+01  0.10110929996E+02  0.51100000000E-03 0. -1.
        -11    1    4    4    0    0  0.15586159196E+02 -0.13554272188E+02 -0.27456110664E+02  0.34358181938E+02  0.51100000000E-03 0.  1.
         12    1    4    4    0    0  0.61963846504E+01  0.43046049002E+00 -0.77064279634E+01  0.98979548859E+01  0.00000000000E+00 0. -1.
</event>
<event>
 8    1  0.2509217E-006  0.9118800E+02  0.7816164E-02  0.1184000E+00
        -11   -1    0    0    0    0  0.00000000000E+00  0.00000000000E+00  0.45593999997E+02  0.45594000000E+02  0.51100000000E-03 0.  1.
         11   -1    0    0    0    0 -0.00000000000E+00 -0.00000000000E+00 -0.45593999997E+02  0.45594000000E+02  0.51100000000E-03 0. -1.
         23    2    1    2    0    0 -0.35527136788E-14 -0.83266726847E-15 -0.35527136788E-14  0.91188000000E+02  0.91188000000E+02 0.  0.
    9900012    2    3    3    0    0  0.27629037277E+02 -0.31409404472E+00  0.24337590882E+02  0.54367072719E+02  0.39999973878E+02 0.  0.
         12    1    3    3    0    0 -0.27629037277E+02  0.31409404472E+00 -0.24337590882E+02  0.36820927281E+02  0.00000000000E+00 0. -1.
         11    1    4    4    0    0 -0.29690463014E+01  0.11121234593E+02  0.15456148579E+01  0.11614044100E+02  0.51100000000E-03 0. -1.
        -11    1    4    4    0    0  0.75649687008E+01 -0.65593001704E+01  0.14841723405E+02  0.17903349521E+02  0.51100000000E-03 0.  1.
        -12    1    4    4    0    0  0.23033114877E+02 -0.48760284673E+01  0.79502526183E+01  0.24849679098E+02  0.00000000000E+00 0.  1.
</event>
<event>
 8    1  0.2509217E-006  0.9118800E+02  0.7816164E-02  0.1184000E+00
        -11   -1    0    0    0    0  0.00000000000E+00  0.00000000000E+00  0.45593999997E+02  0.45594000000E+02  0.51100000000E-03 0. -1.
         11   -1    0    0    0    0 -0.00000000000E+00 -0.00000000000E+00 -0.45593999997E+02  0.45594000000E+02  0.51100000000E-03 0.  1.
         23    2    1    2    0    0  0.00000000000E+00  0.88817841970E-15 -0.35527136788E-14  0.91188000000E+02  0.91188000000E+02 0.  0.
    9900012    2    3    3    0    0 -0.26142366973E+02  0.41797838201E+01 -0.25590765879E+02  0.54367065167E+02  0.39999956661E+02 0.  0.
         12    1    3    3    0    0  0.26142366973E+02 -0.41797838201E+01  0.25590765879E+02  0.36820934833E+02  0.00000000000E+00 0. -1.
         11    1    4    4    0    0 -0.67517023252E+01  0.66946080321E+01  0.82875878239E+01  0.12612984310E+02  0.51100000000E-03 0. -1.
        -11    1    4    4    0    0 -0.18284878997E+02  0.22624404102E+01 -0.31017794395E+02  0.36077125800E+02  0.51100000000E-03 0.  1.
        -12    1    4    4    0    0 -0.11057856505E+01 -0.47772646222E+01 -0.28605593072E+01  0.56769550575E+01  0.00000000000E+00 0.  1.
</event>
<event>
 8    1  0.2509217E-006  0.9118800E+02  0.7816164E-02  0.1184000E+00
        -11   -1    0    0    0    0  0.00000000000E+00  0.00000000000E+00  0.45593999997E+02  0.45594000000E+02  0.51100000000E-03 0. -1.
         11   -1    0    0    0    0 -0.00000000000E+00 -0.00000000000E+00 -0.45593999997E+02  0.45594000000E+02  0.51100000000E-03 0.  1.
         23    2    1    2    0    0 -0.35527136788E-14  0.88817841970E-15  0.00000000000E+00  0.91188000000E+02  0.91188000000E+02 0.  0.
    9900012    2    3    3    0    0 -0.26971272904E+02  0.59012386189E+01 -0.24361981753E+02  0.54367077494E+02  0.39999984763E+02 0.  0.
         12    1    3    3    0    0  0.26971272904E+02 -0.59012386189E+01  0.24361981753E+02  0.36820922506E+02  0.00000000000E+00 0. -1.
         11    1    4    4    0    0  0.45946960325E+01  0.30361808700E+01 -0.20794432077E+01  0.58867402034E+01  0.51100000000E-03 0. -1.
        -11    1    4    4    0    0  0.57597338246E+00  0.96902948308E+01 -0.82938606431E+01  0.12767994513E+02  0.51100000000E-03 0.  1.
         12    1    4    4    0    0 -0.32141942319E+02 -0.68252370819E+01 -0.13988677902E+02  0.35712342778E+02  0.00000000000E+00 0. -1.
</event>
<event>
 8    1  0.2509217E-006  0.9118800E+02  0.7816164E-02  0.1184000E+00
        -11   -1    0    0    0    0  0.00000000000E+00  0.00000000000E+00  0.45593999997E+02  0.45594000000E+02  0.51100000000E-03 0.  1.
         11   -1    0    0    0    0 -0.00000000000E+00 -0.00000000000E+00 -0.45593999997E+02  0.45594000000E+02  0.51100000000E-03 0. -1.
         23    2    1    2    0    0  0.00000000000E+00  0.00000000000E+00  0.15543122345E-14  0.91188000000E+02  0.91188000000E+02 0.  0.
    9900012    2    3    3    0    0 -0.11847140506E+02 -0.34840459199E+02  0.12517940721E+01  0.54367091215E+02  0.40000016044E+02 0.  0.
         12    1    3    3    0    0  0.11847140506E+02  0.34840459199E+02 -0.12517940721E+01  0.36820908785E+02  0.00000000000E+00 0. -1.
         11    1    4    4    0    0 -0.67778121555E+01 -0.26386686750E+02 -0.75826647091E+00  0.27253824384E+02  0.51100000000E-03 0. -1.
        -11    1    4    4    0    0 -0.73341890806E+01 -0.80154491911E+01  0.12390752657E+02  0.16479335754E+02  0.51100000000E-03 0.  1.
         12    1    4    4    0    0  0.22648607302E+01 -0.43832325781E+00 -0.10380692114E+02  0.10633931078E+02  0.00000000000E+00 0. -1.
</event>
<event>
 8    1  0.2509217E-006  0.9118800E+02  0.7816164E-02  0.1184000E+00
        -11   -1    0    0    0    0  0.00000000000E+00  0.00000000000E+00  0.45593999997E+02  0.45594000000E+02  0.51100000000E-03 0. -1.
         11   -1    0    0    0    0 -0.00000000000E+00 -0.00000000000E+00 -0.45593999997E+02  0.45594000000E+02  0.51100000000E-03 0.  1.
         23    2    1    2    0    0  0.88817841970E-15 -0.17763568394E-14  0.00000000000E+00  0.91188000000E+02  0.91188000000E+02 0.  0.
    9900012    2    3    3    0    0  0.49464328828E+01 -0.14426561272E+02 -0.33513982786E+02  0.54367083247E+02  0.39999997877E+02 0.  0.
         12    1    3    3    0    0 -0.49464328828E+01  0.14426561272E+02  0.33513982786E+02  0.36820916753E+02  0.00000000000E+00 0. -1.
         11    1    4    4    0    0 -0.76732037188E+01 -0.20038591156E+02 -0.18461046434E+02  0.28306066956E+02  0.51100000000E-03 0. -1.
        -11    1    4    4    0    0 -0.12540258293E+01 -0.36213721253E+01 -0.59339721355E+01  0.70639183473E+01  0.51100000000E-03 0.  1.
         12    1    4    4    0    0  0.13873662431E+02  0.92334020087E+01 -0.91189642161E+01  0.18997097944E+02  0.00000000000E+00 0. -1.
</event>
<event>
 8    1  0.2509217E-006  0.9118800E+02  0.7816164E-02  0.1184000E+00
        -11   -1    0    0    0    0  0.00000000000E+00  0.00000000000E+00  0.45593999997E+02  0.45594000000E+02  0.51100000000E-03 0.  1.
         11   -1    0    0    0    0 -0.00000000000E+00 -0.00000000000E+00 -0.45593999997E+02  0.45594000000E+02  0.51100000000E-03 0. -1.
         23    2    1    2    0    0  0.00000000000E+00 -0.17763568394E-14  0.00000000000E+00  0.91188000000E+02  0.91188000000E+02 0.  0.
    9900012    2    3    3    0    0 -0.11227814612E+02  0.12231413485E+02  0.32865032118E+02  0.54367059858E+02  0.39999944558E+02 0.  0.
         12    1    3    3    0    0  0.11227814612E+02 -0.12231413485E+02 -0.32865032118E+02  0.36820940142E+02  0.00000000000E+00 0. -1.
         11    1    4    4    0    0  0.63276448287E+01 -0.20331285368E+01  0.53874104411E+00  0.66680539065E+01  0.51100000000E-03 0. -1.
        -11    1    4    4    0    0 -0.11719195489E+02  0.21196872393E+02  0.16006196380E+02  0.29031797481E+02  0.51100000000E-03 0.  1.
         12    1    4    4    0    0 -0.58362639517E+01 -0.69323303705E+01  0.16320094693E+02  0.18667208471E+02  0.00000000000E+00 0. -1.
</event>
<event>
 8    1  0.2509217E-006  0.9118800E+02  0.7816164E-02  0.1184000E+00
        -11   -1    0    0    0    0  0.00000000000E+00  0.00000000000E+00  0.45593999997E+02  0.45594000000E+02  0.51100000000E-03 0.  1.
         11   -1    0    0    0    0 -0.00000000000E+00 -0.00000000000E+00 -0.45593999997E+02  0.45594000000E+02  0.51100000000E-03 0. -1.
         23    2    1    2    0    0 -0.35527136788E-14  0.00000000000E+00 -0.35527136788E-14  0.91188000000E+02  0.91188000000E+02 0.  0.
    9900012    2    3    3    0    0 -0.31378350502E+02 -0.26531795560E+01  0.19082436113E+02  0.54367087328E+02  0.40000007181E+02 0.  0.
         12    1    3    3    0    0  0.31378350502E+02  0.26531795560E+01 -0.19082436113E+02  0.36820912672E+02  0.00000000000E+00 0. -1.
         11    1    4    4    0    0 -0.45232136388E+01 -0.74206148586E+01  0.21535998199E+01  0.89533780747E+01  0.51100000000E-03 0. -1.
        -11    1    4    4    0    0 -0.22304614695E+01 -0.16039550696E+01  0.19642570088E+02  0.19833763893E+02  0.51100000000E-03 0.  1.
        -12    1    4    4    0    0 -0.24624675394E+02  0.63713903723E+01 -0.27137337946E+01  0.25579945360E+02  0.00000000000E+00 0.  1.
</event>
<event>
 8    1  0.2509217E-006  0.9118800E+02  0.7816164E-02  0.1184000E+00
        -11   -1    0    0    0    0  0.00000000000E+00  0.00000000000E+00  0.45593999997E+02  0.45594000000E+02  0.51100000000E-03 0. -1.
         11   -1    0    0    0    0 -0.00000000000E+00 -0.00000000000E+00 -0.45593999997E+02  0.45594000000E+02  0.51100000000E-03 0.  1.
         23    2    1    2    0    0  0.00000000000E+00  0.00000000000E+00  0.00000000000E+00  0.91188000000E+02  0.91188000000E+02 0.  0.
    9900012    2    3    3    0    0 -0.13535609260E+02  0.23837855442E+02  0.24582979699E+02  0.54367096140E+02  0.40000027271E+02 0.  0.
        -12    1    3    3    0    0  0.13535609260E+02 -0.23837855442E+02 -0.24582979699E+02  0.36820903860E+02  0.00000000000E+00 0.  1.
         11    1    4    4    0    0 -0.13176638067E+02  0.19112237284E+02  0.12619381326E+02  0.26422531863E+02  0.51100000000E-03 0. -1.
        -11    1    4    4    0    0 -0.77818179578E+01  0.11924662314E+02  0.10049801730E+02  0.17428504729E+02  0.51100000000E-03 0.  1.
        -12    1    4    4    0    0  0.74228467644E+01 -0.71990441553E+01  0.19137966443E+01  0.10516059549E+02  0.00000000000E+00 0.  1.
</event>
<event>
 8    1  0.2509217E-006  0.9118800E+02  0.7816164E-02  0.1184000E+00
        -11   -1    0    0    0    0  0.00000000000E+00  0.00000000000E+00  0.45593999997E+02  0.45594000000E+02  0.51100000000E-03 0.  1.
         11   -1    0    0    0    0 -0.00000000000E+00 -0.00000000000E+00 -0.45593999997E+02  0.45594000000E+02  0.51100000000E-03 0. -1.
         23    2    1    2    0    0 -0.17763568394E-14 -0.17763568394E-14  0.35527136788E-14  0.91188000000E+02  0.91188000000E+02 0.  0.
    9900012    2    3    3    0    0  0.14879429469E+02  0.14365477679E+02 -0.30463229838E+02  0.54367180584E+02  0.40000219777E+02 0.  0.
        -12    1    3    3    0    0 -0.14879429469E+02 -0.14365477679E+02  0.30463229838E+02  0.36820819416E+02  0.00000000000E+00 0.  1.
         11    1    4    4    0    0 -0.17302244118E+01 -0.64969412170E+00  0.38862095826E+01  0.43033015404E+01  0.51100000000E-03 0. -1.
        -11    1    4    4    0    0  0.52902993306E+01 -0.44855340846E+01  0.20623327153E+01  0.72360555223E+01  0.51100000000E-03 0.  1.
         12    1    4    4    0    0  0.11319354550E+02  0.19500705885E+02 -0.36411772136E+02  0.42827823521E+02  0.00000000000E+00 0. -1.
</event>
<event>
 8    1  0.2509217E-006  0.9118800E+02  0.7816164E-02  0.1184000E+00
        -11   -1    0    0    0    0  0.00000000000E+00  0.00000000000E+00  0.45593999997E+02  0.45594000000E+02  0.51100000000E-03 0.  1.
         11   -1    0    0    0    0 -0.00000000000E+00 -0.00000000000E+00 -0.45593999997E+02  0.45594000000E+02  0.51100000000E-03 0. -1.
         23    2    1    2    0    0  0.00000000000E+00  0.00000000000E+00 -0.17763568394E-14  0.91188000000E+02  0.91188000000E+02 0.  0.
    9900012    2    3    3    0    0  0.31162582361E+02 -0.16674231496E+02  0.10326834527E+02  0.54367081397E+02  0.39999993662E+02 0.  0.
         12    1    3    3    0    0 -0.31162582361E+02  0.16674231496E+02 -0.10326834527E+02  0.36820918603E+02  0.00000000000E+00 0. -1.
         11    1    4    4    0    0  0.87069529274E+01 -0.14772859304E+00 -0.10413998666E+02  0.13575132467E+02  0.51100000000E-03 0. -1.
        -11    1    4    4    0    0  0.20856727399E+02 -0.25131353324E+01  0.12964641884E+02  0.24686045986E+02  0.51100000000E-03 0.  1.
        -12    1    4    4    0    0  0.15989020349E+01 -0.14013367571E+02  0.77761913093E+01  0.16105902945E+02  0.00000000000E+00 0.  1.
</event>
<event>
 8    1  0.2509217E-006  0.9118800E+02  0.7816164E-02  0.1184000E+00
        -11   -1    0    0    0    0  0.00000000000E+00  0.00000000000E+00  0.45593999997E+02  0.45594000000E+02  0.51100000000E-03 0. -1.
         11   -1    0    0    0    0 -0.00000000000E+00 -0.00000000000E+00 -0.45593999997E+02  0.45594000000E+02  0.51100000000E-03 0.  1.
         23    2    1    2    0    0  0.14210854715E-13 -0.17763568394E-14  0.22204460493E-15  0.91188000000E+02  0.91188000000E+02 0.  0.
    9900012    2    3    3    0    0 -0.34082689074E+02  0.13791438985E+02  0.19870490555E+01  0.54367056942E+02  0.39999937910E+02 0.  0.
         12    1    3    3    0    0  0.34082689074E+02 -0.13791438985E+02 -0.19870490555E+01  0.36820943058E+02  0.00000000000E+00 0. -1.
         11    1    4    4    0    0  0.23019309040E+01 -0.61600275791E-01 -0.35972798207E+01  0.42711945461E+01  0.51100000000E-03 0. -1.
        -11    1    4    4    0    0 -0.92162383381E+00  0.75639913959E+01 -0.85073072318E+01  0.11420929600E+02  0.51100000000E-03 0.  1.
         12    1    4    4    0    0 -0.35462996144E+02  0.62890478651E+01  0.14091636108E+02  0.38674932796E+02  0.00000000000E+00 0. -1.
</event>
<event>
 8    1  0.2509217E-006  0.9118800E+02  0.7816164E-02  0.1184000E+00
        -11   -1    0    0    0    0  0.00000000000E+00  0.00000000000E+00  0.45593999997E+02  0.45594000000E+02  0.51100000000E-03 0. -1.
         11   -1    0    0    0    0 -0.00000000000E+00 -0.00000000000E+00 -0.45593999997E+02  0.45594000000E+02  0.51100000000E-03 0.  1.
         23    2    1    2    0    0  0.00000000000E+00  0.00000000000E+00 -0.71054273576E-14  0.91188000000E+02  0.91188000000E+02 0.  0.
    9900012    2    3    3    0    0 -0.29205741370E+01  0.22983608151E+01 -0.36632870745E+02  0.54367089708E+02  0.40000012608E+02 0.  0.
         12    1    3    3    0    0  0.29205741370E+01 -0.22983608151E+01  0.36632870745E+02  0.36820910292E+02  0.00000000000E+00 0. -1.
         11    1    4    4    0    0  0.91661184869E+01  0.15079590555E+01 -0.32340794081E+02  0.33648456587E+02  0.51100000000E-03 0. -1.
        -11    1    4    4    0    0 -0.95219894903E+01  0.21587602854E+01 -0.10208945353E+02  0.14126255530E+02  0.51100000000E-03 0.  1.
         12    1    4    4    0    0 -0.25647031336E+01 -0.13683585258E+01  0.59168686894E+01  0.65923775913E+01  0.00000000000E+00 0. -1.
</event>
<event>
 8    1  0.2509217E-006  0.9118800E+02  0.7816164E-02  0.1184000E+00
        -11   -1    0    0    0    0  0.00000000000E+00  0.00000000000E+00  0.45593999997E+02  0.45594000000E+02  0.51100000000E-03 0. -1.
         11   -1    0    0    0    0 -0.00000000000E+00 -0.00000000000E+00 -0.45593999997E+02  0.45594000000E+02  0.51100000000E-03 0.  1.
         23    2    1    2    0    0  0.44408920985E-15  0.00000000000E+00  0.00000000000E+00  0.91188000000E+02  0.91188000000E+02 0.  0.
    9900012    2    3    3    0    0  0.59743800215E+00 -0.10550644610E+02 -0.35271906101E+02  0.54367076684E+02  0.39999982916E+02 0.  0.
         12    1    3    3    0    0 -0.59743800215E+00  0.10550644610E+02  0.35271906101E+02  0.36820923316E+02  0.00000000000E+00 0. -1.
         11    1    4    4    0    0 -0.62129742068E+01  0.36762539223E+01 -0.11185059702E+02  0.13312454777E+02  0.51100000000E-03 0. -1.
        -11    1    4    4    0    0 -0.49451491106E+01 -0.13082245867E+01 -0.22991450995E+02  0.23553614805E+02  0.51100000000E-03 0.  1.
        -12    1    4    4    0    0  0.11755561320E+02 -0.12918673946E+02 -0.10953954040E+01  0.17501007101E+02  0.00000000000E+00 0.  1.
</event>
<event>
 8    1  0.2509217E-006  0.9118800E+02  0.7816164E-02  0.1184000E+00
        -11   -1    0    0    0    0  0.00000000000E+00  0.00000000000E+00  0.45593999997E+02  0.45594000000E+02  0.51100000000E-03 0. -1.
         11   -1    0    0    0    0 -0.00000000000E+00 -0.00000000000E+00 -0.45593999997E+02  0.45594000000E+02  0.51100000000E-03 0.  1.
         23    2    1    2    0    0 -0.71054273576E-14  0.00000000000E+00  0.00000000000E+00  0.91188000000E+02  0.91188000000E+02 0.  0.
    9900012    2    3    3    0    0 -0.32009155495E+02  0.89639961187E+01  0.15837929535E+02  0.54367091892E+02  0.40000017587E+02 0.  0.
        -12    1    3    3    0    0  0.32009155495E+02 -0.89639961187E+01 -0.15837929535E+02  0.36820908108E+02  0.00000000000E+00 0.  1.
         11    1    4    4    0    0 -0.74886271294E+01  0.16109028500E+02  0.21528373532E+01  0.17894553485E+02  0.51100000000E-03 0. -1.
        -11    1    4    4    0    0 -0.52724791530E+01 -0.12564555280E+02  0.36876048235E+01  0.14116143787E+02  0.51100000000E-03 0.  1.
        -12    1    4    4    0    0 -0.19248049213E+02  0.54195228993E+01  0.99974873580E+01  0.22356394621E+02  0.00000000000E+00 0.  1.
</event>
<event>
 8    1  0.2509217E-006  0.9118800E+02  0.7816164E-02  0.1184000E+00
        -11   -1    0    0    0    0  0.00000000000E+00  0.00000000000E+00  0.45593999997E+02  0.45594000000E+02  0.51100000000E-03 0.  1.
         11   -1    0    0    0    0 -0.00000000000E+00 -0.00000000000E+00 -0.45593999997E+02  0.45594000000E+02  0.51100000000E-03 0. -1.
         23    2    1    2    0    0  0.35527136788E-14  0.00000000000E+00  0.88817841970E-15  0.91188000000E+02  0.91188000000E+02 0.  0.
    9900012    2    3    3    0    0 -0.28439928757E+02  0.22924246008E+02  0.46293808746E+01  0.54367057996E+02  0.39999940314E+02 0.  0.
        -12    1    3    3    0    0  0.28439928757E+02 -0.22924246008E+02 -0.46293808746E+01  0.36820942004E+02  0.00000000000E+00 0.  1.
         11    1    4    4    0    0  0.17916045274E+01  0.28312690006E+01  0.35745560862E+01  0.48993246892E+01  0.51100000000E-03 0.  1.
        -11    1    4    4    0    0 -0.18992657487E+02  0.58812781958E+01  0.16361516337E+02  0.25748974518E+02  0.51100000000E-03 0. -1.
         12    1    4    4    0    0 -0.11238875798E+02  0.14211698812E+02 -0.15306691549E+02  0.23718758789E+02  0.00000000000E+00 0. -1.
</event>
<event>
 8    1  0.2509217E-006  0.9118800E+02  0.7816164E-02  0.1184000E+00
        -11   -1    0    0    0    0  0.00000000000E+00  0.00000000000E+00  0.45593999997E+02  0.45594000000E+02  0.51100000000E-03 0. -1.
         11   -1    0    0    0    0 -0.00000000000E+00 -0.00000000000E+00 -0.45593999997E+02  0.45594000000E+02  0.51100000000E-03 0.  1.
         23    2    1    2    0    0  0.00000000000E+00 -0.35527136788E-14  0.17763568394E-14  0.91188000000E+02  0.91188000000E+02 0.  0.
    9900012    2    3    3    0    0  0.26045237095E+02 -0.24593899809E+02 -0.85184969777E+01  0.54367094608E+02  0.40000023778E+02 0.  0.
        -12    1    3    3    0    0 -0.26045237095E+02  0.24593899809E+02  0.85184969777E+01  0.36820905392E+02  0.00000000000E+00 0.  1.
         11    1    4    4    0    0  0.10903802899E+01 -0.21062617938E+02  0.20231852866E+01  0.21187639853E+02  0.51100000000E-03 0. -1.
        -11    1    4    4    0    0  0.67102731888E+01  0.75576345224E+01 -0.36157197739E+01  0.10734013023E+02  0.51100000000E-03 0.  1.
        -12    1    4    4    0    0  0.18244583616E+02 -0.11088916393E+02 -0.69259624905E+01  0.22445441731E+02  0.00000000000E+00 0.  1.
</event>
<event>
 8    1  0.2509217E-006  0.9118800E+02  0.7816164E-02  0.1184000E+00
        -11   -1    0    0    0    0  0.00000000000E+00  0.00000000000E+00  0.45593999997E+02  0.45594000000E+02  0.51100000000E-03 0.  1.
         11   -1    0    0    0    0 -0.00000000000E+00 -0.00000000000E+00 -0.45593999997E+02  0.45594000000E+02  0.51100000000E-03 0. -1.
         23    2    1    2    0    0  0.44408920985E-15  0.00000000000E+00  0.35527136788E-14  0.91188000000E+02  0.91188000000E+02 0.  0.
    9900012    2    3    3    0    0  0.26311862118E+01 -0.24216374201E+02 -0.27612020829E+02  0.54367087266E+02  0.40000007041E+02 0.  0.
        -12    1    3    3    0    0 -0.26311862118E+01  0.24216374201E+02  0.27612020829E+02  0.36820912734E+02  0.00000000000E+00 0.  1.
         11    1    4    4    0    0  0.94275525387E+01 -0.13569136000E+01  0.23028255428E+01  0.97991309375E+01  0.51100000000E-03 0. -1.
        -11    1    4    4    0    0  0.11139195122E+01 -0.33343808172E+01 -0.21657333876E+02  0.21940807255E+02  0.51100000000E-03 0.  1.
         12    1    4    4    0    0 -0.79102858391E+01 -0.19525079783E+02 -0.82575124949E+01  0.22627149074E+02  0.00000000000E+00 0. -1.
</event>
<event>
 8    1  0.2509217E-006  0.9118800E+02  0.7816164E-02  0.1184000E+00
        -11   -1    0    0    0    0  0.00000000000E+00  0.00000000000E+00  0.45593999997E+02  0.45594000000E+02  0.51100000000E-03 0.  1.
         11   -1    0    0    0    0 -0.00000000000E+00 -0.00000000000E+00 -0.45593999997E+02  0.45594000000E+02  0.51100000000E-03 0. -1.
         23    2    1    2    0    0  0.00000000000E+00 -0.17763568394E-14  0.00000000000E+00  0.91188000000E+02  0.91188000000E+02 0.  0.
    9900012    2    3    3    0    0  0.21610076953E+02  0.15131126844E+02 -0.25687254770E+02  0.54367061893E+02  0.39999949197E+02 0.  0.
        -12    1    3    3    0    0 -0.21610076953E+02 -0.15131126844E+02  0.25687254770E+02  0.36820938107E+02  0.00000000000E+00 0.  1.
         11    1    4    4    0    0  0.11918829658E+01 -0.36385221527E+01 -0.30804326143E+01  0.49141117012E+01  0.51100000000E-03 0. -1.
        -11    1    4    4    0    0  0.12986581313E+02 -0.14136832491E+01  0.54042265040E+01  0.14137024400E+02  0.51100000000E-03 0.  1.
        -12    1    4    4    0    0  0.74316126742E+01  0.20183332246E+02 -0.28011048660E+02  0.35315925791E+02  0.00000000000E+00 0.  1.
</event>
<event>
 8    1  0.2509217E-006  0.9118800E+02  0.7816164E-02  0.1184000E+00
        -11   -1    0    0    0    0  0.00000000000E+00  0.00000000000E+00  0.45593999997E+02  0.45594000000E+02  0.51100000000E-03 0. -1.
         11   -1    0    0    0    0 -0.00000000000E+00 -0.00000000000E+00 -0.45593999997E+02  0.45594000000E+02  0.51100000000E-03 0.  1.
         23    2    1    2    0    0  0.71054273576E-14  0.88817841970E-15 -0.17763568394E-14  0.91188000000E+02  0.91188000000E+02 0.  0.
    9900012    2    3    3    0    0 -0.34260828675E+02 -0.23420583385E+01 -0.13284976316E+02  0.54367079120E+02  0.39999988469E+02 0.  0.
         12    1    3    3    0    0  0.34260828675E+02  0.23420583385E+01  0.13284976316E+02  0.36820920880E+02  0.00000000000E+00 0. -1.
         11    1    4    4    0    0 -0.36050336540E+00 -0.92926355836E+01  0.47200686098E+00  0.93115965067E+01  0.51100000000E-03 0. -1.
        -11    1    4    4    0    0 -0.16665038029E+02 -0.91637775561E+01 -0.87515461682E+01  0.20935325940E+02  0.51100000000E-03 0.  1.
         12    1    4    4    0    0 -0.17235287281E+02  0.16114354801E+02 -0.50054370085E+01  0.24120156674E+02  0.00000000000E+00 0. -1.
</event>
<event>
 8    1  0.2509217E-006  0.9118800E+02  0.7816164E-02  0.1184000E+00
        -11   -1    0    0    0    0  0.00000000000E+00  0.00000000000E+00  0.45593999997E+02  0.45594000000E+02  0.51100000000E-03 0.  1.
         11   -1    0    0    0    0 -0.00000000000E+00 -0.00000000000E+00 -0.45593999997E+02  0.45594000000E+02  0.51100000000E-03 0. -1.
         23    2    1    2    0    0  0.00000000000E+00  0.71054273576E-14 -0.17763568394E-14  0.91188000000E+02  0.91188000000E+02 0.  0.
    9900012    2    3    3    0    0  0.76799556195E+01  0.33009662238E+02 -0.14393040726E+02  0.54367093700E+02  0.40000021708E+02 0.  0.
        -12    1    3    3    0    0 -0.76799556195E+01 -0.33009662238E+02  0.14393040726E+02  0.36820906300E+02  0.00000000000E+00 0.  1.
         11    1    4    4    0    0  0.12342060288E+02  0.65175830364E+01  0.11579405138E+01  0.14005219287E+02  0.51100000000E-03 0.  1.
        -11    1    4    4    0    0  0.10367817249E+02  0.10621640637E+02 -0.29543955461E+01  0.15134045647E+02  0.51100000000E-03 0. -1.
         12    1    4    4    0    0 -0.15029921918E+02  0.15870438565E+02 -0.12596585693E+02  0.25227828766E+02  0.00000000000E+00 0. -1.
</event>
<event>
 8    1  0.2509217E-006  0.9118800E+02  0.7816164E-02  0.1184000E+00
        -11   -1    0    0    0    0  0.00000000000E+00  0.00000000000E+00  0.45593999997E+02  0.45594000000E+02  0.51100000000E-03 0.  1.
         11   -1    0    0    0    0 -0.00000000000E+00 -0.00000000000E+00 -0.45593999997E+02  0.45594000000E+02  0.51100000000E-03 0. -1.
         23    2    1    2    0    0  0.00000000000E+00  0.00000000000E+00 -0.88817841970E-15  0.91188000000E+02  0.91188000000E+02 0.  0.
    9900012    2    3    3    0    0  0.24912505844E+02  0.26579550680E+02 -0.53552884923E+01  0.54367019885E+02  0.39999853433E+02 0.  0.
         12    1    3    3    0    0 -0.24912505844E+02 -0.26579550680E+02  0.53552884923E+01  0.36820980115E+02  0.00000000000E+00 0. -1.
         11    1    4    4    0    0  0.49112184034E+01  0.29305298026E+02  0.20349379959E+01  0.29783578218E+02  0.51100000000E-03 0. -1.
        -11    1    4    4    0    0  0.12819211368E+02  0.12246193876E+01 -0.96370249566E+01  0.16084281862E+02  0.51100000000E-03 0.  1.
         12    1    4    4    0    0  0.71820760717E+01 -0.39503667332E+01  0.22467984684E+01  0.84991598046E+01  0.00000000000E+00 0. -1.
</event>
<event>
 8    1  0.2509217E-006  0.9118800E+02  0.7816164E-02  0.1184000E+00
        -11   -1    0    0    0    0  0.00000000000E+00  0.00000000000E+00  0.45593999997E+02  0.45594000000E+02  0.51100000000E-03 0. -1.
         11   -1    0    0    0    0 -0.00000000000E+00 -0.00000000000E+00 -0.45593999997E+02  0.45594000000E+02  0.51100000000E-03 0.  1.
         23    2    1    2    0    0  0.44408920985E-15 -0.35527136788E-14  0.35527136788E-14  0.91188000000E+02  0.91188000000E+02 0.  0.
    9900012    2    3    3    0    0  0.19765275294E+01 -0.19722387211E+02  0.31030638025E+02  0.54367085908E+02  0.40000003944E+02 0.  0.
        -12    1    3    3    0    0 -0.19765275294E+01  0.19722387211E+02 -0.31030638025E+02  0.36820914092E+02  0.00000000000E+00 0.  1.
         11    1    4    4    0    0 -0.12711845077E+01  0.34909999853E+01  0.34338098988E+01  0.50590554091E+01  0.51100000000E-03 0. -1.
        -11    1    4    4    0    0 -0.26944644695E+01 -0.49770968435E+01 -0.74501152477E+01  0.93560594928E+01  0.51100000000E-03 0.  1.
         12    1    4    4    0    0  0.59421765066E+01 -0.18236290352E+02  0.35046943374E+02  0.39951971006E+02  0.00000000000E+00 0. -1.
</event>
<event>
 8    1  0.2509217E-006  0.9118800E+02  0.7816164E-02  0.1184000E+00
        -11   -1    0    0    0    0  0.00000000000E+00  0.00000000000E+00  0.45593999997E+02  0.45594000000E+02  0.51100000000E-03 0.  1.
         11   -1    0    0    0    0 -0.00000000000E+00 -0.00000000000E+00 -0.45593999997E+02  0.45594000000E+02  0.51100000000E-03 0. -1.
         23    2    1    2    0    0  0.00000000000E+00  0.35527136788E-14 -0.17763568394E-14  0.91188000000E+02  0.91188000000E+02 0.  0.
    9900012    2    3    3    0    0 -0.23009260390E+02 -0.25835845375E+02  0.12603958997E+02  0.54367126133E+02  0.40000095646E+02 0.  0.
        -12    1    3    3    0    0  0.23009260390E+02  0.25835845375E+02 -0.12603958997E+02  0.36820873867E+02  0.00000000000E+00 0.  1.
         11    1    4    4    0    0 -0.19287972324E+02 -0.16762922913E+02  0.31004148409E+01  0.25741678916E+02  0.51100000000E-03 0. -1.
        -11    1    4    4    0    0 -0.24858547902E+01 -0.99029234274E+01  0.17624966922E+02  0.20368770844E+02  0.51100000000E-03 0.  1.
        -12    1    4    4    0    0 -0.12354332755E+01  0.83000096543E+00 -0.81214227662E+01  0.82566763730E+01  0.00000000000E+00 0.  1.
</event>
<event>
 8    1  0.2509217E-006  0.9118800E+02  0.7816164E-02  0.1184000E+00
        -11   -1    0    0    0    0  0.00000000000E+00  0.00000000000E+00  0.45593999997E+02  0.45594000000E+02  0.51100000000E-03 0.  1.
         11   -1    0    0    0    0 -0.00000000000E+00 -0.00000000000E+00 -0.45593999997E+02  0.45594000000E+02  0.51100000000E-03 0. -1.
         23    2    1    2    0    0 -0.35527136788E-14  0.00000000000E+00  0.35527136788E-14  0.91188000000E+02  0.91188000000E+02 0.  0.
    9900012    2    3    3    0    0 -0.28312136389E+02  0.21649774350E+02 -0.92460687515E+01  0.54367087685E+02  0.40000007996E+02 0.  0.
        -12    1    3    3    0    0  0.28312136389E+02 -0.21649774350E+02  0.92460687515E+01  0.36820912315E+02  0.00000000000E+00 0.  1.
         11    1    4    4    0    0 -0.19042079549E+02  0.87345841678E+01 -0.18728383831E+02  0.28100642614E+02  0.51100000000E-03 0. -1.
        -11    1    4    4    0    0 -0.65589207026E+01  0.21791617189E+01  0.12936606143E+02  0.14667104872E+02  0.51100000000E-03 0.  1.
        -12    1    4    4    0    0 -0.27111361380E+01  0.10736028463E+02 -0.34542910636E+01  0.11599340200E+02  0.00000000000E+00 0.  1.
</event>
<event>
 8    1  0.2509217E-006  0.9118800E+02  0.7816164E-02  0.1184000E+00
        -11   -1    0    0    0    0  0.00000000000E+00  0.00000000000E+00  0.45593999997E+02  0.45594000000E+02  0.51100000000E-03 0. -1.
         11   -1    0    0    0    0 -0.00000000000E+00 -0.00000000000E+00 -0.45593999997E+02  0.45594000000E+02  0.51100000000E-03 0.  1.
         23    2    1    2    0    0  0.00000000000E+00 -0.44408920985E-15  0.00000000000E+00  0.91188000000E+02  0.91188000000E+02 0.  0.
    9900012    2    3    3    0    0  0.35865020671E+02 -0.10768341479E+01 -0.82656173009E+01  0.54367085985E+02  0.40000004120E+02 0.  0.
         12    1    3    3    0    0 -0.35865020671E+02  0.10768341479E+01  0.82656173009E+01  0.36820914015E+02  0.00000000000E+00 0. -1.
         11    1    4    4    0    0  0.22538996614E+02 -0.17590129559E+02 -0.21348148383E+01  0.28670131861E+02  0.51100000000E-03 0. -1.
        -11    1    4    4    0    0  0.48470891599E+01  0.77290839478E+00 -0.60852847950E+01  0.78180785368E+01  0.51100000000E-03 0.  1.
         12    1    4    4    0    0  0.84789348974E+01  0.15740387016E+02 -0.45517667571E-01  0.17878875587E+02  0.00000000000E+00 0. -1.
</event>
<event>
 8    1  0.2509217E-006  0.9118800E+02  0.7816164E-02  0.1184000E+00
        -11   -1    0    0    0    0  0.00000000000E+00  0.00000000000E+00  0.45593999997E+02  0.45594000000E+02  0.51100000000E-03 0. -1.
         11   -1    0    0    0    0 -0.00000000000E+00 -0.00000000000E+00 -0.45593999997E+02  0.45594000000E+02  0.51100000000E-03 0.  1.
         23    2    1    2    0    0  0.00000000000E+00 -0.26645352591E-14  0.00000000000E+00  0.91188000000E+02  0.91188000000E+02 0.  0.
    9900012    2    3    3    0    0 -0.32356771284E+02  0.54650206832E+01  0.16701853454E+02  0.54367095506E+02  0.40000025824E+02 0.  0.
        -12    1    3    3    0    0  0.32356771284E+02 -0.54650206832E+01 -0.16701853454E+02  0.36820904494E+02  0.00000000000E+00 0.  1.
         11    1    4    4    0    0 -0.17137621366E+02  0.22446941681E+02  0.92210724691E+01  0.29708440462E+02  0.51100000000E-03 0. -1.
        -11    1    4    4    0    0 -0.14306741345E+02 -0.12790251539E+02  0.64653810811E+01  0.20250297162E+02  0.51100000000E-03 0.  1.
         12    1    4    4    0    0 -0.91240857309E+00 -0.41916694586E+01  0.10153999037E+01  0.44083578824E+01  0.00000000000E+00 0. -1.
</event>
<event>
 8    1  0.2509217E-006  0.9118800E+02  0.7816164E-02  0.1184000E+00
        -11   -1    0    0    0    0  0.00000000000E+00  0.00000000000E+00  0.45593999997E+02  0.45594000000E+02  0.51100000000E-03 0.  1.
         11   -1    0    0    0    0 -0.00000000000E+00 -0.00000000000E+00 -0.45593999997E+02  0.45594000000E+02  0.51100000000E-03 0. -1.
         23    2    1    2    0    0 -0.71054273576E-14  0.35527136788E-14 -0.35527136788E-14  0.91188000000E+02  0.91188000000E+02 0.  0.
    9900012    2    3    3    0    0  0.30723298527E+02 -0.12854475844E+02  0.15704203489E+02  0.54367073493E+02  0.39999975642E+02 0.  0.
         12    1    3    3    0    0 -0.30723298527E+02  0.12854475844E+02 -0.15704203489E+02  0.36820926507E+02  0.00000000000E+00 0. -1.
         11    1    4    4    0    0  0.15832967582E+02 -0.15450618501E+01  0.44969147577E+01  0.16531555316E+02  0.51100000000E-03 0. -1.
        -11    1    4    4    0    0  0.17227236397E+02 -0.18064175055E+02  0.15609915717E+02  0.29440814582E+02  0.51100000000E-03 0.  1.
         12    1    4    4    0    0 -0.23369054510E+01  0.67547610612E+01 -0.44026269858E+01  0.83947035955E+01  0.00000000000E+00 0. -1.
</event>
<event>
 8    1  0.2509217E-006  0.9118800E+02  0.7816164E-02  0.1184000E+00
        -11   -1    0    0    0    0  0.00000000000E+00  0.00000000000E+00  0.45593999997E+02  0.45594000000E+02  0.51100000000E-03 0.  1.
         11   -1    0    0    0    0 -0.00000000000E+00 -0.00000000000E+00 -0.45593999997E+02  0.45594000000E+02  0.51100000000E-03 0. -1.
         23    2    1    2    0    0 -0.35527136788E-14  0.17763568394E-14  0.00000000000E+00  0.91188000000E+02  0.91188000000E+02 0.  0.
    9900012    2    3    3    0    0 -0.20301144598E+02  0.66004020786E+01 -0.30001331052E+02  0.54367059702E+02  0.39999944202E+02 0.  0.
        -12    1    3    3    0    0  0.20301144598E+02 -0.66004020786E+01  0.30001331052E+02  0.36820940298E+02  0.00000000000E+00 0.  1.
         11    1    4    4    0    0 -0.37435805554E+01  0.91575058976E+01 -0.15775290602E+02  0.18620797606E+02  0.51100000000E-03 0. -1.
        -11    1    4    4    0    0  0.49701403191E+01 -0.56974965633E+01  0.28598171508E+01  0.80834594251E+01  0.51100000000E-03 0.  1.
        -12    1    4    4    0    0 -0.21527704361E+02  0.31403927442E+01 -0.17085857600E+02  0.27662802671E+02  0.00000000000E+00 0.  1.
</event>
<event>
 8    1  0.2509217E-006  0.9118800E+02  0.7816164E-02  0.1184000E+00
        -11   -1    0    0    0    0  0.00000000000E+00  0.00000000000E+00  0.45593999997E+02  0.45594000000E+02  0.51100000000E-03 0.  1.
         11   -1    0    0    0    0 -0.00000000000E+00 -0.00000000000E+00 -0.45593999997E+02  0.45594000000E+02  0.51100000000E-03 0. -1.
         23    2    1    2    0    0  0.00000000000E+00  0.00000000000E+00  0.00000000000E+00  0.91188000000E+02  0.91188000000E+02 0.  0.
    9900012    2    3    3    0    0 -0.23041239295E+02 -0.17057827696E+02  0.23106520301E+02  0.54367089169E+02  0.40000011380E+02 0.  0.
         12    1    3    3    0    0  0.23041239295E+02  0.17057827696E+02 -0.23106520301E+02  0.36820910831E+02  0.00000000000E+00 0. -1.
         11    1    4    4    0    0 -0.11825189804E+02  0.61640358372E+01  0.39893953116E-01  0.13335368143E+02  0.51100000000E-03 0. -1.
        -11    1    4    4    0    0 -0.64390060724E+01 -0.24375284216E+02  0.10089678336E+02  0.27155420987E+02  0.51100000000E-03 0.  1.
        -12    1    4    4    0    0 -0.47770434181E+01  0.11534206822E+01  0.12976948012E+02  0.13876300040E+02  0.00000000000E+00 0.  1.
</event>
<event>
 8    1  0.2509217E-006  0.9118800E+02  0.7816164E-02  0.1184000E+00
        -11   -1    0    0    0    0  0.00000000000E+00  0.00000000000E+00  0.45593999997E+02  0.45594000000E+02  0.51100000000E-03 0.  1.
         11   -1    0    0    0    0 -0.00000000000E+00 -0.00000000000E+00 -0.45593999997E+02  0.45594000000E+02  0.51100000000E-03 0. -1.
         23    2    1    2    0    0  0.13322676296E-14 -0.88817841970E-15  0.00000000000E+00  0.91188000000E+02  0.91188000000E+02 0.  0.
    9900012    2    3    3    0    0 -0.93080995823E+00 -0.74469599749E+01  0.36047953836E+02  0.54367101100E+02  0.40000038577E+02 0.  0.
         12    1    3    3    0    0  0.93080995823E+00  0.74469599749E+01 -0.36047953836E+02  0.36820898900E+02  0.00000000000E+00 0. -1.
         11    1    4    4    0    0 -0.76451474007E+01 -0.10051395703E+02  0.29520659903E+01  0.12968944761E+02  0.51100000000E-03 0. -1.
        -11    1    4    4    0    0  0.10277304814E+02  0.11321721990E+01  0.26024228933E+01  0.10661961044E+02  0.51100000000E-03 0.  1.
        -12    1    4    4    0    0 -0.35629673712E+01  0.14722635288E+01  0.30493464953E+02  0.30736195295E+02  0.00000000000E+00 0.  1.
</event>
<event>
 8    1  0.2509217E-006  0.9118800E+02  0.7816164E-02  0.1184000E+00
        -11   -1    0    0    0    0  0.00000000000E+00  0.00000000000E+00  0.45593999997E+02  0.45594000000E+02  0.51100000000E-03 0.  1.
         11   -1    0    0    0    0 -0.00000000000E+00 -0.00000000000E+00 -0.45593999997E+02  0.45594000000E+02  0.51100000000E-03 0. -1.
         23    2    1    2    0    0  0.00000000000E+00  0.00000000000E+00  0.00000000000E+00  0.91188000000E+02  0.91188000000E+02 0.  0.
    9900012    2    3    3    0    0  0.13063457911E+02 -0.18269166280E+02 -0.29178143154E+02  0.54367076504E+02  0.39999982506E+02 0.  0.
        -12    1    3    3    0    0 -0.13063457911E+02  0.18269166280E+02  0.29178143154E+02  0.36820923496E+02  0.00000000000E+00 0.  1.
         11    1    4    4    0    0 -0.39033860453E+01 -0.13599100164E+02 -0.25444931963E+02  0.29113854276E+02  0.51100000000E-03 0. -1.
        -11    1    4    4    0    0  0.47050422710E+00 -0.17460552322E+00  0.57024716277E+01  0.57245125768E+01  0.51100000000E-03 0.  1.
        -12    1    4    4    0    0  0.16496339729E+02 -0.44954605922E+01 -0.94356828186E+01  0.19528709651E+02  0.00000000000E+00 0.  1.
</event>
<event>
 8    1  0.2509217E-006  0.9118800E+02  0.7816164E-02  0.1184000E+00
        -11   -1    0    0    0    0  0.00000000000E+00  0.00000000000E+00  0.45593999997E+02  0.45594000000E+02  0.51100000000E-03 0. -1.
         11   -1    0    0    0    0 -0.00000000000E+00 -0.00000000000E+00 -0.45593999997E+02  0.45594000000E+02  0.51100000000E-03 0.  1.
         23    2    1    2    0    0  0.00000000000E+00  0.00000000000E+00 -0.35527136788E-14  0.91188000000E+02  0.91188000000E+02 0.  0.
    9900012    2    3    3    0    0 -0.19251605285E+02 -0.94605771313E+01  0.29927407716E+02  0.54367128767E+02  0.40000101651E+02 0.  0.
        -12    1    3    3    0    0  0.19251605285E+02  0.94605771313E+01 -0.29927407716E+02  0.36820871233E+02  0.00000000000E+00 0.  1.
         11    1    4    4    0    0  0.11236134120E+02 -0.21494067561E+01  0.56090271879E+01  0.12740951519E+02  0.51100000000E-03 0. -1.
        -11    1    4    4    0    0 -0.22294376565E+02 -0.76309574936E+00  0.11607616047E+02  0.25146735217E+02  0.51100000000E-03 0.  1.
         12    1    4    4    0    0 -0.81933628400E+01 -0.65480746258E+01  0.12710764482E+02  0.16479442031E+02  0.00000000000E+00 0. -1.
</event>
<event>
 8    1  0.2509217E-006  0.9118800E+02  0.7816164E-02  0.1184000E+00
        -11   -1    0    0    0    0  0.00000000000E+00  0.00000000000E+00  0.45593999997E+02  0.45594000000E+02  0.51100000000E-03 0.  1.
         11   -1    0    0    0    0 -0.00000000000E+00 -0.00000000000E+00 -0.45593999997E+02  0.45594000000E+02  0.51100000000E-03 0. -1.
         23    2    1    2    0    0 -0.71054273576E-14  0.00000000000E+00  0.17763568394E-14  0.91188000000E+02  0.91188000000E+02 0.  0.
    9900012    2    3    3    0    0  0.23429181711E+02  0.26464427632E+02  0.10319360545E+02  0.54367059116E+02  0.39999942866E+02 0.  0.
         12    1    3    3    0    0 -0.23429181711E+02 -0.26464427632E+02 -0.10319360545E+02  0.36820940884E+02  0.00000000000E+00 0. -1.
         11    1    4    4    0    0  0.62409937031E+01  0.18614609994E+02 -0.97718344005E+01  0.21930400257E+02  0.51100000000E-03 0. -1.
        -11    1    4    4    0    0  0.12977049286E+02 -0.33143545663E+01  0.89254299184E+01  0.16095094093E+02  0.51100000000E-03 0.  1.
         12    1    4    4    0    0  0.42111387219E+01  0.11164172205E+02  0.11165765028E+02  0.16341564766E+02  0.00000000000E+00 0. -1.
</event>
<event>
 8    1  0.2509217E-006  0.9118800E+02  0.7816164E-02  0.1184000E+00
        -11   -1    0    0    0    0  0.00000000000E+00  0.00000000000E+00  0.45593999997E+02  0.45594000000E+02  0.51100000000E-03 0.  1.
         11   -1    0    0    0    0 -0.00000000000E+00 -0.00000000000E+00 -0.45593999997E+02  0.45594000000E+02  0.51100000000E-03 0. -1.
         23    2    1    2    0    0 -0.13322676296E-14  0.17763568394E-14  0.00000000000E+00  0.91188000000E+02  0.91188000000E+02 0.  0.
    9900012    2    3    3    0    0  0.25581811701E+01 -0.12226317166E+02  0.34637426363E+02  0.54367103386E+02  0.40000043790E+02 0.  0.
         12    1    3    3    0    0 -0.25581811701E+01  0.12226317166E+02 -0.34637426363E+02  0.36820896614E+02  0.00000000000E+00 0. -1.
         11    1    4    4    0    0 -0.15685174691E+01 -0.11775545439E+02  0.15388556777E+02  0.19440457746E+02  0.51100000000E-03 0. -1.
        -11    1    4    4    0    0 -0.64516694556E+01 -0.18968593072E+01  0.22724335383E+02  0.23698471108E+02  0.51100000000E-03 0.  1.
         12    1    4    4    0    0  0.10578368095E+02  0.14460875802E+01 -0.34754657958E+01  0.11228174533E+02  0.00000000000E+00 0. -1.
</event>
<event>
 8    1  0.2509217E-006  0.9118800E+02  0.7816164E-02  0.1184000E+00
        -11   -1    0    0    0    0  0.00000000000E+00  0.00000000000E+00  0.45593999997E+02  0.45594000000E+02  0.51100000000E-03 0. -1.
         11   -1    0    0    0    0 -0.00000000000E+00 -0.00000000000E+00 -0.45593999997E+02  0.45594000000E+02  0.51100000000E-03 0.  1.
         23    2    1    2    0    0  0.44408920985E-15  0.00000000000E+00  0.88817841970E-15  0.91188000000E+02  0.91188000000E+02 0.  0.
    9900012    2    3    3    0    0  0.26768178480E+01 -0.36343689889E+02 -0.52679336847E+01  0.54367078313E+02  0.39999986631E+02 0.  0.
         12    1    3    3    0    0 -0.26768178480E+01  0.36343689889E+02  0.52679336847E+01  0.36820921687E+02  0.00000000000E+00 0. -1.
         11    1    4    4    0    0 -0.17830978950E+01 -0.13193956126E+01 -0.57029942621E-01  0.22188951217E+01  0.51100000000E-03 0. -1.
        -11    1    4    4    0    0 -0.82499709200E+01  0.37860564286E+01  0.45582564699E+01  0.10157457643E+02  0.51100000000E-03 0.  1.
        -12    1    4    4    0    0  0.12709886663E+02 -0.38810350705E+02 -0.97691602120E+01  0.41990725549E+02  0.00000000000E+00 0.  1.
</event>
<event>
 8    1  0.2509217E-006  0.9118800E+02  0.7816164E-02  0.1184000E+00
        -11   -1    0    0    0    0  0.00000000000E+00  0.00000000000E+00  0.45593999997E+02  0.45594000000E+02  0.51100000000E-03 0. -1.
         11   -1    0    0    0    0 -0.00000000000E+00 -0.00000000000E+00 -0.45593999997E+02  0.45594000000E+02  0.51100000000E-03 0.  1.
         23    2    1    2    0    0 -0.35527136788E-14  0.00000000000E+00  0.00000000000E+00  0.91188000000E+02  0.91188000000E+02 0.  0.
    9900012    2    3    3    0    0  0.25430212344E+02  0.97539810355E+01  0.24777901767E+02  0.54367078476E+02  0.39999987002E+02 0.  0.
        -12    1    3    3    0    0 -0.25430212344E+02 -0.97539810355E+01 -0.24777901767E+02  0.36820921524E+02  0.00000000000E+00 0.  1.
         11    1    4    4    0    0  0.74785874028E+01 -0.97228248979E+01  0.93693277324E+01  0.15435248490E+02  0.51100000000E-03 0. -1.
        -11    1    4    4    0    0  0.25023876746E+01  0.37121518766E+00  0.14101617290E+02  0.14326735680E+02  0.51100000000E-03 0.  1.
        -12    1    4    4    0    0  0.15449237266E+02  0.19105590746E+02  0.13069567439E+01  0.24605094306E+02  0.00000000000E+00 0.  1.
</event>
<event>
 8    1  0.2509217E-006  0.9118800E+02  0.7816164E-02  0.1184000E+00
        -11   -1    0    0    0    0  0.00000000000E+00  0.00000000000E+00  0.45593999997E+02  0.45594000000E+02  0.51100000000E-03 0.  1.
         11   -1    0    0    0    0 -0.00000000000E+00 -0.00000000000E+00 -0.45593999997E+02  0.45594000000E+02  0.51100000000E-03 0. -1.
         23    2    1    2    0    0  0.00000000000E+00  0.00000000000E+00  0.00000000000E+00  0.91188000000E+02  0.91188000000E+02 0.  0.
    9900012    2    3    3    0    0 -0.42948324709E+01 -0.20803349591E+02 -0.30075825843E+02  0.54367078769E+02  0.39999987669E+02 0.  0.
        -12    1    3    3    0    0  0.42948324709E+01  0.20803349591E+02  0.30075825843E+02  0.36820921231E+02  0.00000000000E+00 0.  1.
         11    1    4    4    0    0  0.16875399568E+00 -0.21315275283E+02 -0.68844792876E+01  0.22400122625E+02  0.51100000000E-03 0. -1.
        -11    1    4    4    0    0 -0.20968494399E+01  0.96445866281E+01 -0.41310198671E+01  0.10699539906E+02  0.51100000000E-03 0.  1.
         12    1    4    4    0    0 -0.23667370267E+01 -0.91326609361E+01 -0.19060326689E+02  0.21267416237E+02  0.00000000000E+00 0. -1.
</event>
<event>
 8    1  0.2509217E-006  0.9118800E+02  0.7816164E-02  0.1184000E+00
        -11   -1    0    0    0    0  0.00000000000E+00  0.00000000000E+00  0.45593999997E+02  0.45594000000E+02  0.51100000000E-03 0. -1.
         11   -1    0    0    0    0 -0.00000000000E+00 -0.00000000000E+00 -0.45593999997E+02  0.45594000000E+02  0.51100000000E-03 0.  1.
         23    2    1    2    0    0  0.00000000000E+00  0.00000000000E+00  0.00000000000E+00  0.91188000000E+02  0.91188000000E+02 0.  0.
    9900012    2    3    3    0    0  0.72677378386E+01 -0.24265139884E+02  0.26723949793E+02  0.54366993503E+02  0.39999793289E+02 0.  0.
        -12    1    3    3    0    0 -0.72677378386E+01  0.24265139884E+02 -0.26723949793E+02  0.36821006497E+02  0.00000000000E+00 0.  1.
         11    1    4    4    0    0  0.88495111583E+01 -0.38019202786E+01  0.65521476519E+01  0.11648995006E+02  0.51100000000E-03 0. -1.
        -11    1    4    4    0    0 -0.77497247247E+01  0.55649251111E+01  0.10713791983E+02  0.14346148045E+02  0.51100000000E-03 0.  1.
         12    1    4    4    0    0  0.61679514050E+01 -0.26028144716E+02  0.94580101582E+01  0.28371850452E+02  0.00000000000E+00 0. -1.
</event>
<event>
 8    1  0.2509217E-006  0.9118800E+02  0.7816164E-02  0.1184000E+00
        -11   -1    0    0    0    0  0.00000000000E+00  0.00000000000E+00  0.45593999997E+02  0.45594000000E+02  0.51100000000E-03 0.  1.
         11   -1    0    0    0    0 -0.00000000000E+00 -0.00000000000E+00 -0.45593999997E+02  0.45594000000E+02  0.51100000000E-03 0. -1.
         23    2    1    2    0    0  0.17763568394E-14 -0.35527136788E-14 -0.35527136788E-14  0.91188000000E+02  0.91188000000E+02 0.  0.
    9900012    2    3    3    0    0  0.12046250555E+02  0.16754710421E+02 -0.30495048777E+02  0.54367075600E+02  0.39999980446E+02 0.  0.
        -12    1    3    3    0    0 -0.12046250555E+02 -0.16754710421E+02  0.30495048777E+02  0.36820924400E+02  0.00000000000E+00 0.  1.
         11    1    4    4    0    0 -0.26590045281E+01  0.76743621577E+01  0.74161725897E+00  0.81557425185E+01  0.51100000000E-03 0. -1.
        -11    1    4    4    0    0  0.31716698526E+01 -0.51661269502E+01  0.34531244925E+01  0.69765626451E+01  0.51100000000E-03 0.  1.
         12    1    4    4    0    0  0.11533585231E+02  0.14246475214E+02 -0.34689790529E+02  0.39234770437E+02  0.00000000000E+00 0. -1.
</event>
<event>
 8    1  0.2509217E-006  0.9118800E+02  0.7816164E-02  0.1184000E+00
        -11   -1    0    0    0    0  0.00000000000E+00  0.00000000000E+00  0.45593999997E+02  0.45594000000E+02  0.51100000000E-03 0.  1.
         11   -1    0    0    0    0 -0.00000000000E+00 -0.00000000000E+00 -0.45593999997E+02  0.45594000000E+02  0.51100000000E-03 0. -1.
         23    2    1    2    0    0 -0.17763568394E-14  0.35527136788E-14 -0.35527136788E-14  0.91188000000E+02  0.91188000000E+02 0.  0.
    9900012    2    3    3    0    0 -0.13134770483E+02  0.13094724466E+02 -0.31808516361E+02  0.54367140184E+02  0.40000127678E+02 0.  0.
        -12    1    3    3    0    0  0.13134770483E+02 -0.13094724466E+02  0.31808516361E+02  0.36820859816E+02  0.00000000000E+00 0.  1.
         11    1    4    4    0    0 -0.91675520217E+01  0.46026361416E+01 -0.85188373647E+01  0.13334123887E+02  0.51100000000E-03 0. -1.
        -11    1    4    4    0    0 -0.15779329488E+02  0.33389185244E+01 -0.21452162348E+01  0.16270758094E+02  0.51100000000E-03 0.  1.
        -12    1    4    4    0    0  0.11812111026E+02  0.51531697999E+01 -0.21144462761E+02  0.24762258204E+02  0.00000000000E+00 0.  1.
</event>
<event>
 8    1  0.2509217E-006  0.9118800E+02  0.7816164E-02  0.1184000E+00
        -11   -1    0    0    0    0  0.00000000000E+00  0.00000000000E+00  0.45593999997E+02  0.45594000000E+02  0.51100000000E-03 0.  1.
         11   -1    0    0    0    0 -0.00000000000E+00 -0.00000000000E+00 -0.45593999997E+02  0.45594000000E+02  0.51100000000E-03 0. -1.
         23    2    1    2    0    0 -0.66613381478E-15  0.35527136788E-14  0.00000000000E+00  0.91188000000E+02  0.91188000000E+02 0.  0.
    9900012    2    3    3    0    0 -0.15492529954E+01 -0.24492251031E+02  0.27450129793E+02  0.54367079710E+02  0.39999989814E+02 0.  0.
         12    1    3    3    0    0  0.15492529954E+01  0.24492251031E+02 -0.27450129793E+02  0.36820920290E+02  0.00000000000E+00 0. -1.
         11    1    4    4    0    0 -0.41266426889E+01 -0.81699346694E+00  0.85803895919E+01  0.95561364586E+01  0.51100000000E-03 0.  1.
        -11    1    4    4    0    0 -0.48864944802E+01 -0.15235222567E+01  0.20738650245E+02  0.21360958841E+02  0.51100000000E-03 0. -1.
         12    1    4    4    0    0  0.74638841737E+01 -0.22151735307E+02 -0.18689100441E+01  0.23449984410E+02  0.00000000000E+00 0. -1.
</event>
<event>
 8    1  0.2509217E-006  0.9118800E+02  0.7816164E-02  0.1184000E+00
        -11   -1    0    0    0    0  0.00000000000E+00  0.00000000000E+00  0.45593999997E+02  0.45594000000E+02  0.51100000000E-03 0.  1.
         11   -1    0    0    0    0 -0.00000000000E+00 -0.00000000000E+00 -0.45593999997E+02  0.45594000000E+02  0.51100000000E-03 0. -1.
         23    2    1    2    0    0 -0.13322676296E-14  0.88817841970E-15  0.00000000000E+00  0.91188000000E+02  0.91188000000E+02 0.  0.
    9900012    2    3    3    0    0  0.39011710692E+01  0.50941273451E+01 -0.36257547151E+02  0.54367095686E+02  0.40000026235E+02 0.  0.
        -12    1    3    3    0    0 -0.39011710692E+01 -0.50941273451E+01  0.36257547151E+02  0.36820904314E+02  0.00000000000E+00 0.  1.
         11    1    4    4    0    0  0.78746519016E-01 -0.80391080347E+00 -0.87581001857E+00  0.11914348677E+01  0.51100000000E-03 0. -1.
        -11    1    4    4    0    0 -0.14792549800E+02 -0.75325873061E+01 -0.17086108735E+02  0.23822143335E+02  0.51100000000E-03 0.  1.
         12    1    4    4    0    0  0.18614974350E+02  0.13430625455E+02 -0.18295628398E+02  0.29353517483E+02  0.00000000000E+00 0. -1.
</event>
<event>
 8    1  0.2509217E-006  0.9118800E+02  0.7816164E-02  0.1184000E+00
        -11   -1    0    0    0    0  0.00000000000E+00  0.00000000000E+00  0.45593999997E+02  0.45594000000E+02  0.51100000000E-03 0. -1.
         11   -1    0    0    0    0 -0.00000000000E+00 -0.00000000000E+00 -0.45593999997E+02  0.45594000000E+02  0.51100000000E-03 0.  1.
         23    2    1    2    0    0 -0.35527136788E-14 -0.35527136788E-14 -0.88817841970E-15  0.91188000000E+02  0.91188000000E+02 0.  0.
    9900012    2    3    3    0    0 -0.31166133387E+02  0.19382370593E+02  0.29623638098E+01  0.54367085298E+02  0.40000002555E+02 0.  0.
        -12    1    3    3    0    0  0.31166133387E+02 -0.19382370593E+02 -0.29623638098E+01  0.36820914702E+02  0.00000000000E+00 0.  1.
         11    1    4    4    0    0 -0.10509664730E+02 -0.51875924693E-01 -0.40518554345E+01  0.11263803823E+02  0.51100000000E-03 0. -1.
        -11    1    4    4    0    0  0.44188908037E+01  0.87480566649E+01 -0.73893065389E+01  0.12274238988E+02  0.51100000000E-03 0.  1.
         12    1    4    4    0    0 -0.25075359461E+02  0.10686189853E+02  0.14403525783E+02  0.30829042487E+02  0.00000000000E+00 0. -1.
</event>
<event>
 8    1  0.2509217E-006  0.9118800E+02  0.7816164E-02  0.1184000E+00
        -11   -1    0    0    0    0  0.00000000000E+00  0.00000000000E+00  0.45593999997E+02  0.45594000000E+02  0.51100000000E-03 0. -1.
         11   -1    0    0    0    0 -0.00000000000E+00 -0.00000000000E+00 -0.45593999997E+02  0.45594000000E+02  0.51100000000E-03 0.  1.
         23    2    1    2    0    0  0.00000000000E+00 -0.35527136788E-14  0.00000000000E+00  0.91188000000E+02  0.91188000000E+02 0.  0.
    9900012    2    3    3    0    0 -0.12942627110E+02 -0.18434300649E+02  0.29128073706E+02  0.54367085905E+02  0.40000003938E+02 0.  0.
        -12    1    3    3    0    0  0.12942627110E+02  0.18434300649E+02 -0.29128073706E+02  0.36820914095E+02  0.00000000000E+00 0.  1.
         11    1    4    4    0    0 -0.15219237280E+02 -0.64303784383E+01  0.15573579190E+02  0.22704874351E+02  0.51100000000E-03 0. -1.
        -11    1    4    4    0    0 -0.60464894889E+01  0.40900681280E+01 -0.22292474591E+01  0.76327083611E+01  0.51100000000E-03 0.  1.
        -12    1    4    4    0    0  0.83230996588E+01 -0.16093990339E+02  0.15783741975E+02  0.24029503193E+02  0.00000000000E+00 0.  1.
</event>
<event>
 8    1  0.2509217E-006  0.9118800E+02  0.7816164E-02  0.1184000E+00
        -11   -1    0    0    0    0  0.00000000000E+00  0.00000000000E+00  0.45593999997E+02  0.45594000000E+02  0.51100000000E-03 0.  1.
         11   -1    0    0    0    0 -0.00000000000E+00 -0.00000000000E+00 -0.45593999997E+02  0.45594000000E+02  0.51100000000E-03 0. -1.
         23    2    1    2    0    0 -0.17763568394E-14  0.00000000000E+00  0.17763568394E-14  0.91188000000E+02  0.91188000000E+02 0.  0.
    9900012    2    3    3    0    0 -0.12168007328E+02 -0.33377540845E+02  0.96777535094E+01  0.54367088167E+02  0.40000009095E+02 0.  0.
         12    1    3    3    0    0  0.12168007328E+02  0.33377540845E+02 -0.96777535094E+01  0.36820911833E+02  0.00000000000E+00 0. -1.
         11    1    4    4    0    0  0.39353473599E+01 -0.18551604137E+02  0.69252085727E+01  0.20189291442E+02  0.51100000000E-03 0. -1.
        -11    1    4    4    0    0  0.14776244698E+01 -0.13365792810E+02  0.81560154897E+01  0.15727313198E+02  0.51100000000E-03 0.  1.
        -12    1    4    4    0    0 -0.17580979158E+02 -0.14601438980E+01 -0.54034705530E+01  0.18450483527E+02  0.00000000000E+00 0.  1.
</event>
<event>
 8    1  0.2509217E-006  0.9118800E+02  0.7816164E-02  0.1184000E+00
        -11   -1    0    0    0    0  0.00000000000E+00  0.00000000000E+00  0.45593999997E+02  0.45594000000E+02  0.51100000000E-03 0. -1.
         11   -1    0    0    0    0 -0.00000000000E+00 -0.00000000000E+00 -0.45593999997E+02  0.45594000000E+02  0.51100000000E-03 0.  1.
         23    2    1    2    0    0  0.00000000000E+00 -0.88817841970E-15  0.35527136788E-14  0.91188000000E+02  0.91188000000E+02 0.  0.
    9900012    2    3    3    0    0  0.23275971768E+02  0.74859045696E+01  0.27531251345E+02  0.54367089778E+02  0.40000012766E+02 0.  0.
        -12    1    3    3    0    0 -0.23275971768E+02 -0.74859045696E+01 -0.27531251345E+02  0.36820910222E+02  0.00000000000E+00 0.  1.
         11    1    4    4    0    0  0.12319434557E+02 -0.13132884088E+01  0.26792651289E+02  0.29518457914E+02  0.51100000000E-03 0. -1.
        -11    1    4    4    0    0  0.13538188080E+02 -0.19833165905E+01 -0.50387007539E+00  0.13691967226E+02  0.51100000000E-03 0.  1.
         12    1    4    4    0    0 -0.25816508693E+01  0.10782509569E+02  0.12424701311E+01  0.11156664638E+02  0.00000000000E+00 0. -1.
</event>
<event>
 8    1  0.2509217E-006  0.9118800E+02  0.7816164E-02  0.1184000E+00
        -11   -1    0    0    0    0  0.00000000000E+00  0.00000000000E+00  0.45593999997E+02  0.45594000000E+02  0.51100000000E-03 0. -1.
         11   -1    0    0    0    0 -0.00000000000E+00 -0.00000000000E+00 -0.45593999997E+02  0.45594000000E+02  0.51100000000E-03 0.  1.
         23    2    1    2    0    0  0.71054273576E-14 -0.35527136788E-14  0.00000000000E+00  0.91188000000E+02  0.91188000000E+02 0.  0.
    9900012    2    3    3    0    0  0.29079953135E+02 -0.21773919864E+02  0.60026300607E+01  0.54367097944E+02  0.40000031383E+02 0.  0.
         12    1    3    3    0    0 -0.29079953135E+02  0.21773919864E+02 -0.60026300607E+01  0.36820902056E+02  0.00000000000E+00 0. -1.
         11    1    4    4    0    0  0.37462707020E+02 -0.99301969469E+01  0.68698873682E+01  0.39360622218E+02  0.51100000000E-03 0. -1.
        -11    1    4    4    0    0 -0.74268059236E-01 -0.98762869957E+00 -0.89638948748E+00  0.13358295427E+01  0.51100000000E-03 0.  1.
         12    1    4    4    0    0 -0.83084858262E+01 -0.10856094217E+02  0.29132180029E-01  0.13670646183E+02  0.00000000000E+00 0. -1.
</event>
<event>
 8    1  0.2509217E-006  0.9118800E+02  0.7816164E-02  0.1184000E+00
        -11   -1    0    0    0    0  0.00000000000E+00  0.00000000000E+00  0.45593999997E+02  0.45594000000E+02  0.51100000000E-03 0.  1.
         11   -1    0    0    0    0 -0.00000000000E+00 -0.00000000000E+00 -0.45593999997E+02  0.45594000000E+02  0.51100000000E-03 0. -1.
         23    2    1    2    0    0 -0.17763568394E-14  0.00000000000E+00  0.88817841970E-15  0.91188000000E+02  0.91188000000E+02 0.  0.
    9900012    2    3    3    0    0  0.14326304208E+02  0.33589771343E+02  0.47184259889E+01  0.54367091878E+02  0.40000017554E+02 0.  0.
        -12    1    3    3    0    0 -0.14326304208E+02 -0.33589771343E+02 -0.47184259889E+01  0.36820908122E+02  0.00000000000E+00 0.  1.
         11    1    4    4    0    0  0.12850353236E+02 -0.16274741506E+01  0.11660777320E+02  0.17428539192E+02  0.51100000000E-03 0. -1.
        -11    1    4    4    0    0 -0.33842267744E+00  0.13366984907E+02  0.14760376830E+01  0.13452490584E+02  0.51100000000E-03 0.  1.
         12    1    4    4    0    0  0.18143736496E+01  0.21850260586E+02 -0.84183890141E+01  0.23486062101E+02  0.00000000000E+00 0. -1.
</event>
<event>
 8    1  0.2509217E-006  0.9118800E+02  0.7816164E-02  0.1184000E+00
        -11   -1    0    0    0    0  0.00000000000E+00  0.00000000000E+00  0.45593999997E+02  0.45594000000E+02  0.51100000000E-03 0.  1.
         11   -1    0    0    0    0 -0.00000000000E+00 -0.00000000000E+00 -0.45593999997E+02  0.45594000000E+02  0.51100000000E-03 0. -1.
         23    2    1    2    0    0  0.71054273576E-14  0.00000000000E+00 -0.17763568394E-14  0.91188000000E+02  0.91188000000E+02 0.  0.
    9900012    2    3    3    0    0 -0.33166318802E+02 -0.20253359107E+01 -0.15864242321E+02  0.54367070179E+02  0.39999968088E+02 0.  0.
        -12    1    3    3    0    0  0.33166318802E+02  0.20253359107E+01  0.15864242321E+02  0.36820929821E+02  0.00000000000E+00 0.  1.
         11    1    4    4    0    0  0.15779645714E+01 -0.22453679601E+01 -0.47137969070E+01  0.54544964026E+01  0.51100000000E-03 0. -1.
        -11    1    4    4    0    0  0.59780271697E+01 -0.70812082652E+00  0.16033847848E+01  0.62296939713E+01  0.51100000000E-03 0.  1.
         12    1    4    4    0    0 -0.40722310543E+02  0.92815287595E+00 -0.12753830198E+02  0.42682879805E+02  0.00000000000E+00 0. -1.
</event>
<event>
 8    1  0.2509217E-006  0.9118800E+02  0.7816164E-02  0.1184000E+00
        -11   -1    0    0    0    0  0.00000000000E+00  0.00000000000E+00  0.45593999997E+02  0.45594000000E+02  0.51100000000E-03 0.  1.
         11   -1    0    0    0    0 -0.00000000000E+00 -0.00000000000E+00 -0.45593999997E+02  0.45594000000E+02  0.51100000000E-03 0. -1.
         23    2    1    2    0    0  0.00000000000E+00  0.00000000000E+00  0.00000000000E+00  0.91188000000E+02  0.91188000000E+02 0.  0.
    9900012    2    3    3    0    0 -0.68730879313E+01  0.29201953699E+02  0.21349075967E+02  0.54367129801E+02  0.40000104007E+02 0.  0.
         12    1    3    3    0    0  0.68730879313E+01 -0.29201953699E+02 -0.21349075967E+02  0.36820870199E+02  0.00000000000E+00 0. -1.
         11    1    4    4    0    0 -0.66162159839E+01  0.26788279606E+02 -0.95431155667E+00  0.27609725624E+02  0.51100000000E-03 0.  1.
        -11    1    4    4    0    0 -0.46649921672E+01  0.56504078966E+01  0.19010570494E+02  0.20373783451E+02  0.51100000000E-03 0. -1.
         12    1    4    4    0    0  0.44081202198E+01 -0.32367338035E+01  0.32928170300E+01  0.63836207265E+01  0.00000000000E+00 0. -1.
</event>
<event>
 8    1  0.2509217E-006  0.9118800E+02  0.7816164E-02  0.1184000E+00
        -11   -1    0    0    0    0  0.00000000000E+00  0.00000000000E+00  0.45593999997E+02  0.45594000000E+02  0.51100000000E-03 0.  1.
         11   -1    0    0    0    0 -0.00000000000E+00 -0.00000000000E+00 -0.45593999997E+02  0.45594000000E+02  0.51100000000E-03 0. -1.
         23    2    1    2    0    0  0.00000000000E+00  0.00000000000E+00  0.35527136788E-14  0.91188000000E+02  0.91188000000E+02 0.  0.
    9900012    2    3    3    0    0 -0.22360053042E+02 -0.14462115352E+02  0.25429414614E+02  0.54367083660E+02  0.39999998820E+02 0.  0.
         12    1    3    3    0    0  0.22360053042E+02  0.14462115352E+02 -0.25429414614E+02  0.36820916340E+02  0.00000000000E+00 0. -1.
         11    1    4    4    0    0 -0.22763453343E+01 -0.16433653722E+02  0.33068578743E+01  0.16916915558E+02  0.51100000000E-03 0. -1.
        -11    1    4    4    0    0 -0.15226447091E+02 -0.63102446427E+01  0.40297110971E+01  0.16967688418E+02  0.51100000000E-03 0.  1.
         12    1    4    4    0    0 -0.48572606172E+01  0.82817830126E+01  0.18092845643E+02  0.20482479684E+02  0.00000000000E+00 0. -1.
</event>
<event>
 8    1  0.2509217E-006  0.9118800E+02  0.7816164E-02  0.1184000E+00
        -11   -1    0    0    0    0  0.00000000000E+00  0.00000000000E+00  0.45593999997E+02  0.45594000000E+02  0.51100000000E-03 0. -1.
         11   -1    0    0    0    0 -0.00000000000E+00 -0.00000000000E+00 -0.45593999997E+02  0.45594000000E+02  0.51100000000E-03 0.  1.
         23    2    1    2    0    0  0.00000000000E+00  0.88817841970E-15 -0.44408920985E-15  0.91188000000E+02  0.91188000000E+02 0.  0.
    9900012    2    3    3    0    0 -0.36587369941E+02 -0.28875285876E+01  0.29673566474E+01  0.54367100146E+02  0.40000036404E+02 0.  0.
         12    1    3    3    0    0  0.36587369941E+02  0.28875285876E+01 -0.29673566474E+01  0.36820899854E+02  0.00000000000E+00 0. -1.
         11    1    4    4    0    0 -0.15282491693E+02 -0.20094414043E+02  0.10664140222E+01  0.25268107709E+02  0.51100000000E-03 0.  1.
        -11    1    4    4    0    0 -0.11091819256E+02  0.14833433830E+02  0.58047146551E+00  0.18530951432E+02  0.51100000000E-03 0. -1.
        -12    1    4    4    0    0 -0.10213058993E+02  0.23734516251E+01  0.13204711596E+01  0.10568041006E+02  0.00000000000E+00 0.  1.
</event>
<event>
 8    1  0.2509217E-006  0.9118800E+02  0.7816164E-02  0.1184000E+00
        -11   -1    0    0    0    0  0.00000000000E+00  0.00000000000E+00  0.45593999997E+02  0.45594000000E+02  0.51100000000E-03 0. -1.
         11   -1    0    0    0    0 -0.00000000000E+00 -0.00000000000E+00 -0.45593999997E+02  0.45594000000E+02  0.51100000000E-03 0.  1.
         23    2    1    2    0    0  0.00000000000E+00  0.00000000000E+00  0.00000000000E+00  0.91188000000E+02  0.91188000000E+02 0.  0.
    9900012    2    3    3    0    0  0.28480209366E+02 -0.85557734844E+01  0.21713056577E+02  0.54367076446E+02  0.39999982374E+02 0.  0.
        -12    1    3    3    0    0 -0.28480209366E+02  0.85557734844E+01 -0.21713056577E+02  0.36820923554E+02  0.00000000000E+00 0.  1.
         11    1    4    4    0    0 -0.53942936392E+01  0.21719381659E+01  0.12076356825E+02  0.13403511244E+02  0.51100000000E-03 0. -1.
        -11    1    4    4    0    0  0.26860880313E+01 -0.66262790619E+01  0.59297754464E+01  0.92889655088E+01  0.51100000000E-03 0.  1.
        -12    1    4    4    0    0  0.31188414974E+02 -0.41014325884E+01  0.37069243058E+01  0.31674599693E+02  0.00000000000E+00 0.  1.
</event>
<event>
 8    1  0.2509217E-006  0.9118800E+02  0.7816164E-02  0.1184000E+00
        -11   -1    0    0    0    0  0.00000000000E+00  0.00000000000E+00  0.45593999997E+02  0.45594000000E+02  0.51100000000E-03 0.  1.
         11   -1    0    0    0    0 -0.00000000000E+00 -0.00000000000E+00 -0.45593999997E+02  0.45594000000E+02  0.51100000000E-03 0. -1.
         23    2    1    2    0    0  0.00000000000E+00  0.00000000000E+00  0.00000000000E+00  0.91188000000E+02  0.91188000000E+02 0.  0.
    9900012    2    3    3    0    0  0.78768822771E+01  0.30389080448E+02  0.19241591782E+02  0.54367077426E+02  0.39999984609E+02 0.  0.
         12    1    3    3    0    0 -0.78768822771E+01 -0.30389080448E+02 -0.19241591782E+02  0.36820922574E+02  0.00000000000E+00 0. -1.
         11    1    4    4    0    0 -0.13682306079E+00 -0.48039911603E+01 -0.33287206793E+01  0.58461468712E+01  0.51100000000E-03 0. -1.
        -11    1    4    4    0    0  0.14850678494E+02  0.27017767705E+02  0.10859911027E+02  0.32687001871E+02  0.51100000000E-03 0.  1.
        -12    1    4    4    0    0 -0.68369731565E+01  0.81753039034E+01  0.11710401433E+02  0.15833928685E+02  0.00000000000E+00 0.  1.
</event>
<event>
 8    1  0.2509217E-006  0.9118800E+02  0.7816164E-02  0.1184000E+00
        -11   -1    0    0    0    0  0.00000000000E+00  0.00000000000E+00  0.45593999997E+02  0.45594000000E+02  0.51100000000E-03 0.  1.
         11   -1    0    0    0    0 -0.00000000000E+00 -0.00000000000E+00 -0.45593999997E+02  0.45594000000E+02  0.51100000000E-03 0. -1.
         23    2    1    2    0    0 -0.17763568394E-14  0.17763568394E-14 -0.71054273576E-14  0.91188000000E+02  0.91188000000E+02 0.  0.
    9900012    2    3    3    0    0  0.88252964005E+01  0.11270399844E+02 -0.33924480375E+02  0.54367107317E+02  0.40000052751E+02 0.  0.
        -12    1    3    3    0    0 -0.88252964005E+01 -0.11270399844E+02  0.33924480375E+02  0.36820892683E+02  0.00000000000E+00 0.  1.
         11    1    4    4    0    0 -0.18750431230E+01  0.11160344509E+01 -0.65520962049E+01  0.69058876727E+01  0.51100000000E-03 0. -1.
        -11    1    4    4    0    0 -0.12452463698E+02  0.94071437472E+01 -0.11220299629E+02  0.19221168790E+02  0.51100000000E-03 0.  1.
         12    1    4    4    0    0  0.23152803222E+02  0.74722164625E+00 -0.16152084542E+02  0.28240050855E+02  0.00000000000E+00 0. -1.
</event>
<event>
 8    1  0.2509217E-006  0.9118800E+02  0.7816164E-02  0.1184000E+00
        -11   -1    0    0    0    0  0.00000000000E+00  0.00000000000E+00  0.45593999997E+02  0.45594000000E+02  0.51100000000E-03 0. -1.
         11   -1    0    0    0    0 -0.00000000000E+00 -0.00000000000E+00 -0.45593999997E+02  0.45594000000E+02  0.51100000000E-03 0.  1.
         23    2    1    2    0    0  0.17763568394E-14  0.00000000000E+00  0.00000000000E+00  0.91188000000E+02  0.91188000000E+02 0.  0.
    9900012    2    3    3    0    0 -0.11631625644E+02  0.28900725027E+02 -0.19627357083E+02  0.54367085179E+02  0.40000002282E+02 0.  0.
         12    1    3    3    0    0  0.11631625644E+02 -0.28900725027E+02  0.19627357083E+02  0.36820914821E+02  0.00000000000E+00 0. -1.
         11    1    4    4    0    0 -0.52859564033E+01  0.10913748885E+01 -0.16947325312E+02  0.17786069541E+02  0.51100000000E-03 0. -1.
        -11    1    4    4    0    0  0.26746816110E+01  0.13168548363E+02 -0.11104341340E+02  0.17431895610E+02  0.51100000000E-03 0.  1.
        -12    1    4    4    0    0 -0.90203508514E+01  0.14640801776E+02  0.84243095690E+01  0.19149120028E+02  0.00000000000E+00 0.  1.
</event>
<event>
 8    1  0.2509217E-006  0.9118800E+02  0.7816164E-02  0.1184000E+00
        -11   -1    0    0    0    0  0.00000000000E+00  0.00000000000E+00  0.45593999997E+02  0.45594000000E+02  0.51100000000E-03 0. -1.
         11   -1    0    0    0    0 -0.00000000000E+00 -0.00000000000E+00 -0.45593999997E+02  0.45594000000E+02  0.51100000000E-03 0.  1.
         23    2    1    2    0    0  0.00000000000E+00 -0.17763568394E-14  0.00000000000E+00  0.91188000000E+02  0.91188000000E+02 0.  0.
    9900012    2    3    3    0    0 -0.13147035243E+02  0.94131334241E+01 -0.33080650293E+02  0.54367067905E+02  0.39999962904E+02 0.  0.
         12    1    3    3    0    0  0.13147035243E+02 -0.94131334241E+01  0.33080650293E+02  0.36820932095E+02  0.00000000000E+00 0. -1.
         11    1    4    4    0    0 -0.15406766479E+02  0.16549276000E+02 -0.12697091434E+02  0.25931893888E+02  0.51100000000E-03 0. -1.
        -11    1    4    4    0    0 -0.14018581588E+00  0.62349919041E+01 -0.61303179558E+01  0.87450314240E+01  0.51100000000E-03 0.  1.
         12    1    4    4    0    0  0.23999170525E+01 -0.13371134480E+02 -0.14253240903E+02  0.19690142594E+02  0.00000000000E+00 0. -1.
</event>
<event>
 8    1  0.2509217E-006  0.9118800E+02  0.7816164E-02  0.1184000E+00
        -11   -1    0    0    0    0  0.00000000000E+00  0.00000000000E+00  0.45593999997E+02  0.45594000000E+02  0.51100000000E-03 0.  1.
         11   -1    0    0    0    0 -0.00000000000E+00 -0.00000000000E+00 -0.45593999997E+02  0.45594000000E+02  0.51100000000E-03 0. -1.
         23    2    1    2    0    0 -0.17763568394E-14  0.00000000000E+00 -0.88817841970E-15  0.91188000000E+02  0.91188000000E+02 0.  0.
    9900012    2    3    3    0    0  0.11549885002E+02  0.34258616529E+02 -0.69805535043E+01  0.54367071477E+02  0.39999971046E+02 0.  0.
        -12    1    3    3    0    0 -0.11549885002E+02 -0.34258616529E+02  0.69805535043E+01  0.36820928523E+02  0.00000000000E+00 0.  1.
         11    1    4    4    0    0  0.15249037861E+02  0.50698965536E+01  0.50126113567E+01  0.16833397744E+02  0.51100000000E-03 0. -1.
        -11    1    4    4    0    0 -0.10448201045E+02  0.88740244211E+01 -0.18052569404E+01  0.13826502356E+02  0.51100000000E-03 0.  1.
         12    1    4    4    0    0  0.67490481869E+01  0.20314695555E+02 -0.10187907921E+02  0.23707171377E+02  0.00000000000E+00 0. -1.
</event>
<event>
 8    1  0.2509217E-006  0.9118800E+02  0.7816164E-02  0.1184000E+00
        -11   -1    0    0    0    0  0.00000000000E+00  0.00000000000E+00  0.45593999997E+02  0.45594000000E+02  0.51100000000E-03 0. -1.
         11   -1    0    0    0    0 -0.00000000000E+00 -0.00000000000E+00 -0.45593999997E+02  0.45594000000E+02  0.51100000000E-03 0.  1.
         23    2    1    2    0    0  0.00000000000E+00  0.00000000000E+00  0.00000000000E+00  0.91188000000E+02  0.91188000000E+02 0.  0.
    9900012    2    3    3    0    0 -0.10571009567E+02  0.33975893004E+02 -0.94695580746E+01  0.54367080962E+02  0.39999992669E+02 0.  0.
        -12    1    3    3    0    0  0.10571009567E+02 -0.33975893004E+02  0.94695580746E+01  0.36820919038E+02  0.00000000000E+00 0.  1.
         11    1    4    4    0    0  0.75846446039E+01  0.18001250005E+01 -0.46113973134E-01  0.77954737217E+01  0.51100000000E-03 0. -1.
        -11    1    4    4    0    0 -0.25665519700E+01  0.29105341622E+02 -0.27807416605E+01  0.29350308761E+02  0.51100000000E-03 0.  1.
        -12    1    4    4    0    0 -0.15589102201E+02  0.30704263812E+01 -0.66427024410E+01  0.17221298479E+02  0.00000000000E+00 0.  1.
</event>
<event>
 8    1  0.2509217E-006  0.9118800E+02  0.7816164E-02  0.1184000E+00
        -11   -1    0    0    0    0  0.00000000000E+00  0.00000000000E+00  0.45593999997E+02  0.45594000000E+02  0.51100000000E-03 0. -1.
         11   -1    0    0    0    0 -0.00000000000E+00 -0.00000000000E+00 -0.45593999997E+02  0.45594000000E+02  0.51100000000E-03 0.  1.
         23    2    1    2    0    0  0.00000000000E+00 -0.35527136788E-14 -0.35527136788E-14  0.91188000000E+02  0.91188000000E+02 0.  0.
    9900012    2    3    3    0    0 -0.21906754171E+02 -0.18879415828E+02 -0.22791260527E+02  0.54367085064E+02  0.40000002020E+02 0.  0.
         12    1    3    3    0    0  0.21906754171E+02  0.18879415828E+02  0.22791260527E+02  0.36820914936E+02  0.00000000000E+00 0. -1.
         11    1    4    4    0    0  0.75802444415E+01 -0.43065064693E+01 -0.11042822697E+01  0.87878065156E+01  0.51100000000E-03 0. -1.
        -11    1    4    4    0    0  0.34503477672E+01 -0.44063443350E+01 -0.25135751255E+01  0.61350493303E+01  0.51100000000E-03 0.  1.
        -12    1    4    4    0    0 -0.32937346380E+02 -0.10166565024E+02 -0.19173403132E+02  0.39444229218E+02  0.00000000000E+00 0.  1.
</event>
<event>
 8    1  0.2509217E-006  0.9118800E+02  0.7816164E-02  0.1184000E+00
        -11   -1    0    0    0    0  0.00000000000E+00  0.00000000000E+00  0.45593999997E+02  0.45594000000E+02  0.51100000000E-03 0.  1.
         11   -1    0    0    0    0 -0.00000000000E+00 -0.00000000000E+00 -0.45593999997E+02  0.45594000000E+02  0.51100000000E-03 0. -1.
         23    2    1    2    0    0  0.26645352591E-14  0.35527136788E-14  0.00000000000E+00  0.91188000000E+02  0.91188000000E+02 0.  0.
    9900012    2    3    3    0    0 -0.78839265131E+01 -0.20009861326E+02 -0.29886931840E+02  0.54367088246E+02  0.40000009275E+02 0.  0.
        -12    1    3    3    0    0  0.78839265131E+01  0.20009861326E+02  0.29886931840E+02  0.36820911754E+02  0.00000000000E+00 0.  1.
         11    1    4    4    0    0 -0.10828940134E+02 -0.17555425723E+02 -0.25247740371E+00  0.20628200645E+02  0.51100000000E-03 0. -1.
        -11    1    4    4    0    0  0.33114621813E+01 -0.14057618533E+01 -0.31425811655E+02  0.31631054149E+02  0.51100000000E-03 0.  1.
        -12    1    4    4    0    0 -0.36644856013E+00 -0.10486737498E+01  0.17913572181E+01  0.21078334525E+01  0.00000000000E+00 0.  1.
</event>
<event>
 8    1  0.2509217E-006  0.9118800E+02  0.7816164E-02  0.1184000E+00
        -11   -1    0    0    0    0  0.00000000000E+00  0.00000000000E+00  0.45593999997E+02  0.45594000000E+02  0.51100000000E-03 0. -1.
         11   -1    0    0    0    0 -0.00000000000E+00 -0.00000000000E+00 -0.45593999997E+02  0.45594000000E+02  0.51100000000E-03 0.  1.
         23    2    1    2    0    0  0.00000000000E+00  0.00000000000E+00 -0.17763568394E-14  0.91188000000E+02  0.91188000000E+02 0.  0.
    9900012    2    3    3    0    0 -0.29248514098E+02 -0.20525535764E+02 -0.88885598521E+01  0.54367086221E+02  0.40000004657E+02 0.  0.
         12    1    3    3    0    0  0.29248514098E+02  0.20525535764E+02  0.88885598521E+01  0.36820913779E+02  0.00000000000E+00 0. -1.
         11    1    4    4    0    0 -0.15968450569E+02 -0.28230611964E+02 -0.40172500075E+01  0.32681755817E+02  0.51100000000E-03 0.  1.
        -11    1    4    4    0    0 -0.13385058111E+02  0.92009714857E+01  0.35682700204E+00  0.16246383680E+02  0.51100000000E-03 0. -1.
         12    1    4    4    0    0  0.10499458196E+00 -0.14958952857E+01 -0.52281368467E+01  0.54389467230E+01  0.00000000000E+00 0. -1.
</event>
<event>
 8    1  0.2509217E-006  0.9118800E+02  0.7816164E-02  0.1184000E+00
        -11   -1    0    0    0    0  0.00000000000E+00  0.00000000000E+00  0.45593999997E+02  0.45594000000E+02  0.51100000000E-03 0. -1.
         11   -1    0    0    0    0 -0.00000000000E+00 -0.00000000000E+00 -0.45593999997E+02  0.45594000000E+02  0.51100000000E-03 0.  1.
         23    2    1    2    0    0  0.00000000000E+00  0.00000000000E+00  0.00000000000E+00  0.91188000000E+02  0.91188000000E+02 0.  0.
    9900012    2    3    3    0    0 -0.80773163861E+01  0.22696121407E+02 -0.27846410029E+02  0.54367088572E+02  0.40000010017E+02 0.  0.
         12    1    3    3    0    0  0.80773163861E+01 -0.22696121407E+02  0.27846410029E+02  0.36820911428E+02  0.00000000000E+00 0. -1.
         11    1    4    4    0    0  0.36339409504E+01  0.32831446091E+01  0.44563235267E+01  0.66214337564E+01  0.51100000000E-03 0. -1.
        -11    1    4    4    0    0  0.30447632267E+01  0.11510365051E+02 -0.28053920592E+02  0.30475917501E+02  0.51100000000E-03 0.  1.
        -12    1    4    4    0    0 -0.14756020563E+02  0.79026117472E+01 -0.42488129635E+01  0.17269737314E+02  0.00000000000E+00 0.  1.
</event>
<event>
 8    1  0.2509217E-006  0.9118800E+02  0.7816164E-02  0.1184000E+00
        -11   -1    0    0    0    0  0.00000000000E+00  0.00000000000E+00  0.45593999997E+02  0.45594000000E+02  0.51100000000E-03 0. -1.
         11   -1    0    0    0    0 -0.00000000000E+00 -0.00000000000E+00 -0.45593999997E+02  0.45594000000E+02  0.51100000000E-03 0.  1.
         23    2    1    2    0    0  0.35527136788E-14  0.00000000000E+00 -0.35527136788E-14  0.91188000000E+02  0.91188000000E+02 0.  0.
    9900012    2    3    3    0    0 -0.29361313993E+02  0.22175976237E+01  0.22108330950E+02  0.54367044064E+02  0.39999908553E+02 0.  0.
        -12    1    3    3    0    0  0.29361313993E+02 -0.22175976237E+01 -0.22108330950E+02  0.36820955936E+02  0.00000000000E+00 0.  1.
         11    1    4    4    0    0 -0.11005347121E+02  0.69985351171E+00  0.91190818948E+01  0.14309616174E+02  0.51100000000E-03 0. -1.
        -11    1    4    4    0    0 -0.18137935868E+02 -0.10477808457E+02 -0.17880578210E+01  0.21022995473E+02  0.51100000000E-03 0.  1.
         12    1    4    4    0    0 -0.21803100403E+00  0.11995552569E+02  0.14777306876E+02  0.19034432417E+02  0.00000000000E+00 0. -1.
</event>
<event>
 8    1  0.2509217E-006  0.9118800E+02  0.7816164E-02  0.1184000E+00
        -11   -1    0    0    0    0  0.00000000000E+00  0.00000000000E+00  0.45593999997E+02  0.45594000000E+02  0.51100000000E-03 0.  1.
         11   -1    0    0    0    0 -0.00000000000E+00 -0.00000000000E+00 -0.45593999997E+02  0.45594000000E+02  0.51100000000E-03 0. -1.
         23    2    1    2    0    0 -0.35527136788E-14  0.35527136788E-14  0.00000000000E+00  0.91188000000E+02  0.91188000000E+02 0.  0.
    9900012    2    3    3    0    0 -0.18611624962E+02  0.29822450745E+02  0.10954745276E+02  0.54367114674E+02  0.40000069522E+02 0.  0.
         12    1    3    3    0    0  0.18611624962E+02 -0.29822450745E+02 -0.10954745276E+02  0.36820885326E+02  0.00000000000E+00 0. -1.
         11    1    4    4    0    0 -0.18590436462E+01  0.24436113720E+02  0.28490333413E+01  0.24671779187E+02  0.51100000000E-03 0. -1.
        -11    1    4    4    0    0 -0.89130059019E+01 -0.59792839912E+01 -0.38790133428E+01  0.11412285311E+02  0.51100000000E-03 0.  1.
         12    1    4    4    0    0 -0.78395754142E+01  0.11365621016E+02  0.11984725277E+02  0.18283050175E+02  0.00000000000E+00 0. -1.
</event>
<event>
 8    1  0.2509217E-006  0.9118800E+02  0.7816164E-02  0.1184000E+00
        -11   -1    0    0    0    0  0.00000000000E+00  0.00000000000E+00  0.45593999997E+02  0.45594000000E+02  0.51100000000E-03 0. -1.
         11   -1    0    0    0    0 -0.00000000000E+00 -0.00000000000E+00 -0.45593999997E+02  0.45594000000E+02  0.51100000000E-03 0.  1.
         23    2    1    2    0    0  0.00000000000E+00  0.00000000000E+00  0.00000000000E+00  0.91188000000E+02  0.91188000000E+02 0.  0.
    9900012    2    3    3    0    0  0.15053181907E+02  0.73909665026E+01 -0.32780346622E+02  0.54367139119E+02  0.40000125249E+02 0.  0.
         12    1    3    3    0    0 -0.15053181907E+02 -0.73909665026E+01  0.32780346622E+02  0.36820860881E+02  0.00000000000E+00 0. -1.
         11    1    4    4    0    0  0.11281778731E+02  0.19909421777E+01 -0.52950114593E+01  0.12620599380E+02  0.51100000000E-03 0. -1.
        -11    1    4    4    0    0 -0.61293408086E+01  0.46136557741E+01  0.40563900754E+01  0.86780723122E+01  0.51100000000E-03 0.  1.
         12    1    4    4    0    0  0.99007439840E+01  0.78636855069E+00 -0.31541725238E+02  0.33068467427E+02  0.00000000000E+00 0. -1.
</event>
<event>
 8    1  0.2509217E-006  0.9118800E+02  0.7816164E-02  0.1184000E+00
        -11   -1    0    0    0    0  0.00000000000E+00  0.00000000000E+00  0.45593999997E+02  0.45594000000E+02  0.51100000000E-03 0.  1.
         11   -1    0    0    0    0 -0.00000000000E+00 -0.00000000000E+00 -0.45593999997E+02  0.45594000000E+02  0.51100000000E-03 0. -1.
         23    2    1    2    0    0  0.00000000000E+00 -0.35527136788E-14  0.17763568394E-14  0.91188000000E+02  0.91188000000E+02 0.  0.
    9900012    2    3    3    0    0 -0.21044486657E+02 -0.26216673169E+02 -0.15020077218E+02  0.54366985751E+02  0.39999775615E+02 0.  0.
        -12    1    3    3    0    0  0.21044486657E+02  0.26216673169E+02  0.15020077218E+02  0.36821014249E+02  0.00000000000E+00 0.  1.
         11    1    4    4    0    0 -0.13583075381E+02 -0.11352395089E+02 -0.17185182174E+02  0.24671994198E+02  0.51100000000E-03 0. -1.
        -11    1    4    4    0    0 -0.21511648295E+01  0.51563614034E+01  0.64605973450E+01  0.85413635540E+01  0.51100000000E-03 0.  1.
        -12    1    4    4    0    0 -0.53102464459E+01 -0.20020639483E+02 -0.42954923887E+01  0.21153627999E+02  0.00000000000E+00 0.  1.
</event>
<event>
 8    1  0.2509217E-006  0.9118800E+02  0.7816164E-02  0.1184000E+00
        -11   -1    0    0    0    0  0.00000000000E+00  0.00000000000E+00  0.45593999997E+02  0.45594000000E+02  0.51100000000E-03 0. -1.
         11   -1    0    0    0    0 -0.00000000000E+00 -0.00000000000E+00 -0.45593999997E+02  0.45594000000E+02  0.51100000000E-03 0.  1.
         23    2    1    2    0    0 -0.17763568394E-14  0.00000000000E+00  0.00000000000E+00  0.91188000000E+02  0.91188000000E+02 0.  0.
    9900012    2    3    3    0    0  0.11783862348E+02 -0.34193721293E+02 -0.69071804104E+01  0.54367093861E+02  0.40000022075E+02 0.  0.
         12    1    3    3    0    0 -0.11783862348E+02  0.34193721293E+02  0.69071804104E+01  0.36820906139E+02  0.00000000000E+00 0. -1.
         11    1    4    4    0    0  0.17585713814E+02 -0.11123961442E+02 -0.13276956824E+02  0.24683545760E+02  0.51100000000E-03 0. -1.
        -11    1    4    4    0    0 -0.93785025579E+01 -0.23053249905E+02  0.35727451822E+01  0.25143053709E+02  0.51100000000E-03 0.  1.
        -12    1    4    4    0    0  0.35766510916E+01 -0.16509945398E-01  0.27970312319E+01  0.45404943918E+01  0.00000000000E+00 0.  1.
</event>
<event>
 8    1  0.2509217E-006  0.9118800E+02  0.7816164E-02  0.1184000E+00
        -11   -1    0    0    0    0  0.00000000000E+00  0.00000000000E+00  0.45593999997E+02  0.45594000000E+02  0.51100000000E-03 0.  1.
         11   -1    0    0    0    0 -0.00000000000E+00 -0.00000000000E+00 -0.45593999997E+02  0.45594000000E+02  0.51100000000E-03 0. -1.
         23    2    1    2    0    0  0.00000000000E+00 -0.71054273576E-14 -0.44408920985E-15  0.91188000000E+02  0.91188000000E+02 0.  0.
    9900012    2    3    3    0    0  0.61874480080E+01 -0.36199731550E+02 -0.26597754873E+01  0.54367089055E+02  0.40000011120E+02 0.  0.
        -12    1    3    3    0    0 -0.61874480080E+01  0.36199731550E+02  0.26597754873E+01  0.36820910945E+02  0.00000000000E+00 0.  1.
         11    1    4    4    0    0  0.17610696782E+00  0.48479136500E+01 -0.51592536058E+01  0.70817496745E+01  0.51100000000E-03 0. -1.
        -11    1    4    4    0    0 -0.57834583465E+01 -0.21160579250E+02 -0.58482604206E+01  0.22702877678E+02  0.51100000000E-03 0.  1.
         12    1    4    4    0    0  0.11794799387E+02 -0.19887065950E+02  0.83477385390E+01  0.24582461703E+02  0.00000000000E+00 0. -1.
</event>
<event>
 8    1  0.2509217E-006  0.9118800E+02  0.7816164E-02  0.1184000E+00
        -11   -1    0    0    0    0  0.00000000000E+00  0.00000000000E+00  0.45593999997E+02  0.45594000000E+02  0.51100000000E-03 0. -1.
         11   -1    0    0    0    0 -0.00000000000E+00 -0.00000000000E+00 -0.45593999997E+02  0.45594000000E+02  0.51100000000E-03 0.  1.
         23    2    1    2    0    0 -0.53290705182E-14 -0.35527136788E-14  0.35527136788E-14  0.91188000000E+02  0.91188000000E+02 0.  0.
    9900012    2    3    3    0    0  0.13323765783E+02  0.25399371554E+02  0.23089644298E+02  0.54367048304E+02  0.39999918218E+02 0.  0.
        -12    1    3    3    0    0 -0.13323765783E+02 -0.25399371554E+02 -0.23089644298E+02  0.36820951696E+02  0.00000000000E+00 0.  1.
         11    1    4    4    0    0  0.23954785129E+02  0.17820878352E+02  0.23789068549E+02  0.38175060163E+02  0.51100000000E-03 0. -1.
        -11    1    4    4    0    0 -0.92471180028E+01  0.94506595065E+00 -0.13149806329E+01  0.93878386935E+01  0.51100000000E-03 0.  1.
        -12    1    4    4    0    0 -0.13839013429E+01  0.66334272522E+01  0.61555638232E+00  0.68041494470E+01  0.00000000000E+00 0.  1.
</event>
<event>
 8    1  0.2509217E-006  0.9118800E+02  0.7816164E-02  0.1184000E+00
        -11   -1    0    0    0    0  0.00000000000E+00  0.00000000000E+00  0.45593999997E+02  0.45594000000E+02  0.51100000000E-03 0. -1.
         11   -1    0    0    0    0 -0.00000000000E+00 -0.00000000000E+00 -0.45593999997E+02  0.45594000000E+02  0.51100000000E-03 0.  1.
         23    2    1    2    0    0 -0.35527136788E-14  0.17763568394E-14  0.35527136788E-14  0.91188000000E+02  0.91188000000E+02 0.  0.
    9900012    2    3    3    0    0 -0.22174159969E+02 -0.82187052453E+01  0.28222993381E+02  0.54367111341E+02  0.40000061925E+02 0.  0.
        -12    1    3    3    0    0  0.22174159969E+02  0.82187052453E+01 -0.28222993381E+02  0.36820888659E+02  0.00000000000E+00 0.  1.
         11    1    4    4    0    0  0.11916629735E+01 -0.15593089771E+02  0.16582585746E+02  0.22793566187E+02  0.51100000000E-03 0. -1.
        -11    1    4    4    0    0 -0.20276495810E+02  0.13043771761E+01  0.13643538745E+02  0.24474146193E+02  0.51100000000E-03 0.  1.
         12    1    4    4    0    0 -0.30893271329E+01  0.60700073496E+01 -0.20031311102E+01  0.70993989607E+01  0.00000000000E+00 0. -1.
</event>
<event>
 8    1  0.2509217E-006  0.9118800E+02  0.7816164E-02  0.1184000E+00
        -11   -1    0    0    0    0  0.00000000000E+00  0.00000000000E+00  0.45593999997E+02  0.45594000000E+02  0.51100000000E-03 0.  1.
         11   -1    0    0    0    0 -0.00000000000E+00 -0.00000000000E+00 -0.45593999997E+02  0.45594000000E+02  0.51100000000E-03 0. -1.
         23    2    1    2    0    0 -0.24424906542E-14  0.35527136788E-14  0.00000000000E+00  0.91188000000E+02  0.91188000000E+02 0.  0.
    9900012    2    3    3    0    0  0.26802669169E+00 -0.26572206443E+02  0.25487767819E+02  0.54367077932E+02  0.39999985761E+02 0.  0.
         12    1    3    3    0    0 -0.26802669169E+00  0.26572206443E+02 -0.25487767819E+02  0.36820922068E+02  0.00000000000E+00 0. -1.
         11    1    4    4    0    0 -0.95264842456E+01 -0.25069785741E+01 -0.50645148104E+01  0.11076468489E+02  0.51100000000E-03 0. -1.
        -11    1    4    4    0    0  0.14388970532E+02 -0.18833056996E+02  0.23255322195E+02  0.33204465354E+02  0.51100000000E-03 0.  1.
        -12    1    4    4    0    0 -0.45944595942E+01 -0.52321708724E+01  0.72969604344E+01  0.10086144089E+02  0.00000000000E+00 0.  1.
</event>
<event>
 8    1  0.2509217E-006  0.9118800E+02  0.7816164E-02  0.1184000E+00
        -11   -1    0    0    0    0  0.00000000000E+00  0.00000000000E+00  0.45593999997E+02  0.45594000000E+02  0.51100000000E-03 0.  1.
         11   -1    0    0    0    0 -0.00000000000E+00 -0.00000000000E+00 -0.45593999997E+02  0.45594000000E+02  0.51100000000E-03 0. -1.
         23    2    1    2    0    0  0.00000000000E+00 -0.35527136788E-14  0.17763568394E-14  0.91188000000E+02  0.91188000000E+02 0.  0.
    9900012    2    3    3    0    0 -0.23616130849E+02 -0.24907904515E+02  0.13328716701E+02  0.54367081591E+02  0.39999994103E+02 0.  0.
         12    1    3    3    0    0  0.23616130849E+02  0.24907904515E+02 -0.13328716701E+02  0.36820918409E+02  0.00000000000E+00 0. -1.
         11    1    4    4    0    0  0.55584738586E+01 -0.12456323543E+01  0.43475353211E+01  0.71658422553E+01  0.51100000000E-03 0. -1.
        -11    1    4    4    0    0 -0.12115155761E+02  0.26574161007E+01  0.98281187582E+01  0.15825004835E+02  0.51100000000E-03 0.  1.
         12    1    4    4    0    0 -0.17059448947E+02 -0.26319688261E+02 -0.84693737844E+00  0.31376234501E+02  0.00000000000E+00 0. -1.
</event>
<event>
 8    1  0.2509217E-006  0.9118800E+02  0.7816164E-02  0.1184000E+00
        -11   -1    0    0    0    0  0.00000000000E+00  0.00000000000E+00  0.45593999997E+02  0.45594000000E+02  0.51100000000E-03 0.  1.
         11   -1    0    0    0    0 -0.00000000000E+00 -0.00000000000E+00 -0.45593999997E+02  0.45594000000E+02  0.51100000000E-03 0. -1.
         23    2    1    2    0    0  0.88817841970E-15  0.00000000000E+00  0.35527136788E-14  0.91188000000E+02  0.91188000000E+02 0.  0.
    9900012    2    3    3    0    0  0.75474237498E+01  0.20083706038E+02 -0.29924280596E+02  0.54367062714E+02  0.39999951068E+02 0.  0.
        -12    1    3    3    0    0 -0.75474237498E+01 -0.20083706038E+02  0.29924280596E+02  0.36820937286E+02  0.00000000000E+00 0.  1.
         11    1    4    4    0    0  0.10286595856E+02 -0.11420480554E+00 -0.47916760642E+01  0.11348447331E+02  0.51100000000E-03 0. -1.
        -11    1    4    4    0    0 -0.99448727503E+01  0.13063482708E+02 -0.55065060314E+00  0.16427364086E+02  0.51100000000E-03 0.  1.
         12    1    4    4    0    0  0.72057006438E+01  0.71344281359E+01 -0.24581953928E+02  0.26591251297E+02  0.00000000000E+00 0. -1.
</event>
<event>
 8    1  0.2509217E-006  0.9118800E+02  0.7816164E-02  0.1184000E+00
        -11   -1    0    0    0    0  0.00000000000E+00  0.00000000000E+00  0.45593999997E+02  0.45594000000E+02  0.51100000000E-03 0.  1.
         11   -1    0    0    0    0 -0.00000000000E+00 -0.00000000000E+00 -0.45593999997E+02  0.45594000000E+02  0.51100000000E-03 0. -1.
         23    2    1    2    0    0  0.00000000000E+00 -0.35527136788E-14  0.00000000000E+00  0.91188000000E+02  0.91188000000E+02 0.  0.
    9900012    2    3    3    0    0  0.17652011765E+02 -0.24605998906E+02  0.20945928483E+02  0.54367073592E+02  0.39999975868E+02 0.  0.
        -12    1    3    3    0    0 -0.17652011765E+02  0.24605998906E+02 -0.20945928483E+02  0.36820926408E+02  0.00000000000E+00 0.  1.
         11    1    4    4    0    0 -0.14436323229E+01 -0.59974802400E+01 -0.47145987680E+00  0.61867696085E+01  0.51100000000E-03 0. -1.
        -11    1    4    4    0    0 -0.45823945832E+01 -0.18430570209E+02  0.59682155653E+01  0.19907381938E+02  0.51100000000E-03 0.  1.
         12    1    4    4    0    0  0.23678038671E+02 -0.17794845724E+00  0.15449172794E+02  0.28272922046E+02  0.00000000000E+00 0. -1.
</event>
<event>
 8    1  0.2509217E-006  0.9118800E+02  0.7816164E-02  0.1184000E+00
        -11   -1    0    0    0    0  0.00000000000E+00  0.00000000000E+00  0.45593999997E+02  0.45594000000E+02  0.51100000000E-03 0.  1.
         11   -1    0    0    0    0 -0.00000000000E+00 -0.00000000000E+00 -0.45593999997E+02  0.45594000000E+02  0.51100000000E-03 0. -1.
         23    2    1    2    0    0  0.00000000000E+00 -0.35527136788E-14 -0.17763568394E-14  0.91188000000E+02  0.91188000000E+02 0.  0.
    9900012    2    3    3    0    0  0.21377345590E+02  0.25794998864E+02 -0.15277662958E+02  0.54367083983E+02  0.39999999556E+02 0.  0.
        -12    1    3    3    0    0 -0.21377345590E+02 -0.25794998864E+02  0.15277662958E+02  0.36820916017E+02  0.00000000000E+00 0.  1.
         11    1    4    4    0    0  0.13222410588E+02 -0.57155274543E+01 -0.12401551630E+02  0.19007837303E+02  0.51100000000E-03 0.  1.
        -11    1    4    4    0    0  0.37526308944E+00 -0.94307120372E+00 -0.16824148315E+01  0.19648729241E+01  0.51100000000E-03 0. -1.
        -12    1    4    4    0    0  0.77796719123E+01  0.32453597522E+02 -0.11936964965E+01  0.33394373756E+02  0.00000000000E+00 0.  1.
</event>
<event>
 8    1  0.2509217E-006  0.9118800E+02  0.7816164E-02  0.1184000E+00
        -11   -1    0    0    0    0  0.00000000000E+00  0.00000000000E+00  0.45593999997E+02  0.45594000000E+02  0.51100000000E-03 0.  1.
         11   -1    0    0    0    0 -0.00000000000E+00 -0.00000000000E+00 -0.45593999997E+02  0.45594000000E+02  0.51100000000E-03 0. -1.
         23    2    1    2    0    0  0.35527136788E-14  0.00000000000E+00  0.35527136788E-14  0.91188000000E+02  0.91188000000E+02 0.  0.
    9900012    2    3    3    0    0  0.18048488213E+02  0.11360416514E+02  0.30016202944E+02  0.54367089782E+02  0.40000012775E+02 0.  0.
         12    1    3    3    0    0 -0.18048488213E+02 -0.11360416514E+02 -0.30016202944E+02  0.36820910218E+02  0.00000000000E+00 0. -1.
         11    1    4    4    0    0  0.56090816577E+01  0.86350197222E+01 -0.43381258764E+01  0.11173392458E+02  0.51100000000E-03 0. -1.
        -11    1    4    4    0    0 -0.59931406956E+01  0.27001237643E+00  0.15905534904E+02  0.16999314190E+02  0.51100000000E-03 0.  1.
         12    1    4    4    0    0  0.18432547251E+02  0.24553844149E+01  0.18448793916E+02  0.26194383133E+02  0.00000000000E+00 0. -1.
</event>
<event>
 8    1  0.2509217E-006  0.9118800E+02  0.7816164E-02  0.1184000E+00
        -11   -1    0    0    0    0  0.00000000000E+00  0.00000000000E+00  0.45593999997E+02  0.45594000000E+02  0.51100000000E-03 0. -1.
         11   -1    0    0    0    0 -0.00000000000E+00 -0.00000000000E+00 -0.45593999997E+02  0.45594000000E+02  0.51100000000E-03 0.  1.
         23    2    1    2    0    0 -0.17763568394E-14  0.35527136788E-14  0.35527136788E-14  0.91188000000E+02  0.91188000000E+02 0.  0.
    9900012    2    3    3    0    0  0.24969056220E+01  0.23463383446E+02  0.28266828467E+02  0.54367102509E+02  0.40000041790E+02 0.  0.
        -12    1    3    3    0    0 -0.24969056220E+01 -0.23463383446E+02 -0.28266828467E+02  0.36820897491E+02  0.00000000000E+00 0.  1.
         11    1    4    4    0    0 -0.11311804035E+02  0.73250637304E+01 -0.33738383903E+01  0.13892309201E+02  0.51100000000E-03 0. -1.
        -11    1    4    4    0    0 -0.26679692832E+01  0.99276578453E+00  0.40043161607E+01  0.49130634206E+01  0.51100000000E-03 0.  1.
         12    1    4    4    0    0  0.16476678940E+02  0.15145553931E+02  0.27636350697E+02  0.35561729888E+02  0.00000000000E+00 0. -1.
</event>
<event>
 8    1  0.2509217E-006  0.9118800E+02  0.7816164E-02  0.1184000E+00
        -11   -1    0    0    0    0  0.00000000000E+00  0.00000000000E+00  0.45593999997E+02  0.45594000000E+02  0.51100000000E-03 0.  1.
         11   -1    0    0    0    0 -0.00000000000E+00 -0.00000000000E+00 -0.45593999997E+02  0.45594000000E+02  0.51100000000E-03 0. -1.
         23    2    1    2    0    0 -0.35527136788E-14  0.00000000000E+00  0.00000000000E+00  0.91188000000E+02  0.91188000000E+02 0.  0.
    9900012    2    3    3    0    0  0.14961963236E+02  0.26080483329E+02 -0.21253809283E+02  0.54367131411E+02  0.40000107679E+02 0.  0.
        -12    1    3    3    0    0 -0.14961963236E+02 -0.26080483329E+02  0.21253809283E+02  0.36820868589E+02  0.00000000000E+00 0.  1.
         11    1    4    4    0    0 -0.12133700087E+02  0.46865928248E+01 -0.11247499121E+02  0.17195844464E+02  0.51100000000E-03 0. -1.
        -11    1    4    4    0    0  0.94395136523E+01  0.22855153576E+01 -0.37643711579E+01  0.10416260793E+02  0.51100000000E-03 0.  1.
         12    1    4    4    0    0  0.17656149670E+02  0.19108375147E+02 -0.62419390041E+01  0.26755026154E+02  0.00000000000E+00 0. -1.
</event>
<event>
 8    1  0.2509217E-006  0.9118800E+02  0.7816164E-02  0.1184000E+00
        -11   -1    0    0    0    0  0.00000000000E+00  0.00000000000E+00  0.45593999997E+02  0.45594000000E+02  0.51100000000E-03 0. -1.
         11   -1    0    0    0    0 -0.00000000000E+00 -0.00000000000E+00 -0.45593999997E+02  0.45594000000E+02  0.51100000000E-03 0.  1.
         23    2    1    2    0    0 -0.35527136788E-14  0.00000000000E+00 -0.35527136788E-14  0.91188000000E+02  0.91188000000E+02 0.  0.
    9900012    2    3    3    0    0  0.16553694566E+02  0.27402768883E+02  0.18189100296E+02  0.54367083175E+02  0.39999997715E+02 0.  0.
         12    1    3    3    0    0 -0.16553694566E+02 -0.27402768883E+02 -0.18189100296E+02  0.36820916825E+02  0.00000000000E+00 0. -1.
         11    1    4    4    0    0 -0.26819752621E+01  0.24838702513E+01 -0.43325972688E+01  0.56686860988E+01  0.51100000000E-03 0. -1.
        -11    1    4    4    0    0  0.21824363774E+01  0.21780069806E+02  0.22227215885E+01  0.22001703589E+02  0.51100000000E-03 0.  1.
         12    1    4    4    0    0  0.17053233451E+02  0.31388288262E+01  0.20298975976E+02  0.26696693488E+02  0.00000000000E+00 0. -1.
</event>
<event>
 8    1  0.2509217E-006  0.9118800E+02  0.7816164E-02  0.1184000E+00
        -11   -1    0    0    0    0  0.00000000000E+00  0.00000000000E+00  0.45593999997E+02  0.45594000000E+02  0.51100000000E-03 0.  1.
         11   -1    0    0    0    0 -0.00000000000E+00 -0.00000000000E+00 -0.45593999997E+02  0.45594000000E+02  0.51100000000E-03 0. -1.
         23    2    1    2    0    0  0.35527136788E-14  0.00000000000E+00  0.35527136788E-14  0.91188000000E+02  0.91188000000E+02 0.  0.
    9900012    2    3    3    0    0 -0.17125875921E+02 -0.21901958387E+02 -0.24140992165E+02  0.54367096834E+02  0.40000028852E+02 0.  0.
        -12    1    3    3    0    0  0.17125875921E+02  0.21901958387E+02  0.24140992165E+02  0.36820903166E+02  0.00000000000E+00 0.  1.
         11    1    4    4    0    0  0.33498194342E-01  0.69305816174E+01 -0.43225660910E+01  0.81681492124E+01  0.51100000000E-03 0. -1.
        -11    1    4    4    0    0 -0.71511275645E+01 -0.17659723643E+02  0.25958051453E+01  0.19228693903E+02  0.51100000000E-03 0.  1.
        -12    1    4    4    0    0 -0.10008246551E+02 -0.11172816361E+02 -0.22414231219E+02  0.26970253718E+02  0.00000000000E+00 0.  1.
</event>
<event>
 8    1  0.2509217E-006  0.9118800E+02  0.7816164E-02  0.1184000E+00
        -11   -1    0    0    0    0  0.00000000000E+00  0.00000000000E+00  0.45593999997E+02  0.45594000000E+02  0.51100000000E-03 0. -1.
         11   -1    0    0    0    0 -0.00000000000E+00 -0.00000000000E+00 -0.45593999997E+02  0.45594000000E+02  0.51100000000E-03 0.  1.
         23    2    1    2    0    0  0.00000000000E+00  0.00000000000E+00  0.00000000000E+00  0.91188000000E+02  0.91188000000E+02 0.  0.
    9900012    2    3    3    0    0 -0.10367327470E+02 -0.33458586095E+02 -0.11349957255E+02  0.54367082140E+02  0.39999995355E+02 0.  0.
        -12    1    3    3    0    0  0.10367327470E+02  0.33458586095E+02  0.11349957255E+02  0.36820917860E+02  0.00000000000E+00 0.  1.
         11    1    4    4    0    0  0.88321841230E+01 -0.20248735817E+02  0.52317900823E+01  0.22702211485E+02  0.51100000000E-03 0. -1.
        -11    1    4    4    0    0 -0.59802247321E+01 -0.74311554024E+00 -0.11192924779E+02  0.12712075909E+02  0.51100000000E-03 0.  1.
         12    1    4    4    0    0 -0.13219286861E+02 -0.12466734738E+02 -0.53888225579E+01  0.18952794746E+02  0.00000000000E+00 0. -1.
</event>
<event>
 8    1  0.2509217E-006  0.9118800E+02  0.7816164E-02  0.1184000E+00
        -11   -1    0    0    0    0  0.00000000000E+00  0.00000000000E+00  0.45593999997E+02  0.45594000000E+02  0.51100000000E-03 0. -1.
         11   -1    0    0    0    0 -0.00000000000E+00 -0.00000000000E+00 -0.45593999997E+02  0.45594000000E+02  0.51100000000E-03 0.  1.
         23    2    1    2    0    0 -0.88817841970E-15  0.00000000000E+00 -0.71054273576E-14  0.91188000000E+02  0.91188000000E+02 0.  0.
    9900012    2    3    3    0    0 -0.62064994653E+01 -0.10402457411E+02  0.34771390164E+02  0.54367063976E+02  0.39999953945E+02 0.  0.
        -12    1    3    3    0    0  0.62064994653E+01  0.10402457411E+02 -0.34771390164E+02  0.36820936024E+02  0.00000000000E+00 0.  1.
         11    1    4    4    0    0  0.16352879652E+00  0.55886252171E+01  0.24825073287E+01  0.61173782278E+01  0.51100000000E-03 0. -1.
        -11    1    4    4    0    0  0.36130681266E+01 -0.27822771602E+01 -0.54097746196E+01  0.70753790838E+01  0.51100000000E-03 0.  1.
         12    1    4    4    0    0 -0.99830963885E+01 -0.13208805468E+02  0.37698657454E+02  0.41174306664E+02  0.00000000000E+00 0. -1.
</event>
<event>
 8    1  0.2509217E-006  0.9118800E+02  0.7816164E-02  0.1184000E+00
        -11   -1    0    0    0    0  0.00000000000E+00  0.00000000000E+00  0.45593999997E+02  0.45594000000E+02  0.51100000000E-03 0. -1.
         11   -1    0    0    0    0 -0.00000000000E+00 -0.00000000000E+00 -0.45593999997E+02  0.45594000000E+02  0.51100000000E-03 0.  1.
         23    2    1    2    0    0  0.00000000000E+00  0.00000000000E+00 -0.35527136788E-14  0.91188000000E+02  0.91188000000E+02 0.  0.
    9900012    2    3    3    0    0 -0.30472068974E+02 -0.74598338076E+01  0.19276513985E+02  0.54367080682E+02  0.39999992031E+02 0.  0.
        -12    1    3    3    0    0  0.30472068974E+02  0.74598338076E+01 -0.19276513985E+02  0.36820919318E+02  0.00000000000E+00 0.  1.
         11    1    4    4    0    0 -0.11438891465E+02 -0.66399794956E+01  0.25853607741E+02  0.29040430423E+02  0.51100000000E-03 0. -1.
        -11    1    4    4    0    0 -0.22659881613E+00  0.29518714114E+01  0.27117450008E+01  0.40147793293E+01  0.51100000000E-03 0.  1.
        -12    1    4    4    0    0 -0.18806578693E+02 -0.37717257235E+01 -0.92888387574E+01  0.21311870930E+02  0.00000000000E+00 0.  1.
</event>
<event>
 8    1  0.2509217E-006  0.9118800E+02  0.7816164E-02  0.1184000E+00
        -11   -1    0    0    0    0  0.00000000000E+00  0.00000000000E+00  0.45593999997E+02  0.45594000000E+02  0.51100000000E-03 0. -1.
         11   -1    0    0    0    0 -0.00000000000E+00 -0.00000000000E+00 -0.45593999997E+02  0.45594000000E+02  0.51100000000E-03 0.  1.
         23    2    1    2    0    0  0.00000000000E+00  0.00000000000E+00 -0.13322676296E-14  0.91188000000E+02  0.91188000000E+02 0.  0.
    9900012    2    3    3    0    0  0.35395757839E+02  0.94242727349E+01 -0.37544082269E+01  0.54367188348E+02  0.40000237476E+02 0.  0.
         12    1    3    3    0    0 -0.35395757839E+02 -0.94242727349E+01  0.37544082269E+01  0.36820811652E+02  0.00000000000E+00 0. -1.
         11    1    4    4    0    0  0.27641075538E+02 -0.50658454786E+01 -0.12014237582E+01  0.28127126882E+02  0.51100000000E-03 0. -1.
        -11    1    4    4    0    0  0.12263666758E+02  0.12106728560E+02  0.42388551298E+01  0.17746500834E+02  0.51100000000E-03 0.  1.
         12    1    4    4    0    0 -0.45089844570E+01  0.23833896537E+01 -0.67918395986E+01  0.84935606319E+01  0.00000000000E+00 0. -1.
</event>
<event>
 8    1  0.2509217E-006  0.9118800E+02  0.7816164E-02  0.1184000E+00
        -11   -1    0    0    0    0  0.00000000000E+00  0.00000000000E+00  0.45593999997E+02  0.45594000000E+02  0.51100000000E-03 0. -1.
         11   -1    0    0    0    0 -0.00000000000E+00 -0.00000000000E+00 -0.45593999997E+02  0.45594000000E+02  0.51100000000E-03 0.  1.
         23    2    1    2    0    0  0.35527136788E-14  0.17763568394E-14  0.35527136788E-14  0.91188000000E+02  0.91188000000E+02 0.  0.
    9900012    2    3    3    0    0  0.23042813558E+02  0.89021513548E+01  0.27304949971E+02  0.54367084091E+02  0.39999999803E+02 0.  0.
        -12    1    3    3    0    0 -0.23042813558E+02 -0.89021513548E+01 -0.27304949971E+02  0.36820915909E+02  0.00000000000E+00 0.  1.
         11    1    4    4    0    0  0.46640170234E+01  0.17282169158E+02  0.11645978334E+02  0.21355449824E+02  0.51100000000E-03 0. -1.
        -11    1    4    4    0    0  0.19127788756E+02  0.70323740745E+00  0.68311455753E+01  0.20323173858E+02  0.51100000000E-03 0.  1.
         12    1    4    4    0    0 -0.74899222077E+00 -0.90832552101E+01  0.88278260622E+01  0.12688460409E+02  0.00000000000E+00 0. -1.
</event>
<event>
 8    1  0.2509217E-006  0.9118800E+02  0.7816164E-02  0.1184000E+00
        -11   -1    0    0    0    0  0.00000000000E+00  0.00000000000E+00  0.45593999997E+02  0.45594000000E+02  0.51100000000E-03 0. -1.
         11   -1    0    0    0    0 -0.00000000000E+00 -0.00000000000E+00 -0.45593999997E+02  0.45594000000E+02  0.51100000000E-03 0.  1.
         23    2    1    2    0    0  0.88817841970E-15  0.35527136788E-14  0.00000000000E+00  0.91188000000E+02  0.91188000000E+02 0.  0.
    9900012    2    3    3    0    0 -0.21029620730E+01  0.31370267140E+02  0.19164136078E+02  0.54367079024E+02  0.39999988250E+02 0.  0.
        -12    1    3    3    0    0  0.21029620730E+01 -0.31370267140E+02 -0.19164136078E+02  0.36820920976E+02  0.00000000000E+00 0.  1.
         11    1    4    4    0    0 -0.67696530265E+01  0.11725526579E+02  0.21445507503E+02  0.25361899929E+02  0.51100000000E-03 0. -1.
        -11    1    4    4    0    0  0.84892749804E+01  0.28684765246E+01  0.50684252974E+01  0.10294895945E+02  0.51100000000E-03 0.  1.
        -12    1    4    4    0    0 -0.38225840269E+01  0.16776264037E+02 -0.73497967232E+01  0.18710283150E+02  0.00000000000E+00 0.  1.
</event>
<event>
 8    1  0.2509217E-006  0.9118800E+02  0.7816164E-02  0.1184000E+00
        -11   -1    0    0    0    0  0.00000000000E+00  0.00000000000E+00  0.45593999997E+02  0.45594000000E+02  0.51100000000E-03 0. -1.
         11   -1    0    0    0    0 -0.00000000000E+00 -0.00000000000E+00 -0.45593999997E+02  0.45594000000E+02  0.51100000000E-03 0.  1.
         23    2    1    2    0    0 -0.71054273576E-14  0.71054273576E-14  0.88817841970E-15  0.91188000000E+02  0.91188000000E+02 0.  0.
    9900012    2    3    3    0    0 -0.30990823629E+02  0.19700099265E+02  0.26937616396E+01  0.54367062858E+02  0.39999951397E+02 0.  0.
         12    1    3    3    0    0  0.30990823629E+02 -0.19700099265E+02 -0.26937616396E+01  0.36820937142E+02  0.00000000000E+00 0. -1.
         11    1    4    4    0    0  0.87543772032E-01 -0.19520710224E-02  0.26644300018E+01  0.26658685673E+01  0.51100000000E-03 0. -1.
        -11    1    4    4    0    0 -0.14429904875E+02 -0.52900857605E+01 -0.11850340987E+02  0.19407157026E+02  0.51100000000E-03 0.  1.
         12    1    4    4    0    0 -0.16648462526E+02  0.24992137097E+02  0.11879672625E+02  0.32294037264E+02  0.00000000000E+00 0. -1.
</event>
<event>
 8    1  0.2509217E-006  0.9118800E+02  0.7816164E-02  0.1184000E+00
        -11   -1    0    0    0    0  0.00000000000E+00  0.00000000000E+00  0.45593999997E+02  0.45594000000E+02  0.51100000000E-03 0.  1.
         11   -1    0    0    0    0 -0.00000000000E+00 -0.00000000000E+00 -0.45593999997E+02  0.45594000000E+02  0.51100000000E-03 0. -1.
         23    2    1    2    0    0  0.44408920985E-15  0.00000000000E+00  0.88817841970E-15  0.91188000000E+02  0.91188000000E+02 0.  0.
    9900012    2    3    3    0    0  0.33132505216E+01  0.36663960858E+02  0.74588189644E+00  0.54367082105E+02  0.39999995275E+02 0.  0.
        -12    1    3    3    0    0 -0.33132505216E+01 -0.36663960858E+02 -0.74588189644E+00  0.36820917895E+02  0.00000000000E+00 0.  1.
         11    1    4    4    0    0  0.58926060398E+01  0.16526085656E+01 -0.61269512346E+01  0.86598760212E+01  0.51100000000E-03 0. -1.
        -11    1    4    4    0    0 -0.75643071468E+01  0.16145032405E+02  0.16190073602E+02  0.24083174572E+02  0.51100000000E-03 0.  1.
        -12    1    4    4    0    0  0.49849516286E+01  0.18866319888E+02 -0.93172404706E+01  0.21624031512E+02  0.00000000000E+00 0.  1.
</event>
<event>
 8    1  0.2509217E-006  0.9118800E+02  0.7816164E-02  0.1184000E+00
        -11   -1    0    0    0    0  0.00000000000E+00  0.00000000000E+00  0.45593999997E+02  0.45594000000E+02  0.51100000000E-03 0. -1.
         11   -1    0    0    0    0 -0.00000000000E+00 -0.00000000000E+00 -0.45593999997E+02  0.45594000000E+02  0.51100000000E-03 0.  1.
         23    2    1    2    0    0  0.00000000000E+00  0.35527136788E-14  0.00000000000E+00  0.91188000000E+02  0.91188000000E+02 0.  0.
    9900012    2    3    3    0    0  0.11774691149E+02 -0.28254685503E+02 -0.20464916616E+02  0.54367035637E+02  0.39999889341E+02 0.  0.
         12    1    3    3    0    0 -0.11774691149E+02  0.28254685503E+02  0.20464916616E+02  0.36820964363E+02  0.00000000000E+00 0. -1.
         11    1    4    4    0    0  0.10481268021E+02 -0.99864849150E+01  0.36174469699E+01  0.14922224470E+02  0.51100000000E-03 0. -1.
        -11    1    4    4    0    0 -0.72913293554E+00 -0.61499394046E+01 -0.26248710383E+02  0.26969393515E+02  0.51100000000E-03 0.  1.
        -12    1    4    4    0    0  0.20225560636E+01 -0.12118261184E+02  0.21663467970E+01  0.12475417652E+02  0.00000000000E+00 0.  1.
</event>
<event>
 8    1  0.2509217E-006  0.9118800E+02  0.7816164E-02  0.1184000E+00
        -11   -1    0    0    0    0  0.00000000000E+00  0.00000000000E+00  0.45593999997E+02  0.45594000000E+02  0.51100000000E-03 0.  1.
         11   -1    0    0    0    0 -0.00000000000E+00 -0.00000000000E+00 -0.45593999997E+02  0.45594000000E+02  0.51100000000E-03 0. -1.
         23    2    1    2    0    0  0.00000000000E+00  0.00000000000E+00 -0.88817841970E-15  0.91188000000E+02  0.91188000000E+02 0.  0.
    9900012    2    3    3    0    0 -0.17716193865E+02 -0.31683997070E+02 -0.61676906967E+01  0.54367087411E+02  0.40000007370E+02 0.  0.
        -12    1    3    3    0    0  0.17716193865E+02  0.31683997070E+02  0.61676906967E+01  0.36820912589E+02  0.00000000000E+00 0.  1.
         11    1    4    4    0    0 -0.23789876828E+02 -0.29582218018E+02 -0.25826443696E+01  0.38049125017E+02  0.51100000000E-03 0. -1.
        -11    1    4    4    0    0  0.69884776306E+01 -0.51764280628E+01  0.28299283381E+01  0.91456394934E+01  0.51100000000E-03 0.  1.
        -12    1    4    4    0    0 -0.91479466677E+00  0.30746490110E+01 -0.64149746652E+01  0.71723228998E+01  0.00000000000E+00 0.  1.
</event>
<event>
 8    1  0.2509217E-006  0.9118800E+02  0.7816164E-02  0.1184000E+00
        -11   -1    0    0    0    0  0.00000000000E+00  0.00000000000E+00  0.45593999997E+02  0.45594000000E+02  0.51100000000E-03 0.  1.
         11   -1    0    0    0    0 -0.00000000000E+00 -0.00000000000E+00 -0.45593999997E+02  0.45594000000E+02  0.51100000000E-03 0. -1.
         23    2    1    2    0    0  0.00000000000E+00  0.35527136788E-14  0.00000000000E+00  0.91188000000E+02  0.91188000000E+02 0.  0.
    9900012    2    3    3    0    0 -0.90528962428E+01 -0.28531847261E+02 -0.21442068477E+02  0.54367033974E+02  0.39999885551E+02 0.  0.
        -12    1    3    3    0    0  0.90528962428E+01  0.28531847261E+02  0.21442068477E+02  0.36820966026E+02  0.00000000000E+00 0.  1.
         11    1    4    4    0    0 -0.93604276607E+01  0.12006155720E+01 -0.42661337904E-01  0.94372084852E+01  0.51100000000E-03 0. -1.
        -11    1    4    4    0    0 -0.12812508474E+02 -0.15891442834E+02 -0.11812710754E+02  0.23584708273E+02  0.51100000000E-03 0.  1.
         12    1    4    4    0    0  0.13120039891E+02 -0.13841019999E+02 -0.95866963846E+01  0.21345117216E+02  0.00000000000E+00 0. -1.
</event>
<event>
 8    1  0.2509217E-006  0.9118800E+02  0.7816164E-02  0.1184000E+00
        -11   -1    0    0    0    0  0.00000000000E+00  0.00000000000E+00  0.45593999997E+02  0.45594000000E+02  0.51100000000E-03 0.  1.
         11   -1    0    0    0    0 -0.00000000000E+00 -0.00000000000E+00 -0.45593999997E+02  0.45594000000E+02  0.51100000000E-03 0. -1.
         23    2    1    2    0    0 -0.35527136788E-14  0.00000000000E+00  0.88817841970E-15  0.91188000000E+02  0.91188000000E+02 0.  0.
    9900012    2    3    3    0    0 -0.21929196664E+02 -0.28609898950E+02  0.75075932367E+01  0.54367082840E+02  0.39999996950E+02 0.  0.
         12    1    3    3    0    0  0.21929196664E+02  0.28609898950E+02 -0.75075932367E+01  0.36820917160E+02  0.00000000000E+00 0. -1.
         11    1    4    4    0    0 -0.93584926792E+01 -0.16542126978E+00 -0.10821053925E+02  0.14307479084E+02  0.51100000000E-03 0. -1.
        -11    1    4    4    0    0  0.68851824100E+00 -0.19622260618E+02  0.11275478021E+02  0.22641633643E+02  0.51100000000E-03 0.  1.
        -12    1    4    4    0    0 -0.13259222226E+02 -0.88222170622E+01  0.70531691408E+01  0.17417970113E+02  0.00000000000E+00 0.  1.
</event>
<event>
 8    1  0.2509217E-006  0.9118800E+02  0.7816164E-02  0.1184000E+00
        -11   -1    0    0    0    0  0.00000000000E+00  0.00000000000E+00  0.45593999997E+02  0.45594000000E+02  0.51100000000E-03 0. -1.
         11   -1    0    0    0    0 -0.00000000000E+00 -0.00000000000E+00 -0.45593999997E+02  0.45594000000E+02  0.51100000000E-03 0.  1.
         23    2    1    2    0    0  0.00000000000E+00 -0.35527136788E-14  0.00000000000E+00  0.91188000000E+02  0.91188000000E+02 0.  0.
    9900012    2    3    3    0    0  0.74242637785E+01 -0.22768944527E+02  0.27968469172E+02  0.54367084811E+02  0.40000001444E+02 0.  0.
         12    1    3    3    0    0 -0.74242637785E+01  0.22768944527E+02 -0.27968469172E+02  0.36820915189E+02  0.00000000000E+00 0. -1.
         11    1    4    4    0    0  0.11683101483E+02 -0.10350235738E+00  0.21935103319E+02  0.24852652391E+02  0.51100000000E-03 0. -1.
        -11    1    4    4    0    0 -0.73656198433E+00 -0.13940942162E+02  0.11969902209E+02  0.18389424980E+02  0.51100000000E-03 0.  1.
        -12    1    4    4    0    0 -0.35222757201E+01 -0.87245000071E+01 -0.59365363570E+01  0.11125007440E+02  0.00000000000E+00 0.  1.
</event>
<event>
 8    1  0.2509217E-006  0.9118800E+02  0.7816164E-02  0.1184000E+00
        -11   -1    0    0    0    0  0.00000000000E+00  0.00000000000E+00  0.45593999997E+02  0.45594000000E+02  0.51100000000E-03 0. -1.
         11   -1    0    0    0    0 -0.00000000000E+00 -0.00000000000E+00 -0.45593999997E+02  0.45594000000E+02  0.51100000000E-03 0.  1.
         23    2    1    2    0    0 -0.71054273576E-14  0.17763568394E-14  0.00000000000E+00  0.91188000000E+02  0.91188000000E+02 0.  0.
    9900012    2    3    3    0    0  0.26995468278E+02  0.29580033923E+01  0.24865141476E+02  0.54367077249E+02  0.39999984204E+02 0.  0.
        -12    1    3    3    0    0 -0.26995468278E+02 -0.29580033923E+01 -0.24865141476E+02  0.36820922751E+02  0.00000000000E+00 0.  1.
         11    1    4    4    0    0  0.39261891087E+01  0.54996767016E+01  0.87651061212E+01  0.11067451844E+02  0.51100000000E-03 0. -1.
        -11    1    4    4    0    0 -0.63389613425E+01  0.66213241261E+01  0.56730879794E+01  0.10779994971E+02  0.51100000000E-03 0.  1.
        -12    1    4    4    0    0  0.29408240512E+02 -0.91629974354E+01  0.10426947375E+02  0.32519630434E+02  0.00000000000E+00 0.  1.
</event>
<event>
 8    1  0.2509217E-006  0.9118800E+02  0.7816164E-02  0.1184000E+00
        -11   -1    0    0    0    0  0.00000000000E+00  0.00000000000E+00  0.45593999997E+02  0.45594000000E+02  0.51100000000E-03 0. -1.
         11   -1    0    0    0    0 -0.00000000000E+00 -0.00000000000E+00 -0.45593999997E+02  0.45594000000E+02  0.51100000000E-03 0.  1.
         23    2    1    2    0    0  0.00000000000E+00  0.35527136788E-14 -0.35527136788E-14  0.91188000000E+02  0.91188000000E+02 0.  0.
    9900012    2    3    3    0    0 -0.13470228962E+02  0.25049900520E+02  0.23384523066E+02  0.54367075197E+02  0.39999979526E+02 0.  0.
        -12    1    3    3    0    0  0.13470228962E+02 -0.25049900520E+02 -0.23384523066E+02  0.36820924803E+02  0.00000000000E+00 0.  1.
         11    1    4    4    0    0 -0.77147490564E+01  0.27831954830E+02  0.16264146896E+02  0.33146003337E+02  0.51100000000E-03 0. -1.
        -11    1    4    4    0    0 -0.67026012962E+01  0.27161760074E+01  0.11866236176E+02  0.13896403761E+02  0.51100000000E-03 0.  1.
        -12    1    4    4    0    0  0.94712139078E+00 -0.54982303179E+01 -0.47458600064E+01  0.73246680988E+01  0.00000000000E+00 0.  1.
</event>
<event>
 8    1  0.2509217E-006  0.9118800E+02  0.7816164E-02  0.1184000E+00
        -11   -1    0    0    0    0  0.00000000000E+00  0.00000000000E+00  0.45593999997E+02  0.45594000000E+02  0.51100000000E-03 0. -1.
         11   -1    0    0    0    0 -0.00000000000E+00 -0.00000000000E+00 -0.45593999997E+02  0.45594000000E+02  0.51100000000E-03 0.  1.
         23    2    1    2    0    0 -0.35527136788E-14  0.00000000000E+00  0.35527136788E-14  0.91188000000E+02  0.91188000000E+02 0.  0.
    9900012    2    3    3    0    0 -0.17879611044E+02 -0.50645843275E+01 -0.31787551777E+02  0.54367096243E+02  0.40000027505E+02 0.  0.
         12    1    3    3    0    0  0.17879611044E+02  0.50645843275E+01  0.31787551777E+02  0.36820903757E+02  0.00000000000E+00 0. -1.
         11    1    4    4    0    0  0.36333844695E+01  0.10617658073E+02  0.15171743395E+00  0.11223153037E+02  0.51100000000E-03 0.  1.
        -11    1    4    4    0    0 -0.69674998935E+01 -0.10908857063E+02 -0.19565773297E+02  0.23459938238E+02  0.51100000000E-03 0. -1.
        -12    1    4    4    0    0 -0.14545495620E+02 -0.47733853377E+01 -0.12373495914E+02  0.19684004968E+02  0.00000000000E+00 0.  1.
</event>
<event>
 8    1  0.2509217E-006  0.9118800E+02  0.7816164E-02  0.1184000E+00
        -11   -1    0    0    0    0  0.00000000000E+00  0.00000000000E+00  0.45593999997E+02  0.45594000000E+02  0.51100000000E-03 0. -1.
         11   -1    0    0    0    0 -0.00000000000E+00 -0.00000000000E+00 -0.45593999997E+02  0.45594000000E+02  0.51100000000E-03 0.  1.
         23    2    1    2    0    0 -0.17763568394E-14  0.00000000000E+00  0.00000000000E+00  0.91188000000E+02  0.91188000000E+02 0.  0.
    9900012    2    3    3    0    0 -0.41237681630E+01 -0.94055816638E+01  0.35359716929E+02  0.54367081875E+02  0.39999994750E+02 0.  0.
        -12    1    3    3    0    0  0.41237681630E+01  0.94055816638E+01 -0.35359716929E+02  0.36820918125E+02  0.00000000000E+00 0.  1.
         11    1    4    4    0    0  0.91173216355E+01 -0.76861197084E+01  0.16852955307E+02  0.20645195393E+02  0.51100000000E-03 0. -1.
        -11    1    4    4    0    0 -0.15284497775E+00  0.76688249665E+00 -0.58808904145E+01  0.59326505610E+01  0.51100000000E-03 0.  1.
         12    1    4    4    0    0 -0.13088244821E+02 -0.24863444520E+01  0.24387652036E+02  0.27789235920E+02  0.00000000000E+00 0. -1.
</event>
<event>
 8    1  0.2509217E-006  0.9118800E+02  0.7816164E-02  0.1184000E+00
        -11   -1    0    0    0    0  0.00000000000E+00  0.00000000000E+00  0.45593999997E+02  0.45594000000E+02  0.51100000000E-03 0.  1.
         11   -1    0    0    0    0 -0.00000000000E+00 -0.00000000000E+00 -0.45593999997E+02  0.45594000000E+02  0.51100000000E-03 0. -1.
         23    2    1    2    0    0  0.71054273576E-14  0.00000000000E+00  0.00000000000E+00  0.91188000000E+02  0.91188000000E+02 0.  0.
    9900012    2    3    3    0    0 -0.30446538859E+02 -0.15167539464E+02 -0.14097518556E+02  0.54367000403E+02  0.39999809017E+02 0.  0.
        -12    1    3    3    0    0  0.30446538859E+02  0.15167539464E+02  0.14097518556E+02  0.36820999597E+02  0.00000000000E+00 0.  1.
         11    1    4    4    0    0 -0.37812713347E+01 -0.91065082220E+01  0.84231235592E+01  0.12968250293E+02  0.51100000000E-03 0. -1.
        -11    1    4    4    0    0  0.27190036419E+01  0.91786311919E-01 -0.71939474532E+01  0.76911823377E+01  0.51100000000E-03 0.  1.
         12    1    4    4    0    0 -0.29384271166E+02 -0.61528175540E+01 -0.15326694662E+02  0.33707567772E+02  0.00000000000E+00 0. -1.
</event>
<event>
 8    1  0.2509217E-006  0.9118800E+02  0.7816164E-02  0.1184000E+00
        -11   -1    0    0    0    0  0.00000000000E+00  0.00000000000E+00  0.45593999997E+02  0.45594000000E+02  0.51100000000E-03 0.  1.
         11   -1    0    0    0    0 -0.00000000000E+00 -0.00000000000E+00 -0.45593999997E+02  0.45594000000E+02  0.51100000000E-03 0. -1.
         23    2    1    2    0    0  0.00000000000E+00  0.44408920985E-15  0.35527136788E-14  0.91188000000E+02  0.91188000000E+02 0.  0.
    9900012    2    3    3    0    0 -0.26091373426E+02 -0.29693948803E+01 -0.25810907141E+02  0.54367082023E+02  0.39999995088E+02 0.  0.
        -12    1    3    3    0    0  0.26091373426E+02  0.29693948803E+01  0.25810907141E+02  0.36820917977E+02  0.00000000000E+00 0.  1.
         11    1    4    4    0    0 -0.67083602810E+00  0.26055416649E+01 -0.84320738264E+01  0.88509173321E+01  0.51100000000E-03 0. -1.
        -11    1    4    4    0    0 -0.44204255934E+01  0.59561337549E+01  0.77979633657E+01  0.10762152417E+02  0.51100000000E-03 0.  1.
         12    1    4    4    0    0 -0.21000111805E+02 -0.11531070300E+02 -0.25176796680E+02  0.34754012274E+02  0.00000000000E+00 0. -1.
</event>
<event>
 8    1  0.2509217E-006  0.9118800E+02  0.7816164E-02  0.1184000E+00
        -11   -1    0    0    0    0  0.00000000000E+00  0.00000000000E+00  0.45593999997E+02  0.45594000000E+02  0.51100000000E-03 0. -1.
         11   -1    0    0    0    0 -0.00000000000E+00 -0.00000000000E+00 -0.45593999997E+02  0.45594000000E+02  0.51100000000E-03 0.  1.
         23    2    1    2    0    0  0.38857805862E-15  0.35527136788E-14  0.00000000000E+00  0.91188000000E+02  0.91188000000E+02 0.  0.
    9900012    2    3    3    0    0  0.77870115106E-01 -0.28628773473E+02  0.23155283765E+02  0.54367083382E+02  0.39999998187E+02 0.  0.
        -12    1    3    3    0    0 -0.77870115106E-01  0.28628773473E+02 -0.23155283765E+02  0.36820916618E+02  0.00000000000E+00 0.  1.
         11    1    4    4    0    0 -0.85231942090E+00  0.60136882190E+01  0.10826766185E+02  0.12414095242E+02  0.51100000000E-03 0. -1.
        -11    1    4    4    0    0 -0.76184202447E+01 -0.27914544888E+02  0.66849938895E+01  0.29697664671E+02  0.51100000000E-03 0.  1.
         12    1    4    4    0    0  0.85486097807E+01 -0.67279168041E+01  0.56435236904E+01  0.12255323470E+02  0.00000000000E+00 0. -1.
</event>
<event>
 8    1  0.2509217E-006  0.9118800E+02  0.7816164E-02  0.1184000E+00
        -11   -1    0    0    0    0  0.00000000000E+00  0.00000000000E+00  0.45593999997E+02  0.45594000000E+02  0.51100000000E-03 0.  1.
         11   -1    0    0    0    0 -0.00000000000E+00 -0.00000000000E+00 -0.45593999997E+02  0.45594000000E+02  0.51100000000E-03 0. -1.
         23    2    1    2    0    0  0.00000000000E+00  0.00000000000E+00  0.17763568394E-14  0.91188000000E+02  0.91188000000E+02 0.  0.
    9900012    2    3    3    0    0 -0.32146947480E+02 -0.95676227321E+01 -0.15192606033E+02  0.54367069606E+02  0.39999966780E+02 0.  0.
         12    1    3    3    0    0  0.32146947480E+02  0.95676227321E+01  0.15192606033E+02  0.36820930394E+02  0.00000000000E+00 0. -1.
         11    1    4    4    0    0 -0.53128093580E+01 -0.57060341092E+01  0.64804976878E+01  0.10138127000E+02  0.51100000000E-03 0. -1.
        -11    1    4    4    0    0  0.17382052528E+01 -0.77641849333E+00 -0.14479174008E+02  0.14603789351E+02  0.51100000000E-03 0.  1.
        -12    1    4    4    0    0 -0.28572343375E+02 -0.30851701295E+01 -0.71939297131E+01  0.29625153255E+02  0.00000000000E+00 0.  1.
</event>
<event>
 8    1  0.2509217E-006  0.9118800E+02  0.7816164E-02  0.1184000E+00
        -11   -1    0    0    0    0  0.00000000000E+00  0.00000000000E+00  0.45593999997E+02  0.45594000000E+02  0.51100000000E-03 0. -1.
         11   -1    0    0    0    0 -0.00000000000E+00 -0.00000000000E+00 -0.45593999997E+02  0.45594000000E+02  0.51100000000E-03 0.  1.
         23    2    1    2    0    0  0.00000000000E+00 -0.17763568394E-14 -0.71054273576E-14  0.91188000000E+02  0.91188000000E+02 0.  0.
    9900012    2    3    3    0    0 -0.12735894686E+02 -0.71821546493E+01  0.33793325091E+02  0.54367147490E+02  0.40000144332E+02 0.  0.
        -12    1    3    3    0    0  0.12735894686E+02  0.71821546493E+01 -0.33793325091E+02  0.36820852510E+02  0.00000000000E+00 0.  1.
         11    1    4    4    0    0  0.37207534431E+01  0.79913440153E+01  0.13405595418E-01  0.88150873692E+01  0.51100000000E-03 0. -1.
        -11    1    4    4    0    0  0.74913612554E+00  0.29338414683E+01 -0.56935820459E+00  0.30810387408E+01  0.51100000000E-03 0.  1.
         12    1    4    4    0    0 -0.17205784255E+02 -0.18107340133E+02  0.34349277700E+02  0.42471021380E+02  0.00000000000E+00 0. -1.
</event>
<event>
 8    1  0.2509217E-006  0.9118800E+02  0.7816164E-02  0.1184000E+00
        -11   -1    0    0    0    0  0.00000000000E+00  0.00000000000E+00  0.45593999997E+02  0.45594000000E+02  0.51100000000E-03 0.  1.
         11   -1    0    0    0    0 -0.00000000000E+00 -0.00000000000E+00 -0.45593999997E+02  0.45594000000E+02  0.51100000000E-03 0. -1.
         23    2    1    2    0    0  0.00000000000E+00  0.00000000000E+00  0.17763568394E-14  0.91188000000E+02  0.91188000000E+02 0.  0.
    9900012    2    3    3    0    0  0.32387185578E+02 -0.12202517817E+02  0.12567802022E+02  0.54367070104E+02  0.39999967916E+02 0.  0.
         12    1    3    3    0    0 -0.32387185578E+02  0.12202517817E+02 -0.12567802022E+02  0.36820929896E+02  0.00000000000E+00 0. -1.
         11    1    4    4    0    0  0.21518101329E+02 -0.73126408760E+01  0.30755677926E+01  0.22933872741E+02  0.51100000000E-03 0. -1.
        -11    1    4    4    0    0  0.19701831565E+02 -0.10954699716E+01  0.93097507280E+01  0.21818196083E+02  0.51100000000E-03 0.  1.
         12    1    4    4    0    0 -0.88327473153E+01 -0.37944069695E+01  0.18248350183E+00  0.96150012800E+01  0.00000000000E+00 0. -1.
</event>
<event>
 8    1  0.2509217E-006  0.9118800E+02  0.7816164E-02  0.1184000E+00
        -11   -1    0    0    0    0  0.00000000000E+00  0.00000000000E+00  0.45593999997E+02  0.45594000000E+02  0.51100000000E-03 0.  1.
         11   -1    0    0    0    0 -0.00000000000E+00 -0.00000000000E+00 -0.45593999997E+02  0.45594000000E+02  0.51100000000E-03 0. -1.
         23    2    1    2    0    0  0.00000000000E+00  0.00000000000E+00  0.35527136788E-14  0.91188000000E+02  0.91188000000E+02 0.  0.
    9900012    2    3    3    0    0 -0.26481647195E+02 -0.17302332653E+02  0.18844916213E+02  0.54367092617E+02  0.40000019240E+02 0.  0.
         12    1    3    3    0    0  0.26481647195E+02  0.17302332653E+02 -0.18844916213E+02  0.36820907383E+02  0.00000000000E+00 0. -1.
         11    1    4    4    0    0 -0.52375173817E+01 -0.12248334643E+01  0.21188100615E+02  0.21860178711E+02  0.51100000000E-03 0.  1.
        -11    1    4    4    0    0  0.10684308517E+01 -0.61551418611E+00 -0.50757716705E+01  0.52233954963E+01  0.51100000000E-03 0. -1.
        -12    1    4    4    0    0 -0.22312560665E+02 -0.15461985003E+02  0.27325872684E+01  0.27283518410E+02  0.00000000000E+00 0.  1.
</event>
<event>
 8    1  0.2509217E-006  0.9118800E+02  0.7816164E-02  0.1184000E+00
        -11   -1    0    0    0    0  0.00000000000E+00  0.00000000000E+00  0.45593999997E+02  0.45594000000E+02  0.51100000000E-03 0.  1.
         11   -1    0    0    0    0 -0.00000000000E+00 -0.00000000000E+00 -0.45593999997E+02  0.45594000000E+02  0.51100000000E-03 0. -1.
         23    2    1    2    0    0  0.00000000000E+00  0.00000000000E+00  0.00000000000E+00  0.91188000000E+02  0.91188000000E+02 0.  0.
    9900012    2    3    3    0    0 -0.19158976514E+02 -0.65557534585E+01  0.30752818744E+02  0.54367080061E+02  0.39999990615E+02 0.  0.
         12    1    3    3    0    0  0.19158976514E+02  0.65557534585E+01 -0.30752818744E+02  0.36820919939E+02  0.00000000000E+00 0. -1.
         11    1    4    4    0    0 -0.24773208547E+01  0.12236892166E+02  0.21354507462E+02  0.24736483940E+02  0.51100000000E-03 0. -1.
        -11    1    4    4    0    0 -0.15880611808E+02 -0.16724080617E+02  0.34972368096E+01  0.23326366400E+02  0.51100000000E-03 0.  1.
         12    1    4    4    0    0 -0.80104385161E+00 -0.20685650074E+01  0.59010744721E+01  0.63042297204E+01  0.00000000000E+00 0. -1.
</event>
<event>
 8    1  0.2509217E-006  0.9118800E+02  0.7816164E-02  0.1184000E+00
        -11   -1    0    0    0    0  0.00000000000E+00  0.00000000000E+00  0.45593999997E+02  0.45594000000E+02  0.51100000000E-03 0.  1.
         11   -1    0    0    0    0 -0.00000000000E+00 -0.00000000000E+00 -0.45593999997E+02  0.45594000000E+02  0.51100000000E-03 0. -1.
         23    2    1    2    0    0 -0.88817841970E-15  0.00000000000E+00  0.00000000000E+00  0.91188000000E+02  0.91188000000E+02 0.  0.
    9900012    2    3    3    0    0 -0.63927081376E+01  0.30801348485E+02 -0.19136096329E+02  0.54367082460E+02  0.39999996083E+02 0.  0.
        -12    1    3    3    0    0  0.63927081376E+01 -0.30801348485E+02  0.19136096329E+02  0.36820917540E+02  0.00000000000E+00 0.  1.
         11    1    4    4    0    0 -0.81987706804E+01  0.13480563847E+02 -0.19365452773E+02  0.24979315516E+02  0.51100000000E-03 0. -1.
        -11    1    4    4    0    0 -0.43860423078E+01 -0.33588028554E+01  0.48046936856E+01  0.73214756314E+01  0.51100000000E-03 0.  1.
         12    1    4    4    0    0  0.61921048506E+01  0.20679587494E+02 -0.45753372414E+01  0.22066291312E+02  0.00000000000E+00 0. -1.
</event>
<event>
 8    1  0.2509217E-006  0.9118800E+02  0.7816164E-02  0.1184000E+00
        -11   -1    0    0    0    0  0.00000000000E+00  0.00000000000E+00  0.45593999997E+02  0.45594000000E+02  0.51100000000E-03 0. -1.
         11   -1    0    0    0    0 -0.00000000000E+00 -0.00000000000E+00 -0.45593999997E+02  0.45594000000E+02  0.51100000000E-03 0.  1.
         23    2    1    2    0    0 -0.17763568394E-14  0.13322676296E-14  0.00000000000E+00  0.91188000000E+02  0.91188000000E+02 0.  0.
    9900012    2    3    3    0    0 -0.13863556272E+02  0.38830583103E+01 -0.33889592920E+02  0.54367070590E+02  0.39999969024E+02 0.  0.
         12    1    3    3    0    0  0.13863556272E+02 -0.38830583103E+01  0.33889592920E+02  0.36820929410E+02  0.00000000000E+00 0. -1.
         11    1    4    4    0    0 -0.86252075002E+01  0.97644375748E+00  0.17077244563E+01  0.88466925974E+01  0.51100000000E-03 0. -1.
        -11    1    4    4    0    0 -0.87687783543E+01 -0.23223174167E+01 -0.37772747125E+02  0.38846686572E+02  0.51100000000E-03 0.  1.
        -12    1    4    4    0    0  0.35304295822E+01  0.52289319695E+01  0.21754297492E+01  0.66736914201E+01  0.00000000000E+00 0.  1.
</event>
<event>
 8    1  0.2509217E-006  0.9118800E+02  0.7816164E-02  0.1184000E+00
        -11   -1    0    0    0    0  0.00000000000E+00  0.00000000000E+00  0.45593999997E+02  0.45594000000E+02  0.51100000000E-03 0.  1.
         11   -1    0    0    0    0 -0.00000000000E+00 -0.00000000000E+00 -0.45593999997E+02  0.45594000000E+02  0.51100000000E-03 0. -1.
         23    2    1    2    0    0  0.00000000000E+00  0.00000000000E+00  0.17763568394E-14  0.91188000000E+02  0.91188000000E+02 0.  0.
    9900012    2    3    3    0    0 -0.33935675817E+02  0.12236293028E+02 -0.73771494633E+01  0.54367091613E+02  0.40000016951E+02 0.  0.
        -12    1    3    3    0    0  0.33935675817E+02 -0.12236293028E+02  0.73771494633E+01  0.36820908387E+02  0.00000000000E+00 0.  1.
         11    1    4    4    0    0  0.30639979649E+00  0.25691987664E+01 -0.14141588896E+02  0.14376341673E+02  0.51100000000E-03 0. -1.
        -11    1    4    4    0    0 -0.91307139539E+01 -0.31961250679E+01  0.67156701423E+01  0.11776475639E+02  0.51100000000E-03 0.  1.
        -12    1    4    4    0    0 -0.25111361659E+02  0.12863219330E+02  0.48769289981E-01  0.28214274301E+02  0.00000000000E+00 0.  1.
</event>
<event>
 8    1  0.2509217E-006  0.9118800E+02  0.7816164E-02  0.1184000E+00
        -11   -1    0    0    0    0  0.00000000000E+00  0.00000000000E+00  0.45593999997E+02  0.45594000000E+02  0.51100000000E-03 0.  1.
         11   -1    0    0    0    0 -0.00000000000E+00 -0.00000000000E+00 -0.45593999997E+02  0.45594000000E+02  0.51100000000E-03 0. -1.
         23    2    1    2    0    0  0.00000000000E+00  0.00000000000E+00  0.35527136788E-14  0.91188000000E+02  0.91188000000E+02 0.  0.
    9900012    2    3    3    0    0 -0.23582447386E+01 -0.32359691511E+02  0.17408912652E+02  0.54367065837E+02  0.39999958188E+02 0.  0.
         12    1    3    3    0    0  0.23582447386E+01  0.32359691511E+02 -0.17408912652E+02  0.36820934163E+02  0.00000000000E+00 0. -1.
         11    1    4    4    0    0 -0.26592167567E+01  0.51124359212E+01  0.40179191883E+01  0.70251056698E+01  0.51100000000E-03 0. -1.
        -11    1    4    4    0    0  0.54771517345E+01 -0.72451039896E+01  0.13977695433E+02  0.16669333904E+02  0.51100000000E-03 0.  1.
         12    1    4    4    0    0 -0.51761797164E+01 -0.30227023442E+02 -0.58670196870E+00  0.30672626263E+02  0.00000000000E+00 0. -1.
</event>
<event>
 8    1  0.2509217E-006  0.9118800E+02  0.7816164E-02  0.1184000E+00
        -11   -1    0    0    0    0  0.00000000000E+00  0.00000000000E+00  0.45593999997E+02  0.45594000000E+02  0.51100000000E-03 0.  1.
         11   -1    0    0    0    0 -0.00000000000E+00 -0.00000000000E+00 -0.45593999997E+02  0.45594000000E+02  0.51100000000E-03 0. -1.
         23    2    1    2    0    0  0.00000000000E+00 -0.35527136788E-14  0.00000000000E+00  0.91188000000E+02  0.91188000000E+02 0.  0.
    9900012    2    3    3    0    0 -0.28730424119E+02  0.21416619947E+02 -0.84658767580E+01  0.54367082720E+02  0.39999996677E+02 0.  0.
        -12    1    3    3    0    0  0.28730424119E+02 -0.21416619947E+02  0.84658767580E+01  0.36820917280E+02  0.00000000000E+00 0.  1.
         11    1    4    4    0    0 -0.85208954398E+01  0.10695802792E+02 -0.19909874883E+02  0.24153860449E+02  0.51100000000E-03 0. -1.
        -11    1    4    4    0    0  0.15725136519E+01 -0.20427479114E+01  0.19837976348E+01  0.32528559039E+01  0.51100000000E-03 0.  1.
        -12    1    4    4    0    0 -0.21782042332E+02  0.12763565066E+02  0.94602004905E+01  0.26960366367E+02  0.00000000000E+00 0.  1.
</event>
<event>
 8    1  0.2509217E-006  0.9118800E+02  0.7816164E-02  0.1184000E+00
        -11   -1    0    0    0    0  0.00000000000E+00  0.00000000000E+00  0.45593999997E+02  0.45594000000E+02  0.51100000000E-03 0. -1.
         11   -1    0    0    0    0 -0.00000000000E+00 -0.00000000000E+00 -0.45593999997E+02  0.45594000000E+02  0.51100000000E-03 0.  1.
         23    2    1    2    0    0  0.00000000000E+00 -0.88817841970E-15  0.00000000000E+00  0.91188000000E+02  0.91188000000E+02 0.  0.
    9900012    2    3    3    0    0  0.35286993572E+02  0.26693525312E+01 -0.10172660426E+02  0.54367076894E+02  0.39999983395E+02 0.  0.
         12    1    3    3    0    0 -0.35286993572E+02 -0.26693525312E+01  0.10172660426E+02  0.36820923106E+02  0.00000000000E+00 0. -1.
         11    1    4    4    0    0  0.12020782420E+02 -0.87055584895E+01 -0.15054213128E+02  0.21140371136E+02  0.51100000000E-03 0. -1.
        -11    1    4    4    0    0  0.63013993289E+01  0.81232331313E+01 -0.68429067654E+01  0.12349895678E+02  0.51100000000E-03 0.  1.
         12    1    4    4    0    0  0.16964811822E+02  0.32516778895E+01  0.11724459468E+02  0.20876810079E+02  0.00000000000E+00 0. -1.
</event>
<event>
 8    1  0.2509217E-006  0.9118800E+02  0.7816164E-02  0.1184000E+00
        -11   -1    0    0    0    0  0.00000000000E+00  0.00000000000E+00  0.45593999997E+02  0.45594000000E+02  0.51100000000E-03 0. -1.
         11   -1    0    0    0    0 -0.00000000000E+00 -0.00000000000E+00 -0.45593999997E+02  0.45594000000E+02  0.51100000000E-03 0.  1.
         23    2    1    2    0    0  0.00000000000E+00  0.00000000000E+00  0.00000000000E+00  0.91188000000E+02  0.91188000000E+02 0.  0.
    9900012    2    3    3    0    0  0.96881111224E+01 -0.10249169119E+02  0.34012880474E+02  0.54367068414E+02  0.39999964063E+02 0.  0.
        -12    1    3    3    0    0 -0.96881111224E+01  0.10249169119E+02 -0.34012880474E+02  0.36820931586E+02  0.00000000000E+00 0.  1.
         11    1    4    4    0    0  0.62476387645E+01 -0.12417941168E+02  0.21323372921E+02  0.25454360844E+02  0.51100000000E-03 0. -1.
        -11    1    4    4    0    0  0.10027682828E+02  0.70561075858E+01 -0.16710390445E+01  0.12374790863E+02  0.51100000000E-03 0.  1.
         12    1    4    4    0    0 -0.65872104696E+01 -0.48873355364E+01  0.14360546598E+02  0.16537916707E+02  0.00000000000E+00 0. -1.
</event>
<event>
 8    1  0.2509217E-006  0.9118800E+02  0.7816164E-02  0.1184000E+00
        -11   -1    0    0    0    0  0.00000000000E+00  0.00000000000E+00  0.45593999997E+02  0.45594000000E+02  0.51100000000E-03 0. -1.
         11   -1    0    0    0    0 -0.00000000000E+00 -0.00000000000E+00 -0.45593999997E+02  0.45594000000E+02  0.51100000000E-03 0.  1.
         23    2    1    2    0    0 -0.17763568394E-14  0.00000000000E+00  0.00000000000E+00  0.91188000000E+02  0.91188000000E+02 0.  0.
    9900012    2    3    3    0    0  0.10099315083E+02 -0.34473832287E+02 -0.80831189880E+01  0.54367107965E+02  0.40000054227E+02 0.  0.
         12    1    3    3    0    0 -0.10099315083E+02  0.34473832287E+02  0.80831189880E+01  0.36820892035E+02  0.00000000000E+00 0. -1.
         11    1    4    4    0    0  0.77012033781E+01 -0.27973848938E+01  0.65776887701E+00  0.82198878260E+01  0.51100000000E-03 0. -1.
        -11    1    4    4    0    0  0.16585568478E+02 -0.20781641492E+02 -0.86664005592E+00  0.26602796283E+02  0.51100000000E-03 0.  1.
        -12    1    4    4    0    0 -0.14187456772E+02 -0.10894805902E+02 -0.78742478091E+01  0.19544423856E+02  0.00000000000E+00 0.  1.
</event>
<event>
 8    1  0.2509217E-006  0.9118800E+02  0.7816164E-02  0.1184000E+00
        -11   -1    0    0    0    0  0.00000000000E+00  0.00000000000E+00  0.45593999997E+02  0.45594000000E+02  0.51100000000E-03 0.  1.
         11   -1    0    0    0    0 -0.00000000000E+00 -0.00000000000E+00 -0.45593999997E+02  0.45594000000E+02  0.51100000000E-03 0. -1.
         23    2    1    2    0    0  0.00000000000E+00  0.00000000000E+00 -0.71054273576E-14  0.91188000000E+02  0.91188000000E+02 0.  0.
    9900012    2    3    3    0    0 -0.43895089913E+01 -0.92542959137E+01  0.35367634128E+02  0.54367091186E+02  0.40000015977E+02 0.  0.
         12    1    3    3    0    0  0.43895089913E+01  0.92542959137E+01 -0.35367634128E+02  0.36820908814E+02  0.00000000000E+00 0. -1.
         11    1    4    4    0    0 -0.32243743945E+01  0.42284076644E+00 -0.41607118836E+00  0.32784905131E+01  0.51100000000E-03 0. -1.
        -11    1    4    4    0    0  0.15740666858E+01 -0.63183120751E+01 -0.61350526027E+01  0.89463749144E+01  0.51100000000E-03 0.  1.
        -12    1    4    4    0    0 -0.27392012826E+01 -0.33588246051E+01  0.41918757919E+02  0.42142225759E+02  0.00000000000E+00 0.  1.
</event>
<event>
 8    1  0.2509217E-006  0.9118800E+02  0.7816164E-02  0.1184000E+00
        -11   -1    0    0    0    0  0.00000000000E+00  0.00000000000E+00  0.45593999997E+02  0.45594000000E+02  0.51100000000E-03 0. -1.
         11   -1    0    0    0    0 -0.00000000000E+00 -0.00000000000E+00 -0.45593999997E+02  0.45594000000E+02  0.51100000000E-03 0.  1.
         23    2    1    2    0    0  0.35527136788E-14  0.88817841970E-15  0.35527136788E-14  0.91188000000E+02  0.91188000000E+02 0.  0.
    9900012    2    3    3    0    0 -0.30017603146E+02  0.74287488540E+01 -0.19988455984E+02  0.54367065997E+02  0.39999958554E+02 0.  0.
         12    1    3    3    0    0  0.30017603146E+02 -0.74287488540E+01  0.19988455984E+02  0.36820934003E+02  0.00000000000E+00 0. -1.
         11    1    4    4    0    0  0.75489369463E+01  0.45826300171E+01  0.18807556017E+01  0.90290746363E+01  0.51100000000E-03 0. -1.
        -11    1    4    4    0    0 -0.85501744482E+01  0.41634252935E+01 -0.10445208027E+02  0.14125932332E+02  0.51100000000E-03 0.  1.
         12    1    4    4    0    0 -0.29016365644E+02 -0.13173064566E+01 -0.11424003559E+02  0.31212059029E+02  0.00000000000E+00 0. -1.
</event>
<event>
 8    1  0.2509217E-006  0.9118800E+02  0.7816164E-02  0.1184000E+00
        -11   -1    0    0    0    0  0.00000000000E+00  0.00000000000E+00  0.45593999997E+02  0.45594000000E+02  0.51100000000E-03 0.  1.
         11   -1    0    0    0    0 -0.00000000000E+00 -0.00000000000E+00 -0.45593999997E+02  0.45594000000E+02  0.51100000000E-03 0. -1.
         23    2    1    2    0    0  0.71054273576E-14  0.35527136788E-14 -0.17763568394E-14  0.91188000000E+02  0.91188000000E+02 0.  0.
    9900012    2    3    3    0    0  0.19442555833E+02  0.27606353230E+02 -0.14685236590E+02  0.54367083530E+02  0.39999998523E+02 0.  0.
        -12    1    3    3    0    0 -0.19442555833E+02 -0.27606353230E+02  0.14685236590E+02  0.36820916470E+02  0.00000000000E+00 0.  1.
         11    1    4    4    0    0  0.29140696950E+02  0.14399594835E+02 -0.13728678998E+02  0.35284630896E+02  0.51100000000E-03 0. -1.
        -11    1    4    4    0    0 -0.20045894867E+01  0.10812874753E+02 -0.35986620398E+00  0.11003006106E+02  0.51100000000E-03 0.  1.
         12    1    4    4    0    0 -0.76935516307E+01  0.23938836427E+01 -0.59669138852E+00  0.80794465282E+01  0.00000000000E+00 0. -1.
</event>
<event>
 8    1  0.2509217E-006  0.9118800E+02  0.7816164E-02  0.1184000E+00
        -11   -1    0    0    0    0  0.00000000000E+00  0.00000000000E+00  0.45593999997E+02  0.45594000000E+02  0.51100000000E-03 0.  1.
         11   -1    0    0    0    0 -0.00000000000E+00 -0.00000000000E+00 -0.45593999997E+02  0.45594000000E+02  0.51100000000E-03 0. -1.
         23    2    1    2    0    0  0.35527136788E-14  0.17763568394E-14  0.00000000000E+00  0.91188000000E+02  0.91188000000E+02 0.  0.
    9900012    2    3    3    0    0 -0.28870645205E+02  0.64018383809E+01 -0.21938025898E+02  0.54367154417E+02  0.40000160123E+02 0.  0.
        -12    1    3    3    0    0  0.28870645205E+02 -0.64018383809E+01  0.21938025898E+02  0.36820845583E+02  0.00000000000E+00 0.  1.
         11    1    4    4    0    0 -0.19101433382E+02  0.10667720660E+02 -0.25482262203E+01  0.22026313320E+02  0.51100000000E-03 0.  1.
        -11    1    4    4    0    0 -0.93670382933E+01 -0.11325432771E+02 -0.37367242965E+01  0.15164759891E+02  0.51100000000E-03 0. -1.
        -12    1    4    4    0    0 -0.40217352910E+00  0.70595504919E+01 -0.15653075381E+02  0.17176081205E+02  0.00000000000E+00 0.  1.
</event>
<event>
 8    1  0.2509217E-006  0.9118800E+02  0.7816164E-02  0.1184000E+00
        -11   -1    0    0    0    0  0.00000000000E+00  0.00000000000E+00  0.45593999997E+02  0.45594000000E+02  0.51100000000E-03 0. -1.
         11   -1    0    0    0    0 -0.00000000000E+00 -0.00000000000E+00 -0.45593999997E+02  0.45594000000E+02  0.51100000000E-03 0.  1.
         23    2    1    2    0    0  0.35527136788E-14  0.00000000000E+00  0.35527136788E-14  0.91188000000E+02  0.91188000000E+02 0.  0.
    9900012    2    3    3    0    0  0.22912604777E+02 -0.20225823464E+02  0.20535573919E+02  0.54367065892E+02  0.39999958313E+02 0.  0.
        -12    1    3    3    0    0 -0.22912604777E+02  0.20225823464E+02 -0.20535573919E+02  0.36820934108E+02  0.00000000000E+00 0.  1.
         11    1    4    4    0    0 -0.76462032718E+00 -0.21083808911E+01  0.43205363651E+01  0.48679512087E+01  0.51100000000E-03 0.  1.
        -11    1    4    4    0    0 -0.47609382374E+01 -0.13947823922E+02 -0.28468354596E+01  0.15010422961E+02  0.51100000000E-03 0. -1.
         12    1    4    4    0    0  0.28438163341E+02 -0.41696186505E+01  0.19061873013E+02  0.34488691722E+02  0.00000000000E+00 0. -1.
</event>
<event>
 8    1  0.2509217E-006  0.9118800E+02  0.7816164E-02  0.1184000E+00
        -11   -1    0    0    0    0  0.00000000000E+00  0.00000000000E+00  0.45593999997E+02  0.45594000000E+02  0.51100000000E-03 0. -1.
         11   -1    0    0    0    0 -0.00000000000E+00 -0.00000000000E+00 -0.45593999997E+02  0.45594000000E+02  0.51100000000E-03 0.  1.
         23    2    1    2    0    0 -0.88817841970E-15 -0.71054273576E-14  0.00000000000E+00  0.91188000000E+02  0.91188000000E+02 0.  0.
    9900012    2    3    3    0    0  0.28892622707E+01 -0.29226570477E+02  0.22209006377E+02  0.54367079009E+02  0.39999988218E+02 0.  0.
        -12    1    3    3    0    0 -0.28892622707E+01  0.29226570477E+02 -0.22209006377E+02  0.36820920991E+02  0.00000000000E+00 0.  1.
         11    1    4    4    0    0  0.56406985656E+01 -0.27996026832E+01  0.14467954971E+02  0.15779004303E+02  0.51100000000E-03 0. -1.
        -11    1    4    4    0    0  0.52358289370E+01 -0.64461330788E+01 -0.83058167535E+01  0.11745344973E+02  0.51100000000E-03 0.  1.
         12    1    4    4    0    0 -0.79872652318E+01 -0.19980834715E+02  0.16046868159E+02  0.26842729733E+02  0.00000000000E+00 0. -1.
</event>
<event>
 8    1  0.2509217E-006  0.9118800E+02  0.7816164E-02  0.1184000E+00
        -11   -1    0    0    0    0  0.00000000000E+00  0.00000000000E+00  0.45593999997E+02  0.45594000000E+02  0.51100000000E-03 0. -1.
         11   -1    0    0    0    0 -0.00000000000E+00 -0.00000000000E+00 -0.45593999997E+02  0.45594000000E+02  0.51100000000E-03 0.  1.
         23    2    1    2    0    0  0.00000000000E+00  0.00000000000E+00 -0.44408920985E-15  0.91188000000E+02  0.91188000000E+02 0.  0.
    9900012    2    3    3    0    0  0.75850520053E+01  0.35857255500E+02 -0.35361269651E+01  0.54367082306E+02  0.39999995733E+02 0.  0.
         12    1    3    3    0    0 -0.75850520053E+01 -0.35857255500E+02  0.35361269651E+01  0.36820917694E+02  0.00000000000E+00 0. -1.
         11    1    4    4    0    0 -0.62183624301E+01  0.22469820776E+02 -0.80116073438E+01  0.24652519739E+02  0.51100000000E-03 0.  1.
        -11    1    4    4    0    0  0.14955782526E+02  0.51544618958E+01  0.10897790912E+02  0.19209522519E+02  0.51100000000E-03 0. -1.
         12    1    4    4    0    0 -0.11523680903E+01  0.82329728287E+01 -0.64223105333E+01  0.10505040047E+02  0.00000000000E+00 0. -1.
</event>
<event>
 8    1  0.2509217E-006  0.9118800E+02  0.7816164E-02  0.1184000E+00
        -11   -1    0    0    0    0  0.00000000000E+00  0.00000000000E+00  0.45593999997E+02  0.45594000000E+02  0.51100000000E-03 0. -1.
         11   -1    0    0    0    0 -0.00000000000E+00 -0.00000000000E+00 -0.45593999997E+02  0.45594000000E+02  0.51100000000E-03 0.  1.
         23    2    1    2    0    0  0.00000000000E+00  0.35527136788E-14  0.27755575616E-15  0.91188000000E+02  0.91188000000E+02 0.  0.
    9900012    2    3    3    0    0 -0.26780370780E+02  0.25268064882E+02  0.34077124078E+00  0.54367088998E+02  0.40000010989E+02 0.  0.
        -12    1    3    3    0    0  0.26780370780E+02 -0.25268064882E+02 -0.34077124078E+00  0.36820911002E+02  0.00000000000E+00 0.  1.
         11    1    4    4    0    0 -0.26549289550E+02  0.15738552178E+01 -0.23258111282E+01  0.26697400501E+02  0.51100000000E-03 0. -1.
        -11    1    4    4    0    0 -0.48229171421E+01  0.56464494462E+01 -0.32836648189E+01  0.81194443167E+01  0.51100000000E-03 0.  1.
         12    1    4    4    0    0  0.45918359120E+01  0.18047760218E+02  0.59502471879E+01  0.19550244180E+02  0.00000000000E+00 0. -1.
</event>
<event>
 8    1  0.2509217E-006  0.9118800E+02  0.7816164E-02  0.1184000E+00
        -11   -1    0    0    0    0  0.00000000000E+00  0.00000000000E+00  0.45593999997E+02  0.45594000000E+02  0.51100000000E-03 0.  1.
         11   -1    0    0    0    0 -0.00000000000E+00 -0.00000000000E+00 -0.45593999997E+02  0.45594000000E+02  0.51100000000E-03 0. -1.
         23    2    1    2    0    0 -0.35527136788E-14  0.00000000000E+00  0.35527136788E-14  0.91188000000E+02  0.91188000000E+02 0.  0.
    9900012    2    3    3    0    0  0.21604071898E+02  0.17728724111E+02 -0.23973679574E+02  0.54367069899E+02  0.39999967448E+02 0.  0.
        -12    1    3    3    0    0 -0.21604071898E+02 -0.17728724111E+02  0.23973679574E+02  0.36820930101E+02  0.00000000000E+00 0.  1.
         11    1    4    4    0    0  0.54681074361E+01  0.45455807278E+01 -0.47754362111E+01  0.85654710526E+01  0.51100000000E-03 0. -1.
        -11    1    4    4    0    0  0.10469331733E+02  0.32941274086E+01 -0.28849536677E+02  0.30866712637E+02  0.51100000000E-03 0.  1.
        -12    1    4    4    0    0  0.56666327297E+01  0.98890159750E+01  0.96512933137E+01  0.14934886209E+02  0.00000000000E+00 0.  1.
</event>
<event>
 8    1  0.2509217E-006  0.9118800E+02  0.7816164E-02  0.1184000E+00
        -11   -1    0    0    0    0  0.00000000000E+00  0.00000000000E+00  0.45593999997E+02  0.45594000000E+02  0.51100000000E-03 0. -1.
         11   -1    0    0    0    0 -0.00000000000E+00 -0.00000000000E+00 -0.45593999997E+02  0.45594000000E+02  0.51100000000E-03 0.  1.
         23    2    1    2    0    0 -0.44408920985E-15  0.00000000000E+00  0.17763568394E-14  0.91188000000E+02  0.91188000000E+02 0.  0.
    9900012    2    3    3    0    0  0.14657183886E+01 -0.33177646812E+02 -0.15902053125E+02  0.54367083771E+02  0.39999999072E+02 0.  0.
        -12    1    3    3    0    0 -0.14657183886E+01  0.33177646812E+02  0.15902053125E+02  0.36820916229E+02  0.00000000000E+00 0.  1.
         11    1    4    4    0    0 -0.10018341415E+02 -0.14182464231E+02 -0.17582411467E+02  0.24711346577E+02  0.51100000000E-03 0. -1.
        -11    1    4    4    0    0 -0.37068016370E+01 -0.36590216413E+00 -0.34494811932E+01  0.50767296100E+01  0.51100000000E-03 0.  1.
        -12    1    4    4    0    0  0.15190861441E+02 -0.18629280416E+02  0.51298395352E+01  0.24579007584E+02  0.00000000000E+00 0.  1.
</event>
<event>
 8    1  0.2509217E-006  0.9118800E+02  0.7816164E-02  0.1184000E+00
        -11   -1    0    0    0    0  0.00000000000E+00  0.00000000000E+00  0.45593999997E+02  0.45594000000E+02  0.51100000000E-03 0. -1.
         11   -1    0    0    0    0 -0.00000000000E+00 -0.00000000000E+00 -0.45593999997E+02  0.45594000000E+02  0.51100000000E-03 0.  1.
         23    2    1    2    0    0 -0.88817841970E-15 -0.51347814889E-15  0.00000000000E+00  0.91188000000E+02  0.91188000000E+02 0.  0.
    9900012    2    3    3    0    0 -0.49752996517E+01  0.77837985278E-01  0.36483154666E+02  0.54367078776E+02  0.39999987686E+02 0.  0.
        -12    1    3    3    0    0  0.49752996517E+01 -0.77837985278E-01 -0.36483154666E+02  0.36820921224E+02  0.00000000000E+00 0.  1.
         11    1    4    4    0    0 -0.17223605812E+02 -0.52663012609E+01  0.15423291251E+02  0.23712115878E+02  0.51100000000E-03 0. -1.
        -11    1    4    4    0    0  0.11929262397E+02  0.10301978749E+02  0.10370726585E+02  0.18867698260E+02  0.51100000000E-03 0.  1.
         12    1    4    4    0    0  0.31904376329E+00 -0.49578395030E+01  0.10689136831E+02  0.11787264638E+02  0.00000000000E+00 0. -1.
</event>
<event>
 8    1  0.2509217E-006  0.9118800E+02  0.7816164E-02  0.1184000E+00
        -11   -1    0    0    0    0  0.00000000000E+00  0.00000000000E+00  0.45593999997E+02  0.45594000000E+02  0.51100000000E-03 0.  1.
         11   -1    0    0    0    0 -0.00000000000E+00 -0.00000000000E+00 -0.45593999997E+02  0.45594000000E+02  0.51100000000E-03 0. -1.
         23    2    1    2    0    0 -0.17763568394E-14  0.00000000000E+00  0.35527136788E-14  0.91188000000E+02  0.91188000000E+02 0.  0.
    9900012    2    3    3    0    0  0.13897244799E+02 -0.26144205636E+02  0.21888977513E+02  0.54367078802E+02  0.39999987744E+02 0.  0.
         12    1    3    3    0    0 -0.13897244799E+02  0.26144205636E+02 -0.21888977513E+02  0.36820921198E+02  0.00000000000E+00 0. -1.
         11    1    4    4    0    0  0.70516900571E+01  0.90533148192E+01 -0.90218267617E+00  0.11510985002E+02  0.51100000000E-03 0. -1.
        -11    1    4    4    0    0  0.10076305644E+01 -0.83673332114E+01  0.27606124578E+01  0.88684026650E+01  0.51100000000E-03 0.  1.
         12    1    4    4    0    0  0.58379241779E+01 -0.26830187244E+02  0.20030547731E+02  0.33987691134E+02  0.00000000000E+00 0. -1.
</event>
<event>
 8    1  0.2509217E-006  0.9118800E+02  0.7816164E-02  0.1184000E+00
        -11   -1    0    0    0    0  0.00000000000E+00  0.00000000000E+00  0.45593999997E+02  0.45594000000E+02  0.51100000000E-03 0. -1.
         11   -1    0    0    0    0 -0.00000000000E+00 -0.00000000000E+00 -0.45593999997E+02  0.45594000000E+02  0.51100000000E-03 0.  1.
         23    2    1    2    0    0  0.00000000000E+00  0.11102230246E-14 -0.35527136788E-14  0.91188000000E+02  0.91188000000E+02 0.  0.
    9900012    2    3    3    0    0 -0.24302681747E+02 -0.13470418066E+01  0.27628711955E+02  0.54367074074E+02  0.39999976967E+02 0.  0.
        -12    1    3    3    0    0  0.24302681747E+02  0.13470418066E+01 -0.27628711955E+02  0.36820925926E+02  0.00000000000E+00 0.  1.
         11    1    4    4    0    0 -0.82681951880E+00 -0.74308286338E+01  0.11823002079E+02  0.13988717708E+02  0.51100000000E-03 0. -1.
        -11    1    4    4    0    0 -0.15132671566E+02  0.88861575943E+01 -0.46117716613E+01  0.18144695743E+02  0.51100000000E-03 0.  1.
         12    1    4    4    0    0 -0.83431906631E+01 -0.28023707672E+01  0.20417481537E+02  0.22233660622E+02  0.00000000000E+00 0. -1.
</event>
<event>
 8    1  0.2509217E-006  0.9118800E+02  0.7816164E-02  0.1184000E+00
        -11   -1    0    0    0    0  0.00000000000E+00  0.00000000000E+00  0.45593999997E+02  0.45594000000E+02  0.51100000000E-03 0. -1.
         11   -1    0    0    0    0 -0.00000000000E+00 -0.00000000000E+00 -0.45593999997E+02  0.45594000000E+02  0.51100000000E-03 0.  1.
         23    2    1    2    0    0  0.00000000000E+00 -0.35527136788E-14  0.35527136788E-14  0.91188000000E+02  0.91188000000E+02 0.  0.
    9900012    2    3    3    0    0  0.17873449081E+02  0.18771152462E+02  0.26152691338E+02  0.54367087314E+02  0.40000007150E+02 0.  0.
        -12    1    3    3    0    0 -0.17873449081E+02 -0.18771152462E+02 -0.26152691338E+02  0.36820912686E+02  0.00000000000E+00 0.  1.
         11    1    4    4    0    0 -0.39606464634E+01 -0.81356672453E+01  0.13625600980E+01  0.91505394494E+01  0.51100000000E-03 0. -1.
        -11    1    4    4    0    0  0.29292185842E+01  0.33857661015E+01 -0.19628811910E+01  0.48884186031E+01  0.51100000000E-03 0.  1.
         12    1    4    4    0    0  0.18904876960E+02  0.23521053606E+02  0.26753012431E+02  0.40328129262E+02  0.00000000000E+00 0. -1.
</event>
<event>
 8    1  0.2509217E-006  0.9118800E+02  0.7816164E-02  0.1184000E+00
        -11   -1    0    0    0    0  0.00000000000E+00  0.00000000000E+00  0.45593999997E+02  0.45594000000E+02  0.51100000000E-03 0. -1.
         11   -1    0    0    0    0 -0.00000000000E+00 -0.00000000000E+00 -0.45593999997E+02  0.45594000000E+02  0.51100000000E-03 0.  1.
         23    2    1    2    0    0  0.17763568394E-14  0.00000000000E+00  0.00000000000E+00  0.91188000000E+02  0.91188000000E+02 0.  0.
    9900012    2    3    3    0    0 -0.15055029706E+02 -0.11452481170E+02 -0.31590635397E+02  0.54367061810E+02  0.39999949009E+02 0.  0.
         12    1    3    3    0    0  0.15055029706E+02  0.11452481170E+02  0.31590635397E+02  0.36820938190E+02  0.00000000000E+00 0. -1.
         11    1    4    4    0    0 -0.69784091522E+00  0.25833524355E+01  0.45389332773E+01  0.52690233731E+01  0.51100000000E-03 0. -1.
        -11    1    4    4    0    0 -0.10319691949E+02 -0.16842386334E+02 -0.93193043071E+01  0.21840591851E+02  0.51100000000E-03 0.  1.
        -12    1    4    4    0    0 -0.40374968409E+01  0.28065527290E+01 -0.26810264367E+02  0.27257446586E+02  0.00000000000E+00 0.  1.
</event>
<event>
 8    1  0.2509217E-006  0.9118800E+02  0.7816164E-02  0.1184000E+00
        -11   -1    0    0    0    0  0.00000000000E+00  0.00000000000E+00  0.45593999997E+02  0.45594000000E+02  0.51100000000E-03 0. -1.
         11   -1    0    0    0    0 -0.00000000000E+00 -0.00000000000E+00 -0.45593999997E+02  0.45594000000E+02  0.51100000000E-03 0.  1.
         23    2    1    2    0    0  0.00000000000E+00  0.00000000000E+00  0.00000000000E+00  0.91188000000E+02  0.91188000000E+02 0.  0.
    9900012    2    3    3    0    0  0.29569116436E+02 -0.16749973487E+02 -0.14173429911E+02  0.54367076953E+02  0.39999983529E+02 0.  0.
         12    1    3    3    0    0 -0.29569116436E+02  0.16749973487E+02  0.14173429911E+02  0.36820923047E+02  0.00000000000E+00 0. -1.
         11    1    4    4    0    0  0.89254472077E+01 -0.57864356471E+01  0.89372936938E+00  0.10674511596E+02  0.51100000000E-03 0. -1.
        -11    1    4    4    0    0  0.20332910616E+02  0.21094128133E+00  0.48031229965E+01  0.20893581338E+02  0.51100000000E-03 0.  1.
        -12    1    4    4    0    0  0.31075861233E+00 -0.11174479121E+02 -0.19870282277E+02  0.22798984019E+02  0.00000000000E+00 0.  1.
</event>
<event>
 8    1  0.2509217E-006  0.9118800E+02  0.7816164E-02  0.1184000E+00
        -11   -1    0    0    0    0  0.00000000000E+00  0.00000000000E+00  0.45593999997E+02  0.45594000000E+02  0.51100000000E-03 0. -1.
         11   -1    0    0    0    0 -0.00000000000E+00 -0.00000000000E+00 -0.45593999997E+02  0.45594000000E+02  0.51100000000E-03 0.  1.
         23    2    1    2    0    0  0.00000000000E+00  0.00000000000E+00  0.13322676296E-14  0.91188000000E+02  0.91188000000E+02 0.  0.
    9900012    2    3    3    0    0  0.26548862912E+02  0.25374724396E+02 -0.26573527486E+01  0.54367078179E+02  0.39999986325E+02 0.  0.
        -12    1    3    3    0    0 -0.26548862912E+02 -0.25374724396E+02  0.26573527486E+01  0.36820921821E+02  0.00000000000E+00 0.  1.
         11    1    4    4    0    0  0.88092381182E+01  0.15130305311E+01  0.11973132677E+02  0.14941480649E+02  0.51100000000E-03 0. -1.
        -11    1    4    4    0    0  0.55038455460E+00  0.18611225203E+02 -0.68285563687E+01  0.19832039962E+02  0.51100000000E-03 0.  1.
        -12    1    4    4    0    0  0.17189240239E+02  0.52504686619E+01 -0.78019290573E+01  0.19593557569E+02  0.00000000000E+00 0.  1.
</event>
<event>
 8    1  0.2509217E-006  0.9118800E+02  0.7816164E-02  0.1184000E+00
        -11   -1    0    0    0    0  0.00000000000E+00  0.00000000000E+00  0.45593999997E+02  0.45594000000E+02  0.51100000000E-03 0. -1.
         11   -1    0    0    0    0 -0.00000000000E+00 -0.00000000000E+00 -0.45593999997E+02  0.45594000000E+02  0.51100000000E-03 0.  1.
         23    2    1    2    0    0 -0.17763568394E-14  0.00000000000E+00  0.00000000000E+00  0.91188000000E+02  0.91188000000E+02 0.  0.
    9900012    2    3    3    0    0  0.77696044317E+01  0.39505141394E+01 -0.35774364812E+02  0.54367102500E+02  0.40000041769E+02 0.  0.
         12    1    3    3    0    0 -0.77696044317E+01 -0.39505141394E+01  0.35774364812E+02  0.36820897500E+02  0.00000000000E+00 0. -1.
         11    1    4    4    0    0 -0.41674297866E+01  0.46444412696E+01 -0.42782234772E+01  0.75658113983E+01  0.51100000000E-03 0. -1.
        -11    1    4    4    0    0  0.16946546838E+02 -0.12773718165E+02 -0.16341365328E+02  0.26784203302E+02  0.51100000000E-03 0.  1.
        -12    1    4    4    0    0 -0.50095126194E+01  0.12079791035E+02 -0.15154776008E+02  0.20017087800E+02  0.00000000000E+00 0.  1.
</event>
<event>
 8    1  0.2509217E-006  0.9118800E+02  0.7816164E-02  0.1184000E+00
        -11   -1    0    0    0    0  0.00000000000E+00  0.00000000000E+00  0.45593999997E+02  0.45594000000E+02  0.51100000000E-03 0.  1.
         11   -1    0    0    0    0 -0.00000000000E+00 -0.00000000000E+00 -0.45593999997E+02  0.45594000000E+02  0.51100000000E-03 0. -1.
         23    2    1    2    0    0  0.00000000000E+00  0.35527136788E-14  0.00000000000E+00  0.91188000000E+02  0.91188000000E+02 0.  0.
    9900012    2    3    3    0    0  0.28777195904E+02 -0.21484162175E+02 -0.81294765861E+01  0.54367019323E+02  0.39999852149E+02 0.  0.
        -12    1    3    3    0    0 -0.28777195904E+02  0.21484162175E+02  0.81294765861E+01  0.36820980677E+02  0.00000000000E+00 0.  1.
         11    1    4    4    0    0  0.93595259964E+01 -0.33517747385E+01 -0.12530773704E+02  0.15995480945E+02  0.51100000000E-03 0. -1.
        -11    1    4    4    0    0  0.12700535484E+02 -0.12964498939E+01  0.13077346886E+02  0.18275704795E+02  0.51100000000E-03 0.  1.
        -12    1    4    4    0    0  0.67171344236E+01 -0.16835937543E+02 -0.86760497683E+01  0.20095833583E+02  0.00000000000E+00 0.  1.
</event>
<event>
 8    1  0.2509217E-006  0.9118800E+02  0.7816164E-02  0.1184000E+00
        -11   -1    0    0    0    0  0.00000000000E+00  0.00000000000E+00  0.45593999997E+02  0.45594000000E+02  0.51100000000E-03 0.  1.
         11   -1    0    0    0    0 -0.00000000000E+00 -0.00000000000E+00 -0.45593999997E+02  0.45594000000E+02  0.51100000000E-03 0. -1.
         23    2    1    2    0    0  0.00000000000E+00 -0.17763568394E-14  0.00000000000E+00  0.91188000000E+02  0.91188000000E+02 0.  0.
    9900012    2    3    3    0    0 -0.26166141174E+02  0.52580154827E+01  0.25366638608E+02  0.54367081692E+02  0.39999994333E+02 0.  0.
         12    1    3    3    0    0  0.26166141174E+02 -0.52580154827E+01 -0.25366638608E+02  0.36820918308E+02  0.00000000000E+00 0. -1.
         11    1    4    4    0    0 -0.21607673524E+02 -0.10859663951E+02  0.18564567941E+01  0.24254283917E+02  0.51100000000E-03 0. -1.
        -11    1    4    4    0    0 -0.57223209353E+01  0.48934296260E+01  0.91679153615E+01  0.11863443123E+02  0.51100000000E-03 0.  1.
         12    1    4    4    0    0  0.11638532857E+01  0.11224249807E+02  0.14342266453E+02  0.18249354652E+02  0.00000000000E+00 0. -1.
</event>
<event>
 8    1  0.2509217E-006  0.9118800E+02  0.7816164E-02  0.1184000E+00
        -11   -1    0    0    0    0  0.00000000000E+00  0.00000000000E+00  0.45593999997E+02  0.45594000000E+02  0.51100000000E-03 0. -1.
         11   -1    0    0    0    0 -0.00000000000E+00 -0.00000000000E+00 -0.45593999997E+02  0.45594000000E+02  0.51100000000E-03 0.  1.
         23    2    1    2    0    0 -0.35527136788E-14  0.00000000000E+00  0.00000000000E+00  0.91188000000E+02  0.91188000000E+02 0.  0.
    9900012    2    3    3    0    0 -0.30446495740E+02 -0.98241501816E+01 -0.18228444973E+02  0.54367092410E+02  0.40000018767E+02 0.  0.
         12    1    3    3    0    0  0.30446495740E+02  0.98241501816E+01  0.18228444973E+02  0.36820907590E+02  0.00000000000E+00 0. -1.
         11    1    4    4    0    0 -0.23876195606E+02  0.73145284348E+01  0.15109384892E+01  0.25017153679E+02  0.51100000000E-03 0. -1.
        -11    1    4    4    0    0  0.27138962436E+00 -0.11307381061E+02 -0.56660150707E+01  0.12650464254E+02  0.51100000000E-03 0.  1.
        -12    1    4    4    0    0 -0.68416897580E+01 -0.58312975549E+01 -0.14073368392E+02  0.16699474477E+02  0.00000000000E+00 0.  1.
</event>
<event>
 8    1  0.2509217E-006  0.9118800E+02  0.7816164E-02  0.1184000E+00
        -11   -1    0    0    0    0  0.00000000000E+00  0.00000000000E+00  0.45593999997E+02  0.45594000000E+02  0.51100000000E-03 0.  1.
         11   -1    0    0    0    0 -0.00000000000E+00 -0.00000000000E+00 -0.45593999997E+02  0.45594000000E+02  0.51100000000E-03 0. -1.
         23    2    1    2    0    0  0.35527136788E-14  0.35527136788E-14  0.00000000000E+00  0.91188000000E+02  0.91188000000E+02 0.  0.
    9900012    2    3    3    0    0  0.27911610902E+02  0.22430961589E+02  0.85775334409E+01  0.54367080119E+02  0.39999990747E+02 0.  0.
        -12    1    3    3    0    0 -0.27911610902E+02 -0.22430961589E+02 -0.85775334409E+01  0.36820919881E+02  0.00000000000E+00 0.  1.
         11    1    4    4    0    0  0.24056846910E+02 -0.80410987925E-01  0.31531787495E+01  0.24262746870E+02  0.51100000000E-03 0. -1.
        -11    1    4    4    0    0  0.75350687007E+01  0.15422387450E+01 -0.12517259939E+01  0.77924693709E+01  0.51100000000E-03 0.  1.
        -12    1    4    4    0    0 -0.36803047083E+01  0.20969133832E+02  0.66760806853E+01  0.22311863878E+02  0.00000000000E+00 0.  1.
</event>
<event>
 8    1  0.2509217E-006  0.9118800E+02  0.7816164E-02  0.1184000E+00
        -11   -1    0    0    0    0  0.00000000000E+00  0.00000000000E+00  0.45593999997E+02  0.45594000000E+02  0.51100000000E-03 0.  1.
         11   -1    0    0    0    0 -0.00000000000E+00 -0.00000000000E+00 -0.45593999997E+02  0.45594000000E+02  0.51100000000E-03 0. -1.
         23    2    1    2    0    0 -0.35527136788E-14 -0.35527136788E-14  0.26645352591E-14  0.91188000000E+02  0.91188000000E+02 0.  0.
    9900012    2    3    3    0    0  0.31742726951E+02 -0.17651215623E+02 -0.60509402159E+01  0.54367081968E+02  0.39999994961E+02 0.  0.
         12    1    3    3    0    0 -0.31742726951E+02  0.17651215623E+02  0.60509402159E+01  0.36820918032E+02  0.00000000000E+00 0. -1.
         11    1    4    4    0    0 -0.37106620935E+01  0.29105219608E+01 -0.42213071157E+01  0.63292641976E+01  0.51100000000E-03 0. -1.
        -11    1    4    4    0    0  0.29133843813E+02 -0.21922068847E+02  0.69683856509E+01  0.37120295751E+02  0.51100000000E-03 0.  1.
        -12    1    4    4    0    0  0.63195452317E+01  0.13603312630E+01 -0.87980187511E+01  0.10917522019E+02  0.00000000000E+00 0.  1.
</event>
<event>
 8    1  0.2509217E-006  0.9118800E+02  0.7816164E-02  0.1184000E+00
        -11   -1    0    0    0    0  0.00000000000E+00  0.00000000000E+00  0.45593999997E+02  0.45594000000E+02  0.51100000000E-03 0.  1.
         11   -1    0    0    0    0 -0.00000000000E+00 -0.00000000000E+00 -0.45593999997E+02  0.45594000000E+02  0.51100000000E-03 0. -1.
         23    2    1    2    0    0 -0.35527136788E-14 -0.17763568394E-14  0.00000000000E+00  0.91188000000E+02  0.91188000000E+02 0.  0.
    9900012    2    3    3    0    0  0.29390969275E+02  0.26452688942E+01  0.22021706168E+02  0.54367053991E+02  0.39999931184E+02 0.  0.
         12    1    3    3    0    0 -0.29390969275E+02 -0.26452688942E+01 -0.22021706168E+02  0.36820946009E+02  0.00000000000E+00 0. -1.
         11    1    4    4    0    0  0.68255244521E+01  0.18539217191E+02  0.12691610169E+02  0.23481212214E+02  0.51100000000E-03 0. -1.
        -11    1    4    4    0    0  0.82925942180E+01 -0.10679688294E+02  0.10030956692E+01  0.13558357648E+02  0.51100000000E-03 0.  1.
         12    1    4    4    0    0  0.14272850605E+02 -0.52142600028E+01  0.83270003296E+01  0.17327484129E+02  0.00000000000E+00 0. -1.
</event>
<event>
 8    1  0.2509217E-006  0.9118800E+02  0.7816164E-02  0.1184000E+00
        -11   -1    0    0    0    0  0.00000000000E+00  0.00000000000E+00  0.45593999997E+02  0.45594000000E+02  0.51100000000E-03 0. -1.
         11   -1    0    0    0    0 -0.00000000000E+00 -0.00000000000E+00 -0.45593999997E+02  0.45594000000E+02  0.51100000000E-03 0.  1.
         23    2    1    2    0    0 -0.66613381478E-15  0.00000000000E+00  0.00000000000E+00  0.91188000000E+02  0.91188000000E+02 0.  0.
    9900012    2    3    3    0    0 -0.18333785204E+01  0.32339534170E+02 -0.17509215506E+02  0.54367090522E+02  0.40000014464E+02 0.  0.
         12    1    3    3    0    0  0.18333785204E+01 -0.32339534170E+02  0.17509215506E+02  0.36820909478E+02  0.00000000000E+00 0. -1.
         11    1    4    4    0    0  0.92827316898E+00  0.19296074224E+02  0.80087326618E+01  0.20912674880E+02  0.51100000000E-03 0. -1.
        -11    1    4    4    0    0  0.62281331438E+01  0.76060771629E+01 -0.66822595584E+01  0.11886742419E+02  0.51100000000E-03 0.  1.
         12    1    4    4    0    0 -0.89897848331E+01  0.54373827829E+01 -0.18835688610E+02  0.21567673224E+02  0.00000000000E+00 0. -1.
</event>
<event>
 8    1  0.2509217E-006  0.9118800E+02  0.7816164E-02  0.1184000E+00
        -11   -1    0    0    0    0  0.00000000000E+00  0.00000000000E+00  0.45593999997E+02  0.45594000000E+02  0.51100000000E-03 0. -1.
         11   -1    0    0    0    0 -0.00000000000E+00 -0.00000000000E+00 -0.45593999997E+02  0.45594000000E+02  0.51100000000E-03 0.  1.
         23    2    1    2    0    0  0.00000000000E+00  0.00000000000E+00  0.00000000000E+00  0.91188000000E+02  0.91188000000E+02 0.  0.
    9900012    2    3    3    0    0 -0.24680901543E+02 -0.26722179330E+02 -0.57060237696E+01  0.54367075564E+02  0.39999980362E+02 0.  0.
         12    1    3    3    0    0  0.24680901543E+02  0.26722179330E+02  0.57060237696E+01  0.36820924436E+02  0.00000000000E+00 0. -1.
         11    1    4    4    0    0  0.77716056859E+01  0.16009048361E+01 -0.39711301731E+01  0.88730280257E+01  0.51100000000E-03 0. -1.
        -11    1    4    4    0    0 -0.95065942783E+01 -0.76640506044E+01  0.60851680032E+01  0.13643396803E+02  0.51100000000E-03 0.  1.
        -12    1    4    4    0    0 -0.22945912950E+02 -0.20659033561E+02 -0.78200615997E+01  0.31850650735E+02  0.00000000000E+00 0.  1.
</event>
<event>
 8    1  0.2509217E-006  0.9118800E+02  0.7816164E-02  0.1184000E+00
        -11   -1    0    0    0    0  0.00000000000E+00  0.00000000000E+00  0.45593999997E+02  0.45594000000E+02  0.51100000000E-03 0. -1.
         11   -1    0    0    0    0 -0.00000000000E+00 -0.00000000000E+00 -0.45593999997E+02  0.45594000000E+02  0.51100000000E-03 0.  1.
         23    2    1    2    0    0 -0.35527136788E-14  0.88817841970E-15  0.00000000000E+00  0.91188000000E+02  0.91188000000E+02 0.  0.
    9900012    2    3    3    0    0  0.24372639987E+02 -0.44808206925E+01  0.27233717587E+02  0.54367099581E+02  0.40000035115E+02 0.  0.
        -12    1    3    3    0    0 -0.24372639987E+02  0.44808206925E+01 -0.27233717587E+02  0.36820900419E+02  0.00000000000E+00 0.  1.
         11    1    4    4    0    0  0.12847511539E+02 -0.12080089605E+02  0.25519312596E+02  0.31019710399E+02  0.51100000000E-03 0. -1.
        -11    1    4    4    0    0  0.15829810005E+02  0.47611351283E+01 -0.24612327367E+01  0.16712538986E+02  0.51100000000E-03 0.  1.
         12    1    4    4    0    0 -0.43046815572E+01  0.28381337847E+01  0.41756377285E+01  0.66348501964E+01  0.00000000000E+00 0. -1.
</event>
<event>
 8    1  0.2509217E-006  0.9118800E+02  0.7816164E-02  0.1184000E+00
        -11   -1    0    0    0    0  0.00000000000E+00  0.00000000000E+00  0.45593999997E+02  0.45594000000E+02  0.51100000000E-03 0. -1.
         11   -1    0    0    0    0 -0.00000000000E+00 -0.00000000000E+00 -0.45593999997E+02  0.45594000000E+02  0.51100000000E-03 0.  1.
         23    2    1    2    0    0  0.35527136788E-14  0.00000000000E+00  0.00000000000E+00  0.91188000000E+02  0.91188000000E+02 0.  0.
    9900012    2    3    3    0    0  0.17535820264E+02 -0.25864564946E+02 -0.19475623746E+02  0.54367073444E+02  0.39999975530E+02 0.  0.
         12    1    3    3    0    0 -0.17535820264E+02  0.25864564946E+02  0.19475623746E+02  0.36820926556E+02  0.00000000000E+00 0. -1.
         11    1    4    4    0    0  0.61314960817E+01  0.57928886894E+00 -0.31413273548E+01  0.69136645568E+01  0.51100000000E-03 0. -1.
        -11    1    4    4    0    0  0.88367666052E+01 -0.26914298569E+01 -0.21152495152E+02  0.23081600684E+02  0.51100000000E-03 0.  1.
         12    1    4    4    0    0  0.25675575775E+01 -0.23752423958E+02  0.48181987612E+01  0.24371808203E+02  0.00000000000E+00 0. -1.
</event>
<event>
 8    1  0.2509217E-006  0.9118800E+02  0.7816164E-02  0.1184000E+00
        -11   -1    0    0    0    0  0.00000000000E+00  0.00000000000E+00  0.45593999997E+02  0.45594000000E+02  0.51100000000E-03 0. -1.
         11   -1    0    0    0    0 -0.00000000000E+00 -0.00000000000E+00 -0.45593999997E+02  0.45594000000E+02  0.51100000000E-03 0.  1.
         23    2    1    2    0    0  0.00000000000E+00  0.00000000000E+00 -0.35527136788E-14  0.91188000000E+02  0.91188000000E+02 0.  0.
    9900012    2    3    3    0    0 -0.22988199950E+02 -0.30991916083E+01 -0.28595772256E+02  0.54367075019E+02  0.39999979120E+02 0.  0.
         12    1    3    3    0    0  0.22988199950E+02  0.30991916083E+01  0.28595772256E+02  0.36820924981E+02  0.00000000000E+00 0. -1.
         11    1    4    4    0    0  0.94174515180E+01  0.34803847583E+01 -0.24265888515E+01  0.10329075703E+02  0.51100000000E-03 0. -1.
        -11    1    4    4    0    0 -0.22432131723E+02 -0.30698164309E+00 -0.22312411992E+02  0.31640772755E+02  0.51100000000E-03 0.  1.
         12    1    4    4    0    0 -0.99735197447E+01 -0.62725947236E+01 -0.38567714125E+01  0.12397226561E+02  0.00000000000E+00 0. -1.
</event>
<event>
 8    1  0.2509217E-006  0.9118800E+02  0.7816164E-02  0.1184000E+00
        -11   -1    0    0    0    0  0.00000000000E+00  0.00000000000E+00  0.45593999997E+02  0.45594000000E+02  0.51100000000E-03 0.  1.
         11   -1    0    0    0    0 -0.00000000000E+00 -0.00000000000E+00 -0.45593999997E+02  0.45594000000E+02  0.51100000000E-03 0. -1.
         23    2    1    2    0    0  0.35527136788E-14  0.35527136788E-14  0.00000000000E+00  0.91188000000E+02  0.91188000000E+02 0.  0.
    9900012    2    3    3    0    0 -0.16708031647E+02 -0.26460150331E+02  0.19403124140E+02  0.54367094207E+02  0.40000022863E+02 0.  0.
         12    1    3    3    0    0  0.16708031647E+02  0.26460150331E+02 -0.19403124140E+02  0.36820905793E+02  0.00000000000E+00 0. -1.
         11    1    4    4    0    0 -0.81560640972E+01 -0.84688976832E+01  0.10205773118E+02  0.15569245798E+02  0.51100000000E-03 0. -1.
        -11    1    4    4    0    0 -0.16554552231E+02 -0.10849708409E+02  0.16544375845E+02  0.25797010379E+02  0.51100000000E-03 0.  1.
         12    1    4    4    0    0  0.80025846814E+01 -0.71415442393E+01 -0.73470248240E+01  0.13000838030E+02  0.00000000000E+00 0. -1.
</event>
<event>
 8    1  0.2509217E-006  0.9118800E+02  0.7816164E-02  0.1184000E+00
        -11   -1    0    0    0    0  0.00000000000E+00  0.00000000000E+00  0.45593999997E+02  0.45594000000E+02  0.51100000000E-03 0. -1.
         11   -1    0    0    0    0 -0.00000000000E+00 -0.00000000000E+00 -0.45593999997E+02  0.45594000000E+02  0.51100000000E-03 0.  1.
         23    2    1    2    0    0  0.88817841970E-15  0.00000000000E+00  0.35527136788E-14  0.91188000000E+02  0.91188000000E+02 0.  0.
    9900012    2    3    3    0    0 -0.22326937873E+01  0.22765517975E+02  0.28853520199E+02  0.54367090748E+02  0.40000014979E+02 0.  0.
        -12    1    3    3    0    0  0.22326937873E+01 -0.22765517975E+02 -0.28853520199E+02  0.36820909252E+02  0.00000000000E+00 0.  1.
         11    1    4    4    0    0  0.28304921120E+01  0.81955579845E+01  0.13727792454E+00  0.86716608423E+01  0.51100000000E-03 0. -1.
        -11    1    4    4    0    0  0.10108133837E+02 -0.20563226974E+00  0.11957466807E+00  0.10110932334E+02  0.51100000000E-03 0.  1.
        -12    1    4    4    0    0 -0.15171319737E+02  0.14775592261E+02  0.28596667607E+02  0.35584497572E+02  0.00000000000E+00 0.  1.
</event>
<event>
 8    1  0.2509217E-006  0.9118800E+02  0.7816164E-02  0.1184000E+00
        -11   -1    0    0    0    0  0.00000000000E+00  0.00000000000E+00  0.45593999997E+02  0.45594000000E+02  0.51100000000E-03 0.  1.
         11   -1    0    0    0    0 -0.00000000000E+00 -0.00000000000E+00 -0.45593999997E+02  0.45594000000E+02  0.51100000000E-03 0. -1.
         23    2    1    2    0    0  0.88817841970E-15  0.00000000000E+00  0.00000000000E+00  0.91188000000E+02  0.91188000000E+02 0.  0.
    9900012    2    3    3    0    0 -0.67459484894E+01 -0.19143281346E+02 -0.30721509951E+02  0.54367024790E+02  0.39999864614E+02 0.  0.
        -12    1    3    3    0    0  0.67459484894E+01  0.19143281346E+02  0.30721509951E+02  0.36820975210E+02  0.00000000000E+00 0.  1.
         11    1    4    4    0    0  0.52557713316E+01 -0.11456466768E+02 -0.39860142075E+01  0.13219760687E+02  0.51100000000E-03 0. -1.
        -11    1    4    4    0    0 -0.12287176128E+02 -0.16946747287E+02 -0.23157595173E+02  0.31216040031E+02  0.51100000000E-03 0.  1.
         12    1    4    4    0    0  0.28545630660E+00  0.92599327088E+01 -0.35779005708E+01  0.99312240720E+01  0.00000000000E+00 0. -1.
</event>
<event>
 8    1  0.2509217E-006  0.9118800E+02  0.7816164E-02  0.1184000E+00
        -11   -1    0    0    0    0  0.00000000000E+00  0.00000000000E+00  0.45593999997E+02  0.45594000000E+02  0.51100000000E-03 0.  1.
         11   -1    0    0    0    0 -0.00000000000E+00 -0.00000000000E+00 -0.45593999997E+02  0.45594000000E+02  0.51100000000E-03 0. -1.
         23    2    1    2    0    0  0.00000000000E+00  0.00000000000E+00 -0.97144514655E-16  0.91188000000E+02  0.91188000000E+02 0.  0.
    9900012    2    3    3    0    0  0.61638241131E+01 -0.36301288344E+02  0.57356364034E-01  0.54367088103E+02  0.40000008949E+02 0.  0.
        -12    1    3    3    0    0 -0.61638241131E+01  0.36301288344E+02 -0.57356364034E-01  0.36820911897E+02  0.00000000000E+00 0.  1.
         11    1    4    4    0    0 -0.43157401733E+01 -0.40879863336E+01 -0.44444777969E+01  0.74223061548E+01  0.51100000000E-03 0. -1.
        -11    1    4    4    0    0  0.89986233526E+01 -0.37598103258E+01  0.13867069741E+02  0.16953082887E+02  0.51100000000E-03 0.  1.
        -12    1    4    4    0    0  0.14809409337E+01 -0.28453491685E+02 -0.93652355800E+01  0.29991699061E+02  0.00000000000E+00 0.  1.
</event>
<event>
 8    1  0.2509217E-006  0.9118800E+02  0.7816164E-02  0.1184000E+00
        -11   -1    0    0    0    0  0.00000000000E+00  0.00000000000E+00  0.45593999997E+02  0.45594000000E+02  0.51100000000E-03 0. -1.
         11   -1    0    0    0    0 -0.00000000000E+00 -0.00000000000E+00 -0.45593999997E+02  0.45594000000E+02  0.51100000000E-03 0.  1.
         23    2    1    2    0    0 -0.17763568394E-14  0.00000000000E+00  0.71054273576E-14  0.91188000000E+02  0.91188000000E+02 0.  0.
    9900012    2    3    3    0    0  0.11506886904E+02  0.10433159925E+02 -0.33384430604E+02  0.54367089107E+02  0.40000011238E+02 0.  0.
         12    1    3    3    0    0 -0.11506886904E+02 -0.10433159925E+02  0.33384430604E+02  0.36820910893E+02  0.00000000000E+00 0. -1.
         11    1    4    4    0    0  0.10142851198E+02  0.72139510951E+00 -0.12759113016E+01  0.10248209172E+02  0.51100000000E-03 0. -1.
        -11    1    4    4    0    0  0.34849743574E+01 -0.88060374311E+01 -0.19314691167E+02  0.21511593076E+02  0.51100000000E-03 0.  1.
         12    1    4    4    0    0 -0.21209386516E+01  0.18517802247E+02 -0.12793828135E+02  0.22607286860E+02  0.00000000000E+00 0. -1.
</event>
<event>
 8    1  0.2509217E-006  0.9118800E+02  0.7816164E-02  0.1184000E+00
        -11   -1    0    0    0    0  0.00000000000E+00  0.00000000000E+00  0.45593999997E+02  0.45594000000E+02  0.51100000000E-03 0. -1.
         11   -1    0    0    0    0 -0.00000000000E+00 -0.00000000000E+00 -0.45593999997E+02  0.45594000000E+02  0.51100000000E-03 0.  1.
         23    2    1    2    0    0 -0.71054273576E-14 -0.35527136788E-14  0.00000000000E+00  0.91188000000E+02  0.91188000000E+02 0.  0.
    9900012    2    3    3    0    0 -0.28371115597E+02 -0.21798107115E+02 -0.87005099817E+01  0.54367128908E+02  0.40000101972E+02 0.  0.
         12    1    3    3    0    0  0.28371115597E+02  0.21798107115E+02  0.87005099817E+01  0.36820871092E+02  0.00000000000E+00 0. -1.
         11    1    4    4    0    0 -0.98309384582E-01 -0.12608546662E+02 -0.45801620839E+01  0.13415028834E+02  0.51100000000E-03 0. -1.
        -11    1    4    4    0    0 -0.18353634974E+02 -0.53182590536E+01 -0.16054948392E+02  0.24957987985E+02  0.51100000000E-03 0.  1.
         12    1    4    4    0    0 -0.99191712384E+01 -0.38713013998E+01  0.11934600494E+02  0.15994112089E+02  0.00000000000E+00 0. -1.
</event>
<event>
 8    1  0.2509217E-006  0.9118800E+02  0.7816164E-02  0.1184000E+00
        -11   -1    0    0    0    0  0.00000000000E+00  0.00000000000E+00  0.45593999997E+02  0.45594000000E+02  0.51100000000E-03 0. -1.
         11   -1    0    0    0    0 -0.00000000000E+00 -0.00000000000E+00 -0.45593999997E+02  0.45594000000E+02  0.51100000000E-03 0.  1.
         23    2    1    2    0    0 -0.35527136788E-14  0.35527136788E-14 -0.35527136788E-14  0.91188000000E+02  0.91188000000E+02 0.  0.
    9900012    2    3    3    0    0 -0.22256723229E+02  0.18255002451E+02 -0.22960260111E+02  0.54367076767E+02  0.39999983105E+02 0.  0.
         12    1    3    3    0    0  0.22256723229E+02 -0.18255002451E+02  0.22960260111E+02  0.36820923233E+02  0.00000000000E+00 0. -1.
         11    1    4    4    0    0  0.56242505556E+01  0.18482329920E+01 -0.22854036308E+01  0.63459616703E+01  0.51100000000E-03 0. -1.
        -11    1    4    4    0    0  0.15822335500E+01  0.44834114981E+01  0.51930000584E+01  0.70407166919E+01  0.51100000000E-03 0.  1.
        -12    1    4    4    0    0 -0.29463207335E+02  0.11923357961E+02 -0.25867856539E+02  0.40980398405E+02  0.00000000000E+00 0.  1.
</event>
<event>
 8    1  0.2509217E-006  0.9118800E+02  0.7816164E-02  0.1184000E+00
        -11   -1    0    0    0    0  0.00000000000E+00  0.00000000000E+00  0.45593999997E+02  0.45594000000E+02  0.51100000000E-03 0. -1.
         11   -1    0    0    0    0 -0.00000000000E+00 -0.00000000000E+00 -0.45593999997E+02  0.45594000000E+02  0.51100000000E-03 0.  1.
         23    2    1    2    0    0  0.35527136788E-14  0.17763568394E-14  0.00000000000E+00  0.91188000000E+02  0.91188000000E+02 0.  0.
    9900012    2    3    3    0    0  0.24927608819E+02 -0.11774287313E+02  0.24408222240E+02  0.54367070679E+02  0.39999969228E+02 0.  0.
        -12    1    3    3    0    0 -0.24927608819E+02  0.11774287313E+02 -0.24408222240E+02  0.36820929321E+02  0.00000000000E+00 0.  1.
         11    1    4    4    0    0  0.18184776274E+02  0.66202095960E+01  0.51252301999E+01  0.20019521675E+02  0.51100000000E-03 0. -1.
        -11    1    4    4    0    0 -0.14306889079E+01 -0.18437080026E+02  0.18465291498E+02  0.26133116557E+02  0.51100000000E-03 0.  1.
        -12    1    4    4    0    0  0.81735214525E+01  0.42583117053E-01  0.81770054233E+00  0.82144324475E+01  0.00000000000E+00 0.  1.
</event>
<event>
 8    1  0.2509217E-006  0.9118800E+02  0.7816164E-02  0.1184000E+00
        -11   -1    0    0    0    0  0.00000000000E+00  0.00000000000E+00  0.45593999997E+02  0.45594000000E+02  0.51100000000E-03 0.  1.
         11   -1    0    0    0    0 -0.00000000000E+00 -0.00000000000E+00 -0.45593999997E+02  0.45594000000E+02  0.51100000000E-03 0. -1.
         23    2    1    2    0    0 -0.26645352591E-14  0.00000000000E+00  0.00000000000E+00  0.91188000000E+02  0.91188000000E+02 0.  0.
    9900012    2    3    3    0    0 -0.65663804507E+01  0.10323948611E+02 -0.34728632308E+02  0.54367093314E+02  0.40000020829E+02 0.  0.
        -12    1    3    3    0    0  0.65663804507E+01 -0.10323948611E+02  0.34728632308E+02  0.36820906686E+02  0.00000000000E+00 0.  1.
         11    1    4    4    0    0 -0.20102022305E+02  0.44170890779E+01 -0.24838151377E+02  0.32257336232E+02  0.51100000000E-03 0. -1.
        -11    1    4    4    0    0 -0.55295147048E+00  0.52692529581E+01 -0.46983821223E+01  0.70813541708E+01  0.51100000000E-03 0.  1.
        -12    1    4    4    0    0  0.14088593325E+02  0.63760657452E+00 -0.51920988088E+01  0.15028402911E+02  0.00000000000E+00 0.  1.
</event>
<event>
 8    1  0.2509217E-006  0.9118800E+02  0.7816164E-02  0.1184000E+00
        -11   -1    0    0    0    0  0.00000000000E+00  0.00000000000E+00  0.45593999997E+02  0.45594000000E+02  0.51100000000E-03 0.  1.
         11   -1    0    0    0    0 -0.00000000000E+00 -0.00000000000E+00 -0.45593999997E+02  0.45594000000E+02  0.51100000000E-03 0. -1.
         23    2    1    2    0    0  0.00000000000E+00  0.00000000000E+00 -0.35527136788E-14  0.91188000000E+02  0.91188000000E+02 0.  0.
    9900012    2    3    3    0    0 -0.29254768950E+02 -0.13128902074E+02  0.18098902272E+02  0.54367084212E+02  0.40000000078E+02 0.  0.
         12    1    3    3    0    0  0.29254768950E+02  0.13128902074E+02 -0.18098902272E+02  0.36820915788E+02  0.00000000000E+00 0. -1.
         11    1    4    4    0    0  0.89947324253E+01 -0.11121077759E+01 -0.14727227328E+01  0.91820971252E+01  0.51100000000E-03 0. -1.
        -11    1    4    4    0    0 -0.21261326133E+02 -0.29704651708E+01  0.97753785895E+01  0.23588676926E+02  0.51100000000E-03 0.  1.
         12    1    4    4    0    0 -0.16988175243E+02 -0.90463291276E+01  0.97962464149E+01  0.21596310161E+02  0.00000000000E+00 0. -1.
</event>
<event>
 8    1  0.2509217E-006  0.9118800E+02  0.7816164E-02  0.1184000E+00
        -11   -1    0    0    0    0  0.00000000000E+00  0.00000000000E+00  0.45593999997E+02  0.45594000000E+02  0.51100000000E-03 0. -1.
         11   -1    0    0    0    0 -0.00000000000E+00 -0.00000000000E+00 -0.45593999997E+02  0.45594000000E+02  0.51100000000E-03 0.  1.
         23    2    1    2    0    0  0.17763568394E-14 -0.88817841970E-15  0.71054273576E-14  0.91188000000E+02  0.91188000000E+02 0.  0.
    9900012    2    3    3    0    0  0.11971436960E+02 -0.47384934002E+01  0.34496635768E+02  0.54366993742E+02  0.39999793832E+02 0.  0.
        -12    1    3    3    0    0 -0.11971436960E+02  0.47384934002E+01 -0.34496635768E+02  0.36821006258E+02  0.00000000000E+00 0.  1.
         11    1    4    4    0    0 -0.20299096641E+01 -0.96682678771E+01  0.22511388794E+01  0.10132302971E+02  0.51100000000E-03 0. -1.
        -11    1    4    4    0    0 -0.56714039150E+00  0.30973522129E+01 -0.40217581908E+01  0.51078154000E+01  0.51100000000E-03 0.  1.
        -12    1    4    4    0    0  0.14568487016E+02  0.18324222639E+01  0.36267255079E+02  0.39126875370E+02  0.00000000000E+00 0.  1.
</event>
<event>
 8    1  0.2509217E-006  0.9118800E+02  0.7816164E-02  0.1184000E+00
        -11   -1    0    0    0    0  0.00000000000E+00  0.00000000000E+00  0.45593999997E+02  0.45594000000E+02  0.51100000000E-03 0.  1.
         11   -1    0    0    0    0 -0.00000000000E+00 -0.00000000000E+00 -0.45593999997E+02  0.45594000000E+02  0.51100000000E-03 0. -1.
         23    2    1    2    0    0 -0.35527136788E-14  0.71054273576E-14  0.00000000000E+00  0.91188000000E+02  0.91188000000E+02 0.  0.
    9900012    2    3    3    0    0  0.15812785564E+02 -0.31527756757E+02  0.10570568386E+02  0.54367074571E+02  0.39999978101E+02 0.  0.
         12    1    3    3    0    0 -0.15812785564E+02  0.31527756757E+02 -0.10570568386E+02  0.36820925429E+02  0.00000000000E+00 0. -1.
         11    1    4    4    0    0  0.15067855715E+01  0.19469907223E+01  0.44217439008E+01  0.50609282762E+01  0.51100000000E-03 0. -1.
        -11    1    4    4    0    0 -0.31996324923E+01  0.52223513408E+01 -0.10910627508E+01  0.62210143706E+01  0.51100000000E-03 0.  1.
        -12    1    4    4    0    0  0.17505632485E+02 -0.38697098820E+02  0.72398872356E+01  0.43085131925E+02  0.00000000000E+00 0.  1.
</event>
<event>
 8    1  0.2509217E-006  0.9118800E+02  0.7816164E-02  0.1184000E+00
        -11   -1    0    0    0    0  0.00000000000E+00  0.00000000000E+00  0.45593999997E+02  0.45594000000E+02  0.51100000000E-03 0. -1.
         11   -1    0    0    0    0 -0.00000000000E+00 -0.00000000000E+00 -0.45593999997E+02  0.45594000000E+02  0.51100000000E-03 0.  1.
         23    2    1    2    0    0  0.00000000000E+00 -0.66613381478E-15 -0.35527136788E-14  0.91188000000E+02  0.91188000000E+02 0.  0.
    9900012    2    3    3    0    0 -0.19251210281E+02 -0.74936381479E+00 -0.31378487996E+02  0.54367079964E+02  0.39999990393E+02 0.  0.
         12    1    3    3    0    0  0.19251210281E+02  0.74936381479E+00  0.31378487996E+02  0.36820920036E+02  0.00000000000E+00 0. -1.
         11    1    4    4    0    0  0.38986028626E+01  0.62504699760E+01 -0.38287121831E+01  0.83021994943E+01  0.51100000000E-03 0. -1.
        -11    1    4    4    0    0 -0.16297281708E+02 -0.22121739598E+01  0.84178716147E+00  0.16468263739E+02  0.51100000000E-03 0.  1.
        -12    1    4    4    0    0 -0.68525314352E+01 -0.47876598310E+01 -0.28391562974E+02  0.29596616730E+02  0.00000000000E+00 0.  1.
</event>
<event>
 8    1  0.2509217E-006  0.9118800E+02  0.7816164E-02  0.1184000E+00
        -11   -1    0    0    0    0  0.00000000000E+00  0.00000000000E+00  0.45593999997E+02  0.45594000000E+02  0.51100000000E-03 0. -1.
         11   -1    0    0    0    0 -0.00000000000E+00 -0.00000000000E+00 -0.45593999997E+02  0.45594000000E+02  0.51100000000E-03 0.  1.
         23    2    1    2    0    0  0.00000000000E+00  0.35527136788E-14 -0.35527136788E-14  0.91188000000E+02  0.91188000000E+02 0.  0.
    9900012    2    3    3    0    0  0.14812568222E+02  0.25861171545E+02 -0.21623294389E+02  0.54367092471E+02  0.40000018906E+02 0.  0.
         12    1    3    3    0    0 -0.14812568222E+02 -0.25861171545E+02  0.21623294389E+02  0.36820907529E+02  0.00000000000E+00 0. -1.
         11    1    4    4    0    0 -0.22318381106E+01 -0.13548884315E+01 -0.15018249488E+01  0.30120263033E+01  0.51100000000E-03 0. -1.
        -11    1    4    4    0    0  0.69711761389E+00  0.23364352029E+02 -0.24639576618E+02  0.33963033652E+02  0.51100000000E-03 0.  1.
        -12    1    4    4    0    0  0.16347288718E+02  0.38517079477E+01  0.45181071775E+01  0.17392032515E+02  0.00000000000E+00 0.  1.
</event>
<event>
 8    1  0.2509217E-006  0.9118800E+02  0.7816164E-02  0.1184000E+00
        -11   -1    0    0    0    0  0.00000000000E+00  0.00000000000E+00  0.45593999997E+02  0.45594000000E+02  0.51100000000E-03 0.  1.
         11   -1    0    0    0    0 -0.00000000000E+00 -0.00000000000E+00 -0.45593999997E+02  0.45594000000E+02  0.51100000000E-03 0. -1.
         23    2    1    2    0    0  0.00000000000E+00  0.88817841970E-15  0.71054273576E-14  0.91188000000E+02  0.91188000000E+02 0.  0.
    9900012    2    3    3    0    0  0.12291038604E+02  0.68402759796E+00  0.34702390924E+02  0.54366899262E+02  0.39999578445E+02 0.  0.
         12    1    3    3    0    0 -0.12291038604E+02 -0.68402759796E+00 -0.34702390924E+02  0.36821100738E+02  0.00000000000E+00 0. -1.
         11    1    4    4    0    0  0.46520854450E+01  0.35012353119E+00 -0.34087000657E+01  0.57778648196E+01  0.51100000000E-03 0. -1.
        -11    1    4    4    0    0  0.12379364657E+02  0.75220505683E+01  0.65918798208E+01  0.15914860788E+02  0.51100000000E-03 0.  1.
        -12    1    4    4    0    0 -0.47404114984E+01 -0.71881465016E+01  0.31519211169E+02  0.32674173655E+02  0.00000000000E+00 0.  1.
</event>
<event>
 8    1  0.2509217E-006  0.9118800E+02  0.7816164E-02  0.1184000E+00
        -11   -1    0    0    0    0  0.00000000000E+00  0.00000000000E+00  0.45593999997E+02  0.45594000000E+02  0.51100000000E-03 0.  1.
         11   -1    0    0    0    0 -0.00000000000E+00 -0.00000000000E+00 -0.45593999997E+02  0.45594000000E+02  0.51100000000E-03 0. -1.
         23    2    1    2    0    0  0.17763568394E-14  0.00000000000E+00 -0.17763568394E-14  0.91188000000E+02  0.91188000000E+02 0.  0.
    9900012    2    3    3    0    0 -0.15665158123E+02 -0.31388084373E+02 -0.11187671711E+02  0.54367176843E+02  0.40000211249E+02 0.  0.
        -12    1    3    3    0    0  0.15665158123E+02  0.31388084373E+02  0.11187671711E+02  0.36820823157E+02  0.00000000000E+00 0.  1.
         11    1    4    4    0    0 -0.10495581606E+02 -0.19334016877E+02  0.10533685221E+02  0.24390981253E+02  0.51100000000E-03 0.  1.
        -11    1    4    4    0    0 -0.59455028156E+01  0.21759196915E+01 -0.78965791815E+01  0.10121244650E+02  0.51100000000E-03 0. -1.
        -12    1    4    4    0    0  0.77592629918E+00 -0.14229987187E+02 -0.13824777751E+02  0.19854950940E+02  0.00000000000E+00 0.  1.
</event>
<event>
 8    1  0.2509217E-006  0.9118800E+02  0.7816164E-02  0.1184000E+00
        -11   -1    0    0    0    0  0.00000000000E+00  0.00000000000E+00  0.45593999997E+02  0.45594000000E+02  0.51100000000E-03 0.  1.
         11   -1    0    0    0    0 -0.00000000000E+00 -0.00000000000E+00 -0.45593999997E+02  0.45594000000E+02  0.51100000000E-03 0. -1.
         23    2    1    2    0    0 -0.17763568394E-14  0.00000000000E+00  0.00000000000E+00  0.91188000000E+02  0.91188000000E+02 0.  0.
    9900012    2    3    3    0    0  0.10001638397E+02  0.26903048620E+02  0.23064566981E+02  0.54367067832E+02  0.39999962737E+02 0.  0.
         12    1    3    3    0    0 -0.10001638397E+02 -0.26903048620E+02 -0.23064566981E+02  0.36820932168E+02  0.00000000000E+00 0. -1.
         11    1    4    4    0    0 -0.14645835038E+02  0.72366481865E+01  0.43924912079E+01  0.16916369002E+02  0.51100000000E-03 0. -1.
        -11    1    4    4    0    0  0.36056050048E+01  0.14672558131E+01  0.53202955454E+01  0.65923267534E+01  0.51100000000E-03 0.  1.
         12    1    4    4    0    0  0.21041868431E+02  0.18199144621E+02  0.13351780228E+02  0.30858372077E+02  0.00000000000E+00 0. -1.
</event>
<event>
 8    1  0.2509217E-006  0.9118800E+02  0.7816164E-02  0.1184000E+00
        -11   -1    0    0    0    0  0.00000000000E+00  0.00000000000E+00  0.45593999997E+02  0.45594000000E+02  0.51100000000E-03 0. -1.
         11   -1    0    0    0    0 -0.00000000000E+00 -0.00000000000E+00 -0.45593999997E+02  0.45594000000E+02  0.51100000000E-03 0.  1.
         23    2    1    2    0    0 -0.17763568394E-14 -0.35527136788E-14 -0.35527136788E-14  0.91188000000E+02  0.91188000000E+02 0.  0.
    9900012    2    3    3    0    0 -0.13361171200E+02 -0.31119093956E+02 -0.14451955042E+02  0.54367110426E+02  0.40000059839E+02 0.  0.
         12    1    3    3    0    0  0.13361171200E+02  0.31119093956E+02  0.14451955042E+02  0.36820889574E+02  0.00000000000E+00 0. -1.
         11    1    4    4    0    0 -0.59822117291E+01 -0.15193711905E+01  0.37533107770E+01  0.72237585810E+01  0.51100000000E-03 0. -1.
        -11    1    4    4    0    0 -0.46113820605E+01 -0.36010896922E+02 -0.13551504902E+02  0.38751681602E+02  0.51100000000E-03 0.  1.
        -12    1    4    4    0    0 -0.27675774107E+01  0.64111741571E+01 -0.46537609169E+01  0.83916702431E+01  0.00000000000E+00 0.  1.
</event>
<event>
 8    1  0.2509217E-006  0.9118800E+02  0.7816164E-02  0.1184000E+00
        -11   -1    0    0    0    0  0.00000000000E+00  0.00000000000E+00  0.45593999997E+02  0.45594000000E+02  0.51100000000E-03 0. -1.
         11   -1    0    0    0    0 -0.00000000000E+00 -0.00000000000E+00 -0.45593999997E+02  0.45594000000E+02  0.51100000000E-03 0.  1.
         23    2    1    2    0    0 -0.55511151231E-15  0.00000000000E+00  0.35527136788E-14  0.91188000000E+02  0.91188000000E+02 0.  0.
    9900012    2    3    3    0    0 -0.99626926310E+00  0.20995457959E+02 -0.30232072249E+02  0.54367082034E+02  0.39999995113E+02 0.  0.
         12    1    3    3    0    0  0.99626926310E+00 -0.20995457959E+02  0.30232072249E+02  0.36820917966E+02  0.00000000000E+00 0. -1.
         11    1    4    4    0    0 -0.57228613817E+01 -0.73935264559E+01 -0.77555675323E+01  0.12147600745E+02  0.51100000000E-03 0. -1.
        -11    1    4    4    0    0 -0.79044220299E+00  0.21988505064E+02 -0.25093264346E+02  0.33373508500E+02  0.51100000000E-03 0.  1.
        -12    1    4    4    0    0  0.55170343216E+01  0.64004793512E+01  0.26167596289E+01  0.88459727892E+01  0.00000000000E+00 0.  1.
</event>
<event>
 8    1  0.2509217E-006  0.9118800E+02  0.7816164E-02  0.1184000E+00
        -11   -1    0    0    0    0  0.00000000000E+00  0.00000000000E+00  0.45593999997E+02  0.45594000000E+02  0.51100000000E-03 0. -1.
         11   -1    0    0    0    0 -0.00000000000E+00 -0.00000000000E+00 -0.45593999997E+02  0.45594000000E+02  0.51100000000E-03 0.  1.
         23    2    1    2    0    0  0.35527136788E-14 -0.22204460493E-14 -0.35527136788E-14  0.91188000000E+02  0.91188000000E+02 0.  0.
    9900012    2    3    3    0    0  0.21296036277E+02 -0.20250265544E+01 -0.29969288199E+02  0.54367080283E+02  0.39999991120E+02 0.  0.
         12    1    3    3    0    0 -0.21296036277E+02  0.20250265544E+01  0.29969288199E+02  0.36820919717E+02  0.00000000000E+00 0. -1.
         11    1    4    4    0    0  0.55247676115E+01  0.85689513101E+01 -0.47563605233E+01  0.11250464408E+02  0.51100000000E-03 0. -1.
        -11    1    4    4    0    0  0.21419412863E+02 -0.44185688995E+00 -0.22732870344E+02  0.31237315494E+02  0.51100000000E-03 0.  1.
         12    1    4    4    0    0 -0.56481441976E+01 -0.10152120975E+02 -0.24800573322E+01  0.11879300380E+02  0.00000000000E+00 0. -1.
</event>
<event>
 8    1  0.2509217E-006  0.9118800E+02  0.7816164E-02  0.1184000E+00
        -11   -1    0    0    0    0  0.00000000000E+00  0.00000000000E+00  0.45593999997E+02  0.45594000000E+02  0.51100000000E-03 0.  1.
         11   -1    0    0    0    0 -0.00000000000E+00 -0.00000000000E+00 -0.45593999997E+02  0.45594000000E+02  0.51100000000E-03 0. -1.
         23    2    1    2    0    0 -0.17763568394E-14  0.17763568394E-14 -0.71054273576E-14  0.91188000000E+02  0.91188000000E+02 0.  0.
    9900012    2    3    3    0    0  0.12863100512E+02  0.94685651935E+01  0.33176337304E+02  0.54367048919E+02  0.39999919621E+02 0.  0.
         12    1    3    3    0    0 -0.12863100512E+02 -0.94685651935E+01 -0.33176337304E+02  0.36820951081E+02  0.00000000000E+00 0. -1.
         11    1    4    4    0    0  0.87948156261E+01  0.10659004166E+02  0.16282353410E+01  0.13914535648E+02  0.51100000000E-03 0. -1.
        -11    1    4    4    0    0 -0.43199229202E+01  0.98797034077E+01  0.93750331573E+01  0.14288510084E+02  0.51100000000E-03 0.  1.
         12    1    4    4    0    0  0.83882078064E+01 -0.11070142381E+02  0.22173068805E+02  0.26164003187E+02  0.00000000000E+00 0. -1.
</event>
<event>
 8    1  0.2509217E-006  0.9118800E+02  0.7816164E-02  0.1184000E+00
        -11   -1    0    0    0    0  0.00000000000E+00  0.00000000000E+00  0.45593999997E+02  0.45594000000E+02  0.51100000000E-03 0.  1.
         11   -1    0    0    0    0 -0.00000000000E+00 -0.00000000000E+00 -0.45593999997E+02  0.45594000000E+02  0.51100000000E-03 0. -1.
         23    2    1    2    0    0  0.00000000000E+00  0.00000000000E+00  0.00000000000E+00  0.91188000000E+02  0.91188000000E+02 0.  0.
    9900012    2    3    3    0    0  0.18292707643E+02 -0.21457289856E+02  0.23679997567E+02  0.54367072178E+02  0.39999972644E+02 0.  0.
         12    1    3    3    0    0 -0.18292707643E+02  0.21457289856E+02 -0.23679997567E+02  0.36820927822E+02  0.00000000000E+00 0. -1.
         11    1    4    4    0    0  0.13096525392E+02  0.58424351479E+00 -0.15500725419E+00  0.13110467015E+02  0.51100000000E-03 0. -1.
        -11    1    4    4    0    0  0.12599046574E+02 -0.33067375430E+01  0.12913968137E+02  0.18342329761E+02  0.51100000000E-03 0.  1.
         12    1    4    4    0    0 -0.74028643237E+01 -0.18734795828E+02  0.10921036685E+02  0.22914275402E+02  0.00000000000E+00 0. -1.
</event>
<event>
 8    1  0.2509217E-006  0.9118800E+02  0.7816164E-02  0.1184000E+00
        -11   -1    0    0    0    0  0.00000000000E+00  0.00000000000E+00  0.45593999997E+02  0.45594000000E+02  0.51100000000E-03 0. -1.
         11   -1    0    0    0    0 -0.00000000000E+00 -0.00000000000E+00 -0.45593999997E+02  0.45594000000E+02  0.51100000000E-03 0.  1.
         23    2    1    2    0    0  0.00000000000E+00  0.00000000000E+00  0.00000000000E+00  0.91188000000E+02  0.91188000000E+02 0.  0.
    9900012    2    3    3    0    0  0.77842459147E+01  0.26892502316E+02  0.23916072236E+02  0.54367086425E+02  0.40000005124E+02 0.  0.
        -12    1    3    3    0    0 -0.77842459147E+01 -0.26892502316E+02 -0.23916072236E+02  0.36820913575E+02  0.00000000000E+00 0.  1.
         11    1    4    4    0    0  0.22892726394E+02  0.14885720098E+02  0.71294226600E+01  0.28222158889E+02  0.51100000000E-03 0. -1.
        -11    1    4    4    0    0 -0.13192570538E+02  0.75841986012E+01  0.13043492954E+02  0.20042372477E+02  0.51100000000E-03 0.  1.
         12    1    4    4    0    0 -0.19159099421E+01  0.44225836167E+01  0.37431566226E+01  0.61025550595E+01  0.00000000000E+00 0. -1.
</event>
<event>
 8    1  0.2509217E-006  0.9118800E+02  0.7816164E-02  0.1184000E+00
        -11   -1    0    0    0    0  0.00000000000E+00  0.00000000000E+00  0.45593999997E+02  0.45594000000E+02  0.51100000000E-03 0. -1.
         11   -1    0    0    0    0 -0.00000000000E+00 -0.00000000000E+00 -0.45593999997E+02  0.45594000000E+02  0.51100000000E-03 0.  1.
         23    2    1    2    0    0  0.35527136788E-14  0.00000000000E+00  0.00000000000E+00  0.91188000000E+02  0.91188000000E+02 0.  0.
    9900012    2    3    3    0    0 -0.25846242720E+02 -0.21364244324E+02  0.15209213053E+02  0.54367090723E+02  0.40000014921E+02 0.  0.
         12    1    3    3    0    0  0.25846242720E+02  0.21364244324E+02 -0.15209213053E+02  0.36820909277E+02  0.00000000000E+00 0. -1.
         11    1    4    4    0    0 -0.24449645553E+02 -0.75167720938E+01  0.14965330818E+02  0.29635251933E+02  0.51100000000E-03 0. -1.
        -11    1    4    4    0    0 -0.10244417747E+02 -0.11842170138E+02  0.17288358699E+00  0.15659341543E+02  0.51100000000E-03 0.  1.
         12    1    4    4    0    0  0.88478205796E+01 -0.20053020920E+01  0.70998647883E-01  0.90724972470E+01  0.00000000000E+00 0. -1.
</event>
<event>
 8    1  0.2509217E-006  0.9118800E+02  0.7816164E-02  0.1184000E+00
        -11   -1    0    0    0    0  0.00000000000E+00  0.00000000000E+00  0.45593999997E+02  0.45594000000E+02  0.51100000000E-03 0. -1.
         11   -1    0    0    0    0 -0.00000000000E+00 -0.00000000000E+00 -0.45593999997E+02  0.45594000000E+02  0.51100000000E-03 0.  1.
         23    2    1    2    0    0  0.00000000000E+00  0.00000000000E+00  0.00000000000E+00  0.91188000000E+02  0.91188000000E+02 0.  0.
    9900012    2    3    3    0    0  0.38638043795E+01 -0.34945401419E+02 -0.10939384438E+02  0.54367079364E+02  0.39999989025E+02 0.  0.
         12    1    3    3    0    0 -0.38638043795E+01  0.34945401419E+02  0.10939384438E+02  0.36820920636E+02  0.00000000000E+00 0. -1.
         11    1    4    4    0    0 -0.37546170304E+01 -0.26856002565E+02  0.76232509294E+00  0.27127903764E+02  0.51100000000E-03 0. -1.
        -11    1    4    4    0    0 -0.18038613484E+01  0.67515983673E+01 -0.27296475510E+01  0.75025977029E+01  0.51100000000E-03 0.  1.
        -12    1    4    4    0    0  0.94222827583E+01 -0.14840997222E+02 -0.89720619796E+01  0.19736577897E+02  0.00000000000E+00 0.  1.
</event>
<event>
 8    1  0.2509217E-006  0.9118800E+02  0.7816164E-02  0.1184000E+00
        -11   -1    0    0    0    0  0.00000000000E+00  0.00000000000E+00  0.45593999997E+02  0.45594000000E+02  0.51100000000E-03 0.  1.
         11   -1    0    0    0    0 -0.00000000000E+00 -0.00000000000E+00 -0.45593999997E+02  0.45594000000E+02  0.51100000000E-03 0. -1.
         23    2    1    2    0    0  0.17763568394E-14 -0.35527136788E-14 -0.35527136788E-14  0.91188000000E+02  0.91188000000E+02 0.  0.
    9900012    2    3    3    0    0 -0.10546001649E+02  0.20632619856E+02 -0.28615692831E+02  0.54367068058E+02  0.39999963251E+02 0.  0.
        -12    1    3    3    0    0  0.10546001649E+02 -0.20632619856E+02  0.28615692831E+02  0.36820931942E+02  0.00000000000E+00 0.  1.
         11    1    4    4    0    0 -0.19885239387E+01 -0.55577481799E+01 -0.24953024866E+02  0.25641689541E+02  0.51100000000E-03 0. -1.
        -11    1    4    4    0    0 -0.20951967646E+01  0.81467409536E+01  0.21779917891E+01  0.86892396758E+01  0.51100000000E-03 0.  1.
         12    1    4    4    0    0 -0.64622809454E+01  0.18043627082E+02 -0.58406597547E+01  0.20036138841E+02  0.00000000000E+00 0. -1.
</event>
<event>
 8    1  0.2509217E-006  0.9118800E+02  0.7816164E-02  0.1184000E+00
        -11   -1    0    0    0    0  0.00000000000E+00  0.00000000000E+00  0.45593999997E+02  0.45594000000E+02  0.51100000000E-03 0. -1.
         11   -1    0    0    0    0 -0.00000000000E+00 -0.00000000000E+00 -0.45593999997E+02  0.45594000000E+02  0.51100000000E-03 0.  1.
         23    2    1    2    0    0  0.00000000000E+00  0.00000000000E+00  0.00000000000E+00  0.91188000000E+02  0.91188000000E+02 0.  0.
    9900012    2    3    3    0    0  0.37216198451E+01  0.36178570836E+02 -0.57479581487E+01  0.54367102878E+02  0.40000042630E+02 0.  0.
         12    1    3    3    0    0 -0.37216198451E+01 -0.36178570836E+02  0.57479581487E+01  0.36820897122E+02  0.00000000000E+00 0. -1.
         11    1    4    4    0    0 -0.24697537467E+00  0.24487256834E+02 -0.70807665317E+01  0.25491645672E+02  0.51100000000E-03 0. -1.
        -11    1    4    4    0    0  0.11610205074E+02  0.16079746364E+02  0.24855052619E+01  0.19988317629E+02  0.51100000000E-03 0.  1.
         12    1    4    4    0    0 -0.76416098539E+01 -0.43884323624E+01 -0.11526968788E+01  0.88871395766E+01  0.00000000000E+00 0. -1.
</event>
<event>
 8    1  0.2509217E-006  0.9118800E+02  0.7816164E-02  0.1184000E+00
        -11   -1    0    0    0    0  0.00000000000E+00  0.00000000000E+00  0.45593999997E+02  0.45594000000E+02  0.51100000000E-03 0.  1.
         11   -1    0    0    0    0 -0.00000000000E+00 -0.00000000000E+00 -0.45593999997E+02  0.45594000000E+02  0.51100000000E-03 0. -1.
         23    2    1    2    0    0  0.00000000000E+00 -0.44408920985E-15 -0.35527136788E-14  0.91188000000E+02  0.91188000000E+02 0.  0.
    9900012    2    3    3    0    0  0.27882986315E+02 -0.35461084119E+01 -0.23785377309E+02  0.54367082244E+02  0.39999995591E+02 0.  0.
        -12    1    3    3    0    0 -0.27882986315E+02  0.35461084119E+01  0.23785377309E+02  0.36820917756E+02  0.00000000000E+00 0.  1.
         11    1    4    4    0    0  0.70043818005E+01 -0.10923085602E+01 -0.30046752190E+02  0.30871699335E+02  0.51100000000E-03 0. -1.
        -11    1    4    4    0    0  0.59840510180E+01 -0.41036784914E+01  0.41578330051E+01  0.83628116866E+01  0.51100000000E-03 0.  1.
         12    1    4    4    0    0  0.14894553496E+02  0.16498786398E+01  0.21035418754E+01  0.15132571222E+02  0.00000000000E+00 0. -1.
</event>
<event>
 8    1  0.2509217E-006  0.9118800E+02  0.7816164E-02  0.1184000E+00
        -11   -1    0    0    0    0  0.00000000000E+00  0.00000000000E+00  0.45593999997E+02  0.45594000000E+02  0.51100000000E-03 0.  1.
         11   -1    0    0    0    0 -0.00000000000E+00 -0.00000000000E+00 -0.45593999997E+02  0.45594000000E+02  0.51100000000E-03 0. -1.
         23    2    1    2    0    0  0.00000000000E+00  0.11102230246E-15  0.00000000000E+00  0.91188000000E+02  0.91188000000E+02 0.  0.
    9900012    2    3    3    0    0 -0.88431236523E+01 -0.69583996365E+00  0.35736436362E+02  0.54367110372E+02  0.40000059714E+02 0.  0.
         12    1    3    3    0    0  0.88431236523E+01  0.69583996365E+00 -0.35736436362E+02  0.36820889628E+02  0.00000000000E+00 0. -1.
         11    1    4    4    0    0  0.97947772938E+01 -0.25452104039E+01 -0.72468236236E-01  0.10120326583E+02  0.51100000000E-03 0. -1.
        -11    1    4    4    0    0 -0.19210857529E+02 -0.44053000538E+01  0.27119642108E+02  0.33525195061E+02  0.51100000000E-03 0.  1.
        -12    1    4    4    0    0  0.57295658256E+00  0.62546704940E+01  0.86892624898E+01  0.10721588728E+02  0.00000000000E+00 0.  1.
</event>
<event>
 8    1  0.2509217E-006  0.9118800E+02  0.7816164E-02  0.1184000E+00
        -11   -1    0    0    0    0  0.00000000000E+00  0.00000000000E+00  0.45593999997E+02  0.45594000000E+02  0.51100000000E-03 0.  1.
         11   -1    0    0    0    0 -0.00000000000E+00 -0.00000000000E+00 -0.45593999997E+02  0.45594000000E+02  0.51100000000E-03 0. -1.
         23    2    1    2    0    0  0.00000000000E+00  0.00000000000E+00  0.44408920985E-15  0.91188000000E+02  0.91188000000E+02 0.  0.
    9900012    2    3    3    0    0 -0.73302432536E+01  0.36029619060E+02  0.19781934432E+01  0.54367093370E+02  0.40000020955E+02 0.  0.
         12    1    3    3    0    0  0.73302432536E+01 -0.36029619060E+02 -0.19781934432E+01  0.36820906630E+02  0.00000000000E+00 0. -1.
         11    1    4    4    0    0  0.11927476941E+01  0.42600295467E+01  0.19181381483E+01  0.48217997696E+01  0.51100000000E-03 0. -1.
        -11    1    4    4    0    0  0.46332295532E+01  0.26237863620E+02  0.13563643385E+02  0.29897570563E+02  0.51100000000E-03 0.  1.
         12    1    4    4    0    0 -0.13156220501E+02  0.55317258939E+01 -0.13503588090E+02  0.19647723037E+02  0.00000000000E+00 0. -1.
</event>
<event>
 8    1  0.2509217E-006  0.9118800E+02  0.7816164E-02  0.1184000E+00
        -11   -1    0    0    0    0  0.00000000000E+00  0.00000000000E+00  0.45593999997E+02  0.45594000000E+02  0.51100000000E-03 0.  1.
         11   -1    0    0    0    0 -0.00000000000E+00 -0.00000000000E+00 -0.45593999997E+02  0.45594000000E+02  0.51100000000E-03 0. -1.
         23    2    1    2    0    0  0.00000000000E+00  0.35527136788E-14 -0.88817841970E-15  0.91188000000E+02  0.91188000000E+02 0.  0.
    9900012    2    3    3    0    0 -0.21860754673E+02 -0.28742813934E+02 -0.71929150387E+01  0.54367082379E+02  0.39999995899E+02 0.  0.
        -12    1    3    3    0    0  0.21860754673E+02  0.28742813934E+02  0.71929150387E+01  0.36820917621E+02  0.00000000000E+00 0.  1.
         11    1    4    4    0    0 -0.41765471250E+00 -0.20932978672E+02 -0.74474969398E+01  0.22222269067E+02  0.51100000000E-03 0. -1.
        -11    1    4    4    0    0 -0.11004791260E+02 -0.31339176802E+00 -0.10629933118E+02  0.15303565710E+02  0.51100000000E-03 0.  1.
         12    1    4    4    0    0 -0.10438308701E+02 -0.74964434939E+01  0.10884515019E+02  0.16841247602E+02  0.00000000000E+00 0. -1.
</event>
<event>
 8    1  0.2509217E-006  0.9118800E+02  0.7816164E-02  0.1184000E+00
        -11   -1    0    0    0    0  0.00000000000E+00  0.00000000000E+00  0.45593999997E+02  0.45594000000E+02  0.51100000000E-03 0.  1.
         11   -1    0    0    0    0 -0.00000000000E+00 -0.00000000000E+00 -0.45593999997E+02  0.45594000000E+02  0.51100000000E-03 0. -1.
         23    2    1    2    0    0  0.17763568394E-14  0.35527136788E-14 -0.17763568394E-14  0.91188000000E+02  0.91188000000E+02 0.  0.
    9900012    2    3    3    0    0 -0.11737417899E+02  0.31623033770E+02 -0.14764671294E+02  0.54367098840E+02  0.40000033426E+02 0.  0.
        -12    1    3    3    0    0  0.11737417899E+02 -0.31623033770E+02  0.14764671294E+02  0.36820901160E+02  0.00000000000E+00 0.  1.
         11    1    4    4    0    0 -0.27851728985E+01 -0.22703413026E+01 -0.15685303935E-01  0.35933110072E+01  0.51100000000E-03 0. -1.
        -11    1    4    4    0    0  0.16667684168E+01  0.56060435696E+01  0.10088133150E+02  0.11660886423E+02  0.51100000000E-03 0.  1.
         12    1    4    4    0    0 -0.10619013418E+02  0.28287331503E+02 -0.24837119140E+02  0.39112901410E+02  0.00000000000E+00 0. -1.
</event>
<event>
 8    1  0.2509217E-006  0.9118800E+02  0.7816164E-02  0.1184000E+00
        -11   -1    0    0    0    0  0.00000000000E+00  0.00000000000E+00  0.45593999997E+02  0.45594000000E+02  0.51100000000E-03 0. -1.
         11   -1    0    0    0    0 -0.00000000000E+00 -0.00000000000E+00 -0.45593999997E+02  0.45594000000E+02  0.51100000000E-03 0.  1.
         23    2    1    2    0    0 -0.17763568394E-14  0.00000000000E+00  0.00000000000E+00  0.91188000000E+02  0.91188000000E+02 0.  0.
    9900012    2    3    3    0    0  0.72503051135E+01 -0.22936302154E+02 -0.27877300372E+02  0.54367017439E+02  0.39999847855E+02 0.  0.
         12    1    3    3    0    0 -0.72503051135E+01  0.22936302154E+02  0.27877300372E+02  0.36820982561E+02  0.00000000000E+00 0. -1.
         11    1    4    4    0    0 -0.87975144624E+01 -0.41081081804E+01  0.94396081282E+00  0.97551973745E+01  0.51100000000E-03 0. -1.
        -11    1    4    4    0    0 -0.41467945186E+01 -0.10647212898E+02 -0.54506483108E+01  0.12659724110E+02  0.51100000000E-03 0.  1.
        -12    1    4    4    0    0  0.20194614094E+02 -0.81809810762E+01 -0.23370612874E+02  0.31952095955E+02  0.00000000000E+00 0.  1.
</event>
<event>
 8    1  0.2509217E-006  0.9118800E+02  0.7816164E-02  0.1184000E+00
        -11   -1    0    0    0    0  0.00000000000E+00  0.00000000000E+00  0.45593999997E+02  0.45594000000E+02  0.51100000000E-03 0.  1.
         11   -1    0    0    0    0 -0.00000000000E+00 -0.00000000000E+00 -0.45593999997E+02  0.45594000000E+02  0.51100000000E-03 0. -1.
         23    2    1    2    0    0  0.44408920985E-15  0.35527136788E-14 -0.35527136788E-14  0.91188000000E+02  0.91188000000E+02 0.  0.
    9900012    2    3    3    0    0  0.19145206438E+01  0.26421373288E+02 -0.25573844574E+02  0.54367137951E+02  0.40000122588E+02 0.  0.
        -12    1    3    3    0    0 -0.19145206438E+01 -0.26421373288E+02  0.25573844574E+02  0.36820862049E+02  0.00000000000E+00 0.  1.
         11    1    4    4    0    0  0.12996067228E+02  0.12440780298E+02 -0.42791549060E+01  0.18492753846E+02  0.51100000000E-03 0. -1.
        -11    1    4    4    0    0 -0.10765537471E+01  0.86309226087E+00  0.48042377872E+01  0.49984594825E+01  0.51100000000E-03 0.  1.
        -12    1    4    4    0    0 -0.10004992837E+02  0.13117500729E+02 -0.26098927455E+02  0.30875924623E+02  0.00000000000E+00 0.  1.
</event>
<event>
 8    1  0.2509217E-006  0.9118800E+02  0.7816164E-02  0.1184000E+00
        -11   -1    0    0    0    0  0.00000000000E+00  0.00000000000E+00  0.45593999997E+02  0.45594000000E+02  0.51100000000E-03 0. -1.
         11   -1    0    0    0    0 -0.00000000000E+00 -0.00000000000E+00 -0.45593999997E+02  0.45594000000E+02  0.51100000000E-03 0.  1.
         23    2    1    2    0    0  0.00000000000E+00  0.66613381478E-15 -0.35527136788E-14  0.91188000000E+02  0.91188000000E+02 0.  0.
    9900012    2    3    3    0    0 -0.28740445166E+02 -0.53390839958E+00  0.23010485301E+02  0.54367072794E+02  0.39999974048E+02 0.  0.
        -12    1    3    3    0    0  0.28740445166E+02  0.53390839958E+00 -0.23010485301E+02  0.36820927206E+02  0.00000000000E+00 0.  1.
         11    1    4    4    0    0 -0.46644791305E+01 -0.12010189625E+02  0.14245660034E+02  0.19207833049E+02  0.51100000000E-03 0. -1.
        -11    1    4    4    0    0 -0.15446186619E+02 -0.17839850677E+01 -0.24850057690E+01  0.15746191213E+02  0.51100000000E-03 0.  1.
         12    1    4    4    0    0 -0.86297794167E+01  0.13260266293E+02  0.11249831036E+02  0.19413048531E+02  0.00000000000E+00 0. -1.
</event>
<event>
 8    1  0.2509217E-006  0.9118800E+02  0.7816164E-02  0.1184000E+00
        -11   -1    0    0    0    0  0.00000000000E+00  0.00000000000E+00  0.45593999997E+02  0.45594000000E+02  0.51100000000E-03 0.  1.
         11   -1    0    0    0    0 -0.00000000000E+00 -0.00000000000E+00 -0.45593999997E+02  0.45594000000E+02  0.51100000000E-03 0. -1.
         23    2    1    2    0    0 -0.17763568394E-14  0.71054273576E-14  0.00000000000E+00  0.91188000000E+02  0.91188000000E+02 0.  0.
    9900012    2    3    3    0    0  0.13845324002E+02 -0.33779633986E+02  0.47982518692E+01  0.54367083527E+02  0.39999998516E+02 0.  0.
        -12    1    3    3    0    0 -0.13845324002E+02  0.33779633986E+02 -0.47982518692E+01  0.36820916473E+02  0.00000000000E+00 0.  1.
         11    1    4    4    0    0  0.41449302735E+01 -0.18125587326E+02 -0.10464510790E+02  0.21335963752E+02  0.51100000000E-03 0. -1.
        -11    1    4    4    0    0  0.10085725865E+02 -0.14746034660E+02  0.12948152984E+00  0.17865726130E+02  0.51100000000E-03 0.  1.
        -12    1    4    4    0    0 -0.38533213653E+00 -0.90801199979E+00  0.15133281130E+02  0.15165393645E+02  0.00000000000E+00 0.  1.
</event>
<event>
 8    1  0.2509217E-006  0.9118800E+02  0.7816164E-02  0.1184000E+00
        -11   -1    0    0    0    0  0.00000000000E+00  0.00000000000E+00  0.45593999997E+02  0.45594000000E+02  0.51100000000E-03 0. -1.
         11   -1    0    0    0    0 -0.00000000000E+00 -0.00000000000E+00 -0.45593999997E+02  0.45594000000E+02  0.51100000000E-03 0.  1.
         23    2    1    2    0    0 -0.44408920985E-15 -0.44408920985E-15  0.00000000000E+00  0.91188000000E+02  0.91188000000E+02 0.  0.
    9900012    2    3    3    0    0  0.19081517345E+01 -0.31984089474E+00 -0.36770037453E+02  0.54367095672E+02  0.40000026203E+02 0.  0.
         12    1    3    3    0    0 -0.19081517345E+01  0.31984089474E+00  0.36770037453E+02  0.36820904328E+02  0.00000000000E+00 0. -1.
         11    1    4    4    0    0  0.33395921667E+01  0.87359306179E+01 -0.14769526302E+02  0.17481655158E+02  0.51100000000E-03 0. -1.
        -11    1    4    4    0    0  0.12670035815E+02 -0.42462417546E+01 -0.15942019817E+02  0.20801643510E+02  0.51100000000E-03 0.  1.
         12    1    4    4    0    0 -0.14101476247E+02 -0.48095297580E+01 -0.60584913335E+01  0.16083797004E+02  0.00000000000E+00 0. -1.
</event>
<event>
 8    1  0.2509217E-006  0.9118800E+02  0.7816164E-02  0.1184000E+00
        -11   -1    0    0    0    0  0.00000000000E+00  0.00000000000E+00  0.45593999997E+02  0.45594000000E+02  0.51100000000E-03 0. -1.
         11   -1    0    0    0    0 -0.00000000000E+00 -0.00000000000E+00 -0.45593999997E+02  0.45594000000E+02  0.51100000000E-03 0.  1.
         23    2    1    2    0    0  0.88817841970E-15  0.35527136788E-14  0.35527136788E-14  0.91188000000E+02  0.91188000000E+02 0.  0.
    9900012    2    3    3    0    0 -0.60298796285E+01 -0.22800178048E+02 -0.28276694859E+02  0.54367095075E+02  0.40000024842E+02 0.  0.
         12    1    3    3    0    0  0.60298796285E+01  0.22800178048E+02  0.28276694859E+02  0.36820904925E+02  0.00000000000E+00 0. -1.
         11    1    4    4    0    0 -0.49274045341E+01 -0.24575346746E+01 -0.10413659184E+02  0.11779774615E+02  0.51100000000E-03 0. -1.
        -11    1    4    4    0    0 -0.78539614717E+01 -0.12284446866E+01 -0.20647969473E+02  0.22125379788E+02  0.51100000000E-03 0.  1.
        -12    1    4    4    0    0  0.67514863774E+01 -0.19114198687E+02  0.27849337987E+01  0.20461940671E+02  0.00000000000E+00 0.  1.
</event>
<event>
 8    1  0.2509217E-006  0.9118800E+02  0.7816164E-02  0.1184000E+00
        -11   -1    0    0    0    0  0.00000000000E+00  0.00000000000E+00  0.45593999997E+02  0.45594000000E+02  0.51100000000E-03 0. -1.
         11   -1    0    0    0    0 -0.00000000000E+00 -0.00000000000E+00 -0.45593999997E+02  0.45594000000E+02  0.51100000000E-03 0.  1.
         23    2    1    2    0    0  0.00000000000E+00  0.00000000000E+00  0.00000000000E+00  0.91188000000E+02  0.91188000000E+02 0.  0.
    9900012    2    3    3    0    0  0.84260528768E+01 -0.29542545252E+02  0.20298283406E+02  0.54367073120E+02  0.39999974792E+02 0.  0.
        -12    1    3    3    0    0 -0.84260528768E+01  0.29542545252E+02 -0.20298283406E+02  0.36820926880E+02  0.00000000000E+00 0.  1.
         11    1    4    4    0    0  0.62907949721E+01 -0.15061631217E+02  0.28457785944E+02  0.32806591066E+02  0.51100000000E-03 0. -1.
        -11    1    4    4    0    0  0.18229657414E+01 -0.12490647912E+02 -0.11877038951E+02  0.17332153469E+02  0.51100000000E-03 0.  1.
        -12    1    4    4    0    0  0.31229216332E+00 -0.19902661227E+01  0.37175364138E+01  0.42283285849E+01  0.00000000000E+00 0.  1.
</event>
<event>
 8    1  0.2509217E-006  0.9118800E+02  0.7816164E-02  0.1184000E+00
        -11   -1    0    0    0    0  0.00000000000E+00  0.00000000000E+00  0.45593999997E+02  0.45594000000E+02  0.51100000000E-03 0.  1.
         11   -1    0    0    0    0 -0.00000000000E+00 -0.00000000000E+00 -0.45593999997E+02  0.45594000000E+02  0.51100000000E-03 0. -1.
         23    2    1    2    0    0  0.00000000000E+00  0.00000000000E+00 -0.35527136788E-14  0.91188000000E+02  0.91188000000E+02 0.  0.
    9900012    2    3    3    0    0  0.24693268465E+02  0.19421264761E+02 -0.19205131761E+02  0.54367080425E+02  0.39999991445E+02 0.  0.
        -12    1    3    3    0    0 -0.24693268465E+02 -0.19421264761E+02  0.19205131761E+02  0.36820919575E+02  0.00000000000E+00 0.  1.
         11    1    4    4    0    0  0.10048830102E+02  0.13773319721E+02  0.17759781059E+01  0.17141686645E+02  0.51100000000E-03 0. -1.
        -11    1    4    4    0    0 -0.52698157502E+01  0.35755925492E+01  0.20668971038E+01  0.66953628743E+01  0.51100000000E-03 0.  1.
         12    1    4    4    0    0  0.19914254113E+02  0.20723524901E+01 -0.23048006971E+02  0.30530030905E+02  0.00000000000E+00 0. -1.
</event>
<event>
 8    1  0.2509217E-006  0.9118800E+02  0.7816164E-02  0.1184000E+00
        -11   -1    0    0    0    0  0.00000000000E+00  0.00000000000E+00  0.45593999997E+02  0.45594000000E+02  0.51100000000E-03 0.  1.
         11   -1    0    0    0    0 -0.00000000000E+00 -0.00000000000E+00 -0.45593999997E+02  0.45594000000E+02  0.51100000000E-03 0. -1.
         23    2    1    2    0    0  0.00000000000E+00  0.17763568394E-14  0.00000000000E+00  0.91188000000E+02  0.91188000000E+02 0.  0.
    9900012    2    3    3    0    0 -0.21525503039E+02  0.15928469107E+02  0.25272715763E+02  0.54367169330E+02  0.40000194121E+02 0.  0.
         12    1    3    3    0    0  0.21525503039E+02 -0.15928469107E+02 -0.25272715763E+02  0.36820830670E+02  0.00000000000E+00 0. -1.
         11    1    4    4    0    0 -0.26047807572E+01  0.99325708987E+01 -0.24086164393E+01  0.10547145626E+02  0.51100000000E-03 0. -1.
        -11    1    4    4    0    0 -0.17921570298E+02  0.10820300925E+02  0.62762628189E+01  0.21855275548E+02  0.51100000000E-03 0.  1.
        -12    1    4    4    0    0 -0.99915198461E+00 -0.48244027158E+01  0.21405069383E+02  0.21964748156E+02  0.00000000000E+00 0.  1.
</event>
<event>
 8    1  0.2509217E-006  0.9118800E+02  0.7816164E-02  0.1184000E+00
        -11   -1    0    0    0    0  0.00000000000E+00  0.00000000000E+00  0.45593999997E+02  0.45594000000E+02  0.51100000000E-03 0.  1.
         11   -1    0    0    0    0 -0.00000000000E+00 -0.00000000000E+00 -0.45593999997E+02  0.45594000000E+02  0.51100000000E-03 0. -1.
         23    2    1    2    0    0  0.88817841970E-15  0.00000000000E+00  0.44408920985E-15  0.91188000000E+02  0.91188000000E+02 0.  0.
    9900012    2    3    3    0    0  0.54914466888E+01  0.36270362487E+02  0.31755888805E+01  0.54367088191E+02  0.40000009149E+02 0.  0.
         12    1    3    3    0    0 -0.54914466888E+01 -0.36270362487E+02 -0.31755888805E+01  0.36820911809E+02  0.00000000000E+00 0. -1.
         11    1    4    4    0    0  0.69091481251E+01  0.26442603792E+01 -0.22380581527E+01  0.77289938105E+01  0.51100000000E-03 0. -1.
        -11    1    4    4    0    0 -0.11846370332E+02  0.32502496385E+02  0.86537918968E+01  0.35660017887E+02  0.51100000000E-03 0.  1.
        -12    1    4    4    0    0  0.10428668896E+02  0.11236057237E+01 -0.32401448636E+01  0.10978076493E+02  0.00000000000E+00 0.  1.
</event>
<event>
 8    1  0.2509217E-006  0.9118800E+02  0.7816164E-02  0.1184000E+00
        -11   -1    0    0    0    0  0.00000000000E+00  0.00000000000E+00  0.45593999997E+02  0.45594000000E+02  0.51100000000E-03 0. -1.
         11   -1    0    0    0    0 -0.00000000000E+00 -0.00000000000E+00 -0.45593999997E+02  0.45594000000E+02  0.51100000000E-03 0.  1.
         23    2    1    2    0    0  0.00000000000E+00  0.00000000000E+00  0.00000000000E+00  0.91188000000E+02  0.91188000000E+02 0.  0.
    9900012    2    3    3    0    0  0.21822516383E+02 -0.27468035312E+02  0.11183231775E+02  0.54367083959E+02  0.39999999501E+02 0.  0.
        -12    1    3    3    0    0 -0.21822516383E+02  0.27468035312E+02 -0.11183231775E+02  0.36820916041E+02  0.00000000000E+00 0.  1.
         11    1    4    4    0    0  0.10399601976E+02 -0.30822794508E+02  0.10161539270E+02  0.34080100691E+02  0.51100000000E-03 0. -1.
        -11    1    4    4    0    0  0.78184305435E+01 -0.28147016515E-01  0.83552950359E+01  0.11442884418E+02  0.51100000000E-03 0.  1.
        -12    1    4    4    0    0  0.36044838641E+01  0.33829062125E+01 -0.73336025309E+01  0.88440988490E+01  0.00000000000E+00 0.  1.
</event>
<event>
 8    1  0.2509217E-006  0.9118800E+02  0.7816164E-02  0.1184000E+00
        -11   -1    0    0    0    0  0.00000000000E+00  0.00000000000E+00  0.45593999997E+02  0.45594000000E+02  0.51100000000E-03 0.  1.
         11   -1    0    0    0    0 -0.00000000000E+00 -0.00000000000E+00 -0.45593999997E+02  0.45594000000E+02  0.51100000000E-03 0. -1.
         23    2    1    2    0    0 -0.17763568394E-14  0.22204460493E-15  0.00000000000E+00  0.91188000000E+02  0.91188000000E+02 0.  0.
    9900012    2    3    3    0    0 -0.58311211211E+01 -0.19971788648E+01 -0.36301377916E+02  0.54367072044E+02  0.39999972338E+02 0.  0.
        -12    1    3    3    0    0  0.58311211211E+01  0.19971788648E+01  0.36301377916E+02  0.36820927956E+02  0.00000000000E+00 0.  1.
         11    1    4    4    0    0  0.11512996504E+02  0.38988249157E+01 -0.19810967930E+02  0.23242727354E+02  0.51100000000E-03 0. -1.
        -11    1    4    4    0    0  0.23775189221E+01 -0.61598982748E+01 -0.51448481135E+01  0.83705678035E+01  0.51100000000E-03 0.  1.
         12    1    4    4    0    0 -0.19721636548E+02  0.26389449431E+00 -0.11345561872E+02  0.22753776887E+02  0.00000000000E+00 0. -1.
</event>
<event>
 8    1  0.2509217E-006  0.9118800E+02  0.7816164E-02  0.1184000E+00
        -11   -1    0    0    0    0  0.00000000000E+00  0.00000000000E+00  0.45593999997E+02  0.45594000000E+02  0.51100000000E-03 0.  1.
         11   -1    0    0    0    0 -0.00000000000E+00 -0.00000000000E+00 -0.45593999997E+02  0.45594000000E+02  0.51100000000E-03 0. -1.
         23    2    1    2    0    0  0.00000000000E+00  0.00000000000E+00  0.00000000000E+00  0.91188000000E+02  0.91188000000E+02 0.  0.
    9900012    2    3    3    0    0  0.28197619129E+02 -0.11611042329E+02 -0.20636284517E+02  0.54367105563E+02  0.40000048752E+02 0.  0.
        -12    1    3    3    0    0 -0.28197619129E+02  0.11611042329E+02  0.20636284517E+02  0.36820894437E+02  0.00000000000E+00 0.  1.
         11    1    4    4    0    0  0.84002316514E+01 -0.98588961910E+01 -0.56720672060E+01  0.14139804544E+02  0.51100000000E-03 0. -1.
        -11    1    4    4    0    0  0.20722910101E+02 -0.94305812112E+01  0.67757556809E+00  0.22777927341E+02  0.51100000000E-03 0.  1.
         12    1    4    4    0    0 -0.92552262365E+00  0.76784350731E+01 -0.15641792879E+02  0.17449373678E+02  0.00000000000E+00 0. -1.
</event>
<event>
 8    1  0.2509217E-006  0.9118800E+02  0.7816164E-02  0.1184000E+00
        -11   -1    0    0    0    0  0.00000000000E+00  0.00000000000E+00  0.45593999997E+02  0.45594000000E+02  0.51100000000E-03 0. -1.
         11   -1    0    0    0    0 -0.00000000000E+00 -0.00000000000E+00 -0.45593999997E+02  0.45594000000E+02  0.51100000000E-03 0.  1.
         23    2    1    2    0    0  0.00000000000E+00  0.00000000000E+00  0.35527136788E-14  0.91188000000E+02  0.91188000000E+02 0.  0.
    9900012    2    3    3    0    0  0.23206193053E+02 -0.13617938852E+00 -0.28587276986E+02  0.54367104488E+02  0.40000046302E+02 0.  0.
         12    1    3    3    0    0 -0.23206193053E+02  0.13617938852E+00  0.28587276986E+02  0.36820895512E+02  0.00000000000E+00 0. -1.
         11    1    4    4    0    0  0.85038822216E+01  0.12886355070E+01  0.79470835200E+01  0.11710368527E+02  0.51100000000E-03 0. -1.
        -11    1    4    4    0    0  0.12284126851E+02  0.20403341694E+01 -0.10519669097E+02  0.16301109600E+02  0.51100000000E-03 0.  1.
        -12    1    4    4    0    0  0.24181839796E+01 -0.34651490649E+01 -0.26014691408E+02  0.26355626361E+02  0.00000000000E+00 0.  1.
</event>
<event>
 8    1  0.2509217E-006  0.9118800E+02  0.7816164E-02  0.1184000E+00
        -11   -1    0    0    0    0  0.00000000000E+00  0.00000000000E+00  0.45593999997E+02  0.45594000000E+02  0.51100000000E-03 0.  1.
         11   -1    0    0    0    0 -0.00000000000E+00 -0.00000000000E+00 -0.45593999997E+02  0.45594000000E+02  0.51100000000E-03 0. -1.
         23    2    1    2    0    0  0.17763568394E-14  0.00000000000E+00 -0.71054273576E-14  0.91188000000E+02  0.91188000000E+02 0.  0.
    9900012    2    3    3    0    0 -0.68213420775E+01 -0.42953231023E+01  0.35927683722E+02  0.54367096074E+02  0.40000027120E+02 0.  0.
         12    1    3    3    0    0  0.68213420775E+01  0.42953231023E+01 -0.35927683722E+02  0.36820903926E+02  0.00000000000E+00 0. -1.
         11    1    4    4    0    0  0.84439415542E+01 -0.25464022167E+01  0.54548988160E+01  0.10370160779E+02  0.51100000000E-03 0. -1.
        -11    1    4    4    0    0 -0.91399536390E+01 -0.11703226961E+02  0.45012555626E+01  0.15516622562E+02  0.51100000000E-03 0.  1.
         12    1    4    4    0    0 -0.61253299926E+01  0.99543060756E+01  0.25971529343E+02  0.28480312734E+02  0.00000000000E+00 0. -1.
</event>
<event>
 8    1  0.2509217E-006  0.9118800E+02  0.7816164E-02  0.1184000E+00
        -11   -1    0    0    0    0  0.00000000000E+00  0.00000000000E+00  0.45593999997E+02  0.45594000000E+02  0.51100000000E-03 0. -1.
         11   -1    0    0    0    0 -0.00000000000E+00 -0.00000000000E+00 -0.45593999997E+02  0.45594000000E+02  0.51100000000E-03 0.  1.
         23    2    1    2    0    0 -0.88817841970E-15 -0.17763568394E-14 -0.71054273576E-14  0.91188000000E+02  0.91188000000E+02 0.  0.
    9900012    2    3    3    0    0 -0.71242679389E+01 -0.11462268346E+02 -0.34258471931E+02  0.54367059106E+02  0.39999942843E+02 0.  0.
         12    1    3    3    0    0  0.71242679389E+01  0.11462268346E+02  0.34258471931E+02  0.36820940894E+02  0.00000000000E+00 0. -1.
         11    1    4    4    0    0 -0.29739176940E+01 -0.13558770203E+01 -0.35457581286E+01  0.48223427825E+01  0.51100000000E-03 0. -1.
        -11    1    4    4    0    0 -0.17466827109E+02  0.20871917288E+01 -0.25073348408E+02  0.30628731923E+02  0.51100000000E-03 0.  1.
         12    1    4    4    0    0  0.13316476864E+02 -0.12193583054E+02 -0.56393653944E+01  0.18915984400E+02  0.00000000000E+00 0. -1.
</event>
<event>
 8    1  0.2509217E-006  0.9118800E+02  0.7816164E-02  0.1184000E+00
        -11   -1    0    0    0    0  0.00000000000E+00  0.00000000000E+00  0.45593999997E+02  0.45594000000E+02  0.51100000000E-03 0.  1.
         11   -1    0    0    0    0 -0.00000000000E+00 -0.00000000000E+00 -0.45593999997E+02  0.45594000000E+02  0.51100000000E-03 0. -1.
         23    2    1    2    0    0  0.00000000000E+00  0.71054273576E-14  0.00000000000E+00  0.91188000000E+02  0.91188000000E+02 0.  0.
    9900012    2    3    3    0    0 -0.86160054918E+01 -0.33325111590E+02 -0.13076055919E+02  0.54367056890E+02  0.39999937792E+02 0.  0.
        -12    1    3    3    0    0  0.86160054918E+01  0.33325111590E+02  0.13076055919E+02  0.36820943110E+02  0.00000000000E+00 0.  1.
         11    1    4    4    0    0 -0.17920790454E+01 -0.19479438470E+02 -0.11411255647E+02  0.22646784012E+02  0.51100000000E-03 0. -1.
        -11    1    4    4    0    0 -0.13214034587E+02 -0.16817087847E+02 -0.74028903820E+01  0.22632453247E+02  0.51100000000E-03 0.  1.
        -12    1    4    4    0    0  0.63901081406E+01  0.29714147270E+01  0.57380901096E+01  0.90878196304E+01  0.00000000000E+00 0.  1.
</event>
<event>
 8    1  0.2509217E-006  0.9118800E+02  0.7816164E-02  0.1184000E+00
        -11   -1    0    0    0    0  0.00000000000E+00  0.00000000000E+00  0.45593999997E+02  0.45594000000E+02  0.51100000000E-03 0.  1.
         11   -1    0    0    0    0 -0.00000000000E+00 -0.00000000000E+00 -0.45593999997E+02  0.45594000000E+02  0.51100000000E-03 0. -1.
         23    2    1    2    0    0 -0.35527136788E-14  0.00000000000E+00  0.00000000000E+00  0.91188000000E+02  0.91188000000E+02 0.  0.
    9900012    2    3    3    0    0  0.18756684207E+02 -0.20047080417E+02  0.24537395039E+02  0.54367049564E+02  0.39999921092E+02 0.  0.
         12    1    3    3    0    0 -0.18756684207E+02  0.20047080417E+02 -0.24537395039E+02  0.36820950436E+02  0.00000000000E+00 0. -1.
         11    1    4    4    0    0  0.61107745239E+01 -0.59915889763E+01 -0.53199459033E+01  0.10076831269E+02  0.51100000000E-03 0. -1.
        -11    1    4    4    0    0  0.97943138443E+01 -0.22094967069E+02  0.21480548961E+02  0.32334658455E+02  0.51100000000E-03 0.  1.
         12    1    4    4    0    0  0.28515958386E+01  0.80394756286E+01  0.83767919815E+01  0.11955559841E+02  0.00000000000E+00 0. -1.
</event>
<event>
 8    1  0.2509217E-006  0.9118800E+02  0.7816164E-02  0.1184000E+00
        -11   -1    0    0    0    0  0.00000000000E+00  0.00000000000E+00  0.45593999997E+02  0.45594000000E+02  0.51100000000E-03 0. -1.
         11   -1    0    0    0    0 -0.00000000000E+00 -0.00000000000E+00 -0.45593999997E+02  0.45594000000E+02  0.51100000000E-03 0.  1.
         23    2    1    2    0    0 -0.17763568394E-14  0.17763568394E-14  0.00000000000E+00  0.91188000000E+02  0.91188000000E+02 0.  0.
    9900012    2    3    3    0    0  0.10705483751E+02 -0.77515283764E+01 -0.34366945663E+02  0.54367074852E+02  0.39999978741E+02 0.  0.
         12    1    3    3    0    0 -0.10705483751E+02  0.77515283764E+01  0.34366945663E+02  0.36820925148E+02  0.00000000000E+00 0. -1.
         11    1    4    4    0    0  0.55234182153E+01  0.11409509406E+01  0.45369433516E+01  0.72383543066E+01  0.51100000000E-03 0. -1.
        -11    1    4    4    0    0  0.22158122166E+01  0.22899014427E+01  0.25560122643E+01  0.40849322336E+01  0.51100000000E-03 0.  1.
        -12    1    4    4    0    0  0.29662533194E+01 -0.11182380760E+02 -0.41459901279E+02  0.43043788312E+02  0.00000000000E+00 0.  1.
</event>
<event>
 8    1  0.2509217E-006  0.9118800E+02  0.7816164E-02  0.1184000E+00
        -11   -1    0    0    0    0  0.00000000000E+00  0.00000000000E+00  0.45593999997E+02  0.45594000000E+02  0.51100000000E-03 0.  1.
         11   -1    0    0    0    0 -0.00000000000E+00 -0.00000000000E+00 -0.45593999997E+02  0.45594000000E+02  0.51100000000E-03 0. -1.
         23    2    1    2    0    0  0.00000000000E+00  0.00000000000E+00  0.88817841970E-15  0.91188000000E+02  0.91188000000E+02 0.  0.
    9900012    2    3    3    0    0  0.35877097448E+02  0.76463107143E+01 -0.31854897982E+01  0.54367088358E+02  0.40000009531E+02 0.  0.
        -12    1    3    3    0    0 -0.35877097448E+02 -0.76463107143E+01  0.31854897982E+01  0.36820911642E+02  0.00000000000E+00 0.  1.
         11    1    4    4    0    0  0.33686619541E+02  0.18091497204E+02 -0.78265192289E+01  0.39030052660E+02  0.51100000000E-03 0. -1.
        -11    1    4    4    0    0  0.12880344663E+01 -0.76239840796E+01  0.78164446379E+01  0.10994588354E+02  0.51100000000E-03 0.  1.
         12    1    4    4    0    0  0.90244344166E+00 -0.28212024098E+01 -0.31754152072E+01  0.43424473446E+01  0.00000000000E+00 0. -1.
</event>
<event>
 8    1  0.2509217E-006  0.9118800E+02  0.7816164E-02  0.1184000E+00
        -11   -1    0    0    0    0  0.00000000000E+00  0.00000000000E+00  0.45593999997E+02  0.45594000000E+02  0.51100000000E-03 0.  1.
         11   -1    0    0    0    0 -0.00000000000E+00 -0.00000000000E+00 -0.45593999997E+02  0.45594000000E+02  0.51100000000E-03 0. -1.
         23    2    1    2    0    0 -0.35527136788E-14 -0.88817841970E-15  0.00000000000E+00  0.91188000000E+02  0.91188000000E+02 0.  0.
    9900012    2    3    3    0    0 -0.21860564680E+02 -0.47671274273E+01 -0.29243299116E+02  0.54367077480E+02  0.39999984731E+02 0.  0.
        -12    1    3    3    0    0  0.21860564680E+02  0.47671274273E+01  0.29243299116E+02  0.36820922520E+02  0.00000000000E+00 0.  1.
         11    1    4    4    0    0  0.13653305613E+01 -0.71715672713E+01 -0.14476113861E+02  0.16212753543E+02  0.51100000000E-03 0. -1.
        -11    1    4    4    0    0 -0.72447327905E+01  0.12823889007E+02 -0.11745604001E+02  0.18838723314E+02  0.51100000000E-03 0.  1.
        -12    1    4    4    0    0 -0.15981162451E+02 -0.10419449163E+02 -0.30215812540E+01  0.19315600623E+02  0.00000000000E+00 0.  1.
</event>
<event>
 8    1  0.2509217E-006  0.9118800E+02  0.7816164E-02  0.1184000E+00
        -11   -1    0    0    0    0  0.00000000000E+00  0.00000000000E+00  0.45593999997E+02  0.45594000000E+02  0.51100000000E-03 0. -1.
         11   -1    0    0    0    0 -0.00000000000E+00 -0.00000000000E+00 -0.45593999997E+02  0.45594000000E+02  0.51100000000E-03 0.  1.
         23    2    1    2    0    0 -0.76327832943E-15 -0.35527136788E-14  0.00000000000E+00  0.91188000000E+02  0.91188000000E+02 0.  0.
    9900012    2    3    3    0    0 -0.10844868575E+00 -0.29023354074E+02  0.22658562629E+02  0.54367118652E+02  0.40000078591E+02 0.  0.
        -12    1    3    3    0    0  0.10844868575E+00  0.29023354074E+02 -0.22658562629E+02  0.36820881348E+02  0.00000000000E+00 0.  1.
         11    1    4    4    0    0  0.34452716384E+01 -0.29231558264E+02  0.14598875862E+02  0.32855457262E+02  0.51100000000E-03 0. -1.
        -11    1    4    4    0    0 -0.73280922060E+01 -0.77636791949E+01  0.21378951690E+01  0.10887894472E+02  0.51100000000E-03 0.  1.
         12    1    4    4    0    0  0.37743718819E+01  0.79718833846E+01  0.59217915976E+01  0.10623766918E+02  0.00000000000E+00 0. -1.
</event>
<event>
 8    1  0.2509217E-006  0.9118800E+02  0.7816164E-02  0.1184000E+00
        -11   -1    0    0    0    0  0.00000000000E+00  0.00000000000E+00  0.45593999997E+02  0.45594000000E+02  0.51100000000E-03 0.  1.
         11   -1    0    0    0    0 -0.00000000000E+00 -0.00000000000E+00 -0.45593999997E+02  0.45594000000E+02  0.51100000000E-03 0. -1.
         23    2    1    2    0    0 -0.35527136788E-14  0.00000000000E+00  0.00000000000E+00  0.91188000000E+02  0.91188000000E+02 0.  0.
    9900012    2    3    3    0    0 -0.15293043468E+02 -0.26220075469E+02  0.20842505006E+02  0.54367088129E+02  0.40000009007E+02 0.  0.
         12    1    3    3    0    0  0.15293043468E+02  0.26220075469E+02 -0.20842505006E+02  0.36820911871E+02  0.00000000000E+00 0. -1.
         11    1    4    4    0    0  0.34856901735E+01 -0.10553669704E+02  0.79410604326E+01  0.13659810440E+02  0.51100000000E-03 0. -1.
        -11    1    4    4    0    0  0.22100843479E+01 -0.17264686535E+02  0.76499046803E+01  0.19012493678E+02  0.51100000000E-03 0.  1.
         12    1    4    4    0    0 -0.20988817990E+02  0.15982807698E+01  0.52515398932E+01  0.21694784011E+02  0.00000000000E+00 0. -1.
</event>
<event>
 8    1  0.2509217E-006  0.9118800E+02  0.7816164E-02  0.1184000E+00
        -11   -1    0    0    0    0  0.00000000000E+00  0.00000000000E+00  0.45593999997E+02  0.45594000000E+02  0.51100000000E-03 0.  1.
         11   -1    0    0    0    0 -0.00000000000E+00 -0.00000000000E+00 -0.45593999997E+02  0.45594000000E+02  0.51100000000E-03 0. -1.
         23    2    1    2    0    0  0.35527136788E-14  0.35527136788E-14  0.35527136788E-14  0.91188000000E+02  0.91188000000E+02 0.  0.
    9900012    2    3    3    0    0 -0.17549127662E+02 -0.28964050482E+02 -0.14453220405E+02  0.54367032032E+02  0.39999881122E+02 0.  0.
        -12    1    3    3    0    0  0.17549127662E+02  0.28964050482E+02  0.14453220405E+02  0.36820967968E+02  0.00000000000E+00 0.  1.
         11    1    4    4    0    0  0.54611033058E+01 -0.35547765644E+01 -0.43674990453E+01  0.78444333072E+01  0.51100000000E-03 0.  1.
        -11    1    4    4    0    0 -0.22839027156E+02 -0.24271778922E+02 -0.18440319475E+02  0.38089182140E+02  0.51100000000E-03 0. -1.
         12    1    4    4    0    0 -0.17120381257E+00 -0.11374949957E+01  0.83545981157E+01  0.84334165844E+01  0.00000000000E+00 0. -1.
</event>
<event>
 8    1  0.2509217E-006  0.9118800E+02  0.7816164E-02  0.1184000E+00
        -11   -1    0    0    0    0  0.00000000000E+00  0.00000000000E+00  0.45593999997E+02  0.45594000000E+02  0.51100000000E-03 0.  1.
         11   -1    0    0    0    0 -0.00000000000E+00 -0.00000000000E+00 -0.45593999997E+02  0.45594000000E+02  0.51100000000E-03 0. -1.
         23    2    1    2    0    0 -0.88817841970E-15  0.00000000000E+00  0.00000000000E+00  0.91188000000E+02  0.91188000000E+02 0.  0.
    9900012    2    3    3    0    0  0.30214270872E+01 -0.10963005724E+02 -0.35020898365E+02  0.54367084226E+02  0.40000000110E+02 0.  0.
        -12    1    3    3    0    0 -0.30214270872E+01  0.10963005724E+02  0.35020898365E+02  0.36820915774E+02  0.00000000000E+00 0.  1.
         11    1    4    4    0    0 -0.69049873917E+01  0.70284078208E+01 -0.22557018675E+01  0.10107697985E+02  0.51100000000E-03 0.  1.
        -11    1    4    4    0    0  0.44748616765E+01 -0.65247982222E+01 -0.30312586287E+02  0.31328106654E+02  0.51100000000E-03 0. -1.
        -12    1    4    4    0    0  0.54515528024E+01 -0.11466615323E+02 -0.24526102107E+01  0.12931279587E+02  0.00000000000E+00 0.  1.
</event>
<event>
 8    1  0.2509217E-006  0.9118800E+02  0.7816164E-02  0.1184000E+00
        -11   -1    0    0    0    0  0.00000000000E+00  0.00000000000E+00  0.45593999997E+02  0.45594000000E+02  0.51100000000E-03 0. -1.
         11   -1    0    0    0    0 -0.00000000000E+00 -0.00000000000E+00 -0.45593999997E+02  0.45594000000E+02  0.51100000000E-03 0.  1.
         23    2    1    2    0    0 -0.88817841970E-15 -0.71054273576E-14 -0.17763568394E-14  0.91188000000E+02  0.91188000000E+02 0.  0.
    9900012    2    3    3    0    0 -0.63646739634E+01 -0.35244588098E+02  0.85492115587E+01  0.54367094482E+02  0.40000023491E+02 0.  0.
        -12    1    3    3    0    0  0.63646739634E+01  0.35244588098E+02 -0.85492115587E+01  0.36820905518E+02  0.00000000000E+00 0.  1.
         11    1    4    4    0    0  0.46028738905E+01 -0.16697005024E+02 -0.12968437876E+02  0.21636931530E+02  0.51100000000E-03 0. -1.
        -11    1    4    4    0    0  0.34732596590E+00 -0.86058145594E+01  0.12484073003E+02  0.15166830868E+02  0.51100000000E-03 0.  1.
         12    1    4    4    0    0 -0.11314873820E+02 -0.99417685147E+01  0.90335764314E+01  0.17563332084E+02  0.00000000000E+00 0. -1.
</event>
<event>
 8    1  0.2509217E-006  0.9118800E+02  0.7816164E-02  0.1184000E+00
        -11   -1    0    0    0    0  0.00000000000E+00  0.00000000000E+00  0.45593999997E+02  0.45594000000E+02  0.51100000000E-03 0.  1.
         11   -1    0    0    0    0 -0.00000000000E+00 -0.00000000000E+00 -0.45593999997E+02  0.45594000000E+02  0.51100000000E-03 0. -1.
         23    2    1    2    0    0 -0.66613381478E-15  0.22204460493E-15  0.00000000000E+00  0.91188000000E+02  0.91188000000E+02 0.  0.
    9900012    2    3    3    0    0  0.15380801535E+01 -0.19724113797E+01  0.36735873774E+02  0.54367074982E+02  0.39999979037E+02 0.  0.
         12    1    3    3    0    0 -0.15380801535E+01  0.19724113797E+01 -0.36735873774E+02  0.36820925018E+02  0.00000000000E+00 0. -1.
         11    1    4    4    0    0 -0.70603871802E+01  0.39478947558E+01  0.41469663993E+01  0.90902294094E+01  0.51100000000E-03 0. -1.
        -11    1    4    4    0    0  0.10446521505E+02 -0.16579675022E+02  0.26182758294E+02  0.32704009961E+02  0.51100000000E-03 0.  1.
        -12    1    4    4    0    0 -0.18480541710E+01  0.10659368886E+02  0.64061490806E+01  0.12572835612E+02  0.00000000000E+00 0.  1.
</event>
<event>
 8    1  0.2509217E-006  0.9118800E+02  0.7816164E-02  0.1184000E+00
        -11   -1    0    0    0    0  0.00000000000E+00  0.00000000000E+00  0.45593999997E+02  0.45594000000E+02  0.51100000000E-03 0.  1.
         11   -1    0    0    0    0 -0.00000000000E+00 -0.00000000000E+00 -0.45593999997E+02  0.45594000000E+02  0.51100000000E-03 0. -1.
         23    2    1    2    0    0 -0.17763568394E-14 -0.88817841970E-15  0.00000000000E+00  0.91188000000E+02  0.91188000000E+02 0.  0.
    9900012    2    3    3    0    0 -0.10184621756E+02 -0.27912346225E+01  0.35274097639E+02  0.54367089157E+02  0.40000011352E+02 0.  0.
         12    1    3    3    0    0  0.10184621756E+02  0.27912346225E+01 -0.35274097639E+02  0.36820910843E+02  0.00000000000E+00 0. -1.
         11    1    4    4    0    0 -0.77404734453E-01  0.65908497420E+01  0.18584869007E+02  0.19719093491E+02  0.51100000000E-03 0.  1.
        -11    1    4    4    0    0  0.36533392820E+01 -0.13127671926E+02  0.15034888973E+02  0.20291144492E+02  0.51100000000E-03 0. -1.
         12    1    4    4    0    0 -0.13760556304E+02  0.37455875611E+01  0.16543396590E+01  0.14356851175E+02  0.00000000000E+00 0. -1.
</event>
<event>
 8    1  0.2509217E-006  0.9118800E+02  0.7816164E-02  0.1184000E+00
        -11   -1    0    0    0    0  0.00000000000E+00  0.00000000000E+00  0.45593999997E+02  0.45594000000E+02  0.51100000000E-03 0.  1.
         11   -1    0    0    0    0 -0.00000000000E+00 -0.00000000000E+00 -0.45593999997E+02  0.45594000000E+02  0.51100000000E-03 0. -1.
         23    2    1    2    0    0  0.00000000000E+00  0.00000000000E+00 -0.17763568394E-14  0.91188000000E+02  0.91188000000E+02 0.  0.
    9900012    2    3    3    0    0 -0.32278501965E+02  0.80374916216E+01  0.15788669452E+02  0.54367013542E+02  0.39999838972E+02 0.  0.
         12    1    3    3    0    0  0.32278501965E+02 -0.80374916216E+01 -0.15788669452E+02  0.36820986458E+02  0.00000000000E+00 0. -1.
         11    1    4    4    0    0 -0.22966362564E+01  0.12373628398E+02 -0.48564577161E+01  0.13489492194E+02  0.51100000000E-03 0. -1.
        -11    1    4    4    0    0 -0.18342462858E+02 -0.57726906519E+01  0.26685608375E+01  0.19413683789E+02  0.51100000000E-03 0.  1.
        -12    1    4    4    0    0 -0.11639402850E+02  0.14365538753E+01  0.17976566330E+02  0.21463837559E+02  0.00000000000E+00 0.  1.
</event>
<event>
 8    1  0.2509217E-006  0.9118800E+02  0.7816164E-02  0.1184000E+00
        -11   -1    0    0    0    0  0.00000000000E+00  0.00000000000E+00  0.45593999997E+02  0.45594000000E+02  0.51100000000E-03 0.  1.
         11   -1    0    0    0    0 -0.00000000000E+00 -0.00000000000E+00 -0.45593999997E+02  0.45594000000E+02  0.51100000000E-03 0. -1.
         23    2    1    2    0    0 -0.35527136788E-14  0.88817841970E-15  0.35527136788E-14  0.91188000000E+02  0.91188000000E+02 0.  0.
    9900012    2    3    3    0    0  0.19995938695E+02  0.77542200099E+01  0.29930148156E+02  0.54367092068E+02  0.40000017988E+02 0.  0.
         12    1    3    3    0    0 -0.19995938695E+02 -0.77542200099E+01 -0.29930148156E+02  0.36820907932E+02  0.00000000000E+00 0. -1.
         11    1    4    4    0    0  0.19462619283E-03 -0.16025910438E+00 -0.22163651852E+01  0.22221516405E+01  0.51100000000E-03 0. -1.
        -11    1    4    4    0    0  0.28729303751E+02 -0.76614970470E+00  0.22170821472E+02  0.36297454517E+02  0.51100000000E-03 0.  1.
        -12    1    4    4    0    0 -0.87335596822E+01  0.86806288190E+01  0.99756918690E+01  0.15847485910E+02  0.00000000000E+00 0.  1.
</event>
<event>
 8    1  0.2509217E-006  0.9118800E+02  0.7816164E-02  0.1184000E+00
        -11   -1    0    0    0    0  0.00000000000E+00  0.00000000000E+00  0.45593999997E+02  0.45594000000E+02  0.51100000000E-03 0.  1.
         11   -1    0    0    0    0 -0.00000000000E+00 -0.00000000000E+00 -0.45593999997E+02  0.45594000000E+02  0.51100000000E-03 0. -1.
         23    2    1    2    0    0 -0.35527136788E-14  0.00000000000E+00  0.35527136788E-14  0.91188000000E+02  0.91188000000E+02 0.  0.
    9900012    2    3    3    0    0 -0.29217349876E+02 -0.70928898948E+01  0.21256008666E+02  0.54367074899E+02  0.39999978848E+02 0.  0.
         12    1    3    3    0    0  0.29217349876E+02  0.70928898948E+01 -0.21256008666E+02  0.36820925101E+02  0.00000000000E+00 0. -1.
         11    1    4    4    0    0 -0.18903717434E+02  0.43748071965E+01 -0.17924865176E+01  0.19485955943E+02  0.51100000000E-03 0. -1.
        -11    1    4    4    0    0 -0.49259191084E+01 -0.96276885846E+01 -0.32968124217E+00  0.10819692996E+02  0.51100000000E-03 0.  1.
         12    1    4    4    0    0 -0.53877133341E+01 -0.18400085066E+01  0.23378176426E+02  0.24061425961E+02  0.00000000000E+00 0. -1.
</event>
<event>
 8    1  0.2509217E-006  0.9118800E+02  0.7816164E-02  0.1184000E+00
        -11   -1    0    0    0    0  0.00000000000E+00  0.00000000000E+00  0.45593999997E+02  0.45594000000E+02  0.51100000000E-03 0. -1.
         11   -1    0    0    0    0 -0.00000000000E+00 -0.00000000000E+00 -0.45593999997E+02  0.45594000000E+02  0.51100000000E-03 0.  1.
         23    2    1    2    0    0 -0.35527136788E-14 -0.88817841970E-15  0.00000000000E+00  0.91188000000E+02  0.91188000000E+02 0.  0.
    9900012    2    3    3    0    0 -0.26793847814E+02 -0.53492038925E+01  0.24683101921E+02  0.54367084973E+02  0.40000001812E+02 0.  0.
        -12    1    3    3    0    0  0.26793847814E+02  0.53492038925E+01 -0.24683101921E+02  0.36820915027E+02  0.00000000000E+00 0.  1.
         11    1    4    4    0    0 -0.16344879772E+00  0.58662595568E+01  0.86272459797E+01  0.10434035181E+02  0.51100000000E-03 0. -1.
        -11    1    4    4    0    0 -0.13578443058E+02  0.81495701518E+01  0.12783299353E+02  0.20351961875E+02  0.51100000000E-03 0.  1.
         12    1    4    4    0    0 -0.13051955959E+02 -0.19365033601E+02  0.32725565884E+01  0.23581087917E+02  0.00000000000E+00 0. -1.
</event>
<event>
 8    1  0.2509217E-006  0.9118800E+02  0.7816164E-02  0.1184000E+00
        -11   -1    0    0    0    0  0.00000000000E+00  0.00000000000E+00  0.45593999997E+02  0.45594000000E+02  0.51100000000E-03 0.  1.
         11   -1    0    0    0    0 -0.00000000000E+00 -0.00000000000E+00 -0.45593999997E+02  0.45594000000E+02  0.51100000000E-03 0. -1.
         23    2    1    2    0    0  0.00000000000E+00  0.10658141036E-13  0.00000000000E+00  0.91188000000E+02  0.91188000000E+02 0.  0.
    9900012    2    3    3    0    0 -0.23906619841E+02  0.27966616095E+02 -0.14569617541E+01  0.54367070821E+02  0.39999969551E+02 0.  0.
        -12    1    3    3    0    0  0.23906619841E+02 -0.27966616095E+02  0.14569617541E+01  0.36820929179E+02  0.00000000000E+00 0.  1.
         11    1    4    4    0    0 -0.12669353408E+02 -0.20238315321E+01 -0.38622015993E+01  0.13398694388E+02  0.51100000000E-03 0. -1.
        -11    1    4    4    0    0 -0.41552289088E+01 -0.42395234150E+01  0.60694804836E+00  0.59672332169E+01  0.51100000000E-03 0.  1.
        -12    1    4    4    0    0 -0.70820375244E+01  0.34229971042E+02  0.17982917968E+01  0.35001143216E+02  0.00000000000E+00 0.  1.
</event>
<event>
 8    1  0.2509217E-006  0.9118800E+02  0.7816164E-02  0.1184000E+00
        -11   -1    0    0    0    0  0.00000000000E+00  0.00000000000E+00  0.45593999997E+02  0.45594000000E+02  0.51100000000E-03 0.  1.
         11   -1    0    0    0    0 -0.00000000000E+00 -0.00000000000E+00 -0.45593999997E+02  0.45594000000E+02  0.51100000000E-03 0. -1.
         23    2    1    2    0    0  0.00000000000E+00  0.00000000000E+00  0.35527136788E-14  0.91188000000E+02  0.91188000000E+02 0.  0.
    9900012    2    3    3    0    0  0.11264017111E+02  0.22157990629E+02 -0.27164770660E+02  0.54367090245E+02  0.40000013832E+02 0.  0.
        -12    1    3    3    0    0 -0.11264017111E+02 -0.22157990629E+02  0.27164770660E+02  0.36820909755E+02  0.00000000000E+00 0.  1.
         11    1    4    4    0    0  0.18042056644E+02  0.11988053251E+02 -0.24898932277E+02  0.33002818933E+02  0.51100000000E-03 0.  1.
        -11    1    4    4    0    0  0.44404160888E+01  0.64690879338E+01  0.30394082406E+01  0.84145348327E+01  0.51100000000E-03 0. -1.
        -12    1    4    4    0    0 -0.11218455622E+02  0.37008494436E+01 -0.53052466233E+01  0.12949736480E+02  0.00000000000E+00 0.  1.
</event>
<event>
 8    1  0.2509217E-006  0.9118800E+02  0.7816164E-02  0.1184000E+00
        -11   -1    0    0    0    0  0.00000000000E+00  0.00000000000E+00  0.45593999997E+02  0.45594000000E+02  0.51100000000E-03 0. -1.
         11   -1    0    0    0    0 -0.00000000000E+00 -0.00000000000E+00 -0.45593999997E+02  0.45594000000E+02  0.51100000000E-03 0.  1.
         23    2    1    2    0    0  0.35527136788E-14  0.44408920985E-14  0.00000000000E+00  0.91188000000E+02  0.91188000000E+02 0.  0.
    9900012    2    3    3    0    0  0.17966726001E+02  0.43868324988E+01  0.31839161635E+02  0.54367085343E+02  0.40000002656E+02 0.  0.
        -12    1    3    3    0    0 -0.17966726001E+02 -0.43868324988E+01 -0.31839161635E+02  0.36820914657E+02  0.00000000000E+00 0.  1.
         11    1    4    4    0    0  0.12594487666E+01  0.15240324632E+02  0.84326016314E+01  0.17463174872E+02  0.51100000000E-03 0. -1.
        -11    1    4    4    0    0  0.33397827483E+01 -0.13940101828E+02  0.15312121442E+02  0.20974786080E+02  0.51100000000E-03 0.  1.
        -12    1    4    4    0    0  0.13367494486E+02  0.30866096952E+01  0.80944385621E+01  0.15929124391E+02  0.00000000000E+00 0.  1.
</event>
<event>
 8    1  0.2509217E-006  0.9118800E+02  0.7816164E-02  0.1184000E+00
        -11   -1    0    0    0    0  0.00000000000E+00  0.00000000000E+00  0.45593999997E+02  0.45594000000E+02  0.51100000000E-03 0.  1.
         11   -1    0    0    0    0 -0.00000000000E+00 -0.00000000000E+00 -0.45593999997E+02  0.45594000000E+02  0.51100000000E-03 0. -1.
         23    2    1    2    0    0  0.00000000000E+00 -0.17763568394E-14 -0.71054273576E-14  0.91188000000E+02  0.91188000000E+02 0.  0.
    9900012    2    3    3    0    0  0.18622433159E+02  0.85488585447E+01  0.30592519506E+02  0.54367078652E+02  0.39999987404E+02 0.  0.
         12    1    3    3    0    0 -0.18622433159E+02 -0.85488585447E+01 -0.30592519506E+02  0.36820921348E+02  0.00000000000E+00 0. -1.
         11    1    4    4    0    0 -0.46245216856E+01  0.34571982581E+01  0.46786335929E+00  0.57928677699E+01  0.51100000000E-03 0.  1.
        -11    1    4    4    0    0  0.15879932386E+02 -0.49049941713E+01  0.69821013417E+00  0.16634864534E+02  0.51100000000E-03 0. -1.
        -12    1    4    4    0    0  0.73670224580E+01  0.99966544579E+01  0.29426446012E+02  0.31939346348E+02  0.00000000000E+00 0.  1.
</event>
<event>
 8    1  0.2509217E-006  0.9118800E+02  0.7816164E-02  0.1184000E+00
        -11   -1    0    0    0    0  0.00000000000E+00  0.00000000000E+00  0.45593999997E+02  0.45594000000E+02  0.51100000000E-03 0. -1.
         11   -1    0    0    0    0 -0.00000000000E+00 -0.00000000000E+00 -0.45593999997E+02  0.45594000000E+02  0.51100000000E-03 0.  1.
         23    2    1    2    0    0  0.00000000000E+00 -0.22204460493E-15 -0.35527136788E-14  0.91188000000E+02  0.91188000000E+02 0.  0.
    9900012    2    3    3    0    0  0.19105764344E+02 -0.11090039939E+01  0.31456624340E+02  0.54367091050E+02  0.40000015667E+02 0.  0.
        -12    1    3    3    0    0 -0.19105764344E+02  0.11090039939E+01 -0.31456624340E+02  0.36820908950E+02  0.00000000000E+00 0.  1.
         11    1    4    4    0    0 -0.17221716764E+01  0.95780180250E+01  0.14627091204E+02  0.17568611269E+02  0.51100000000E-03 0. -1.
        -11    1    4    4    0    0  0.45913205975E+01 -0.30099586862E+01 -0.57480918535E+01  0.79486248081E+01  0.51100000000E-03 0.  1.
         12    1    4    4    0    0  0.16236615423E+02 -0.76770633327E+01  0.22577624989E+02  0.28849854973E+02  0.00000000000E+00 0. -1.
</event>
<event>
 8    1  0.2509217E-006  0.9118800E+02  0.7816164E-02  0.1184000E+00
        -11   -1    0    0    0    0  0.00000000000E+00  0.00000000000E+00  0.45593999997E+02  0.45594000000E+02  0.51100000000E-03 0. -1.
         11   -1    0    0    0    0 -0.00000000000E+00 -0.00000000000E+00 -0.45593999997E+02  0.45594000000E+02  0.51100000000E-03 0.  1.
         23    2    1    2    0    0  0.71054273576E-14  0.00000000000E+00 -0.17763568394E-14  0.91188000000E+02  0.91188000000E+02 0.  0.
    9900012    2    3    3    0    0  0.35563223788E+02 -0.34948899268E+01 -0.88780948342E+01  0.54367113133E+02  0.40000066009E+02 0.  0.
         12    1    3    3    0    0 -0.35563223788E+02  0.34948899268E+01  0.88780948342E+01  0.36820886867E+02  0.00000000000E+00 0. -1.
         11    1    4    4    0    0  0.46579729038E+01 -0.26314741398E+01 -0.53105164346E+01  0.75381000778E+01  0.51100000000E-03 0. -1.
        -11    1    4    4    0    0  0.82201200879E+01  0.13690357522E+02 -0.10358871341E+02  0.19034244904E+02  0.51100000000E-03 0.  1.
         12    1    4    4    0    0  0.22685130796E+02 -0.14553773309E+02  0.67912929414E+01  0.27794768151E+02  0.00000000000E+00 0. -1.
</event>
<event>
 8    1  0.2509217E-006  0.9118800E+02  0.7816164E-02  0.1184000E+00
        -11   -1    0    0    0    0  0.00000000000E+00  0.00000000000E+00  0.45593999997E+02  0.45594000000E+02  0.51100000000E-03 0. -1.
         11   -1    0    0    0    0 -0.00000000000E+00 -0.00000000000E+00 -0.45593999997E+02  0.45594000000E+02  0.51100000000E-03 0.  1.
         23    2    1    2    0    0  0.35527136788E-14  0.00000000000E+00 -0.35527136788E-14  0.91188000000E+02  0.91188000000E+02 0.  0.
    9900012    2    3    3    0    0 -0.19365073162E+02  0.21718017190E+02  0.22563400671E+02  0.54367008988E+02  0.39999828590E+02 0.  0.
        -12    1    3    3    0    0  0.19365073162E+02 -0.21718017190E+02 -0.22563400671E+02  0.36820991012E+02  0.00000000000E+00 0.  1.
         11    1    4    4    0    0 -0.80133891703E+01 -0.49178454986E+00  0.20800718642E+00  0.80311596478E+01  0.51100000000E-03 0. -1.
        -11    1    4    4    0    0 -0.57844615175E+01  0.19228177556E+02 -0.29135290536E+01  0.20289688489E+02  0.51100000000E-03 0.  1.
         12    1    4    4    0    0 -0.55672224744E+01  0.29816241839E+01  0.25268922538E+02  0.26046160851E+02  0.00000000000E+00 0. -1.
</event>
<event>
 8    1  0.2509217E-006  0.9118800E+02  0.7816164E-02  0.1184000E+00
        -11   -1    0    0    0    0  0.00000000000E+00  0.00000000000E+00  0.45593999997E+02  0.45594000000E+02  0.51100000000E-03 0.  1.
         11   -1    0    0    0    0 -0.00000000000E+00 -0.00000000000E+00 -0.45593999997E+02  0.45594000000E+02  0.51100000000E-03 0. -1.
         23    2    1    2    0    0 -0.17763568394E-14  0.88817841970E-15  0.00000000000E+00  0.91188000000E+02  0.91188000000E+02 0.  0.
    9900012    2    3    3    0    0 -0.13740768433E+02  0.56557198675E+01 -0.33689565525E+02  0.54367045238E+02  0.39999911228E+02 0.  0.
        -12    1    3    3    0    0  0.13740768433E+02 -0.56557198675E+01  0.33689565525E+02  0.36820954762E+02  0.00000000000E+00 0.  1.
         11    1    4    4    0    0 -0.39270061722E+01  0.53688589843E+01 -0.29250985530E+02  0.29997769567E+02  0.51100000000E-03 0. -1.
        -11    1    4    4    0    0 -0.39157262697E+01  0.10896833205E+02 -0.39001126138E+01  0.12218214468E+02  0.51100000000E-03 0.  1.
        -12    1    4    4    0    0 -0.58980359910E+01 -0.10609972322E+02 -0.53846738184E+00  0.12151061203E+02  0.00000000000E+00 0.  1.
</event>
<event>
 8    1  0.2509217E-006  0.9118800E+02  0.7816164E-02  0.1184000E+00
        -11   -1    0    0    0    0  0.00000000000E+00  0.00000000000E+00  0.45593999997E+02  0.45594000000E+02  0.51100000000E-03 0. -1.
         11   -1    0    0    0    0 -0.00000000000E+00 -0.00000000000E+00 -0.45593999997E+02  0.45594000000E+02  0.51100000000E-03 0.  1.
         23    2    1    2    0    0  0.00000000000E+00  0.00000000000E+00  0.00000000000E+00  0.91188000000E+02  0.91188000000E+02 0.  0.
    9900012    2    3    3    0    0 -0.18797782625E+02  0.23171198782E+02  0.21575829712E+02  0.54367115812E+02  0.40000072117E+02 0.  0.
        -12    1    3    3    0    0  0.18797782625E+02 -0.23171198782E+02 -0.21575829712E+02  0.36820884188E+02  0.00000000000E+00 0.  1.
         11    1    4    4    0    0 -0.16320712305E+02 -0.25540614333E+01  0.17492628995E+02  0.24059944916E+02  0.51100000000E-03 0. -1.
        -11    1    4    4    0    0 -0.87772636675E+01  0.14016972790E+02  0.39824953332E+01  0.17011059727E+02  0.51100000000E-03 0.  1.
         12    1    4    4    0    0  0.63001933479E+01  0.11708287425E+02  0.10070538459E+00  0.13296111169E+02  0.00000000000E+00 0. -1.
</event>
<event>
 8    1  0.2509217E-006  0.9118800E+02  0.7816164E-02  0.1184000E+00
        -11   -1    0    0    0    0  0.00000000000E+00  0.00000000000E+00  0.45593999997E+02  0.45594000000E+02  0.51100000000E-03 0. -1.
         11   -1    0    0    0    0 -0.00000000000E+00 -0.00000000000E+00 -0.45593999997E+02  0.45594000000E+02  0.51100000000E-03 0.  1.
         23    2    1    2    0    0 -0.13322676296E-14  0.00000000000E+00  0.00000000000E+00  0.91188000000E+02  0.91188000000E+02 0.  0.
    9900012    2    3    3    0    0 -0.18262552319E+01 -0.34023403671E+02  0.13958922794E+02  0.54367099262E+02  0.40000034389E+02 0.  0.
        -12    1    3    3    0    0  0.18262552319E+01  0.34023403671E+02 -0.13958922794E+02  0.36820900738E+02  0.00000000000E+00 0.  1.
         11    1    4    4    0    0 -0.11832814669E+02 -0.30266561663E+02  0.28799507009E+00  0.32498664578E+02  0.51100000000E-03 0. -1.
        -11    1    4    4    0    0  0.82234676491E+01 -0.16225192832E+01  0.48893395864E+00  0.83962518827E+01  0.51100000000E-03 0.  1.
         12    1    4    4    0    0  0.17830917878E+01 -0.21343227246E+01  0.13181993766E+02  0.13472182802E+02  0.00000000000E+00 0. -1.
</event>
<event>
 8    1  0.2509217E-006  0.9118800E+02  0.7816164E-02  0.1184000E+00
        -11   -1    0    0    0    0  0.00000000000E+00  0.00000000000E+00  0.45593999997E+02  0.45594000000E+02  0.51100000000E-03 0. -1.
         11   -1    0    0    0    0 -0.00000000000E+00 -0.00000000000E+00 -0.45593999997E+02  0.45594000000E+02  0.51100000000E-03 0.  1.
         23    2    1    2    0    0 -0.35527136788E-14  0.00000000000E+00  0.00000000000E+00  0.91188000000E+02  0.91188000000E+02 0.  0.
    9900012    2    3    3    0    0  0.28685917874E+02 -0.98539090945E+01 -0.20875586784E+02  0.54367197017E+02  0.40000257240E+02 0.  0.
         12    1    3    3    0    0 -0.28685917874E+02  0.98539090945E+01  0.20875586784E+02  0.36820802983E+02  0.00000000000E+00 0. -1.
         11    1    4    4    0    0  0.13321625274E+02  0.60875646198E+01  0.25204223761E+01  0.14861920204E+02  0.51100000000E-03 0. -1.
        -11    1    4    4    0    0  0.95524641143E+01  0.75081503318E+00  0.71619157044E+00  0.96086536255E+01  0.51100000000E-03 0.  1.
         12    1    4    4    0    0  0.58118284860E+01 -0.16692288747E+02 -0.24112200730E+02  0.29896623188E+02  0.00000000000E+00 0. -1.
</event>
<event>
 8    1  0.2509217E-006  0.9118800E+02  0.7816164E-02  0.1184000E+00
        -11   -1    0    0    0    0  0.00000000000E+00  0.00000000000E+00  0.45593999997E+02  0.45594000000E+02  0.51100000000E-03 0. -1.
         11   -1    0    0    0    0 -0.00000000000E+00 -0.00000000000E+00 -0.45593999997E+02  0.45594000000E+02  0.51100000000E-03 0.  1.
         23    2    1    2    0    0  0.00000000000E+00  0.17763568394E-14 -0.71054273576E-14  0.91188000000E+02  0.91188000000E+02 0.  0.
    9900012    2    3    3    0    0  0.19492051864E+02  0.13050957978E+02 -0.28381558107E+02  0.54367076185E+02  0.39999981779E+02 0.  0.
         12    1    3    3    0    0 -0.19492051864E+02 -0.13050957978E+02  0.28381558107E+02  0.36820923815E+02  0.00000000000E+00 0. -1.
         11    1    4    4    0    0 -0.14278623817E+01  0.27194897801E+01 -0.89295255722E+00  0.31987153946E+01  0.51100000000E-03 0. -1.
        -11    1    4    4    0    0  0.13997204480E+02  0.13627050281E+02 -0.35223143728E+02  0.40277637554E+02  0.51100000000E-03 0.  1.
         12    1    4    4    0    0  0.69227097661E+01 -0.32955820823E+01  0.77345381786E+01  0.10890723236E+02  0.00000000000E+00 0. -1.
</event>
<event>
 8    1  0.2509217E-006  0.9118800E+02  0.7816164E-02  0.1184000E+00
        -11   -1    0    0    0    0  0.00000000000E+00  0.00000000000E+00  0.45593999997E+02  0.45594000000E+02  0.51100000000E-03 0.  1.
         11   -1    0    0    0    0 -0.00000000000E+00 -0.00000000000E+00 -0.45593999997E+02  0.45594000000E+02  0.51100000000E-03 0. -1.
         23    2    1    2    0    0  0.00000000000E+00  0.00000000000E+00  0.00000000000E+00  0.91188000000E+02  0.91188000000E+02 0.  0.
    9900012    2    3    3    0    0 -0.71993565231E+01 -0.14903061346E+02  0.32891393755E+02  0.54367139676E+02  0.40000126520E+02 0.  0.
         12    1    3    3    0    0  0.71993565231E+01  0.14903061346E+02 -0.32891393755E+02  0.36820860324E+02  0.00000000000E+00 0. -1.
         11    1    4    4    0    0  0.10927324713E+02 -0.12981496750E+02  0.18303368018E+02  0.24958745248E+02  0.51100000000E-03 0. -1.
        -11    1    4    4    0    0 -0.52675110859E+01 -0.73017017914E+01  0.12360948221E+02  0.15292304054E+02  0.51100000000E-03 0.  1.
         12    1    4    4    0    0 -0.12859170150E+02  0.53801371959E+01  0.22270775151E+01  0.14116090374E+02  0.00000000000E+00 0. -1.
</event>
<event>
 8    1  0.2509217E-006  0.9118800E+02  0.7816164E-02  0.1184000E+00
        -11   -1    0    0    0    0  0.00000000000E+00  0.00000000000E+00  0.45593999997E+02  0.45594000000E+02  0.51100000000E-03 0. -1.
         11   -1    0    0    0    0 -0.00000000000E+00 -0.00000000000E+00 -0.45593999997E+02  0.45594000000E+02  0.51100000000E-03 0.  1.
         23    2    1    2    0    0  0.00000000000E+00  0.00000000000E+00  0.88817841970E-15  0.91188000000E+02  0.91188000000E+02 0.  0.
    9900012    2    3    3    0    0  0.34023574053E+02  0.13352716532E+02  0.44587844252E+01  0.54367090334E+02  0.40000014034E+02 0.  0.
        -12    1    3    3    0    0 -0.34023574053E+02 -0.13352716532E+02 -0.44587844252E+01  0.36820909666E+02  0.00000000000E+00 0.  1.
         11    1    4    4    0    0  0.78907105804E+01  0.86327735297E+01  0.12683043557E+02  0.17252468995E+02  0.51100000000E-03 0. -1.
        -11    1    4    4    0    0  0.30048674231E+02  0.34288399752E+00 -0.51604943867E+01  0.30490508278E+02  0.51100000000E-03 0.  1.
        -12    1    4    4    0    0 -0.39158107592E+01  0.43770590045E+01 -0.30637647450E+01  0.66241130609E+01  0.00000000000E+00 0.  1.
</event>
<event>
 8    1  0.2509217E-006  0.9118800E+02  0.7816164E-02  0.1184000E+00
        -11   -1    0    0    0    0  0.00000000000E+00  0.00000000000E+00  0.45593999997E+02  0.45594000000E+02  0.51100000000E-03 0. -1.
         11   -1    0    0    0    0 -0.00000000000E+00 -0.00000000000E+00 -0.45593999997E+02  0.45594000000E+02  0.51100000000E-03 0.  1.
         23    2    1    2    0    0  0.00000000000E+00 -0.35527136788E-14  0.00000000000E+00  0.91188000000E+02  0.91188000000E+02 0.  0.
    9900012    2    3    3    0    0 -0.17600166211E+02  0.27669016808E+02  0.16746334654E+02  0.54367081134E+02  0.39999993062E+02 0.  0.
         12    1    3    3    0    0  0.17600166211E+02 -0.27669016808E+02 -0.16746334654E+02  0.36820918866E+02  0.00000000000E+00 0. -1.
         11    1    4    4    0    0  0.16295970221E+01 -0.25394042271E+01  0.11866442457E+02  0.12244044149E+02  0.51100000000E-03 0. -1.
        -11    1    4    4    0    0  0.74489999468E+00  0.46005897938E+01  0.82462849365E+01  0.94721443173E+01  0.51100000000E-03 0.  1.
         12    1    4    4    0    0 -0.19974663227E+02  0.25607831241E+02 -0.33663927391E+01  0.32650892668E+02  0.00000000000E+00 0. -1.
</event>
<event>
 8    1  0.2509217E-006  0.9118800E+02  0.7816164E-02  0.1184000E+00
        -11   -1    0    0    0    0  0.00000000000E+00  0.00000000000E+00  0.45593999997E+02  0.45594000000E+02  0.51100000000E-03 0.  1.
         11   -1    0    0    0    0 -0.00000000000E+00 -0.00000000000E+00 -0.45593999997E+02  0.45594000000E+02  0.51100000000E-03 0. -1.
         23    2    1    2    0    0  0.44408920985E-15 -0.71054273576E-14  0.88817841970E-15  0.91188000000E+02  0.91188000000E+02 0.  0.
    9900012    2    3    3    0    0  0.21916172753E+01  0.36451998676E+02 -0.47152486860E+01  0.54367014626E+02  0.39999841442E+02 0.  0.
        -12    1    3    3    0    0 -0.21916172753E+01 -0.36451998676E+02  0.47152486860E+01  0.36820985374E+02  0.00000000000E+00 0.  1.
         11    1    4    4    0    0  0.86655683285E+01  0.32142187142E+02 -0.60373900049E+01  0.33832858985E+02  0.51100000000E-03 0. -1.
        -11    1    4    4    0    0 -0.66316258439E+00 -0.63990474792E+00  0.93856430224E+01  0.94307771634E+01  0.51100000000E-03 0.  1.
         12    1    4    4    0    0 -0.58107884688E+01  0.49497162815E+01 -0.80635017036E+01  0.11103378478E+02  0.00000000000E+00 0. -1.
</event>
<event>
 8    1  0.2509217E-006  0.9118800E+02  0.7816164E-02  0.1184000E+00
        -11   -1    0    0    0    0  0.00000000000E+00  0.00000000000E+00  0.45593999997E+02  0.45594000000E+02  0.51100000000E-03 0. -1.
         11   -1    0    0    0    0 -0.00000000000E+00 -0.00000000000E+00 -0.45593999997E+02  0.45594000000E+02  0.51100000000E-03 0.  1.
         23    2    1    2    0    0  0.00000000000E+00 -0.17763568394E-14  0.35527136788E-14  0.91188000000E+02  0.91188000000E+02 0.  0.
    9900012    2    3    3    0    0 -0.16587851730E+02  0.86302133451E+01  0.31719764597E+02  0.54367070171E+02  0.39999968069E+02 0.  0.
        -12    1    3    3    0    0  0.16587851730E+02 -0.86302133451E+01 -0.31719764597E+02  0.36820929829E+02  0.00000000000E+00 0.  1.
         11    1    4    4    0    0 -0.14200007773E+02  0.19485052802E+02  0.18806047131E+02  0.30577359474E+02  0.51100000000E-03 0. -1.
        -11    1    4    4    0    0  0.40744704697E+01  0.23165554255E+01  0.78101746411E+00  0.47516025916E+01  0.51100000000E-03 0.  1.
         12    1    4    4    0    0 -0.64623144267E+01 -0.13171394883E+02  0.12132700002E+02  0.19038108105E+02  0.00000000000E+00 0. -1.
</event>
<event>
 8    1  0.2509217E-006  0.9118800E+02  0.7816164E-02  0.1184000E+00
        -11   -1    0    0    0    0  0.00000000000E+00  0.00000000000E+00  0.45593999997E+02  0.45594000000E+02  0.51100000000E-03 0. -1.
         11   -1    0    0    0    0 -0.00000000000E+00 -0.00000000000E+00 -0.45593999997E+02  0.45594000000E+02  0.51100000000E-03 0.  1.
         23    2    1    2    0    0  0.00000000000E+00  0.00000000000E+00  0.00000000000E+00  0.91188000000E+02  0.91188000000E+02 0.  0.
    9900012    2    3    3    0    0 -0.33301538980E+02 -0.11223598735E+02 -0.10991797167E+02  0.54367064760E+02  0.39999955732E+02 0.  0.
        -12    1    3    3    0    0  0.33301538980E+02  0.11223598735E+02  0.10991797167E+02  0.36820935240E+02  0.00000000000E+00 0.  1.
         11    1    4    4    0    0 -0.22068964278E+02  0.12533420371E+02 -0.52546520041E+01  0.25917893017E+02  0.51100000000E-03 0. -1.
        -11    1    4    4    0    0 -0.36713045379E+01 -0.89766605503E+01 -0.67499865043E+01  0.11816142760E+02  0.51100000000E-03 0.  1.
         12    1    4    4    0    0 -0.75612701641E+01 -0.14780358556E+02  0.10128413414E+01  0.16633028982E+02  0.00000000000E+00 0. -1.
</event>
<event>
 8    1  0.2509217E-006  0.9118800E+02  0.7816164E-02  0.1184000E+00
        -11   -1    0    0    0    0  0.00000000000E+00  0.00000000000E+00  0.45593999997E+02  0.45594000000E+02  0.51100000000E-03 0. -1.
         11   -1    0    0    0    0 -0.00000000000E+00 -0.00000000000E+00 -0.45593999997E+02  0.45594000000E+02  0.51100000000E-03 0.  1.
         23    2    1    2    0    0  0.00000000000E+00  0.17763568394E-14  0.35527136788E-14  0.91188000000E+02  0.91188000000E+02 0.  0.
    9900012    2    3    3    0    0 -0.26011029414E+02  0.10679139503E+02  0.23773205064E+02  0.54367041964E+02  0.39999903765E+02 0.  0.
         12    1    3    3    0    0  0.26011029414E+02 -0.10679139503E+02 -0.23773205064E+02  0.36820958036E+02  0.00000000000E+00 0. -1.
         11    1    4    4    0    0 -0.20371124964E+02 -0.33404120816E+01  0.23567660120E+02  0.31330108346E+02  0.51100000000E-03 0. -1.
        -11    1    4    4    0    0 -0.61547374981E+00  0.51170285399E+01  0.84543031770E+01  0.99014156303E+01  0.51100000000E-03 0.  1.
        -12    1    4    4    0    0 -0.50244306996E+01  0.89025230449E+01 -0.82487582328E+01  0.13135517988E+02  0.00000000000E+00 0.  1.
</event>
<event>
 8    1  0.2509217E-006  0.9118800E+02  0.7816164E-02  0.1184000E+00
        -11   -1    0    0    0    0  0.00000000000E+00  0.00000000000E+00  0.45593999997E+02  0.45594000000E+02  0.51100000000E-03 0. -1.
         11   -1    0    0    0    0 -0.00000000000E+00 -0.00000000000E+00 -0.45593999997E+02  0.45594000000E+02  0.51100000000E-03 0.  1.
         23    2    1    2    0    0  0.17763568394E-14  0.00000000000E+00  0.00000000000E+00  0.91188000000E+02  0.91188000000E+02 0.  0.
    9900012    2    3    3    0    0 -0.98221538776E+01  0.33313968351E+02 -0.12226372453E+02  0.54367090486E+02  0.40000014381E+02 0.  0.
         12    1    3    3    0    0  0.98221538776E+01 -0.33313968351E+02  0.12226372453E+02  0.36820909514E+02  0.00000000000E+00 0. -1.
         11    1    4    4    0    0  0.92525043999E+01  0.87568012568E-01 -0.72707351498E+01  0.11767756613E+02  0.51100000000E-03 0. -1.
        -11    1    4    4    0    0 -0.11658202911E+02  0.71887775481E+01 -0.71258355188E+01  0.15439227631E+02  0.51100000000E-03 0.  1.
         12    1    4    4    0    0 -0.74164553663E+01  0.26037622790E+02  0.21701982152E+01  0.27160106242E+02  0.00000000000E+00 0. -1.
</event>
<event>
 8    1  0.2509217E-006  0.9118800E+02  0.7816164E-02  0.1184000E+00
        -11   -1    0    0    0    0  0.00000000000E+00  0.00000000000E+00  0.45593999997E+02  0.45594000000E+02  0.51100000000E-03 0. -1.
         11   -1    0    0    0    0 -0.00000000000E+00 -0.00000000000E+00 -0.45593999997E+02  0.45594000000E+02  0.51100000000E-03 0.  1.
         23    2    1    2    0    0  0.00000000000E+00  0.66613381478E-15  0.00000000000E+00  0.91188000000E+02  0.91188000000E+02 0.  0.
    9900012    2    3    3    0    0  0.94647417336E+01 -0.93040174488E+00  0.35571546223E+02  0.54367056446E+02  0.39999936781E+02 0.  0.
        -12    1    3    3    0    0 -0.94647417336E+01  0.93040174488E+00 -0.35571546223E+02  0.36820943554E+02  0.00000000000E+00 0.  1.
         11    1    4    4    0    0  0.95963229201E+01 -0.38059764853E+01  0.37620973864E+02  0.39011697545E+02  0.51100000000E-03 0. -1.
        -11    1    4    4    0    0 -0.17315826575E+01 -0.58027943426E+01  0.73922294926E+00  0.61005943573E+01  0.51100000000E-03 0.  1.
        -12    1    4    4    0    0  0.16000014710E+01  0.86783690831E+01 -0.27886505906E+01  0.92547645440E+01  0.00000000000E+00 0.  1.
</event>
<event>
 8    1  0.2509217E-006  0.9118800E+02  0.7816164E-02  0.1184000E+00
        -11   -1    0    0    0    0  0.00000000000E+00  0.00000000000E+00  0.45593999997E+02  0.45594000000E+02  0.51100000000E-03 0.  1.
         11   -1    0    0    0    0 -0.00000000000E+00 -0.00000000000E+00 -0.45593999997E+02  0.45594000000E+02  0.51100000000E-03 0. -1.
         23    2    1    2    0    0  0.71054273576E-14  0.00000000000E+00  0.00000000000E+00  0.91188000000E+02  0.91188000000E+02 0.  0.
    9900012    2    3    3    0    0  0.36550536246E+02 -0.25033606481E+01  0.36838626575E+01  0.54367090743E+02  0.40000014967E+02 0.  0.
         12    1    3    3    0    0 -0.36550536246E+02  0.25033606481E+01 -0.36838626575E+01  0.36820909257E+02  0.00000000000E+00 0. -1.
         11    1    4    4    0    0  0.29385657863E+01  0.65764338768E+01  0.12261426242E+02  0.14220661910E+02  0.51100000000E-03 0. -1.
        -11    1    4    4    0    0  0.11778748775E+02  0.45165219371E+00  0.49113191586E+01  0.12769650291E+02  0.51100000000E-03 0.  1.
         12    1    4    4    0    0  0.21833221685E+02 -0.95314467186E+01 -0.13488882743E+02  0.27376778542E+02  0.00000000000E+00 0. -1.
</event>
<event>
 8    1  0.2509217E-006  0.9118800E+02  0.7816164E-02  0.1184000E+00
        -11   -1    0    0    0    0  0.00000000000E+00  0.00000000000E+00  0.45593999997E+02  0.45594000000E+02  0.51100000000E-03 0. -1.
         11   -1    0    0    0    0 -0.00000000000E+00 -0.00000000000E+00 -0.45593999997E+02  0.45594000000E+02  0.51100000000E-03 0.  1.
         23    2    1    2    0    0 -0.88817841970E-15 -0.35527136788E-14  0.00000000000E+00  0.91188000000E+02  0.91188000000E+02 0.  0.
    9900012    2    3    3    0    0 -0.40362274937E+01 -0.25118132064E+02 -0.26618951117E+02  0.54367078646E+02  0.39999987390E+02 0.  0.
         12    1    3    3    0    0  0.40362274937E+01  0.25118132064E+02  0.26618951117E+02  0.36820921354E+02  0.00000000000E+00 0. -1.
         11    1    4    4    0    0 -0.73154778021E+01 -0.22324742020E+02 -0.27404451451E+02  0.36095903941E+02  0.51100000000E-03 0.  1.
        -11    1    4    4    0    0  0.11368719513E+01 -0.71071737865E+01 -0.63928536900E+01  0.96266804054E+01  0.51100000000E-03 0. -1.
         12    1    4    4    0    0  0.21423783572E+01  0.43137837425E+01  0.71783540239E+01  0.86444942995E+01  0.00000000000E+00 0. -1.
</event>
<event>
 8    1  0.2509217E-006  0.9118800E+02  0.7816164E-02  0.1184000E+00
        -11   -1    0    0    0    0  0.00000000000E+00  0.00000000000E+00  0.45593999997E+02  0.45594000000E+02  0.51100000000E-03 0.  1.
         11   -1    0    0    0    0 -0.00000000000E+00 -0.00000000000E+00 -0.45593999997E+02  0.45594000000E+02  0.51100000000E-03 0. -1.
         23    2    1    2    0    0  0.00000000000E+00  0.35527136788E-14  0.00000000000E+00  0.91188000000E+02  0.91188000000E+02 0.  0.
    9900012    2    3    3    0    0 -0.26705678673E+02 -0.19514853392E+02  0.16178911859E+02  0.54367082504E+02  0.39999996184E+02 0.  0.
         12    1    3    3    0    0  0.26705678673E+02  0.19514853392E+02 -0.16178911859E+02  0.36820917496E+02  0.00000000000E+00 0. -1.
         11    1    4    4    0    0 -0.15051619469E+02 -0.29888595413E+02  0.45973421305E+01  0.33778912643E+02  0.51100000000E-03 0. -1.
        -11    1    4    4    0    0 -0.93090223662E+01  0.69057858056E+01  0.11604666930E+02  0.16401709356E+02  0.51100000000E-03 0.  1.
         12    1    4    4    0    0 -0.23450368374E+01  0.34679562146E+01 -0.23097200600E-01  0.41864605045E+01  0.00000000000E+00 0. -1.
</event>
<event>
 8    1  0.2509217E-006  0.9118800E+02  0.7816164E-02  0.1184000E+00
        -11   -1    0    0    0    0  0.00000000000E+00  0.00000000000E+00  0.45593999997E+02  0.45594000000E+02  0.51100000000E-03 0.  1.
         11   -1    0    0    0    0 -0.00000000000E+00 -0.00000000000E+00 -0.45593999997E+02  0.45594000000E+02  0.51100000000E-03 0. -1.
         23    2    1    2    0    0  0.35527136788E-14 -0.17763568394E-14  0.00000000000E+00  0.91188000000E+02  0.91188000000E+02 0.  0.
    9900012    2    3    3    0    0 -0.23484344249E+02  0.12472661528E+02 -0.25469552638E+02  0.54367084449E+02  0.40000000619E+02 0.  0.
        -12    1    3    3    0    0  0.23484344249E+02 -0.12472661528E+02  0.25469552638E+02  0.36820915551E+02  0.00000000000E+00 0.  1.
         11    1    4    4    0    0 -0.11469831458E+02  0.16453891075E+02 -0.84553415854E+01  0.21766496428E+02  0.51100000000E-03 0. -1.
        -11    1    4    4    0    0 -0.19765302531E+02 -0.26097691334E+01 -0.12110237044E+02  0.23326721172E+02  0.51100000000E-03 0.  1.
        -12    1    4    4    0    0  0.77507897404E+01 -0.13714604134E+01 -0.49039740082E+01  0.92738668493E+01  0.00000000000E+00 0.  1.
</event>
<event>
 8    1  0.2509217E-006  0.9118800E+02  0.7816164E-02  0.1184000E+00
        -11   -1    0    0    0    0  0.00000000000E+00  0.00000000000E+00  0.45593999997E+02  0.45594000000E+02  0.51100000000E-03 0.  1.
         11   -1    0    0    0    0 -0.00000000000E+00 -0.00000000000E+00 -0.45593999997E+02  0.45594000000E+02  0.51100000000E-03 0. -1.
         23    2    1    2    0    0  0.00000000000E+00  0.00000000000E+00  0.00000000000E+00  0.91188000000E+02  0.91188000000E+02 0.  0.
    9900012    2    3    3    0    0 -0.95026171940E+01 -0.11583813453E+02  0.33634740314E+02  0.54367078996E+02  0.39999988186E+02 0.  0.
         12    1    3    3    0    0  0.95026171940E+01  0.11583813453E+02 -0.33634740314E+02  0.36820921004E+02  0.00000000000E+00 0. -1.
         11    1    4    4    0    0 -0.12688202520E+02 -0.79729014219E+01 -0.10868578947E+01  0.15024609833E+02  0.51100000000E-03 0. -1.
        -11    1    4    4    0    0 -0.47341736232E+01 -0.63878915309E+01  0.26208855794E+02  0.27388349355E+02  0.51100000000E-03 0.  1.
         12    1    4    4    0    0  0.79197589494E+01  0.27769795002E+01  0.85127424145E+01  0.11954119808E+02  0.00000000000E+00 0. -1.
</event>
<event>
 8    1  0.2509217E-006  0.9118800E+02  0.7816164E-02  0.1184000E+00
        -11   -1    0    0    0    0  0.00000000000E+00  0.00000000000E+00  0.45593999997E+02  0.45594000000E+02  0.51100000000E-03 0.  1.
         11   -1    0    0    0    0 -0.00000000000E+00 -0.00000000000E+00 -0.45593999997E+02  0.45594000000E+02  0.51100000000E-03 0. -1.
         23    2    1    2    0    0  0.00000000000E+00 -0.17763568394E-14  0.00000000000E+00  0.91188000000E+02  0.91188000000E+02 0.  0.
    9900012    2    3    3    0    0 -0.91096120941E+01 -0.13749916803E+02 -0.32920058066E+02  0.54367143578E+02  0.40000135415E+02 0.  0.
        -12    1    3    3    0    0  0.91096120941E+01  0.13749916803E+02  0.32920058066E+02  0.36820856422E+02  0.00000000000E+00 0.  1.
         11    1    4    4    0    0 -0.62720735109E+01  0.50527847644E+01 -0.13274757661E+02  0.15527032273E+02  0.51100000000E-03 0. -1.
        -11    1    4    4    0    0  0.16397565595E+01 -0.60496977461E+01  0.67340152898E+01  0.91997068745E+01  0.51100000000E-03 0.  1.
        -12    1    4    4    0    0 -0.44772951427E+01 -0.12753003822E+02 -0.26379315695E+02  0.29640404430E+02  0.00000000000E+00 0.  1.
</event>
<event>
 8    1  0.2509217E-006  0.9118800E+02  0.7816164E-02  0.1184000E+00
        -11   -1    0    0    0    0  0.00000000000E+00  0.00000000000E+00  0.45593999997E+02  0.45594000000E+02  0.51100000000E-03 0.  1.
         11   -1    0    0    0    0 -0.00000000000E+00 -0.00000000000E+00 -0.45593999997E+02  0.45594000000E+02  0.51100000000E-03 0. -1.
         23    2    1    2    0    0  0.00000000000E+00  0.44408920985E-15  0.00000000000E+00  0.91188000000E+02  0.91188000000E+02 0.  0.
    9900012    2    3    3    0    0  0.12350629264E+02 -0.11318563659E+01  0.34669316489E+02  0.54367073235E+02  0.39999975054E+02 0.  0.
         12    1    3    3    0    0 -0.12350629264E+02  0.11318563659E+01 -0.34669316489E+02  0.36820926765E+02  0.00000000000E+00 0. -1.
         11    1    4    4    0    0 -0.48906603679E+01  0.66538628644E+00  0.30822495186E+01  0.58190686626E+01  0.51100000000E-03 0. -1.
        -11    1    4    4    0    0 -0.51898874092E+01 -0.54680983980E+01  0.23077594356E+02  0.24277775700E+02  0.51100000000E-03 0.  1.
         12    1    4    4    0    0  0.22431177041E+02  0.36708557457E+01  0.85094726142E+01  0.24270228873E+02  0.00000000000E+00 0. -1.
</event>
<event>
 8    1  0.2509217E-006  0.9118800E+02  0.7816164E-02  0.1184000E+00
        -11   -1    0    0    0    0  0.00000000000E+00  0.00000000000E+00  0.45593999997E+02  0.45594000000E+02  0.51100000000E-03 0.  1.
         11   -1    0    0    0    0 -0.00000000000E+00 -0.00000000000E+00 -0.45593999997E+02  0.45594000000E+02  0.51100000000E-03 0. -1.
         23    2    1    2    0    0 -0.53290705182E-14  0.00000000000E+00 -0.35527136788E-14  0.91188000000E+02  0.91188000000E+02 0.  0.
    9900012    2    3    3    0    0  0.14729464095E+02 -0.22987730623E+02  0.24706363858E+02  0.54366847291E+02  0.39999459966E+02 0.  0.
         12    1    3    3    0    0 -0.14729464095E+02  0.22987730623E+02 -0.24706363858E+02  0.36821152709E+02  0.00000000000E+00 0. -1.
         11    1    4    4    0    0 -0.39664902589E+01 -0.15371612016E+00  0.16128380337E+01  0.42846143822E+01  0.51100000000E-03 0. -1.
        -11    1    4    4    0    0  0.41378027138E+01  0.93402948251E+00  0.21769146132E+02  0.22178583047E+02  0.51100000000E-03 0.  1.
         12    1    4    4    0    0  0.14558151640E+02 -0.23768043985E+02  0.13243796923E+01  0.27903649862E+02  0.00000000000E+00 0. -1.
</event>
<event>
 8    1  0.2509217E-006  0.9118800E+02  0.7816164E-02  0.1184000E+00
        -11   -1    0    0    0    0  0.00000000000E+00  0.00000000000E+00  0.45593999997E+02  0.45594000000E+02  0.51100000000E-03 0. -1.
         11   -1    0    0    0    0 -0.00000000000E+00 -0.00000000000E+00 -0.45593999997E+02  0.45594000000E+02  0.51100000000E-03 0.  1.
         23    2    1    2    0    0 -0.35527136788E-14  0.00000000000E+00 -0.22204460493E-15  0.91188000000E+02  0.91188000000E+02 0.  0.
    9900012    2    3    3    0    0  0.29864624301E+02  0.21520707827E+02 -0.86224002677E+00  0.54367080567E+02  0.39999991769E+02 0.  0.
        -12    1    3    3    0    0 -0.29864624301E+02 -0.21520707827E+02  0.86224002677E+00  0.36820919433E+02  0.00000000000E+00 0.  1.
         11    1    4    4    0    0  0.14118587126E+01 -0.25370124100E+01  0.64559361211E+01  0.70787632008E+01  0.51100000000E-03 0. -1.
        -11    1    4    4    0    0 -0.55243861472E+01  0.44987209765E+01  0.10477160980E+01  0.72010445084E+01  0.51100000000E-03 0.  1.
        -12    1    4    4    0    0  0.33977151735E+02  0.19558999261E+02 -0.83658922459E+01  0.40087272858E+02  0.00000000000E+00 0.  1.
</event>
<event>
 8    1  0.2509217E-006  0.9118800E+02  0.7816164E-02  0.1184000E+00
        -11   -1    0    0    0    0  0.00000000000E+00  0.00000000000E+00  0.45593999997E+02  0.45594000000E+02  0.51100000000E-03 0. -1.
         11   -1    0    0    0    0 -0.00000000000E+00 -0.00000000000E+00 -0.45593999997E+02  0.45594000000E+02  0.51100000000E-03 0.  1.
         23    2    1    2    0    0  0.88817841970E-15  0.00000000000E+00  0.00000000000E+00  0.91188000000E+02  0.91188000000E+02 0.  0.
    9900012    2    3    3    0    0  0.68351502256E+01 -0.11233210832E+02 -0.34392940518E+02  0.54367100206E+02  0.40000036539E+02 0.  0.
         12    1    3    3    0    0 -0.68351502256E+01  0.11233210832E+02  0.34392940518E+02  0.36820899794E+02  0.00000000000E+00 0. -1.
         11    1    4    4    0    0  0.52277486072E+01  0.84080072709E+00  0.89829661021E+00  0.53705901373E+01  0.51100000000E-03 0. -1.
        -11    1    4    4    0    0  0.10487025020E+02 -0.16324463331E+01 -0.33539036569E+02  0.35178253922E+02  0.51100000000E-03 0.  1.
        -12    1    4    4    0    0 -0.88796234019E+01 -0.10441565226E+02 -0.17522005592E+01  0.13818256146E+02  0.00000000000E+00 0.  1.
</event>
<event>
 8    1  0.2509217E-006  0.9118800E+02  0.7816164E-02  0.1184000E+00
        -11   -1    0    0    0    0  0.00000000000E+00  0.00000000000E+00  0.45593999997E+02  0.45594000000E+02  0.51100000000E-03 0.  1.
         11   -1    0    0    0    0 -0.00000000000E+00 -0.00000000000E+00 -0.45593999997E+02  0.45594000000E+02  0.51100000000E-03 0. -1.
         23    2    1    2    0    0 -0.35527136788E-14  0.00000000000E+00  0.31086244690E-14  0.91188000000E+02  0.91188000000E+02 0.  0.
    9900012    2    3    3    0    0  0.19753230115E+02 -0.30980881366E+02  0.24033385329E+01  0.54367066466E+02  0.39999959623E+02 0.  0.
         12    1    3    3    0    0 -0.19753230115E+02  0.30980881366E+02 -0.24033385329E+01  0.36820933534E+02  0.00000000000E+00 0. -1.
         11    1    4    4    0    0  0.12501048164E+02 -0.21427056436E+02 -0.15606810665E+02  0.29308147197E+02  0.51100000000E-03 0. -1.
        -11    1    4    4    0    0  0.82125015397E+01 -0.10226760047E+02  0.88466940844E+01  0.15820739524E+02  0.51100000000E-03 0.  1.
         12    1    4    4    0    0 -0.96031958917E+00  0.67293511610E+00  0.91634551139E+01  0.92381797454E+01  0.00000000000E+00 0. -1.
</event>
<event>
 8    1  0.2509217E-006  0.9118800E+02  0.7816164E-02  0.1184000E+00
        -11   -1    0    0    0    0  0.00000000000E+00  0.00000000000E+00  0.45593999997E+02  0.45594000000E+02  0.51100000000E-03 0. -1.
         11   -1    0    0    0    0 -0.00000000000E+00 -0.00000000000E+00 -0.45593999997E+02  0.45594000000E+02  0.51100000000E-03 0.  1.
         23    2    1    2    0    0 -0.17763568394E-14  0.00000000000E+00  0.88817841970E-15  0.91188000000E+02  0.91188000000E+02 0.  0.
    9900012    2    3    3    0    0  0.79274185055E+01  0.35652732269E+02  0.46711004559E+01  0.54367075760E+02  0.39999980810E+02 0.  0.
         12    1    3    3    0    0 -0.79274185055E+01 -0.35652732269E+02 -0.46711004559E+01  0.36820924240E+02  0.00000000000E+00 0. -1.
         11    1    4    4    0    0  0.12566342124E+02  0.10950723682E+02 -0.81375872725E+01  0.18548628802E+02  0.51100000000E-03 0. -1.
        -11    1    4    4    0    0 -0.15395625266E+01  0.25129405476E+02  0.17153240026E+02  0.30464584619E+02  0.51100000000E-03 0.  1.
        -12    1    4    4    0    0 -0.30993610920E+01 -0.42739688828E+00 -0.43445522980E+01  0.53538623393E+01  0.00000000000E+00 0.  1.
</event>
<event>
 8    1  0.2509217E-006  0.9118800E+02  0.7816164E-02  0.1184000E+00
        -11   -1    0    0    0    0  0.00000000000E+00  0.00000000000E+00  0.45593999997E+02  0.45594000000E+02  0.51100000000E-03 0. -1.
         11   -1    0    0    0    0 -0.00000000000E+00 -0.00000000000E+00 -0.45593999997E+02  0.45594000000E+02  0.51100000000E-03 0.  1.
         23    2    1    2    0    0  0.00000000000E+00 -0.88817841970E-15  0.00000000000E+00  0.91188000000E+02  0.91188000000E+02 0.  0.
    9900012    2    3    3    0    0  0.11598603550E+02  0.49485606187E+01 -0.34594260730E+02  0.54367099251E+02  0.40000034363E+02 0.  0.
         12    1    3    3    0    0 -0.11598603550E+02 -0.49485606187E+01  0.34594260730E+02  0.36820900749E+02  0.00000000000E+00 0. -1.
         11    1    4    4    0    0 -0.44851070278E+01  0.14329359576E+01 -0.62019637718E+01  0.77867737477E+01  0.51100000000E-03 0. -1.
        -11    1    4    4    0    0  0.18605949613E+02  0.15457465823E+02 -0.15008821102E+02  0.28467162166E+02  0.51100000000E-03 0.  1.
        -12    1    4    4    0    0 -0.25222390352E+01 -0.11941841162E+02 -0.13383475856E+02  0.18113163337E+02  0.00000000000E+00 0.  1.
</event>
<event>
 8    1  0.2509217E-006  0.9118800E+02  0.7816164E-02  0.1184000E+00
        -11   -1    0    0    0    0  0.00000000000E+00  0.00000000000E+00  0.45593999997E+02  0.45594000000E+02  0.51100000000E-03 0. -1.
         11   -1    0    0    0    0 -0.00000000000E+00 -0.00000000000E+00 -0.45593999997E+02  0.45594000000E+02  0.51100000000E-03 0.  1.
         23    2    1    2    0    0 -0.71054273576E-14  0.00000000000E+00  0.00000000000E+00  0.91188000000E+02  0.91188000000E+02 0.  0.
    9900012    2    3    3    0    0 -0.15545414421E+02  0.32329340147E+02  0.83026041415E+01  0.54367090460E+02  0.40000014321E+02 0.  0.
        -12    1    3    3    0    0  0.15545414421E+02 -0.32329340147E+02 -0.83026041415E+01  0.36820909540E+02  0.00000000000E+00 0.  1.
         11    1    4    4    0    0 -0.19181958317E+02  0.20651799257E+02  0.55319316769E-01  0.28185943269E+02  0.51100000000E-03 0. -1.
        -11    1    4    4    0    0  0.68431269777E+01  0.43431169559E+01 -0.58321704486E+01  0.99852523317E+01  0.51100000000E-03 0.  1.
        -12    1    4    4    0    0 -0.32065830815E+01  0.73344239338E+01  0.14079455273E+02  0.16195894859E+02  0.00000000000E+00 0.  1.
</event>
<event>
 8    1  0.2509217E-006  0.9118800E+02  0.7816164E-02  0.1184000E+00
        -11   -1    0    0    0    0  0.00000000000E+00  0.00000000000E+00  0.45593999997E+02  0.45594000000E+02  0.51100000000E-03 0.  1.
         11   -1    0    0    0    0 -0.00000000000E+00 -0.00000000000E+00 -0.45593999997E+02  0.45594000000E+02  0.51100000000E-03 0. -1.
         23    2    1    2    0    0 -0.17763568394E-14 -0.71054273576E-14 -0.35527136788E-14  0.91188000000E+02  0.91188000000E+02 0.  0.
    9900012    2    3    3    0    0  0.10389259049E+02  0.29836307407E+02  0.18911065515E+02  0.54367213178E+02  0.40000294081E+02 0.  0.
         12    1    3    3    0    0 -0.10389259049E+02 -0.29836307407E+02 -0.18911065515E+02  0.36820786822E+02  0.00000000000E+00 0. -1.
         11    1    4    4    0    0 -0.28966853206E+01  0.53702490698E+01  0.95260249862E+01  0.11312626274E+02  0.51100000000E-03 0. -1.
        -11    1    4    4    0    0  0.13187376761E+02 -0.37163647921E+01  0.47029105006E+01  0.14485704696E+02  0.51100000000E-03 0.  1.
         12    1    4    4    0    0  0.98567607990E-01  0.28182423129E+02  0.46821300282E+01  0.28568882208E+02  0.00000000000E+00 0. -1.
</event>
<event>
 8    1  0.2509217E-006  0.9118800E+02  0.7816164E-02  0.1184000E+00
        -11   -1    0    0    0    0  0.00000000000E+00  0.00000000000E+00  0.45593999997E+02  0.45594000000E+02  0.51100000000E-03 0.  1.
         11   -1    0    0    0    0 -0.00000000000E+00 -0.00000000000E+00 -0.45593999997E+02  0.45594000000E+02  0.51100000000E-03 0. -1.
         23    2    1    2    0    0  0.35527136788E-14  0.00000000000E+00  0.44408920985E-15  0.91188000000E+02  0.91188000000E+02 0.  0.
    9900012    2    3    3    0    0  0.16748932716E+02  0.32699418904E+02  0.24496026242E+01  0.54367091581E+02  0.40000016877E+02 0.  0.
         12    1    3    3    0    0 -0.16748932716E+02 -0.32699418904E+02 -0.24496026242E+01  0.36820908419E+02  0.00000000000E+00 0. -1.
         11    1    4    4    0    0  0.17615722573E+02  0.14656090704E+02  0.70027638777E+01  0.23961497839E+02  0.51100000000E-03 0. -1.
        -11    1    4    4    0    0  0.45725503373E+01  0.17388665908E+02 -0.11661899815E+02  0.21430674889E+02  0.51100000000E-03 0.  1.
         12    1    4    4    0    0 -0.54393401943E+01  0.65466229117E+00  0.71087385619E+01  0.89749188523E+01  0.00000000000E+00 0. -1.
</event>
<event>
 8    1  0.2509217E-006  0.9118800E+02  0.7816164E-02  0.1184000E+00
        -11   -1    0    0    0    0  0.00000000000E+00  0.00000000000E+00  0.45593999997E+02  0.45594000000E+02  0.51100000000E-03 0. -1.
         11   -1    0    0    0    0 -0.00000000000E+00 -0.00000000000E+00 -0.45593999997E+02  0.45594000000E+02  0.51100000000E-03 0.  1.
         23    2    1    2    0    0 -0.35527136788E-14  0.00000000000E+00  0.00000000000E+00  0.91188000000E+02  0.91188000000E+02 0.  0.
    9900012    2    3    3    0    0 -0.15481531470E+02  0.23390502441E+02 -0.23853440050E+02  0.54367081715E+02  0.39999994387E+02 0.  0.
         12    1    3    3    0    0  0.15481531470E+02 -0.23390502441E+02  0.23853440050E+02  0.36820918285E+02  0.00000000000E+00 0. -1.
         11    1    4    4    0    0  0.41507116615E+01 -0.81620290413E+01  0.98902240173E+00  0.92100646545E+01  0.51100000000E-03 0. -1.
        -11    1    4    4    0    0 -0.13981367477E+02  0.16639753749E+02 -0.13463688637E+02  0.25566207254E+02  0.51100000000E-03 0.  1.
         12    1    4    4    0    0 -0.56508756540E+01  0.14912777733E+02 -0.11378773815E+02  0.19590809807E+02  0.00000000000E+00 0. -1.
</event>
<event>
 8    1  0.2509217E-006  0.9118800E+02  0.7816164E-02  0.1184000E+00
        -11   -1    0    0    0    0  0.00000000000E+00  0.00000000000E+00  0.45593999997E+02  0.45594000000E+02  0.51100000000E-03 0. -1.
         11   -1    0    0    0    0 -0.00000000000E+00 -0.00000000000E+00 -0.45593999997E+02  0.45594000000E+02  0.51100000000E-03 0.  1.
         23    2    1    2    0    0 -0.35527136788E-14  0.00000000000E+00  0.00000000000E+00  0.91188000000E+02  0.91188000000E+02 0.  0.
    9900012    2    3    3    0    0 -0.28390520875E+02 -0.59389191654E+01 -0.22682333329E+02  0.54367072776E+02  0.39999974007E+02 0.  0.
         12    1    3    3    0    0  0.28390520875E+02  0.59389191654E+01  0.22682333329E+02  0.36820927224E+02  0.00000000000E+00 0. -1.
         11    1    4    4    0    0  0.57651247880E+01  0.23663233148E+01  0.29457048680E+01  0.68929911709E+01  0.51100000000E-03 0. -1.
        -11    1    4    4    0    0 -0.19200571592E+02 -0.28570727654E+01 -0.27526413983E+01  0.19606168651E+02  0.51100000000E-03 0.  1.
         12    1    4    4    0    0 -0.14955074071E+02 -0.54481697148E+01 -0.22875396799E+02  0.27867912954E+02  0.00000000000E+00 0. -1.
</event>
<event>
 8    1  0.2509217E-006  0.9118800E+02  0.7816164E-02  0.1184000E+00
        -11   -1    0    0    0    0  0.00000000000E+00  0.00000000000E+00  0.45593999997E+02  0.45594000000E+02  0.51100000000E-03 0. -1.
         11   -1    0    0    0    0 -0.00000000000E+00 -0.00000000000E+00 -0.45593999997E+02  0.45594000000E+02  0.51100000000E-03 0.  1.
         23    2    1    2    0    0  0.00000000000E+00  0.35527136788E-14 -0.17763568394E-14  0.91188000000E+02  0.91188000000E+02 0.  0.
    9900012    2    3    3    0    0  0.32946040933E+02  0.53313711528E+01  0.15553661044E+02  0.54367061617E+02  0.39999948569E+02 0.  0.
        -12    1    3    3    0    0 -0.32946040933E+02 -0.53313711528E+01 -0.15553661044E+02  0.36820938383E+02  0.00000000000E+00 0.  1.
         11    1    4    4    0    0  0.91606580208E+01  0.12847607895E+01  0.37599198418E+01  0.99852522821E+01  0.51100000000E-03 0. -1.
        -11    1    4    4    0    0 -0.75911696020E+00 -0.10923004489E+02  0.11147200018E+02  0.15625247331E+02  0.51100000000E-03 0.  1.
        -12    1    4    4    0    0  0.24544499872E+02  0.14969614853E+02  0.64654118405E+00  0.28756562004E+02  0.00000000000E+00 0.  1.
</event>
<event>
 8    1  0.2509217E-006  0.9118800E+02  0.7816164E-02  0.1184000E+00
        -11   -1    0    0    0    0  0.00000000000E+00  0.00000000000E+00  0.45593999997E+02  0.45594000000E+02  0.51100000000E-03 0.  1.
         11   -1    0    0    0    0 -0.00000000000E+00 -0.00000000000E+00 -0.45593999997E+02  0.45594000000E+02  0.51100000000E-03 0. -1.
         23    2    1    2    0    0 -0.88817841970E-15  0.71054273576E-14 -0.17763568394E-14  0.91188000000E+02  0.91188000000E+02 0.  0.
    9900012    2    3    3    0    0  0.31772725217E+01  0.34327287592E+02 -0.12935406778E+02  0.54367048320E+02  0.39999918256E+02 0.  0.
        -12    1    3    3    0    0 -0.31772725217E+01 -0.34327287592E+02  0.12935406778E+02  0.36820951680E+02  0.00000000000E+00 0.  1.
         11    1    4    4    0    0  0.60011557472E-01 -0.97371145607E-01 -0.17618980541E+00  0.21006102846E+00  0.51100000000E-03 0. -1.
        -11    1    4    4    0    0  0.14314024213E+02  0.26049162141E+02 -0.22360998774E+02  0.37194951322E+02  0.51100000000E-03 0.  1.
         12    1    4    4    0    0 -0.11196763248E+02  0.83754965959E+01  0.96017818017E+01  0.16962035970E+02  0.00000000000E+00 0. -1.
</event>
<event>
 8    1  0.2509217E-006  0.9118800E+02  0.7816164E-02  0.1184000E+00
        -11   -1    0    0    0    0  0.00000000000E+00  0.00000000000E+00  0.45593999997E+02  0.45594000000E+02  0.51100000000E-03 0. -1.
         11   -1    0    0    0    0 -0.00000000000E+00 -0.00000000000E+00 -0.45593999997E+02  0.45594000000E+02  0.51100000000E-03 0.  1.
         23    2    1    2    0    0  0.00000000000E+00  0.17763568394E-14  0.00000000000E+00  0.91188000000E+02  0.91188000000E+02 0.  0.
    9900012    2    3    3    0    0 -0.34567504319E+02 -0.11059707989E+02  0.62088430727E+01  0.54367092516E+02  0.40000019008E+02 0.  0.
        -12    1    3    3    0    0  0.34567504319E+02  0.11059707989E+02 -0.62088430727E+01  0.36820907484E+02  0.00000000000E+00 0.  1.
         11    1    4    4    0    0 -0.16636026285E+01  0.22771578183E+01  0.14431495661E+02  0.14704458124E+02  0.51100000000E-03 0. -1.
        -11    1    4    4    0    0 -0.17812397730E+01  0.36606568969E+00 -0.52163897324E+01  0.55242683967E+01  0.51100000000E-03 0.  1.
         12    1    4    4    0    0 -0.31122661918E+02 -0.13702931497E+02 -0.30062628563E+01  0.34138365995E+02  0.00000000000E+00 0. -1.
</event>
<event>
 8    1  0.2509217E-006  0.9118800E+02  0.7816164E-02  0.1184000E+00
        -11   -1    0    0    0    0  0.00000000000E+00  0.00000000000E+00  0.45593999997E+02  0.45594000000E+02  0.51100000000E-03 0.  1.
         11   -1    0    0    0    0 -0.00000000000E+00 -0.00000000000E+00 -0.45593999997E+02  0.45594000000E+02  0.51100000000E-03 0. -1.
         23    2    1    2    0    0  0.00000000000E+00 -0.35527136788E-14  0.44408920985E-15  0.91188000000E+02  0.91188000000E+02 0.  0.
    9900012    2    3    3    0    0 -0.23952608879E+02  0.27774781786E+02 -0.32578537236E+01  0.54367087650E+02  0.40000007917E+02 0.  0.
        -12    1    3    3    0    0  0.23952608879E+02 -0.27774781786E+02  0.32578537236E+01  0.36820912350E+02  0.00000000000E+00 0.  1.
         11    1    4    4    0    0 -0.15454526752E+02  0.15321277445E+02 -0.75101278715E+01  0.23021423948E+02  0.51100000000E-03 0. -1.
        -11    1    4    4    0    0  0.38726157486E+01 -0.43878612459E+01  0.82052390651E+01  0.10078513156E+02  0.51100000000E-03 0.  1.
        -12    1    4    4    0    0 -0.12370697875E+02  0.16841365587E+02 -0.39529649173E+01  0.21267150547E+02  0.00000000000E+00 0.  1.
</event>
<event>
 8    1  0.2509217E-006  0.9118800E+02  0.7816164E-02  0.1184000E+00
        -11   -1    0    0    0    0  0.00000000000E+00  0.00000000000E+00  0.45593999997E+02  0.45594000000E+02  0.51100000000E-03 0.  1.
         11   -1    0    0    0    0 -0.00000000000E+00 -0.00000000000E+00 -0.45593999997E+02  0.45594000000E+02  0.51100000000E-03 0. -1.
         23    2    1    2    0    0  0.57731597281E-14  0.00000000000E+00  0.00000000000E+00  0.91188000000E+02  0.91188000000E+02 0.  0.
    9900012    2    3    3    0    0 -0.32750688670E+01 -0.19453953737E+02 -0.31090146280E+02  0.54367087630E+02  0.40000007869E+02 0.  0.
        -12    1    3    3    0    0  0.32750688670E+01  0.19453953737E+02  0.31090146280E+02  0.36820912370E+02  0.00000000000E+00 0.  1.
         11    1    4    4    0    0  0.15680916351E+02 -0.33829403964E+01 -0.16900758690E+02  0.23301739589E+02  0.51100000000E-03 0. -1.
        -11    1    4    4    0    0 -0.19932739696E+02 -0.11800022363E+02 -0.10979327904E+02  0.25633967329E+02  0.51100000000E-03 0.  1.
         12    1    4    4    0    0  0.97675447830E+00 -0.42709909772E+01 -0.32100596863E+01  0.54313807110E+01  0.00000000000E+00 0. -1.
</event>
<event>
 8    1  0.2509217E-006  0.9118800E+02  0.7816164E-02  0.1184000E+00
        -11   -1    0    0    0    0  0.00000000000E+00  0.00000000000E+00  0.45593999997E+02  0.45594000000E+02  0.51100000000E-03 0.  1.
         11   -1    0    0    0    0 -0.00000000000E+00 -0.00000000000E+00 -0.45593999997E+02  0.45594000000E+02  0.51100000000E-03 0. -1.
         23    2    1    2    0    0  0.00000000000E+00  0.00000000000E+00  0.00000000000E+00  0.91188000000E+02  0.91188000000E+02 0.  0.
    9900012    2    3    3    0    0  0.30797396057E+01 -0.10858702293E+02  0.35048292672E+02  0.54367095194E+02  0.40000025113E+02 0.  0.
         12    1    3    3    0    0 -0.30797396057E+01  0.10858702293E+02 -0.35048292672E+02  0.36820904806E+02  0.00000000000E+00 0. -1.
         11    1    4    4    0    0  0.26424295265E+01 -0.10909710561E+02  0.11827395380E+02  0.16306179812E+02  0.51100000000E-03 0. -1.
        -11    1    4    4    0    0 -0.12641726065E+02  0.78843835631E+01  0.10932836702E+02  0.18479817658E+02  0.51100000000E-03 0.  1.
         12    1    4    4    0    0  0.13079036144E+02 -0.78333752949E+01  0.12288060590E+02  0.19581097723E+02  0.00000000000E+00 0. -1.
</event>
<event>
 8    1  0.2509217E-006  0.9118800E+02  0.7816164E-02  0.1184000E+00
        -11   -1    0    0    0    0  0.00000000000E+00  0.00000000000E+00  0.45593999997E+02  0.45594000000E+02  0.51100000000E-03 0.  1.
         11   -1    0    0    0    0 -0.00000000000E+00 -0.00000000000E+00 -0.45593999997E+02  0.45594000000E+02  0.51100000000E-03 0. -1.
         23    2    1    2    0    0 -0.17763568394E-14 -0.66613381478E-15  0.00000000000E+00  0.91188000000E+02  0.91188000000E+02 0.  0.
    9900012    2    3    3    0    0 -0.99604227118E+01 -0.17468316469E+01  0.35405048924E+02  0.54367096553E+02  0.40000028211E+02 0.  0.
         12    1    3    3    0    0  0.99604227118E+01  0.17468316469E+01 -0.35405048924E+02  0.36820903447E+02  0.00000000000E+00 0. -1.
         11    1    4    4    0    0  0.93491434175E+01  0.85997113209E+00  0.66104178899E+01  0.11482319362E+02  0.51100000000E-03 0. -1.
        -11    1    4    4    0    0 -0.17323773005E+02 -0.12689780041E+02  0.20324944010E+02  0.29567667779E+02  0.51100000000E-03 0.  1.
        -12    1    4    4    0    0 -0.19857931241E+01  0.10082977262E+02  0.84696870236E+01  0.13317109411E+02  0.00000000000E+00 0.  1.
</event>
<event>
 8    1  0.2509217E-006  0.9118800E+02  0.7816164E-02  0.1184000E+00
        -11   -1    0    0    0    0  0.00000000000E+00  0.00000000000E+00  0.45593999997E+02  0.45594000000E+02  0.51100000000E-03 0. -1.
         11   -1    0    0    0    0 -0.00000000000E+00 -0.00000000000E+00 -0.45593999997E+02  0.45594000000E+02  0.51100000000E-03 0.  1.
         23    2    1    2    0    0  0.00000000000E+00 -0.22204460493E-15  0.00000000000E+00  0.91188000000E+02  0.91188000000E+02 0.  0.
    9900012    2    3    3    0    0  0.36042799209E+02  0.13254286862E+01  0.74120663852E+01  0.54367097456E+02  0.40000030271E+02 0.  0.
         12    1    3    3    0    0 -0.36042799209E+02 -0.13254286862E+01 -0.74120663852E+01  0.36820902544E+02  0.00000000000E+00 0. -1.
         11    1    4    4    0    0 -0.54892147435E+01 -0.13801199525E+01 -0.33278975394E+01  0.65659052596E+01  0.51100000000E-03 0. -1.
        -11    1    4    4    0    0  0.33468171045E+01 -0.29948437600E+01  0.79014762382E+01  0.90886523138E+01  0.51100000000E-03 0.  1.
        -12    1    4    4    0    0  0.38185196848E+02  0.57003923987E+01  0.28384876864E+01  0.38712539883E+02  0.00000000000E+00 0.  1.
</event>
<event>
 8    1  0.2509217E-006  0.9118800E+02  0.7816164E-02  0.1184000E+00
        -11   -1    0    0    0    0  0.00000000000E+00  0.00000000000E+00  0.45593999997E+02  0.45594000000E+02  0.51100000000E-03 0.  1.
         11   -1    0    0    0    0 -0.00000000000E+00 -0.00000000000E+00 -0.45593999997E+02  0.45594000000E+02  0.51100000000E-03 0. -1.
         23    2    1    2    0    0 -0.88817841970E-15 -0.35527136788E-14 -0.71054273576E-14  0.91188000000E+02  0.91188000000E+02 0.  0.
    9900012    2    3    3    0    0 -0.63776018706E+01  0.20965042438E+02  0.29590045212E+02  0.54367114817E+02  0.40000069847E+02 0.  0.
         12    1    3    3    0    0  0.63776018706E+01 -0.20965042438E+02 -0.29590045212E+02  0.36820885183E+02  0.00000000000E+00 0. -1.
         11    1    4    4    0    0  0.27056226483E+01 -0.99421546459E+00  0.18894107752E+01  0.34465535893E+01  0.51100000000E-03 0. -1.
        -11    1    4    4    0    0 -0.13110819169E+02 -0.16170953980E+01 -0.13634331832E+01  0.13280343637E+02  0.51100000000E-03 0.  1.
        -12    1    4    4    0    0  0.40275946501E+01  0.23576353301E+02  0.29064067620E+02  0.37640217590E+02  0.00000000000E+00 0.  1.
</event>
<event>
 8    1  0.2509217E-006  0.9118800E+02  0.7816164E-02  0.1184000E+00
        -11   -1    0    0    0    0  0.00000000000E+00  0.00000000000E+00  0.45593999997E+02  0.45594000000E+02  0.51100000000E-03 0. -1.
         11   -1    0    0    0    0 -0.00000000000E+00 -0.00000000000E+00 -0.45593999997E+02  0.45594000000E+02  0.51100000000E-03 0.  1.
         23    2    1    2    0    0  0.35527136788E-14  0.00000000000E+00  0.00000000000E+00  0.91188000000E+02  0.91188000000E+02 0.  0.
    9900012    2    3    3    0    0  0.22346889826E+02  0.29150959014E+02  0.25714450790E+01  0.54367160437E+02  0.40000173847E+02 0.  0.
        -12    1    3    3    0    0 -0.22346889826E+02 -0.29150959014E+02 -0.25714450790E+01  0.36820839563E+02  0.00000000000E+00 0.  1.
         11    1    4    4    0    0  0.76830749652E+01  0.27774226210E+02  0.24178727558E+01  0.28918564823E+02  0.51100000000E-03 0. -1.
        -11    1    4    4    0    0  0.15121986212E+02  0.12379579184E+01 -0.80876239351E+01  0.17193506564E+02  0.51100000000E-03 0.  1.
        -12    1    4    4    0    0 -0.45817135095E+00  0.13877488587E+00  0.82411962583E+01  0.82550890500E+01  0.00000000000E+00 0.  1.
</event>
<event>
 8    1  0.2509217E-006  0.9118800E+02  0.7816164E-02  0.1184000E+00
        -11   -1    0    0    0    0  0.00000000000E+00  0.00000000000E+00  0.45593999997E+02  0.45594000000E+02  0.51100000000E-03 0. -1.
         11   -1    0    0    0    0 -0.00000000000E+00 -0.00000000000E+00 -0.45593999997E+02  0.45594000000E+02  0.51100000000E-03 0.  1.
         23    2    1    2    0    0  0.00000000000E+00  0.00000000000E+00 -0.35527136788E-14  0.91188000000E+02  0.91188000000E+02 0.  0.
    9900012    2    3    3    0    0 -0.20501065447E+02 -0.21999654854E+02  0.21248653457E+02  0.54367030813E+02  0.39999878344E+02 0.  0.
         12    1    3    3    0    0  0.20501065447E+02  0.21999654854E+02 -0.21248653457E+02  0.36820969187E+02  0.00000000000E+00 0. -1.
         11    1    4    4    0    0 -0.67183387519E+01  0.23148132145E+01  0.20293356026E+02  0.21501505410E+02  0.51100000000E-03 0. -1.
        -11    1    4    4    0    0 -0.53178622111E+01 -0.18562096341E+02  0.75034762838E+01  0.20715531267E+02  0.51100000000E-03 0.  1.
        -12    1    4    4    0    0 -0.84648644838E+01 -0.57523717268E+01 -0.65481788528E+01  0.12149994136E+02  0.00000000000E+00 0.  1.
</event>
<event>
 8    1  0.2509217E-006  0.9118800E+02  0.7816164E-02  0.1184000E+00
        -11   -1    0    0    0    0  0.00000000000E+00  0.00000000000E+00  0.45593999997E+02  0.45594000000E+02  0.51100000000E-03 0.  1.
         11   -1    0    0    0    0 -0.00000000000E+00 -0.00000000000E+00 -0.45593999997E+02  0.45594000000E+02  0.51100000000E-03 0. -1.
         23    2    1    2    0    0  0.00000000000E+00  0.00000000000E+00  0.00000000000E+00  0.91188000000E+02  0.91188000000E+02 0.  0.
    9900012    2    3    3    0    0  0.19208553391E+02 -0.31323926941E+02 -0.23713459299E+01  0.54367079263E+02  0.39999988797E+02 0.  0.
        -12    1    3    3    0    0 -0.19208553391E+02  0.31323926941E+02  0.23713459299E+01  0.36820920737E+02  0.00000000000E+00 0.  1.
         11    1    4    4    0    0  0.60135372259E+01 -0.22943323437E+02  0.63988325451E-01  0.23718406672E+02  0.51100000000E-03 0. -1.
        -11    1    4    4    0    0  0.55163447544E+01 -0.16405506747E+02 -0.69606890473E+01  0.18655345168E+02  0.51100000000E-03 0.  1.
        -12    1    4    4    0    0  0.76786714104E+01  0.80249032428E+01  0.45253547920E+01  0.11993327423E+02  0.00000000000E+00 0.  1.
</event>
<event>
 8    1  0.2509217E-006  0.9118800E+02  0.7816164E-02  0.1184000E+00
        -11   -1    0    0    0    0  0.00000000000E+00  0.00000000000E+00  0.45593999997E+02  0.45594000000E+02  0.51100000000E-03 0.  1.
         11   -1    0    0    0    0 -0.00000000000E+00 -0.00000000000E+00 -0.45593999997E+02  0.45594000000E+02  0.51100000000E-03 0. -1.
         23    2    1    2    0    0  0.00000000000E+00  0.00000000000E+00  0.35527136788E-14  0.91188000000E+02  0.91188000000E+02 0.  0.
    9900012    2    3    3    0    0  0.10423412430E+02  0.30587335013E+02  0.17650681148E+02  0.54367093780E+02  0.40000021890E+02 0.  0.
         12    1    3    3    0    0 -0.10423412430E+02 -0.30587335013E+02 -0.17650681148E+02  0.36820906220E+02  0.00000000000E+00 0. -1.
         11    1    4    4    0    0 -0.55363312709E+01  0.14447401986E+02  0.84976457828E+01  0.17651865969E+02  0.51100000000E-03 0. -1.
        -11    1    4    4    0    0  0.16761439878E+02  0.57823880275E+01 -0.56690707785E+01  0.18615054173E+02  0.51100000000E-03 0.  1.
        -12    1    4    4    0    0 -0.80169617767E+00  0.10357544999E+02  0.14822106144E+02  0.18100173638E+02  0.00000000000E+00 0.  1.
</event>
<event>
 8    1  0.2509217E-006  0.9118800E+02  0.7816164E-02  0.1184000E+00
        -11   -1    0    0    0    0  0.00000000000E+00  0.00000000000E+00  0.45593999997E+02  0.45594000000E+02  0.51100000000E-03 0.  1.
         11   -1    0    0    0    0 -0.00000000000E+00 -0.00000000000E+00 -0.45593999997E+02  0.45594000000E+02  0.51100000000E-03 0. -1.
         23    2    1    2    0    0  0.00000000000E+00  0.35527136788E-14 -0.35527136788E-14  0.91188000000E+02  0.91188000000E+02 0.  0.
    9900012    2    3    3    0    0  0.12329565287E+02  0.26528927269E+02 -0.22360175697E+02  0.54367087200E+02  0.40000006891E+02 0.  0.
        -12    1    3    3    0    0 -0.12329565287E+02 -0.26528927269E+02  0.22360175697E+02  0.36820912800E+02  0.00000000000E+00 0.  1.
         11    1    4    4    0    0  0.87323106090E+01  0.16683948860E+02 -0.10411384079E+02  0.21517535102E+02  0.51100000000E-03 0. -1.
        -11    1    4    4    0    0  0.33387007988E+01  0.38302211290E+00 -0.20087213470E+02  0.20366388345E+02  0.51100000000E-03 0.  1.
        -12    1    4    4    0    0  0.25855387947E+00  0.94619562957E+01  0.81384218525E+01  0.12483163754E+02  0.00000000000E+00 0.  1.
</event>
<event>
 8    1  0.2509217E-006  0.9118800E+02  0.7816164E-02  0.1184000E+00
        -11   -1    0    0    0    0  0.00000000000E+00  0.00000000000E+00  0.45593999997E+02  0.45594000000E+02  0.51100000000E-03 0.  1.
         11   -1    0    0    0    0 -0.00000000000E+00 -0.00000000000E+00 -0.45593999997E+02  0.45594000000E+02  0.51100000000E-03 0. -1.
         23    2    1    2    0    0  0.00000000000E+00 -0.88817841970E-15  0.35527136788E-14  0.91188000000E+02  0.91188000000E+02 0.  0.
    9900012    2    3    3    0    0  0.27426139574E+02  0.60470934916E+01 -0.23812035150E+02  0.54367170439E+02  0.40000196648E+02 0.  0.
        -12    1    3    3    0    0 -0.27426139574E+02 -0.60470934916E+01  0.23812035150E+02  0.36820829561E+02  0.00000000000E+00 0.  1.
         11    1    4    4    0    0  0.22300843351E+02  0.11113657480E+02 -0.24590883739E+02  0.35007892825E+02  0.51100000000E-03 0. -1.
        -11    1    4    4    0    0 -0.80091055680E+00  0.20259873746E+01  0.75782219987E+01  0.78851462564E+01  0.51100000000E-03 0.  1.
         12    1    4    4    0    0  0.59262067801E+01 -0.70925513630E+01 -0.67993734088E+01  0.11474131357E+02  0.00000000000E+00 0. -1.
</event>
<event>
 8    1  0.2509217E-006  0.9118800E+02  0.7816164E-02  0.1184000E+00
        -11   -1    0    0    0    0  0.00000000000E+00  0.00000000000E+00  0.45593999997E+02  0.45594000000E+02  0.51100000000E-03 0. -1.
         11   -1    0    0    0    0 -0.00000000000E+00 -0.00000000000E+00 -0.45593999997E+02  0.45594000000E+02  0.51100000000E-03 0.  1.
         23    2    1    2    0    0  0.35527136788E-14  0.35527136788E-14  0.00000000000E+00  0.91188000000E+02  0.91188000000E+02 0.  0.
    9900012    2    3    3    0    0 -0.27832780350E+02  0.16610388585E+02  0.17470269299E+02  0.54367095878E+02  0.40000026674E+02 0.  0.
        -12    1    3    3    0    0  0.27832780350E+02 -0.16610388585E+02 -0.17470269299E+02  0.36820904122E+02  0.00000000000E+00 0.  1.
         11    1    4    4    0    0 -0.18582621834E+02  0.83142459506E+01  0.12814786332E+02  0.24055337639E+02  0.51100000000E-03 0. -1.
        -11    1    4    4    0    0 -0.61513984438E+01  0.18148277193E+02  0.55366200899E+01  0.19946273591E+02  0.51100000000E-03 0.  1.
        -12    1    4    4    0    0 -0.30987600730E+01 -0.98521345588E+01 -0.88113712356E+00  0.10365484648E+02  0.00000000000E+00 0.  1.
</event>
<event>
 8    1  0.2509217E-006  0.9118800E+02  0.7816164E-02  0.1184000E+00
        -11   -1    0    0    0    0  0.00000000000E+00  0.00000000000E+00  0.45593999997E+02  0.45594000000E+02  0.51100000000E-03 0. -1.
         11   -1    0    0    0    0 -0.00000000000E+00 -0.00000000000E+00 -0.45593999997E+02  0.45594000000E+02  0.51100000000E-03 0.  1.
         23    2    1    2    0    0  0.00000000000E+00  0.17763568394E-14  0.00000000000E+00  0.91188000000E+02  0.91188000000E+02 0.  0.
    9900012    2    3    3    0    0  0.16086530122E+02  0.15818321351E+02  0.29099555017E+02  0.54367084151E+02  0.39999999939E+02 0.  0.
        -12    1    3    3    0    0 -0.16086530122E+02 -0.15818321351E+02 -0.29099555017E+02  0.36820915849E+02  0.00000000000E+00 0.  1.
         11    1    4    4    0    0  0.15419469046E+02  0.87785540946E+01  0.20812655601E+02  0.27349399830E+02  0.51100000000E-03 0. -1.
        -11    1    4    4    0    0 -0.82447720805E+01  0.87208817819E+01  0.12224339849E+02  0.17130806481E+02  0.51100000000E-03 0.  1.
         12    1    4    4    0    0  0.89118331566E+01 -0.16811145254E+01 -0.39374404319E+01  0.98868778395E+01  0.00000000000E+00 0. -1.
</event>
<event>
 8    1  0.2509217E-006  0.9118800E+02  0.7816164E-02  0.1184000E+00
        -11   -1    0    0    0    0  0.00000000000E+00  0.00000000000E+00  0.45593999997E+02  0.45594000000E+02  0.51100000000E-03 0.  1.
         11   -1    0    0    0    0 -0.00000000000E+00 -0.00000000000E+00 -0.45593999997E+02  0.45594000000E+02  0.51100000000E-03 0. -1.
         23    2    1    2    0    0  0.00000000000E+00  0.00000000000E+00  0.00000000000E+00  0.91188000000E+02  0.91188000000E+02 0.  0.
    9900012    2    3    3    0    0  0.32386059602E+02 -0.94414032103E+01  0.14757459030E+02  0.54367088168E+02  0.40000009096E+02 0.  0.
        -12    1    3    3    0    0 -0.32386059602E+02  0.94414032103E+01 -0.14757459030E+02  0.36820911832E+02  0.00000000000E+00 0.  1.
         11    1    4    4    0    0  0.47548511427E+01  0.65766709164E+01 -0.86849186917E+01  0.11886505907E+02  0.51100000000E-03 0. -1.
        -11    1    4    4    0    0  0.52145468660E+01 -0.81198798846E+01  0.84780393972E+00  0.96872452296E+01  0.51100000000E-03 0.  1.
         12    1    4    4    0    0  0.22416661593E+02 -0.78981942422E+01  0.22594573782E+02  0.32793337031E+02  0.00000000000E+00 0. -1.
</event>
<event>
 8    1  0.2509217E-006  0.9118800E+02  0.7816164E-02  0.1184000E+00
        -11   -1    0    0    0    0  0.00000000000E+00  0.00000000000E+00  0.45593999997E+02  0.45594000000E+02  0.51100000000E-03 0.  1.
         11   -1    0    0    0    0 -0.00000000000E+00 -0.00000000000E+00 -0.45593999997E+02  0.45594000000E+02  0.51100000000E-03 0. -1.
         23    2    1    2    0    0 -0.71054273576E-14 -0.35527136788E-14 -0.35527136788E-14  0.91188000000E+02  0.91188000000E+02 0.  0.
    9900012    2    3    3    0    0 -0.21700725376E+02 -0.19585297327E+02 -0.22389164134E+02  0.54367081708E+02  0.39999994370E+02 0.  0.
        -12    1    3    3    0    0  0.21700725376E+02  0.19585297327E+02  0.22389164134E+02  0.36820918292E+02  0.00000000000E+00 0.  1.
         11    1    4    4    0    0 -0.20411231124E+02 -0.82341709252E+01 -0.30812495896E+02  0.37865945524E+02  0.51100000000E-03 0. -1.
        -11    1    4    4    0    0  0.18872818433E+01 -0.67030553084E+00 -0.67694792665E+00  0.21140957919E+01  0.51100000000E-03 0.  1.
        -12    1    4    4    0    0 -0.31767760952E+01 -0.10680820871E+02  0.91002796888E+01  0.14387040392E+02  0.00000000000E+00 0.  1.
</event>
<event>
 8    1  0.2509217E-006  0.9118800E+02  0.7816164E-02  0.1184000E+00
        -11   -1    0    0    0    0  0.00000000000E+00  0.00000000000E+00  0.45593999997E+02  0.45594000000E+02  0.51100000000E-03 0.  1.
         11   -1    0    0    0    0 -0.00000000000E+00 -0.00000000000E+00 -0.45593999997E+02  0.45594000000E+02  0.51100000000E-03 0. -1.
         23    2    1    2    0    0  0.00000000000E+00  0.00000000000E+00  0.35527136788E-14  0.91188000000E+02  0.91188000000E+02 0.  0.
    9900012    2    3    3    0    0  0.18448298307E+02  0.21525042080E+02  0.23497068808E+02  0.54367090321E+02  0.40000014005E+02 0.  0.
        -12    1    3    3    0    0 -0.18448298307E+02 -0.21525042080E+02 -0.23497068808E+02  0.36820909679E+02  0.00000000000E+00 0.  1.
         11    1    4    4    0    0  0.98469106183E+01  0.26116858361E+00 -0.70011127932E+01  0.12084926080E+02  0.51100000000E-03 0. -1.
        -11    1    4    4    0    0  0.14221282542E+02  0.14229856369E+02  0.18935937941E+02  0.27627946638E+02  0.51100000000E-03 0.  1.
        -12    1    4    4    0    0 -0.56198948534E+01  0.70340171277E+01  0.11562243660E+02  0.14654217604E+02  0.00000000000E+00 0.  1.
</event>
<event>
 8    1  0.2509217E-006  0.9118800E+02  0.7816164E-02  0.1184000E+00
        -11   -1    0    0    0    0  0.00000000000E+00  0.00000000000E+00  0.45593999997E+02  0.45594000000E+02  0.51100000000E-03 0. -1.
         11   -1    0    0    0    0 -0.00000000000E+00 -0.00000000000E+00 -0.45593999997E+02  0.45594000000E+02  0.51100000000E-03 0.  1.
         23    2    1    2    0    0  0.00000000000E+00  0.00000000000E+00  0.00000000000E+00  0.91188000000E+02  0.91188000000E+02 0.  0.
    9900012    2    3    3    0    0  0.22716890473E+02 -0.90805215348E+01 -0.27518464061E+02  0.54367097670E+02  0.40000030759E+02 0.  0.
         12    1    3    3    0    0 -0.22716890473E+02  0.90805215348E+01  0.27518464061E+02  0.36820902330E+02  0.00000000000E+00 0. -1.
         11    1    4    4    0    0  0.11425911078E+01  0.93065699310E+00 -0.44953804502E+01  0.47307591918E+01  0.51100000000E-03 0. -1.
        -11    1    4    4    0    0  0.21178252956E+02  0.36218993257E+01 -0.27844543790E+02  0.35170373499E+02  0.51100000000E-03 0.  1.
         12    1    4    4    0    0  0.39604640902E+00 -0.13633077854E+02  0.48214601785E+01  0.14465964979E+02  0.00000000000E+00 0. -1.
</event>
<event>
 8    1  0.2509217E-006  0.9118800E+02  0.7816164E-02  0.1184000E+00
        -11   -1    0    0    0    0  0.00000000000E+00  0.00000000000E+00  0.45593999997E+02  0.45594000000E+02  0.51100000000E-03 0. -1.
         11   -1    0    0    0    0 -0.00000000000E+00 -0.00000000000E+00 -0.45593999997E+02  0.45594000000E+02  0.51100000000E-03 0.  1.
         23    2    1    2    0    0 -0.71054273576E-14  0.35527136788E-14 -0.88817841970E-15  0.91188000000E+02  0.91188000000E+02 0.  0.
    9900012    2    3    3    0    0  0.31579148333E+02 -0.18083235046E+02  0.56158528512E+01  0.54367030398E+02  0.39999877399E+02 0.  0.
         12    1    3    3    0    0 -0.31579148333E+02  0.18083235046E+02 -0.56158528512E+01  0.36820969602E+02  0.00000000000E+00 0. -1.
         11    1    4    4    0    0  0.81373247425E+01 -0.53732320050E+01  0.10320406186E+02  0.14198537257E+02  0.51100000000E-03 0. -1.
        -11    1    4    4    0    0  0.17815667216E+02 -0.21972055365E+02  0.16504151703E+00  0.28287743888E+02  0.51100000000E-03 0.  1.
         12    1    4    4    0    0  0.56261563747E+01  0.92620523236E+01 -0.48695948518E+01  0.11880749253E+02  0.00000000000E+00 0. -1.
</event>
<event>
 8    1  0.2509217E-006  0.9118800E+02  0.7816164E-02  0.1184000E+00
        -11   -1    0    0    0    0  0.00000000000E+00  0.00000000000E+00  0.45593999997E+02  0.45594000000E+02  0.51100000000E-03 0. -1.
         11   -1    0    0    0    0 -0.00000000000E+00 -0.00000000000E+00 -0.45593999997E+02  0.45594000000E+02  0.51100000000E-03 0.  1.
         23    2    1    2    0    0  0.11102230246E-15  0.00000000000E+00 -0.35527136788E-14  0.91188000000E+02  0.91188000000E+02 0.  0.
    9900012    2    3    3    0    0  0.47836792255E+00  0.29748779799E+02 -0.21692440267E+02  0.54367072525E+02  0.39999973434E+02 0.  0.
         12    1    3    3    0    0 -0.47836792255E+00 -0.29748779799E+02  0.21692440267E+02  0.36820927475E+02  0.00000000000E+00 0. -1.
         11    1    4    4    0    0  0.10359258300E+02 -0.24703004524E+00 -0.11026518774E+02  0.15131403534E+02  0.51100000000E-03 0. -1.
        -11    1    4    4    0    0 -0.14240225300E+02  0.16209215245E+02 -0.53907365922E+00  0.21582707804E+02  0.51100000000E-03 0.  1.
        -12    1    4    4    0    0  0.43593349231E+01  0.13786594599E+02 -0.10126847834E+02  0.17652961187E+02  0.00000000000E+00 0.  1.
</event>
<event>
 8    1  0.2509217E-006  0.9118800E+02  0.7816164E-02  0.1184000E+00
        -11   -1    0    0    0    0  0.00000000000E+00  0.00000000000E+00  0.45593999997E+02  0.45594000000E+02  0.51100000000E-03 0.  1.
         11   -1    0    0    0    0 -0.00000000000E+00 -0.00000000000E+00 -0.45593999997E+02  0.45594000000E+02  0.51100000000E-03 0. -1.
         23    2    1    2    0    0  0.00000000000E+00  0.17763568394E-14  0.00000000000E+00  0.91188000000E+02  0.91188000000E+02 0.  0.
    9900012    2    3    3    0    0 -0.32586228648E+02 -0.14066214096E+02 -0.98006518525E+01  0.54367170932E+02  0.40000197773E+02 0.  0.
        -12    1    3    3    0    0  0.32586228648E+02  0.14066214096E+02  0.98006518525E+01  0.36820829068E+02  0.00000000000E+00 0.  1.
         11    1    4    4    0    0 -0.54020095562E+01  0.48867122391E+01 -0.78833302420E+01  0.10733525037E+02  0.51100000000E-03 0. -1.
        -11    1    4    4    0    0  0.20133849223E+01  0.51938836903E+01  0.88899822955E+00  0.56409631046E+01  0.51100000000E-03 0.  1.
        -12    1    4    4    0    0 -0.29197604014E+02 -0.24146810025E+02 -0.28063198401E+01  0.37992682791E+02  0.00000000000E+00 0.  1.
</event>
<event>
 8    1  0.2509217E-006  0.9118800E+02  0.7816164E-02  0.1184000E+00
        -11   -1    0    0    0    0  0.00000000000E+00  0.00000000000E+00  0.45593999997E+02  0.45594000000E+02  0.51100000000E-03 0. -1.
         11   -1    0    0    0    0 -0.00000000000E+00 -0.00000000000E+00 -0.45593999997E+02  0.45594000000E+02  0.51100000000E-03 0.  1.
         23    2    1    2    0    0  0.17763568394E-14  0.17763568394E-14 -0.71054273576E-14  0.91188000000E+02  0.91188000000E+02 0.  0.
    9900012    2    3    3    0    0 -0.80282983856E+01  0.10688849966E+02 -0.34308519686E+02  0.54367087306E+02  0.40000007131E+02 0.  0.
         12    1    3    3    0    0  0.80282983856E+01 -0.10688849966E+02  0.34308519686E+02  0.36820912694E+02  0.00000000000E+00 0. -1.
         11    1    4    4    0    0 -0.91900119283E+01  0.14983226868E+02 -0.46121638904E+01  0.18172106720E+02  0.51100000000E-03 0. -1.
        -11    1    4    4    0    0 -0.83603032214E+01  0.40261477194E+00 -0.20520739797E+02  0.22162074151E+02  0.51100000000E-03 0.  1.
         12    1    4    4    0    0  0.95220167640E+01 -0.46969916746E+01 -0.91756159994E+01  0.14032906435E+02  0.00000000000E+00 0. -1.
</event>
<event>
 8    1  0.2509217E-006  0.9118800E+02  0.7816164E-02  0.1184000E+00
        -11   -1    0    0    0    0  0.00000000000E+00  0.00000000000E+00  0.45593999997E+02  0.45594000000E+02  0.51100000000E-03 0.  1.
         11   -1    0    0    0    0 -0.00000000000E+00 -0.00000000000E+00 -0.45593999997E+02  0.45594000000E+02  0.51100000000E-03 0. -1.
         23    2    1    2    0    0  0.00000000000E+00 -0.66613381478E-15  0.00000000000E+00  0.91188000000E+02  0.91188000000E+02 0.  0.
    9900012    2    3    3    0    0  0.35985272963E+02  0.16302646344E+01  0.76278030892E+01  0.54367068277E+02  0.39999963750E+02 0.  0.
         12    1    3    3    0    0 -0.35985272963E+02 -0.16302646344E+01 -0.76278030892E+01  0.36820931723E+02  0.00000000000E+00 0. -1.
         11    1    4    4    0    0  0.27959286667E+02 -0.36362595002E+01 -0.75136674068E+01  0.29178747270E+02  0.51100000000E-03 0. -1.
        -11    1    4    4    0    0  0.79622499378E+01  0.11371073423E+02  0.11856013927E+02  0.18255514273E+02  0.51100000000E-03 0.  1.
         12    1    4    4    0    0  0.63736358350E-01 -0.61045492887E+01  0.32854565690E+01  0.69328067339E+01  0.00000000000E+00 0. -1.
</event>
<event>
 8    1  0.2509217E-006  0.9118800E+02  0.7816164E-02  0.1184000E+00
        -11   -1    0    0    0    0  0.00000000000E+00  0.00000000000E+00  0.45593999997E+02  0.45594000000E+02  0.51100000000E-03 0.  1.
         11   -1    0    0    0    0 -0.00000000000E+00 -0.00000000000E+00 -0.45593999997E+02  0.45594000000E+02  0.51100000000E-03 0. -1.
         23    2    1    2    0    0 -0.17763568394E-14  0.00000000000E+00  0.35527136788E-14  0.91188000000E+02  0.91188000000E+02 0.  0.
    9900012    2    3    3    0    0  0.11704937080E+02 -0.28468733807E+02 -0.20206593043E+02  0.54367071725E+02  0.39999971612E+02 0.  0.
        -12    1    3    3    0    0 -0.11704937080E+02  0.28468733807E+02  0.20206593043E+02  0.36820928275E+02  0.00000000000E+00 0.  1.
         11    1    4    4    0    0  0.24424737722E+01 -0.39039085654E+00 -0.77385199689E+01  0.81242091750E+01  0.51100000000E-03 0.  1.
        -11    1    4    4    0    0 -0.44568291371E+01 -0.30242760028E+02 -0.73472662096E+01  0.31439945628E+02  0.51100000000E-03 0. -1.
         12    1    4    4    0    0  0.13719292445E+02  0.21644170771E+01 -0.51208068640E+01  0.14802916922E+02  0.00000000000E+00 0. -1.
</event>
<event>
 8    1  0.2509217E-006  0.9118800E+02  0.7816164E-02  0.1184000E+00
        -11   -1    0    0    0    0  0.00000000000E+00  0.00000000000E+00  0.45593999997E+02  0.45594000000E+02  0.51100000000E-03 0. -1.
         11   -1    0    0    0    0 -0.00000000000E+00 -0.00000000000E+00 -0.45593999997E+02  0.45594000000E+02  0.51100000000E-03 0.  1.
         23    2    1    2    0    0  0.35527136788E-14  0.35527136788E-14  0.17763568394E-14  0.91188000000E+02  0.91188000000E+02 0.  0.
    9900012    2    3    3    0    0 -0.18995785403E+02 -0.29753041514E+02 -0.10473625333E+02  0.54367079723E+02  0.39999989845E+02 0.  0.
         12    1    3    3    0    0  0.18995785403E+02  0.29753041514E+02  0.10473625333E+02  0.36820920277E+02  0.00000000000E+00 0. -1.
         11    1    4    4    0    0 -0.45581961411E+01  0.22330539083E+01  0.49776948328E+01  0.71092283637E+01  0.51100000000E-03 0. -1.
        -11    1    4    4    0    0 -0.21390593639E+02 -0.22570859260E+02 -0.48625212087E+01  0.31474518213E+02  0.51100000000E-03 0.  1.
        -12    1    4    4    0    0  0.69530043774E+01 -0.94152361624E+01 -0.10588798957E+02  0.15783333147E+02  0.00000000000E+00 0.  1.
</event>
<event>
 8    1  0.2509217E-006  0.9118800E+02  0.7816164E-02  0.1184000E+00
        -11   -1    0    0    0    0  0.00000000000E+00  0.00000000000E+00  0.45593999997E+02  0.45594000000E+02  0.51100000000E-03 0. -1.
         11   -1    0    0    0    0 -0.00000000000E+00 -0.00000000000E+00 -0.45593999997E+02  0.45594000000E+02  0.51100000000E-03 0.  1.
         23    2    1    2    0    0 -0.17763568394E-14  0.88817841970E-15  0.00000000000E+00  0.91188000000E+02  0.91188000000E+02 0.  0.
    9900012    2    3    3    0    0  0.13135815477E+02 -0.53485813462E+01  0.33979815978E+02  0.54367015975E+02  0.39999844519E+02 0.  0.
        -12    1    3    3    0    0 -0.13135815477E+02  0.53485813462E+01 -0.33979815978E+02  0.36820984025E+02  0.00000000000E+00 0.  1.
         11    1    4    4    0    0  0.23297007707E+02 -0.62872621823E+01  0.29082338451E+02  0.37789716113E+02  0.51100000000E-03 0. -1.
        -11    1    4    4    0    0  0.26800675800E+01 -0.63018492040E+00  0.24647598005E-01  0.27532713329E+01  0.51100000000E-03 0.  1.
         12    1    4    4    0    0 -0.12841259810E+02  0.15688657565E+01  0.48728299285E+01  0.13824028529E+02  0.00000000000E+00 0. -1.
</event>
<event>
 8    1  0.2509217E-006  0.9118800E+02  0.7816164E-02  0.1184000E+00
        -11   -1    0    0    0    0  0.00000000000E+00  0.00000000000E+00  0.45593999997E+02  0.45594000000E+02  0.51100000000E-03 0.  1.
         11   -1    0    0    0    0 -0.00000000000E+00 -0.00000000000E+00 -0.45593999997E+02  0.45594000000E+02  0.51100000000E-03 0. -1.
         23    2    1    2    0    0  0.00000000000E+00  0.00000000000E+00  0.00000000000E+00  0.91188000000E+02  0.91188000000E+02 0.  0.
    9900012    2    3    3    0    0  0.12874923393E+02  0.99842956770E+00 -0.34482166503E+02  0.54367077677E+02  0.39999985181E+02 0.  0.
        -12    1    3    3    0    0 -0.12874923393E+02 -0.99842956770E+00  0.34482166503E+02  0.36820922323E+02  0.00000000000E+00 0.  1.
         11    1    4    4    0    0 -0.15548074211E+01  0.16196047739E+01  0.22929512114E+01  0.32090763873E+01  0.51100000000E-03 0. -1.
        -11    1    4    4    0    0 -0.36175761547E+01 -0.63286594033E+01  0.23795076564E+01  0.76681708397E+01  0.51100000000E-03 0.  1.
         12    1    4    4    0    0  0.18047306969E+02  0.57074841971E+01 -0.39154625370E+02  0.43489830450E+02  0.00000000000E+00 0. -1.
</event>
<event>
 8    1  0.2509217E-006  0.9118800E+02  0.7816164E-02  0.1184000E+00
        -11   -1    0    0    0    0  0.00000000000E+00  0.00000000000E+00  0.45593999997E+02  0.45594000000E+02  0.51100000000E-03 0.  1.
         11   -1    0    0    0    0 -0.00000000000E+00 -0.00000000000E+00 -0.45593999997E+02  0.45594000000E+02  0.51100000000E-03 0. -1.
         23    2    1    2    0    0  0.00000000000E+00 -0.35527136788E-14  0.00000000000E+00  0.91188000000E+02  0.91188000000E+02 0.  0.
    9900012    2    3    3    0    0  0.60346927382E+01 -0.31390882352E+02  0.18274976992E+02  0.54367084811E+02  0.40000001443E+02 0.  0.
         12    1    3    3    0    0 -0.60346927382E+01  0.31390882352E+02 -0.18274976992E+02  0.36820915189E+02  0.00000000000E+00 0. -1.
         11    1    4    4    0    0  0.64693671447E+01  0.44314611222E+01  0.15598372150E+02  0.17458515771E+02  0.51100000000E-03 0. -1.
        -11    1    4    4    0    0  0.21911642267E+01 -0.19368644616E+02  0.49008518767E+01  0.20098854303E+02  0.51100000000E-03 0.  1.
         12    1    4    4    0    0 -0.26258386332E+01 -0.16453698859E+02 -0.22242470347E+01  0.16809714737E+02  0.00000000000E+00 0. -1.
</event>
<event>
 8    1  0.2509217E-006  0.9118800E+02  0.7816164E-02  0.1184000E+00
        -11   -1    0    0    0    0  0.00000000000E+00  0.00000000000E+00  0.45593999997E+02  0.45594000000E+02  0.51100000000E-03 0.  1.
         11   -1    0    0    0    0 -0.00000000000E+00 -0.00000000000E+00 -0.45593999997E+02  0.45594000000E+02  0.51100000000E-03 0. -1.
         23    2    1    2    0    0  0.00000000000E+00  0.00000000000E+00  0.00000000000E+00  0.91188000000E+02  0.91188000000E+02 0.  0.
    9900012    2    3    3    0    0  0.31828329857E+02  0.65960403668E+01 -0.17298279143E+02  0.54367071287E+02  0.39999970613E+02 0.  0.
        -12    1    3    3    0    0 -0.31828329857E+02 -0.65960403668E+01  0.17298279143E+02  0.36820928713E+02  0.00000000000E+00 0.  1.
         11    1    4    4    0    0  0.60823770081E+01  0.73100188723E+01 -0.22324287858E+02  0.24265315053E+02  0.51100000000E-03 0. -1.
        -11    1    4    4    0    0  0.20178701398E+02 -0.64264726090E+01  0.10861685522E+01  0.21205171603E+02  0.51100000000E-03 0.  1.
         12    1    4    4    0    0  0.55672514501E+01  0.57124941035E+01  0.39398401633E+01  0.88965846314E+01  0.00000000000E+00 0. -1.
</event>
<event>
 8    1  0.2509217E-006  0.9118800E+02  0.7816164E-02  0.1184000E+00
        -11   -1    0    0    0    0  0.00000000000E+00  0.00000000000E+00  0.45593999997E+02  0.45594000000E+02  0.51100000000E-03 0. -1.
         11   -1    0    0    0    0 -0.00000000000E+00 -0.00000000000E+00 -0.45593999997E+02  0.45594000000E+02  0.51100000000E-03 0.  1.
         23    2    1    2    0    0 -0.88817841970E-15  0.17763568394E-14  0.00000000000E+00  0.91188000000E+02  0.91188000000E+02 0.  0.
    9900012    2    3    3    0    0  0.21181611070E+01  0.13886618067E+02 -0.34036085463E+02  0.54367083642E+02  0.39999998778E+02 0.  0.
         12    1    3    3    0    0 -0.21181611070E+01 -0.13886618067E+02  0.34036085463E+02  0.36820916358E+02  0.00000000000E+00 0. -1.
         11    1    4    4    0    0 -0.78910690748E+01  0.14267120325E+02 -0.14408547492E+02  0.21758353214E+02  0.51100000000E-03 0. -1.
        -11    1    4    4    0    0 -0.24841521542E+01 -0.82523420888E+01 -0.76266114304E+00  0.86518098775E+01  0.51100000000E-03 0.  1.
        -12    1    4    4    0    0  0.12493382336E+02  0.78718398307E+01 -0.18864876828E+02  0.23956920550E+02  0.00000000000E+00 0.  1.
</event>
<event>
 8    1  0.2509217E-006  0.9118800E+02  0.7816164E-02  0.1184000E+00
        -11   -1    0    0    0    0  0.00000000000E+00  0.00000000000E+00  0.45593999997E+02  0.45594000000E+02  0.51100000000E-03 0.  1.
         11   -1    0    0    0    0 -0.00000000000E+00 -0.00000000000E+00 -0.45593999997E+02  0.45594000000E+02  0.51100000000E-03 0. -1.
         23    2    1    2    0    0  0.00000000000E+00  0.17763568394E-14  0.00000000000E+00  0.91188000000E+02  0.91188000000E+02 0.  0.
    9900012    2    3    3    0    0  0.24614410405E+02 -0.83389859686E+01 -0.26083930948E+02  0.54367090991E+02  0.40000015531E+02 0.  0.
        -12    1    3    3    0    0 -0.24614410405E+02  0.83389859686E+01  0.26083930948E+02  0.36820909009E+02  0.00000000000E+00 0.  1.
         11    1    4    4    0    0  0.21390729587E+02 -0.46999270295E+01 -0.30816040744E+01  0.22116711109E+02  0.51100000000E-03 0. -1.
        -11    1    4    4    0    0 -0.78224890199E+01  0.55605204474E-01 -0.17508354632E+01  0.80162242662E+01  0.51100000000E-03 0.  1.
         12    1    4    4    0    0  0.11046169838E+02 -0.36946641436E+01 -0.21251491411E+02  0.24234155616E+02  0.00000000000E+00 0. -1.
</event>
<event>
 8    1  0.2509217E-006  0.9118800E+02  0.7816164E-02  0.1184000E+00
        -11   -1    0    0    0    0  0.00000000000E+00  0.00000000000E+00  0.45593999997E+02  0.45594000000E+02  0.51100000000E-03 0.  1.
         11   -1    0    0    0    0 -0.00000000000E+00 -0.00000000000E+00 -0.45593999997E+02  0.45594000000E+02  0.51100000000E-03 0. -1.
         23    2    1    2    0    0  0.00000000000E+00  0.88817841970E-15  0.35527136788E-14  0.91188000000E+02  0.91188000000E+02 0.  0.
    9900012    2    3    3    0    0 -0.21823458907E+02 -0.57920973606E+01 -0.29085539117E+02  0.54367077466E+02  0.39999984700E+02 0.  0.
        -12    1    3    3    0    0  0.21823458907E+02  0.57920973606E+01  0.29085539117E+02  0.36820922534E+02  0.00000000000E+00 0.  1.
         11    1    4    4    0    0 -0.11004641837E+01 -0.80829249234E+01 -0.13642469840E+02  0.15895335175E+02  0.51100000000E-03 0. -1.
        -11    1    4    4    0    0 -0.25092228473E+02  0.48652085705E+01 -0.19359950944E+02  0.32063965522E+02  0.51100000000E-03 0.  1.
        -12    1    4    4    0    0  0.43692337492E+01 -0.25743810077E+01  0.39168816672E+01  0.64077767691E+01  0.00000000000E+00 0.  1.
</event>
<event>
 8    1  0.2509217E-006  0.9118800E+02  0.7816164E-02  0.1184000E+00
        -11   -1    0    0    0    0  0.00000000000E+00  0.00000000000E+00  0.45593999997E+02  0.45594000000E+02  0.51100000000E-03 0.  1.
         11   -1    0    0    0    0 -0.00000000000E+00 -0.00000000000E+00 -0.45593999997E+02  0.45594000000E+02  0.51100000000E-03 0. -1.
         23    2    1    2    0    0  0.35527136788E-14 -0.88817841970E-15  0.35527136788E-14  0.91188000000E+02  0.91188000000E+02 0.  0.
    9900012    2    3    3    0    0 -0.29282145878E+02 -0.34477774132E+01 -0.22055591729E+02  0.54367077105E+02  0.39999983876E+02 0.  0.
        -12    1    3    3    0    0  0.29282145878E+02  0.34477774132E+01  0.22055591729E+02  0.36820922895E+02  0.00000000000E+00 0.  1.
         11    1    4    4    0    0 -0.15638573462E+02 -0.89763341910E+01 -0.25427497941E+02  0.31172058117E+02  0.51100000000E-03 0. -1.
        -11    1    4    4    0    0  0.41504863841E+01  0.21067184156E+00  0.18865970764E+01  0.45640079578E+01  0.51100000000E-03 0.  1.
         12    1    4    4    0    0 -0.17794058800E+02  0.53178849362E+01  0.14853091354E+01  0.18631011030E+02  0.00000000000E+00 0. -1.
</event>
<event>
 8    1  0.2509217E-006  0.9118800E+02  0.7816164E-02  0.1184000E+00
        -11   -1    0    0    0    0  0.00000000000E+00  0.00000000000E+00  0.45593999997E+02  0.45594000000E+02  0.51100000000E-03 0. -1.
         11   -1    0    0    0    0 -0.00000000000E+00 -0.00000000000E+00 -0.45593999997E+02  0.45594000000E+02  0.51100000000E-03 0.  1.
         23    2    1    2    0    0 -0.88817841970E-15 -0.35527136788E-14  0.35527136788E-14  0.91188000000E+02  0.91188000000E+02 0.  0.
    9900012    2    3    3    0    0  0.57465532830E+01  0.29390318828E+02 -0.21423503099E+02  0.54367079310E+02  0.39999988902E+02 0.  0.
        -12    1    3    3    0    0 -0.57465532830E+01 -0.29390318828E+02  0.21423503099E+02  0.36820920690E+02  0.00000000000E+00 0.  1.
         11    1    4    4    0    0  0.22665467560E+01 -0.12139403598E+01 -0.81947348658E+01  0.85886299941E+01  0.51100000000E-03 0. -1.
        -11    1    4    4    0    0 -0.33363411044E+01  0.27066324941E+02 -0.21325185227E+02  0.34619079176E+02  0.51100000000E-03 0.  1.
         12    1    4    4    0    0  0.68163476314E+01  0.35379342467E+01  0.80964169939E+01  0.11159370139E+02  0.00000000000E+00 0. -1.
</event>
<event>
 8    1  0.2509217E-006  0.9118800E+02  0.7816164E-02  0.1184000E+00
        -11   -1    0    0    0    0  0.00000000000E+00  0.00000000000E+00  0.45593999997E+02  0.45594000000E+02  0.51100000000E-03 0.  1.
         11   -1    0    0    0    0 -0.00000000000E+00 -0.00000000000E+00 -0.45593999997E+02  0.45594000000E+02  0.51100000000E-03 0. -1.
         23    2    1    2    0    0  0.00000000000E+00  0.00000000000E+00  0.00000000000E+00  0.91188000000E+02  0.91188000000E+02 0.  0.
    9900012    2    3    3    0    0 -0.56164466770E+01 -0.34029316811E+02 -0.12893441433E+02  0.54367085999E+02  0.40000004151E+02 0.  0.
        -12    1    3    3    0    0  0.56164466770E+01  0.34029316811E+02  0.12893441433E+02  0.36820914001E+02  0.00000000000E+00 0.  1.
         11    1    4    4    0    0 -0.10424242162E+02  0.21979319596E+00 -0.37384697620E+01  0.11076519766E+02  0.51100000000E-03 0. -1.
        -11    1    4    4    0    0 -0.82773176189E+01 -0.52246284011E+01 -0.55424870360E+01  0.11248550649E+02  0.51100000000E-03 0.  1.
         12    1    4    4    0    0  0.13085113104E+02 -0.29024481606E+02 -0.36124846355E+01  0.32042015584E+02  0.00000000000E+00 0. -1.
</event>
<event>
 8    1  0.2509217E-006  0.9118800E+02  0.7816164E-02  0.1184000E+00
        -11   -1    0    0    0    0  0.00000000000E+00  0.00000000000E+00  0.45593999997E+02  0.45594000000E+02  0.51100000000E-03 0.  1.
         11   -1    0    0    0    0 -0.00000000000E+00 -0.00000000000E+00 -0.45593999997E+02  0.45594000000E+02  0.51100000000E-03 0. -1.
         23    2    1    2    0    0 -0.35527136788E-14  0.44408920985E-15  0.35527136788E-14  0.91188000000E+02  0.91188000000E+02 0.  0.
    9900012    2    3    3    0    0 -0.23816287194E+02  0.26574538819E+01 -0.27955333627E+02  0.54367105456E+02  0.40000048508E+02 0.  0.
        -12    1    3    3    0    0  0.23816287194E+02 -0.26574538819E+01  0.27955333627E+02  0.36820894544E+02  0.00000000000E+00 0.  1.
         11    1    4    4    0    0  0.20879899607E+01 -0.86932549787E+01 -0.91113532496E+01  0.12765153446E+02  0.51100000000E-03 0. -1.
        -11    1    4    4    0    0 -0.15897589495E+02 -0.39403554800E+01 -0.15668709946E+01  0.16453414175E+02  0.51100000000E-03 0.  1.
        -12    1    4    4    0    0 -0.10006687660E+02  0.15291064341E+02 -0.17277109382E+02  0.25148537834E+02  0.00000000000E+00 0.  1.
</event>
<event>
 8    1  0.2509217E-006  0.9118800E+02  0.7816164E-02  0.1184000E+00
        -11   -1    0    0    0    0  0.00000000000E+00  0.00000000000E+00  0.45593999997E+02  0.45594000000E+02  0.51100000000E-03 0.  1.
         11   -1    0    0    0    0 -0.00000000000E+00 -0.00000000000E+00 -0.45593999997E+02  0.45594000000E+02  0.51100000000E-03 0. -1.
         23    2    1    2    0    0  0.00000000000E+00  0.00000000000E+00  0.00000000000E+00  0.91188000000E+02  0.91188000000E+02 0.  0.
    9900012    2    3    3    0    0  0.33654578545E+01  0.35233440818E+02 -0.10151622864E+02  0.54367121341E+02  0.40000084721E+02 0.  0.
        -12    1    3    3    0    0 -0.33654578545E+01 -0.35233440818E+02  0.10151622864E+02  0.36820878659E+02  0.00000000000E+00 0.  1.
         11    1    4    4    0    0  0.45316657789E+01  0.15027691841E+02 -0.16507433782E+02  0.22778562007E+02  0.51100000000E-03 0. -1.
        -11    1    4    4    0    0 -0.35270879459E+01  0.16208918661E+01  0.11519349687E+02  0.12155782874E+02  0.51100000000E-03 0.  1.
         12    1    4    4    0    0  0.23608800215E+01  0.18584857111E+02 -0.51635387687E+01  0.19432776459E+02  0.00000000000E+00 0. -1.
</event>
<event>
 8    1  0.2509217E-006  0.9118800E+02  0.7816164E-02  0.1184000E+00
        -11   -1    0    0    0    0  0.00000000000E+00  0.00000000000E+00  0.45593999997E+02  0.45594000000E+02  0.51100000000E-03 0.  1.
         11   -1    0    0    0    0 -0.00000000000E+00 -0.00000000000E+00 -0.45593999997E+02  0.45594000000E+02  0.51100000000E-03 0. -1.
         23    2    1    2    0    0 -0.17763568394E-14  0.35527136788E-14  0.35527136788E-14  0.91188000000E+02  0.91188000000E+02 0.  0.
    9900012    2    3    3    0    0  0.15942467768E+02 -0.18004356989E+02 -0.27883038695E+02  0.54367041348E+02  0.39999902362E+02 0.  0.
        -12    1    3    3    0    0 -0.15942467768E+02  0.18004356989E+02  0.27883038695E+02  0.36820958652E+02  0.00000000000E+00 0.  1.
         11    1    4    4    0    0  0.94615553680E+01 -0.95483512220E+00  0.30033080490E+01  0.99725924208E+01  0.51100000000E-03 0. -1.
        -11    1    4    4    0    0  0.12121299934E+02 -0.12924377509E+02 -0.62544462471E+01  0.18790517401E+02  0.51100000000E-03 0.  1.
        -12    1    4    4    0    0 -0.56403875339E+01 -0.41251443580E+01 -0.24631900497E+02  0.25603931527E+02  0.00000000000E+00 0.  1.
</event>
<event>
 8    1  0.2509217E-006  0.9118800E+02  0.7816164E-02  0.1184000E+00
        -11   -1    0    0    0    0  0.00000000000E+00  0.00000000000E+00  0.45593999997E+02  0.45594000000E+02  0.51100000000E-03 0. -1.
         11   -1    0    0    0    0 -0.00000000000E+00 -0.00000000000E+00 -0.45593999997E+02  0.45594000000E+02  0.51100000000E-03 0.  1.
         23    2    1    2    0    0  0.00000000000E+00  0.26645352591E-14  0.00000000000E+00  0.91188000000E+02  0.91188000000E+02 0.  0.
    9900012    2    3    3    0    0  0.11949813798E+02 -0.37020666900E+01 -0.34630578135E+02  0.54367078100E+02  0.39999986145E+02 0.  0.
         12    1    3    3    0    0 -0.11949813798E+02  0.37020666900E+01  0.34630578135E+02  0.36820921900E+02  0.00000000000E+00 0. -1.
         11    1    4    4    0    0 -0.40602339746E+01 -0.15487867124E+02 -0.45413163192E+01  0.16642808722E+02  0.51100000000E-03 0. -1.
        -11    1    4    4    0    0  0.58684387248E+01  0.10081674597E+01 -0.16837155386E+02  0.17859025069E+02  0.51100000000E-03 0.  1.
         12    1    4    4    0    0  0.10141609048E+02  0.10777632975E+02 -0.13252106430E+02  0.19865244309E+02  0.00000000000E+00 0. -1.
</event>
<event>
 8    1  0.2509217E-006  0.9118800E+02  0.7816164E-02  0.1184000E+00
        -11   -1    0    0    0    0  0.00000000000E+00  0.00000000000E+00  0.45593999997E+02  0.45594000000E+02  0.51100000000E-03 0. -1.
         11   -1    0    0    0    0 -0.00000000000E+00 -0.00000000000E+00 -0.45593999997E+02  0.45594000000E+02  0.51100000000E-03 0.  1.
         23    2    1    2    0    0 -0.35527136788E-14  0.00000000000E+00  0.00000000000E+00  0.91188000000E+02  0.91188000000E+02 0.  0.
    9900012    2    3    3    0    0 -0.23236512911E+02  0.94712020448E+01 -0.26946991924E+02  0.54367087815E+02  0.40000008291E+02 0.  0.
         12    1    3    3    0    0  0.23236512911E+02 -0.94712020448E+01  0.26946991924E+02  0.36820912185E+02  0.00000000000E+00 0. -1.
         11    1    4    4    0    0 -0.15386417907E+02  0.15541458677E+00 -0.24044260962E+01  0.15573929331E+02  0.51100000000E-03 0.  1.
        -11    1    4    4    0    0  0.92339196035E+01  0.85627222957E+01 -0.13366731729E+02  0.18364503852E+02  0.51100000000E-03 0. -1.
         12    1    4    4    0    0 -0.17084014607E+02  0.75306516232E+00 -0.11175834098E+02  0.20428654631E+02  0.00000000000E+00 0. -1.
</event>
<event>
 8    1  0.2509217E-006  0.9118800E+02  0.7816164E-02  0.1184000E+00
        -11   -1    0    0    0    0  0.00000000000E+00  0.00000000000E+00  0.45593999997E+02  0.45594000000E+02  0.51100000000E-03 0. -1.
         11   -1    0    0    0    0 -0.00000000000E+00 -0.00000000000E+00 -0.45593999997E+02  0.45594000000E+02  0.51100000000E-03 0.  1.
         23    2    1    2    0    0 -0.35527136788E-14 -0.35527136788E-14 -0.71054273576E-14  0.91188000000E+02  0.91188000000E+02 0.  0.
    9900012    2    3    3    0    0 -0.22052003739E+02 -0.22526963605E+02 -0.19026981180E+02  0.54367068846E+02  0.39999965049E+02 0.  0.
        -12    1    3    3    0    0  0.22052003739E+02  0.22526963605E+02  0.19026981180E+02  0.36820931154E+02  0.00000000000E+00 0.  1.
         11    1    4    4    0    0 -0.10019649389E+02 -0.17360692425E+02 -0.18338226525E+00  0.20045464441E+02  0.51100000000E-03 0. -1.
        -11    1    4    4    0    0  0.30630548821E+01  0.41855679041E+01  0.31391474115E+01  0.60626339675E+01  0.51100000000E-03 0.  1.
         12    1    4    4    0    0 -0.15095409232E+02 -0.93518390845E+01 -0.21982746326E+02  0.28258970438E+02  0.00000000000E+00 0. -1.
</event>
<event>
 8    1  0.2509217E-006  0.9118800E+02  0.7816164E-02  0.1184000E+00
        -11   -1    0    0    0    0  0.00000000000E+00  0.00000000000E+00  0.45593999997E+02  0.45594000000E+02  0.51100000000E-03 0. -1.
         11   -1    0    0    0    0 -0.00000000000E+00 -0.00000000000E+00 -0.45593999997E+02  0.45594000000E+02  0.51100000000E-03 0.  1.
         23    2    1    2    0    0  0.35527136788E-14  0.00000000000E+00  0.88817841970E-15  0.91188000000E+02  0.91188000000E+02 0.  0.
    9900012    2    3    3    0    0  0.25924751000E+02  0.25245654921E+02 -0.68076955356E+01  0.54367074899E+02  0.39999978847E+02 0.  0.
         12    1    3    3    0    0 -0.25924751000E+02 -0.25245654921E+02  0.68076955356E+01  0.36820925101E+02  0.00000000000E+00 0. -1.
         11    1    4    4    0    0  0.31728549829E+01  0.80811457661E+01  0.62774020011E+01  0.10713435573E+02  0.51100000000E-03 0. -1.
        -11    1    4    4    0    0 -0.38007218871E+01  0.77508457281E+01 -0.12850347455E+02  0.15480714659E+02  0.51100000000E-03 0.  1.
        -12    1    4    4    0    0  0.26552617904E+02  0.94136634271E+01 -0.23475008160E+00  0.28172924667E+02  0.00000000000E+00 0.  1.
</event>
<event>
 8    1  0.2509217E-006  0.9118800E+02  0.7816164E-02  0.1184000E+00
        -11   -1    0    0    0    0  0.00000000000E+00  0.00000000000E+00  0.45593999997E+02  0.45594000000E+02  0.51100000000E-03 0. -1.
         11   -1    0    0    0    0 -0.00000000000E+00 -0.00000000000E+00 -0.45593999997E+02  0.45594000000E+02  0.51100000000E-03 0.  1.
         23    2    1    2    0    0  0.00000000000E+00  0.00000000000E+00  0.00000000000E+00  0.91188000000E+02  0.91188000000E+02 0.  0.
    9900012    2    3    3    0    0  0.61559445728E+01  0.11766987059E+02 -0.34342704227E+02  0.54367095996E+02  0.40000026943E+02 0.  0.
         12    1    3    3    0    0 -0.61559445728E+01 -0.11766987059E+02  0.34342704227E+02  0.36820904004E+02  0.00000000000E+00 0. -1.
         11    1    4    4    0    0  0.32337597158E+01 -0.71745436796E+01 -0.48135146419E+01  0.92250312942E+01  0.51100000000E-03 0. -1.
        -11    1    4    4    0    0 -0.29841566442E+01  0.23086554396E+02 -0.29927934178E+02  0.37915371938E+02  0.51100000000E-03 0.  1.
        -12    1    4    4    0    0  0.59063415011E+01 -0.41450236582E+01  0.39874459291E+00  0.72266927640E+01  0.00000000000E+00 0.  1.
</event>
<event>
 8    1  0.2509217E-006  0.9118800E+02  0.7816164E-02  0.1184000E+00
        -11   -1    0    0    0    0  0.00000000000E+00  0.00000000000E+00  0.45593999997E+02  0.45594000000E+02  0.51100000000E-03 0. -1.
         11   -1    0    0    0    0 -0.00000000000E+00 -0.00000000000E+00 -0.45593999997E+02  0.45594000000E+02  0.51100000000E-03 0.  1.
         23    2    1    2    0    0  0.35527136788E-14  0.88817841970E-15 -0.35527136788E-14  0.91188000000E+02  0.91188000000E+02 0.  0.
    9900012    2    3    3    0    0 -0.17243842346E+02 -0.79412516021E+01  0.31549289257E+02  0.54367201143E+02  0.40000266644E+02 0.  0.
        -12    1    3    3    0    0  0.17243842346E+02  0.79412516021E+01 -0.31549289257E+02  0.36820798857E+02  0.00000000000E+00 0.  1.
         11    1    4    4    0    0 -0.93706686289E+01  0.31720689400E+00  0.32466196037E+02  0.33792956901E+02  0.51100000000E-03 0. -1.
        -11    1    4    4    0    0 -0.12411219906E+02 -0.23066014410E+01  0.14919741636E+01  0.12711600093E+02  0.51100000000E-03 0.  1.
        -12    1    4    4    0    0  0.45380461888E+01 -0.59518570551E+01 -0.24088809431E+01  0.78626441490E+01  0.00000000000E+00 0.  1.
</event>
<event>
 8    1  0.2509217E-006  0.9118800E+02  0.7816164E-02  0.1184000E+00
        -11   -1    0    0    0    0  0.00000000000E+00  0.00000000000E+00  0.45593999997E+02  0.45594000000E+02  0.51100000000E-03 0. -1.
         11   -1    0    0    0    0 -0.00000000000E+00 -0.00000000000E+00 -0.45593999997E+02  0.45594000000E+02  0.51100000000E-03 0.  1.
         23    2    1    2    0    0  0.00000000000E+00  0.22204460493E-15  0.00000000000E+00  0.91188000000E+02  0.91188000000E+02 0.  0.
    9900012    2    3    3    0    0  0.23428588835E+02  0.17404371251E+01 -0.28352283115E+02  0.54367084014E+02  0.39999999627E+02 0.  0.
         12    1    3    3    0    0 -0.23428588835E+02 -0.17404371251E+01  0.28352283115E+02  0.36820915986E+02  0.00000000000E+00 0. -1.
         11    1    4    4    0    0  0.49031264269E+01  0.76145212060E+00  0.98987108197E+01  0.11072711242E+02  0.51100000000E-03 0. -1.
        -11    1    4    4    0    0  0.65204892031E+01 -0.30035750295E+01 -0.97045499789E+01  0.12071310325E+02  0.51100000000E-03 0.  1.
         12    1    4    4    0    0  0.12004973205E+02  0.39825600340E+01 -0.28546443956E+02  0.31223062448E+02  0.00000000000E+00 0. -1.
</event>
<event>
 8    1  0.2509217E-006  0.9118800E+02  0.7816164E-02  0.1184000E+00
        -11   -1    0    0    0    0  0.00000000000E+00  0.00000000000E+00  0.45593999997E+02  0.45594000000E+02  0.51100000000E-03 0. -1.
         11   -1    0    0    0    0 -0.00000000000E+00 -0.00000000000E+00 -0.45593999997E+02  0.45594000000E+02  0.51100000000E-03 0.  1.
         23    2    1    2    0    0  0.00000000000E+00  0.00000000000E+00  0.00000000000E+00  0.91188000000E+02  0.91188000000E+02 0.  0.
    9900012    2    3    3    0    0 -0.21677472451E+02  0.19423095506E+02  0.22552386759E+02  0.54367087472E+02  0.40000007510E+02 0.  0.
        -12    1    3    3    0    0  0.21677472451E+02 -0.19423095506E+02 -0.22552386759E+02  0.36820912528E+02  0.00000000000E+00 0.  1.
         11    1    4    4    0    0 -0.14621724347E+02  0.16905766305E+02  0.12059247581E+02  0.25397346509E+02  0.51100000000E-03 0. -1.
        -11    1    4    4    0    0 -0.15389778649E+02 -0.40291265662E+01  0.35488651153E+01  0.16299496668E+02  0.51100000000E-03 0.  1.
        -12    1    4    4    0    0  0.83340305450E+01  0.65464557674E+01  0.69442740629E+01  0.12670244295E+02  0.00000000000E+00 0.  1.
</event>
<event>
 8    1  0.2509217E-006  0.9118800E+02  0.7816164E-02  0.1184000E+00
        -11   -1    0    0    0    0  0.00000000000E+00  0.00000000000E+00  0.45593999997E+02  0.45594000000E+02  0.51100000000E-03 0. -1.
         11   -1    0    0    0    0 -0.00000000000E+00 -0.00000000000E+00 -0.45593999997E+02  0.45594000000E+02  0.51100000000E-03 0.  1.
         23    2    1    2    0    0 -0.35527136788E-14  0.00000000000E+00  0.00000000000E+00  0.91188000000E+02  0.91188000000E+02 0.  0.
    9900012    2    3    3    0    0 -0.21182123718E+02  0.22560152549E+02  0.19953397780E+02  0.54367069387E+02  0.39999966281E+02 0.  0.
        -12    1    3    3    0    0  0.21182123718E+02 -0.22560152549E+02 -0.19953397780E+02  0.36820930613E+02  0.00000000000E+00 0.  1.
         11    1    4    4    0    0  0.79391229855E+01  0.12084809867E+02 -0.15810565921E+01  0.14545516268E+02  0.51100000000E-03 0. -1.
        -11    1    4    4    0    0 -0.16590254738E+02 -0.77442608844E+00  0.96232497454E+01  0.19194874940E+02  0.51100000000E-03 0.  1.
         12    1    4    4    0    0 -0.12530991966E+02  0.11249768771E+02  0.11911204626E+02  0.20626678179E+02  0.00000000000E+00 0. -1.
</event>
<event>
 8    1  0.2509217E-006  0.9118800E+02  0.7816164E-02  0.1184000E+00
        -11   -1    0    0    0    0  0.00000000000E+00  0.00000000000E+00  0.45593999997E+02  0.45594000000E+02  0.51100000000E-03 0. -1.
         11   -1    0    0    0    0 -0.00000000000E+00 -0.00000000000E+00 -0.45593999997E+02  0.45594000000E+02  0.51100000000E-03 0.  1.
         23    2    1    2    0    0 -0.11102230246E-14  0.00000000000E+00  0.00000000000E+00  0.91188000000E+02  0.91188000000E+02 0.  0.
    9900012    2    3    3    0    0 -0.19000513151E+01 -0.86617903308E+01 -0.35737107936E+02  0.54367113396E+02  0.40000066608E+02 0.  0.
         12    1    3    3    0    0  0.19000513151E+01  0.86617903308E+01  0.35737107936E+02  0.36820886604E+02  0.00000000000E+00 0. -1.
         11    1    4    4    0    0  0.86303518260E+01  0.41022099793E+01 -0.20769833841E+01  0.97788015418E+01  0.51100000000E-03 0. -1.
        -11    1    4    4    0    0 -0.79637096754E+01 -0.13545231924E+02 -0.37062294810E+02  0.40255529763E+02  0.51100000000E-03 0.  1.
        -12    1    4    4    0    0 -0.25666934657E+01  0.78123161412E+00  0.34021702581E+01  0.43327820909E+01  0.00000000000E+00 0.  1.
</event>
<event>
 8    1  0.2509217E-006  0.9118800E+02  0.7816164E-02  0.1184000E+00
        -11   -1    0    0    0    0  0.00000000000E+00  0.00000000000E+00  0.45593999997E+02  0.45594000000E+02  0.51100000000E-03 0. -1.
         11   -1    0    0    0    0 -0.00000000000E+00 -0.00000000000E+00 -0.45593999997E+02  0.45594000000E+02  0.51100000000E-03 0.  1.
         23    2    1    2    0    0 -0.71054273576E-14  0.00000000000E+00  0.00000000000E+00  0.91188000000E+02  0.91188000000E+02 0.  0.
    9900012    2    3    3    0    0  0.31515987914E+02  0.17926998957E+02 -0.64143869838E+01  0.54367093627E+02  0.40000021540E+02 0.  0.
         12    1    3    3    0    0 -0.31515987914E+02 -0.17926998957E+02  0.64143869838E+01  0.36820906373E+02  0.00000000000E+00 0. -1.
         11    1    4    4    0    0  0.14463503874E+02  0.12631285773E+01  0.85439306094E+01  0.16845984348E+02  0.51100000000E-03 0.  1.
        -11    1    4    4    0    0 -0.44775645389E+01  0.80863578076E+01 -0.10377182486E+02  0.13896894740E+02  0.51100000000E-03 0. -1.
        -12    1    4    4    0    0  0.21530048578E+02  0.85775125723E+01 -0.45811351068E+01  0.23624214539E+02  0.00000000000E+00 0.  1.
</event>
<event>
 8    1  0.2509217E-006  0.9118800E+02  0.7816164E-02  0.1184000E+00
        -11   -1    0    0    0    0  0.00000000000E+00  0.00000000000E+00  0.45593999997E+02  0.45594000000E+02  0.51100000000E-03 0. -1.
         11   -1    0    0    0    0 -0.00000000000E+00 -0.00000000000E+00 -0.45593999997E+02  0.45594000000E+02  0.51100000000E-03 0.  1.
         23    2    1    2    0    0  0.00000000000E+00 -0.17763568394E-14  0.00000000000E+00  0.91188000000E+02  0.91188000000E+02 0.  0.
    9900012    2    3    3    0    0 -0.11148468676E+02  0.42637482553E+01  0.34832615255E+02  0.54367095767E+02  0.40000026421E+02 0.  0.
        -12    1    3    3    0    0  0.11148468676E+02 -0.42637482553E+01 -0.34832615255E+02  0.36820904233E+02  0.00000000000E+00 0.  1.
         11    1    4    4    0    0 -0.11361008568E+02 -0.22897553397E+01  0.14369349390E+02  0.18460598510E+02  0.51100000000E-03 0. -1.
        -11    1    4    4    0    0 -0.60305297125E+00  0.15564057848E+02  0.24750272483E+01  0.15771154990E+02  0.51100000000E-03 0.  1.
        -12    1    4    4    0    0  0.81559286303E+00 -0.90105542533E+01  0.17988238617E+02  0.20135342267E+02  0.00000000000E+00 0.  1.
</event>
<event>
 8    1  0.2509217E-006  0.9118800E+02  0.7816164E-02  0.1184000E+00
        -11   -1    0    0    0    0  0.00000000000E+00  0.00000000000E+00  0.45593999997E+02  0.45594000000E+02  0.51100000000E-03 0. -1.
         11   -1    0    0    0    0 -0.00000000000E+00 -0.00000000000E+00 -0.45593999997E+02  0.45594000000E+02  0.51100000000E-03 0.  1.
         23    2    1    2    0    0  0.00000000000E+00 -0.35527136788E-14  0.00000000000E+00  0.91188000000E+02  0.91188000000E+02 0.  0.
    9900012    2    3    3    0    0 -0.31206745684E+02 -0.17496815954E+02 -0.87055386823E+01  0.54367001257E+02  0.39999810965E+02 0.  0.
         12    1    3    3    0    0  0.31206745684E+02  0.17496815954E+02  0.87055386823E+01  0.36820998743E+02  0.00000000000E+00 0. -1.
         11    1    4    4    0    0 -0.75039618612E+01 -0.26962763707E+02 -0.57202533814E+01  0.28566087750E+02  0.51100000000E-03 0. -1.
        -11    1    4    4    0    0 -0.13022522606E+01  0.98316275833E-01 -0.48107445224E+00  0.13917470784E+01  0.51100000000E-03 0.  1.
         12    1    4    4    0    0 -0.22400531562E+02  0.93676314773E+01 -0.25042108486E+01  0.24409166429E+02  0.00000000000E+00 0. -1.
</event>
<event>
 8    1  0.2509217E-006  0.9118800E+02  0.7816164E-02  0.1184000E+00
        -11   -1    0    0    0    0  0.00000000000E+00  0.00000000000E+00  0.45593999997E+02  0.45594000000E+02  0.51100000000E-03 0. -1.
         11   -1    0    0    0    0 -0.00000000000E+00 -0.00000000000E+00 -0.45593999997E+02  0.45594000000E+02  0.51100000000E-03 0.  1.
         23    2    1    2    0    0  0.88817841970E-15  0.00000000000E+00  0.00000000000E+00  0.91188000000E+02  0.91188000000E+02 0.  0.
    9900012    2    3    3    0    0 -0.62484587879E+01  0.14332264530E+02 -0.33336508183E+02  0.54367084455E+02  0.40000000631E+02 0.  0.
         12    1    3    3    0    0  0.62484587879E+01 -0.14332264530E+02  0.33336508183E+02  0.36820915545E+02  0.00000000000E+00 0. -1.
         11    1    4    4    0    0  0.25931262820E+01 -0.59766761200E+01 -0.69692489280E+01  0.95401987526E+01  0.51100000000E-03 0. -1.
        -11    1    4    4    0    0 -0.69738968741E+01  0.37591658637E+01 -0.27021734843E+02  0.28159203110E+02  0.51100000000E-03 0.  1.
         12    1    4    4    0    0 -0.18676881957E+01  0.16549774787E+02  0.65447558859E+00  0.16667682592E+02  0.00000000000E+00 0. -1.
</event>
<event>
 8    1  0.2509217E-006  0.9118800E+02  0.7816164E-02  0.1184000E+00
        -11   -1    0    0    0    0  0.00000000000E+00  0.00000000000E+00  0.45593999997E+02  0.45594000000E+02  0.51100000000E-03 0.  1.
         11   -1    0    0    0    0 -0.00000000000E+00 -0.00000000000E+00 -0.45593999997E+02  0.45594000000E+02  0.51100000000E-03 0. -1.
         23    2    1    2    0    0  0.00000000000E+00  0.00000000000E+00  0.17763568394E-14  0.91188000000E+02  0.91188000000E+02 0.  0.
    9900012    2    3    3    0    0 -0.31906579350E+02  0.12299875057E+02  0.13655208947E+02  0.54367062157E+02  0.39999949799E+02 0.  0.
         12    1    3    3    0    0  0.31906579350E+02 -0.12299875057E+02 -0.13655208947E+02  0.36820937843E+02  0.00000000000E+00 0. -1.
         11    1    4    4    0    0 -0.64838134307E+01  0.82012166044E+01 -0.58361077507E+01  0.11973301313E+02  0.51100000000E-03 0. -1.
        -11    1    4    4    0    0 -0.14545032151E+02  0.15134878625E+02  0.16290523147E+02  0.26570729307E+02  0.51100000000E-03 0.  1.
         12    1    4    4    0    0 -0.10877733769E+02 -0.11036220173E+02  0.32007935506E+01  0.15823031536E+02  0.00000000000E+00 0. -1.
</event>
<event>
 8    1  0.2509217E-006  0.9118800E+02  0.7816164E-02  0.1184000E+00
        -11   -1    0    0    0    0  0.00000000000E+00  0.00000000000E+00  0.45593999997E+02  0.45594000000E+02  0.51100000000E-03 0.  1.
         11   -1    0    0    0    0 -0.00000000000E+00 -0.00000000000E+00 -0.45593999997E+02  0.45594000000E+02  0.51100000000E-03 0. -1.
         23    2    1    2    0    0  0.00000000000E+00  0.00000000000E+00 -0.44408920985E-15  0.91188000000E+02  0.91188000000E+02 0.  0.
    9900012    2    3    3    0    0 -0.32606164481E+02 -0.17020320169E+02  0.17105985069E+01  0.54367090070E+02  0.40000013432E+02 0.  0.
        -12    1    3    3    0    0  0.32606164481E+02  0.17020320169E+02 -0.17105985069E+01  0.36820909930E+02  0.00000000000E+00 0.  1.
         11    1    4    4    0    0  0.39356176408E+00 -0.10443154646E+02 -0.94445001557E+00  0.10493157576E+02  0.51100000000E-03 0.  1.
        -11    1    4    4    0    0 -0.10550649914E+02 -0.15488918161E+02  0.55557651782E+01  0.19547105320E+02  0.51100000000E-03 0. -1.
        -12    1    4    4    0    0 -0.22449076332E+02  0.89117526380E+01 -0.29007166557E+01  0.24326827174E+02  0.00000000000E+00 0.  1.
</event>
<event>
 8    1  0.2509217E-006  0.9118800E+02  0.7816164E-02  0.1184000E+00
        -11   -1    0    0    0    0  0.00000000000E+00  0.00000000000E+00  0.45593999997E+02  0.45594000000E+02  0.51100000000E-03 0. -1.
         11   -1    0    0    0    0 -0.00000000000E+00 -0.00000000000E+00 -0.45593999997E+02  0.45594000000E+02  0.51100000000E-03 0.  1.
         23    2    1    2    0    0 -0.35527136788E-14  0.00000000000E+00  0.71054273576E-14  0.91188000000E+02  0.91188000000E+02 0.  0.
    9900012    2    3    3    0    0  0.91429366859E+01  0.20690559836E+01 -0.35607662277E+02  0.54367083435E+02  0.39999998306E+02 0.  0.
         12    1    3    3    0    0 -0.91429366859E+01 -0.20690559836E+01  0.35607662277E+02  0.36820916565E+02  0.00000000000E+00 0. -1.
         11    1    4    4    0    0 -0.67526984717E+00  0.21015588817E+01 -0.39319399126E+00  0.22421286484E+01  0.51100000000E-03 0. -1.
        -11    1    4    4    0    0 -0.43734178316E+01  0.21363966274E+01 -0.37301433990E+02  0.37617654792E+02  0.51100000000E-03 0.  1.
         12    1    4    4    0    0  0.14191624365E+02 -0.21688995255E+01  0.20869657052E+01  0.14507299994E+02  0.00000000000E+00 0. -1.
</event>
<event>
 8    1  0.2509217E-006  0.9118800E+02  0.7816164E-02  0.1184000E+00
        -11   -1    0    0    0    0  0.00000000000E+00  0.00000000000E+00  0.45593999997E+02  0.45594000000E+02  0.51100000000E-03 0.  1.
         11   -1    0    0    0    0 -0.00000000000E+00 -0.00000000000E+00 -0.45593999997E+02  0.45594000000E+02  0.51100000000E-03 0. -1.
         23    2    1    2    0    0  0.88817841970E-15  0.35527136788E-14  0.00000000000E+00  0.91188000000E+02  0.91188000000E+02 0.  0.
    9900012    2    3    3    0    0 -0.50698880403E+01 -0.29866068194E+02 -0.20930691356E+02  0.54367086991E+02  0.40000006414E+02 0.  0.
        -12    1    3    3    0    0  0.50698880403E+01  0.29866068194E+02  0.20930691356E+02  0.36820913009E+02  0.00000000000E+00 0.  1.
         11    1    4    4    0    0 -0.28586032464E+00 -0.17245269111E+02 -0.85393096115E+01  0.19245800366E+02  0.51100000000E-03 0. -1.
        -11    1    4    4    0    0 -0.14387529149E+02 -0.12289221122E+02  0.63727990199E+00  0.18932302468E+02  0.51100000000E-03 0.  1.
        -12    1    4    4    0    0  0.96035014337E+01 -0.33157796119E+00 -0.13028661647E+02  0.16188984157E+02  0.00000000000E+00 0.  1.
</event>
<event>
 8    1  0.2509217E-006  0.9118800E+02  0.7816164E-02  0.1184000E+00
        -11   -1    0    0    0    0  0.00000000000E+00  0.00000000000E+00  0.45593999997E+02  0.45594000000E+02  0.51100000000E-03 0. -1.
         11   -1    0    0    0    0 -0.00000000000E+00 -0.00000000000E+00 -0.45593999997E+02  0.45594000000E+02  0.51100000000E-03 0.  1.
         23    2    1    2    0    0  0.00000000000E+00  0.71054273576E-14  0.00000000000E+00  0.91188000000E+02  0.91188000000E+02 0.  0.
    9900012    2    3    3    0    0 -0.20932600706E+02 -0.27260105086E+02 -0.13209558078E+02  0.54367088466E+02  0.40000009776E+02 0.  0.
        -12    1    3    3    0    0  0.20932600706E+02  0.27260105086E+02  0.13209558078E+02  0.36820911534E+02  0.00000000000E+00 0.  1.
         11    1    4    4    0    0 -0.91437350396E+01 -0.19279162697E+02 -0.49023932470E+01  0.21893548470E+02  0.51100000000E-03 0. -1.
        -11    1    4    4    0    0 -0.19064299370E+00 -0.58602868021E+01  0.94721137064E+01  0.11140028926E+02  0.51100000000E-03 0.  1.
        -12    1    4    4    0    0 -0.11598222672E+02 -0.21206555867E+01 -0.17779278537E+02  0.21333511070E+02  0.00000000000E+00 0.  1.
</event>
<event>
 8    1  0.2509217E-006  0.9118800E+02  0.7816164E-02  0.1184000E+00
        -11   -1    0    0    0    0  0.00000000000E+00  0.00000000000E+00  0.45593999997E+02  0.45594000000E+02  0.51100000000E-03 0. -1.
         11   -1    0    0    0    0 -0.00000000000E+00 -0.00000000000E+00 -0.45593999997E+02  0.45594000000E+02  0.51100000000E-03 0.  1.
         23    2    1    2    0    0  0.00000000000E+00  0.00000000000E+00 -0.35527136788E-14  0.91188000000E+02  0.91188000000E+02 0.  0.
    9900012    2    3    3    0    0 -0.10964456780E+02 -0.25187270990E+02  0.24518589829E+02  0.54367093172E+02  0.40000020505E+02 0.  0.
        -12    1    3    3    0    0  0.10964456780E+02  0.25187270990E+02 -0.24518589829E+02  0.36820906828E+02  0.00000000000E+00 0.  1.
         11    1    4    4    0    0 -0.10592664596E+02 -0.30585515801E+02  0.21150882769E+02  0.38665723350E+02  0.51100000000E-03 0. -1.
        -11    1    4    4    0    0  0.22111564181E+01 -0.28899225659E+01 -0.31761322060E+01  0.48299773492E+01  0.51100000000E-03 0.  1.
         12    1    4    4    0    0 -0.25829486026E+01  0.82881673769E+01  0.65438392662E+01  0.10871392473E+02  0.00000000000E+00 0. -1.
</event>
<event>
 8    1  0.2509217E-006  0.9118800E+02  0.7816164E-02  0.1184000E+00
        -11   -1    0    0    0    0  0.00000000000E+00  0.00000000000E+00  0.45593999997E+02  0.45594000000E+02  0.51100000000E-03 0.  1.
         11   -1    0    0    0    0 -0.00000000000E+00 -0.00000000000E+00 -0.45593999997E+02  0.45594000000E+02  0.51100000000E-03 0. -1.
         23    2    1    2    0    0  0.00000000000E+00  0.00000000000E+00  0.17763568394E-14  0.91188000000E+02  0.91188000000E+02 0.  0.
    9900012    2    3    3    0    0  0.34614854745E+02 -0.12177433027E+02  0.30493160153E+01  0.54367131293E+02  0.40000107409E+02 0.  0.
        -12    1    3    3    0    0 -0.34614854745E+02  0.12177433027E+02 -0.30493160153E+01  0.36820868707E+02  0.00000000000E+00 0.  1.
         11    1    4    4    0    0  0.28228256650E+02 -0.13144294612E+02  0.85619720755E+01  0.32294184004E+02  0.51100000000E-03 0. -1.
        -11    1    4    4    0    0  0.90624560269E+01  0.41950431625E+01  0.46970250729E+01  0.11035784574E+02  0.51100000000E-03 0.  1.
         12    1    4    4    0    0 -0.26758579322E+01 -0.32281815772E+01 -0.10209681133E+02  0.11037162715E+02  0.00000000000E+00 0. -1.
</event>
<event>
 8    1  0.2509217E-006  0.9118800E+02  0.7816164E-02  0.1184000E+00
        -11   -1    0    0    0    0  0.00000000000E+00  0.00000000000E+00  0.45593999997E+02  0.45594000000E+02  0.51100000000E-03 0.  1.
         11   -1    0    0    0    0 -0.00000000000E+00 -0.00000000000E+00 -0.45593999997E+02  0.45594000000E+02  0.51100000000E-03 0. -1.
         23    2    1    2    0    0 -0.17763568394E-14  0.00000000000E+00  0.00000000000E+00  0.91188000000E+02  0.91188000000E+02 0.  0.
    9900012    2    3    3    0    0 -0.21671827224E+01 -0.24276937537E+02 -0.27599169884E+02  0.54367074490E+02  0.39999977915E+02 0.  0.
        -12    1    3    3    0    0  0.21671827224E+01  0.24276937537E+02  0.27599169884E+02  0.36820925510E+02  0.00000000000E+00 0.  1.
         11    1    4    4    0    0 -0.59936154722E+01 -0.50222388704E+01 -0.20029054773E+02  0.21501380073E+02  0.51100000000E-03 0. -1.
        -11    1    4    4    0    0  0.12531703535E+02 -0.87638767894E+01 -0.10965036337E+02  0.18817044189E+02  0.51100000000E-03 0.  1.
        -12    1    4    4    0    0 -0.87052707848E+01 -0.10490821877E+02  0.33949212262E+01  0.14048650228E+02  0.00000000000E+00 0.  1.
</event>
<event>
 8    1  0.2509217E-006  0.9118800E+02  0.7816164E-02  0.1184000E+00
        -11   -1    0    0    0    0  0.00000000000E+00  0.00000000000E+00  0.45593999997E+02  0.45594000000E+02  0.51100000000E-03 0.  1.
         11   -1    0    0    0    0 -0.00000000000E+00 -0.00000000000E+00 -0.45593999997E+02  0.45594000000E+02  0.51100000000E-03 0. -1.
         23    2    1    2    0    0  0.00000000000E+00  0.00000000000E+00 -0.35527136788E-14  0.91188000000E+02  0.91188000000E+02 0.  0.
    9900012    2    3    3    0    0 -0.96504087779E+01  0.19487747982E+02 -0.29713219370E+02  0.54367107610E+02  0.40000053420E+02 0.  0.
        -12    1    3    3    0    0  0.96504087779E+01 -0.19487747982E+02  0.29713219370E+02  0.36820892390E+02  0.00000000000E+00 0.  1.
         11    1    4    4    0    0 -0.41539687557E+01 -0.21440793769E+01 -0.54914207259E+01  0.72116734984E+01  0.51100000000E-03 0. -1.
        -11    1    4    4    0    0 -0.16202903620E+02  0.96087945495E+01 -0.95516454830E+00  0.18862008323E+02  0.51100000000E-03 0.  1.
         12    1    4    4    0    0  0.10706463597E+02  0.12023032810E+02 -0.23266634096E+02  0.28293425789E+02  0.00000000000E+00 0. -1.
</event>
<event>
 8    1  0.2509217E-006  0.9118800E+02  0.7816164E-02  0.1184000E+00
        -11   -1    0    0    0    0  0.00000000000E+00  0.00000000000E+00  0.45593999997E+02  0.45594000000E+02  0.51100000000E-03 0. -1.
         11   -1    0    0    0    0 -0.00000000000E+00 -0.00000000000E+00 -0.45593999997E+02  0.45594000000E+02  0.51100000000E-03 0.  1.
         23    2    1    2    0    0  0.00000000000E+00  0.00000000000E+00 -0.17763568394E-14  0.91188000000E+02  0.91188000000E+02 0.  0.
    9900012    2    3    3    0    0 -0.90253804851E+01 -0.34465988098E+02 -0.92962074268E+01  0.54367064366E+02  0.39999954834E+02 0.  0.
         12    1    3    3    0    0  0.90253804851E+01  0.34465988098E+02  0.92962074268E+01  0.36820935634E+02  0.00000000000E+00 0. -1.
         11    1    4    4    0    0 -0.28481010471E+01 -0.21023779503E+02 -0.16830680349E+02  0.27081041069E+02  0.51100000000E-03 0.  1.
        -11    1    4    4    0    0 -0.49580063541E+01  0.53785264568E+01  0.13567040715E+01  0.74398266144E+01  0.51100000000E-03 0. -1.
        -12    1    4    4    0    0 -0.12192730839E+01 -0.18820735052E+02  0.61777688503E+01  0.19846196682E+02  0.00000000000E+00 0.  1.
</event>
<event>
 8    1  0.2509217E-006  0.9118800E+02  0.7816164E-02  0.1184000E+00
        -11   -1    0    0    0    0  0.00000000000E+00  0.00000000000E+00  0.45593999997E+02  0.45594000000E+02  0.51100000000E-03 0. -1.
         11   -1    0    0    0    0 -0.00000000000E+00 -0.00000000000E+00 -0.45593999997E+02  0.45594000000E+02  0.51100000000E-03 0.  1.
         23    2    1    2    0    0 -0.35527136788E-14  0.00000000000E+00  0.00000000000E+00  0.91188000000E+02  0.91188000000E+02 0.  0.
    9900012    2    3    3    0    0  0.26538187756E+02 -0.15700017208E+02  0.20124938410E+02  0.54367094312E+02  0.40000023102E+02 0.  0.
        -12    1    3    3    0    0 -0.26538187756E+02  0.15700017208E+02 -0.20124938410E+02  0.36820905688E+02  0.00000000000E+00 0.  1.
         11    1    4    4    0    0  0.27056221480E+02 -0.89378222984E+01  0.76739360227E+00  0.28504608074E+02  0.51100000000E-03 0. -1.
        -11    1    4    4    0    0 -0.38380169375E+01 -0.10861872591E+02  0.15569233263E+02  0.19367799949E+02  0.51100000000E-03 0.  1.
        -12    1    4    4    0    0  0.33199832130E+01  0.40996776819E+01  0.37883115457E+01  0.64946862894E+01  0.00000000000E+00 0.  1.
</event>
<event>
 8    1  0.2509217E-006  0.9118800E+02  0.7816164E-02  0.1184000E+00
        -11   -1    0    0    0    0  0.00000000000E+00  0.00000000000E+00  0.45593999997E+02  0.45594000000E+02  0.51100000000E-03 0.  1.
         11   -1    0    0    0    0 -0.00000000000E+00 -0.00000000000E+00 -0.45593999997E+02  0.45594000000E+02  0.51100000000E-03 0. -1.
         23    2    1    2    0    0 -0.35527136788E-14 -0.35527136788E-14  0.88817841970E-15  0.91188000000E+02  0.91188000000E+02 0.  0.
    9900012    2    3    3    0    0  0.24993403130E+02  0.26376261849E+02 -0.59500776074E+01  0.54367070997E+02  0.39999969952E+02 0.  0.
        -12    1    3    3    0    0 -0.24993403130E+02 -0.26376261849E+02  0.59500776074E+01  0.36820929003E+02  0.00000000000E+00 0.  1.
         11    1    4    4    0    0  0.17741628149E+02  0.35871446451E+01 -0.18947762972E+01  0.18199537180E+02  0.51100000000E-03 0. -1.
        -11    1    4    4    0    0  0.15992379905E+02  0.18502887374E+02 -0.79002939845E+01  0.25700733481E+02  0.51100000000E-03 0.  1.
        -12    1    4    4    0    0 -0.87406049243E+01  0.42862298301E+01  0.38449926744E+01  0.10466800336E+02  0.00000000000E+00 0.  1.
</event>
<event>
 8    1  0.2509217E-006  0.9118800E+02  0.7816164E-02  0.1184000E+00
        -11   -1    0    0    0    0  0.00000000000E+00  0.00000000000E+00  0.45593999997E+02  0.45594000000E+02  0.51100000000E-03 0. -1.
         11   -1    0    0    0    0 -0.00000000000E+00 -0.00000000000E+00 -0.45593999997E+02  0.45594000000E+02  0.51100000000E-03 0.  1.
         23    2    1    2    0    0 -0.14432899320E-14  0.88817841970E-15  0.71054273576E-14  0.91188000000E+02  0.91188000000E+02 0.  0.
    9900012    2    3    3    0    0  0.66423032082E+00 -0.34757466399E+01 -0.36650492429E+02  0.54367073722E+02  0.39999976165E+02 0.  0.
         12    1    3    3    0    0 -0.66423032082E+00  0.34757466399E+01  0.36650492429E+02  0.36820926278E+02  0.00000000000E+00 0. -1.
         11    1    4    4    0    0  0.11286980977E+02 -0.38006411256E+01 -0.16704292858E+01  0.12026269030E+02  0.51100000000E-03 0. -1.
        -11    1    4    4    0    0  0.84384805570E+00  0.61384322607E+01 -0.25825338794E+02  0.26558248328E+02  0.51100000000E-03 0.  1.
         12    1    4    4    0    0 -0.11466598711E+02 -0.58135377750E+01 -0.91547243500E+01  0.15782556364E+02  0.00000000000E+00 0. -1.
</event>
<event>
 8    1  0.2509217E-006  0.9118800E+02  0.7816164E-02  0.1184000E+00
        -11   -1    0    0    0    0  0.00000000000E+00  0.00000000000E+00  0.45593999997E+02  0.45594000000E+02  0.51100000000E-03 0. -1.
         11   -1    0    0    0    0 -0.00000000000E+00 -0.00000000000E+00 -0.45593999997E+02  0.45594000000E+02  0.51100000000E-03 0.  1.
         23    2    1    2    0    0  0.00000000000E+00  0.00000000000E+00  0.22204460493E-15  0.91188000000E+02  0.91188000000E+02 0.  0.
    9900012    2    3    3    0    0 -0.12518293002E+01  0.36792898774E+02 -0.70353468101E+00  0.54367089665E+02  0.40000012510E+02 0.  0.
         12    1    3    3    0    0  0.12518293002E+01 -0.36792898774E+02  0.70353468101E+00  0.36820910335E+02  0.00000000000E+00 0. -1.
         11    1    4    4    0    0 -0.10193622168E+02  0.12061652610E+01  0.56084545488E+01  0.11696988083E+02  0.51100000000E-03 0. -1.
        -11    1    4    4    0    0  0.11431644823E+02  0.68045338699E+01 -0.16184481105E+01  0.13401625241E+02  0.51100000000E-03 0.  1.
         12    1    4    4    0    0 -0.24898519558E+01  0.28782199644E+02 -0.46935411193E+01  0.29268476341E+02  0.00000000000E+00 0. -1.
</event>
<event>
 8    1  0.2509217E-006  0.9118800E+02  0.7816164E-02  0.1184000E+00
        -11   -1    0    0    0    0  0.00000000000E+00  0.00000000000E+00  0.45593999997E+02  0.45594000000E+02  0.51100000000E-03 0.  1.
         11   -1    0    0    0    0 -0.00000000000E+00 -0.00000000000E+00 -0.45593999997E+02  0.45594000000E+02  0.51100000000E-03 0. -1.
         23    2    1    2    0    0  0.00000000000E+00  0.00000000000E+00  0.00000000000E+00  0.91188000000E+02  0.91188000000E+02 0.  0.
    9900012    2    3    3    0    0  0.28743053763E+02 -0.11900204609E+02  0.19697740597E+02  0.54367095693E+02  0.40000026252E+02 0.  0.
         12    1    3    3    0    0 -0.28743053763E+02  0.11900204609E+02 -0.19697740597E+02  0.36820904307E+02  0.00000000000E+00 0. -1.
         11    1    4    4    0    0  0.27339794824E+02 -0.87394050861E+01  0.90443674836E+01  0.30093889176E+02  0.51100000000E-03 0. -1.
        -11    1    4    4    0    0  0.47665228421E+01 -0.11687246417E+02  0.56226497647E+01  0.13817585153E+02  0.51100000000E-03 0.  1.
         12    1    4    4    0    0 -0.33632639036E+01  0.85264468938E+01  0.50307233484E+01  0.10455621365E+02  0.00000000000E+00 0. -1.
</event>
<event>
 8    1  0.2509217E-006  0.9118800E+02  0.7816164E-02  0.1184000E+00
        -11   -1    0    0    0    0  0.00000000000E+00  0.00000000000E+00  0.45593999997E+02  0.45594000000E+02  0.51100000000E-03 0. -1.
         11   -1    0    0    0    0 -0.00000000000E+00 -0.00000000000E+00 -0.45593999997E+02  0.45594000000E+02  0.51100000000E-03 0.  1.
         23    2    1    2    0    0  0.00000000000E+00 -0.35527136788E-14  0.00000000000E+00  0.91188000000E+02  0.91188000000E+02 0.  0.
    9900012    2    3    3    0    0  0.99985382487E+01  0.23588777707E+02  0.26445775104E+02  0.54367079022E+02  0.39999988246E+02 0.  0.
         12    1    3    3    0    0 -0.99985382487E+01 -0.23588777707E+02 -0.26445775104E+02  0.36820920978E+02  0.00000000000E+00 0. -1.
         11    1    4    4    0    0  0.72919373585E+01  0.83984505736E+01  0.10795380755E+02  0.15499889303E+02  0.51100000000E-03 0. -1.
        -11    1    4    4    0    0  0.42558096356E+01  0.19966384142E+02 -0.20036592295E+01  0.20512997391E+02  0.51100000000E-03 0.  1.
         12    1    4    4    0    0 -0.15492087454E+01 -0.47760570087E+01  0.17654053578E+02  0.18354192329E+02  0.00000000000E+00 0. -1.
</event>
<event>
 8    1  0.2509217E-006  0.9118800E+02  0.7816164E-02  0.1184000E+00
        -11   -1    0    0    0    0  0.00000000000E+00  0.00000000000E+00  0.45593999997E+02  0.45594000000E+02  0.51100000000E-03 0. -1.
         11   -1    0    0    0    0 -0.00000000000E+00 -0.00000000000E+00 -0.45593999997E+02  0.45594000000E+02  0.51100000000E-03 0.  1.
         23    2    1    2    0    0  0.00000000000E+00  0.00000000000E+00  0.17763568394E-14  0.91188000000E+02  0.91188000000E+02 0.  0.
    9900012    2    3    3    0    0  0.41558091782E+01 -0.35640118124E+02  0.82637564946E+01  0.54367103199E+02  0.40000043363E+02 0.  0.
        -12    1    3    3    0    0 -0.41558091782E+01  0.35640118124E+02 -0.82637564946E+01  0.36820896801E+02  0.00000000000E+00 0.  1.
         11    1    4    4    0    0  0.46923686925E+01 -0.57741113289E+01  0.41602232771E+01  0.85244438857E+01  0.51100000000E-03 0. -1.
        -11    1    4    4    0    0  0.92227150265E+01 -0.33833001017E+02  0.21923670588E+01  0.35135977343E+02  0.51100000000E-03 0.  1.
        -12    1    4    4    0    0 -0.97592745408E+01  0.39669942221E+01  0.19111661587E+01  0.10706681970E+02  0.00000000000E+00 0.  1.
</event>
<event>
 8    1  0.2509217E-006  0.9118800E+02  0.7816164E-02  0.1184000E+00
        -11   -1    0    0    0    0  0.00000000000E+00  0.00000000000E+00  0.45593999997E+02  0.45594000000E+02  0.51100000000E-03 0.  1.
         11   -1    0    0    0    0 -0.00000000000E+00 -0.00000000000E+00 -0.45593999997E+02  0.45594000000E+02  0.51100000000E-03 0. -1.
         23    2    1    2    0    0  0.00000000000E+00 -0.35527136788E-14  0.00000000000E+00  0.91188000000E+02  0.91188000000E+02 0.  0.
    9900012    2    3    3    0    0  0.55083217793E+01  0.24573349815E+02  0.26862372587E+02  0.54367106597E+02  0.40000051109E+02 0.  0.
         12    1    3    3    0    0 -0.55083217793E+01 -0.24573349815E+02 -0.26862372587E+02  0.36820893403E+02  0.00000000000E+00 0. -1.
         11    1    4    4    0    0  0.43565591479E+01 -0.89932814572E+01  0.16560642339E+01  0.10129228400E+02  0.51100000000E-03 0. -1.
        -11    1    4    4    0    0 -0.33080452917E+01  0.18439499130E+02  0.20520160620E+02  0.27785522920E+02  0.51100000000E-03 0.  1.
         12    1    4    4    0    0  0.44598079230E+01  0.15127132143E+02  0.46861477334E+01  0.16452355277E+02  0.00000000000E+00 0. -1.
</event>
<event>
 8    1  0.2509217E-006  0.9118800E+02  0.7816164E-02  0.1184000E+00
        -11   -1    0    0    0    0  0.00000000000E+00  0.00000000000E+00  0.45593999997E+02  0.45594000000E+02  0.51100000000E-03 0.  1.
         11   -1    0    0    0    0 -0.00000000000E+00 -0.00000000000E+00 -0.45593999997E+02  0.45594000000E+02  0.51100000000E-03 0. -1.
         23    2    1    2    0    0  0.00000000000E+00 -0.17763568394E-14 -0.35527136788E-14  0.91188000000E+02  0.91188000000E+02 0.  0.
    9900012    2    3    3    0    0  0.26298255085E+02  0.15950668441E+02  0.20242429385E+02  0.54367109304E+02  0.40000057281E+02 0.  0.
         12    1    3    3    0    0 -0.26298255085E+02 -0.15950668441E+02 -0.20242429385E+02  0.36820890696E+02  0.00000000000E+00 0. -1.
         11    1    4    4    0    0  0.11013669993E+02  0.16896360503E+02 -0.79772820012E+01  0.21689281993E+02  0.51100000000E-03 0. -1.
        -11    1    4    4    0    0  0.13929425212E+02  0.11497005190E+01  0.23659477079E+02  0.27479475139E+02  0.51100000000E-03 0.  1.
         12    1    4    4    0    0  0.13551598799E+01 -0.20953925812E+01  0.45602343073E+01  0.51983521723E+01  0.00000000000E+00 0. -1.
</event>
<event>
 8    1  0.2509217E-006  0.9118800E+02  0.7816164E-02  0.1184000E+00
        -11   -1    0    0    0    0  0.00000000000E+00  0.00000000000E+00  0.45593999997E+02  0.45594000000E+02  0.51100000000E-03 0. -1.
         11   -1    0    0    0    0 -0.00000000000E+00 -0.00000000000E+00 -0.45593999997E+02  0.45594000000E+02  0.51100000000E-03 0.  1.
         23    2    1    2    0    0  0.35527136788E-14  0.00000000000E+00 -0.35527136788E-14  0.91188000000E+02  0.91188000000E+02 0.  0.
    9900012    2    3    3    0    0 -0.27241093471E+02  0.10177739812E+02  0.22585690006E+02  0.54367123391E+02  0.40000089395E+02 0.  0.
        -12    1    3    3    0    0  0.27241093471E+02 -0.10177739812E+02 -0.22585690006E+02  0.36820876609E+02  0.00000000000E+00 0.  1.
         11    1    4    4    0    0 -0.23178827486E+02  0.61278183809E+01  0.26090357959E+02  0.35433246824E+02  0.51100000000E-03 0. -1.
        -11    1    4    4    0    0 -0.95694053237E+01  0.70280658742E+01 -0.24540734550E+00  0.11875498019E+02  0.51100000000E-03 0.  1.
        -12    1    4    4    0    0  0.55071393387E+01 -0.29781444435E+01 -0.32592606081E+01  0.70583785485E+01  0.00000000000E+00 0.  1.
</event>
<event>
 8    1  0.2509217E-006  0.9118800E+02  0.7816164E-02  0.1184000E+00
        -11   -1    0    0    0    0  0.00000000000E+00  0.00000000000E+00  0.45593999997E+02  0.45594000000E+02  0.51100000000E-03 0.  1.
         11   -1    0    0    0    0 -0.00000000000E+00 -0.00000000000E+00 -0.45593999997E+02  0.45594000000E+02  0.51100000000E-03 0. -1.
         23    2    1    2    0    0  0.00000000000E+00  0.00000000000E+00  0.17763568394E-14  0.91188000000E+02  0.91188000000E+02 0.  0.
    9900012    2    3    3    0    0 -0.10740868447E+02  0.33146515299E+02  0.11904702314E+02  0.54367086532E+02  0.40000005366E+02 0.  0.
         12    1    3    3    0    0  0.10740868447E+02 -0.33146515299E+02 -0.11904702314E+02  0.36820913468E+02  0.00000000000E+00 0. -1.
         11    1    4    4    0    0 -0.10011715265E+02  0.12260555124E+02  0.21180224229E+02  0.26441587568E+02  0.51100000000E-03 0. -1.
        -11    1    4    4    0    0 -0.74475357303E+01  0.15311078103E+02 -0.32920311248E+01  0.17341636899E+02  0.51100000000E-03 0.  1.
         12    1    4    4    0    0  0.67183825482E+01  0.55748820715E+01 -0.59834907895E+01  0.10583862065E+02  0.00000000000E+00 0. -1.
</event>
<event>
 8    1  0.2509217E-006  0.9118800E+02  0.7816164E-02  0.1184000E+00
        -11   -1    0    0    0    0  0.00000000000E+00  0.00000000000E+00  0.45593999997E+02  0.45594000000E+02  0.51100000000E-03 0. -1.
         11   -1    0    0    0    0 -0.00000000000E+00 -0.00000000000E+00 -0.45593999997E+02  0.45594000000E+02  0.51100000000E-03 0.  1.
         23    2    1    2    0    0 -0.13322676296E-14 -0.35527136788E-14  0.71054273576E-14  0.91188000000E+02  0.91188000000E+02 0.  0.
    9900012    2    3    3    0    0 -0.24593869705E+01 -0.20127900749E+02  0.30734332820E+02  0.54367079496E+02  0.39999989328E+02 0.  0.
        -12    1    3    3    0    0  0.24593869705E+01  0.20127900749E+02 -0.30734332820E+02  0.36820920504E+02  0.00000000000E+00 0.  1.
         11    1    4    4    0    0  0.75420358787E+01 -0.18161574666E+02  0.32748988292E+02  0.38199755679E+02  0.51100000000E-03 0. -1.
        -11    1    4    4    0    0  0.16964952232E+01 -0.21296310291E+01 -0.34340465200E+01  0.43824764832E+01  0.51100000000E-03 0.  1.
        -12    1    4    4    0    0 -0.11697918072E+02  0.16330494611E+00  0.14193910484E+01  0.11784847334E+02  0.00000000000E+00 0.  1.
</event>
<event>
 8    1  0.2509217E-006  0.9118800E+02  0.7816164E-02  0.1184000E+00
        -11   -1    0    0    0    0  0.00000000000E+00  0.00000000000E+00  0.45593999997E+02  0.45594000000E+02  0.51100000000E-03 0. -1.
         11   -1    0    0    0    0 -0.00000000000E+00 -0.00000000000E+00 -0.45593999997E+02  0.45594000000E+02  0.51100000000E-03 0.  1.
         23    2    1    2    0    0  0.00000000000E+00  0.00000000000E+00 -0.88817841970E-15  0.91188000000E+02  0.91188000000E+02 0.  0.
    9900012    2    3    3    0    0 -0.29858095631E+02 -0.21214555979E+02  0.37699946920E+01  0.54367134719E+02  0.40000115219E+02 0.  0.
        -12    1    3    3    0    0  0.29858095631E+02  0.21214555979E+02 -0.37699946920E+01  0.36820865281E+02  0.00000000000E+00 0.  1.
         11    1    4    4    0    0  0.37409784624E+00 -0.63846051079E+01  0.66924610028E+01  0.92570063259E+01  0.51100000000E-03 0. -1.
        -11    1    4    4    0    0 -0.33980850226E+02 -0.11694452397E+02  0.45059657043E+01  0.36218256807E+02  0.51100000000E-03 0.  1.
        -12    1    4    4    0    0  0.37486567489E+01 -0.31354984741E+01 -0.74284320151E+01  0.88918715862E+01  0.00000000000E+00 0.  1.
</event>
<event>
 8    1  0.2509217E-006  0.9118800E+02  0.7816164E-02  0.1184000E+00
        -11   -1    0    0    0    0  0.00000000000E+00  0.00000000000E+00  0.45593999997E+02  0.45594000000E+02  0.51100000000E-03 0.  1.
         11   -1    0    0    0    0 -0.00000000000E+00 -0.00000000000E+00 -0.45593999997E+02  0.45594000000E+02  0.51100000000E-03 0. -1.
         23    2    1    2    0    0  0.17763568394E-14 -0.35527136788E-14  0.17763568394E-14  0.91188000000E+02  0.91188000000E+02 0.  0.
    9900012    2    3    3    0    0 -0.15267514528E+02  0.29727931698E+02 -0.15457452168E+02  0.54367085421E+02  0.40000002835E+02 0.  0.
        -12    1    3    3    0    0  0.15267514528E+02 -0.29727931698E+02  0.15457452168E+02  0.36820914579E+02  0.00000000000E+00 0.  1.
         11    1    4    4    0    0 -0.13004243552E+02  0.23995763700E+02 -0.15564140535E+02  0.31418935322E+02  0.51100000000E-03 0. -1.
        -11    1    4    4    0    0  0.23287872187E+01 -0.61311127295E+01 -0.59532390433E+01  0.88574741648E+01  0.51100000000E-03 0.  1.
        -12    1    4    4    0    0 -0.45920581949E+01  0.11863280727E+02  0.60599274103E+01  0.14090675935E+02  0.00000000000E+00 0.  1.
</event>
<event>
 8    1  0.2509217E-006  0.9118800E+02  0.7816164E-02  0.1184000E+00
        -11   -1    0    0    0    0  0.00000000000E+00  0.00000000000E+00  0.45593999997E+02  0.45594000000E+02  0.51100000000E-03 0.  1.
         11   -1    0    0    0    0 -0.00000000000E+00 -0.00000000000E+00 -0.45593999997E+02  0.45594000000E+02  0.51100000000E-03 0. -1.
         23    2    1    2    0    0 -0.44408920985E-15 -0.13322676296E-14  0.00000000000E+00  0.91188000000E+02  0.91188000000E+02 0.  0.
    9900012    2    3    3    0    0 -0.39479165673E+01  0.12851238145E+01 -0.36586092640E+02  0.54367085249E+02  0.40000002441E+02 0.  0.
        -12    1    3    3    0    0  0.39479165673E+01 -0.12851238145E+01  0.36586092640E+02  0.36820914751E+02  0.00000000000E+00 0.  1.
         11    1    4    4    0    0 -0.76408289539E+00  0.15416589990E+02 -0.25734781484E+02  0.30008899478E+02  0.51100000000E-03 0. -1.
        -11    1    4    4    0    0  0.52984826958E+01 -0.76907750794E+00 -0.54365045112E+01  0.76302674037E+01  0.51100000000E-03 0.  1.
         12    1    4    4    0    0 -0.84823163677E+01 -0.13362388668E+02 -0.54148066452E+01  0.16727918367E+02  0.00000000000E+00 0. -1.
</event>
<event>
 8    1  0.2509217E-006  0.9118800E+02  0.7816164E-02  0.1184000E+00
        -11   -1    0    0    0    0  0.00000000000E+00  0.00000000000E+00  0.45593999997E+02  0.45594000000E+02  0.51100000000E-03 0. -1.
         11   -1    0    0    0    0 -0.00000000000E+00 -0.00000000000E+00 -0.45593999997E+02  0.45594000000E+02  0.51100000000E-03 0.  1.
         23    2    1    2    0    0 -0.35527136788E-14  0.00000000000E+00  0.00000000000E+00  0.91188000000E+02  0.91188000000E+02 0.  0.
    9900012    2    3    3    0    0  0.23690953777E+02  0.25520008085E+02 -0.11968616603E+02  0.54367083568E+02  0.39999998610E+02 0.  0.
         12    1    3    3    0    0 -0.23690953777E+02 -0.25520008085E+02  0.11968616603E+02  0.36820916432E+02  0.00000000000E+00 0. -1.
         11    1    4    4    0    0 -0.35049617888E+01  0.53407159155E+01  0.10626806134E+02  0.12399073050E+02  0.51100000000E-03 0. -1.
        -11    1    4    4    0    0  0.14748638065E+02  0.16889869291E+02 -0.15599227443E+02  0.27315305353E+02  0.51100000000E-03 0.  1.
         12    1    4    4    0    0  0.12447277501E+02  0.32894228781E+01 -0.69961952945E+01  0.14652705165E+02  0.00000000000E+00 0. -1.
</event>
<event>
 8    1  0.2509217E-006  0.9118800E+02  0.7816164E-02  0.1184000E+00
        -11   -1    0    0    0    0  0.00000000000E+00  0.00000000000E+00  0.45593999997E+02  0.45594000000E+02  0.51100000000E-03 0. -1.
         11   -1    0    0    0    0 -0.00000000000E+00 -0.00000000000E+00 -0.45593999997E+02  0.45594000000E+02  0.51100000000E-03 0.  1.
         23    2    1    2    0    0  0.00000000000E+00  0.35527136788E-14  0.00000000000E+00  0.91188000000E+02  0.91188000000E+02 0.  0.
    9900012    2    3    3    0    0 -0.17525613393E+02  0.30455900674E+02 -0.11003219969E+02  0.54367083928E+02  0.39999999432E+02 0.  0.
        -12    1    3    3    0    0  0.17525613393E+02 -0.30455900674E+02  0.11003219969E+02  0.36820916072E+02  0.00000000000E+00 0.  1.
         11    1    4    4    0    0  0.97006973772E+00 -0.41768741913E-02  0.37663283392E+01  0.38892521340E+01  0.51100000000E-03 0. -1.
        -11    1    4    4    0    0 -0.20872127301E+02  0.34540605692E+01 -0.62254175209E+01  0.22052937584E+02  0.51100000000E-03 0.  1.
         12    1    4    4    0    0  0.23764441710E+01  0.27006016979E+02 -0.85441307869E+01  0.28424894211E+02  0.00000000000E+00 0. -1.
</event>
<event>
 8    1  0.2509217E-006  0.9118800E+02  0.7816164E-02  0.1184000E+00
        -11   -1    0    0    0    0  0.00000000000E+00  0.00000000000E+00  0.45593999997E+02  0.45594000000E+02  0.51100000000E-03 0. -1.
         11   -1    0    0    0    0 -0.00000000000E+00 -0.00000000000E+00 -0.45593999997E+02  0.45594000000E+02  0.51100000000E-03 0.  1.
         23    2    1    2    0    0  0.00000000000E+00 -0.88817841970E-15  0.00000000000E+00  0.91188000000E+02  0.91188000000E+02 0.  0.
    9900012    2    3    3    0    0 -0.28609830238E+02  0.40001549800E+01 -0.22831044302E+02  0.54367079180E+02  0.39999988608E+02 0.  0.
         12    1    3    3    0    0  0.28609830238E+02 -0.40001549800E+01  0.22831044302E+02  0.36820920820E+02  0.00000000000E+00 0. -1.
         11    1    4    4    0    0  0.79681652317E+01  0.36304510554E+01 -0.28969490428E+01  0.92230226088E+01  0.51100000000E-03 0. -1.
        -11    1    4    4    0    0 -0.87423071208E+01  0.29085894713E+01 -0.13693657491E+02  0.16504668499E+02  0.51100000000E-03 0.  1.
        -12    1    4    4    0    0 -0.27835688349E+02 -0.25388855468E+01 -0.62404377678E+01  0.28639388073E+02  0.00000000000E+00 0.  1.
</event>
<event>
 8    1  0.2509217E-006  0.9118800E+02  0.7816164E-02  0.1184000E+00
        -11   -1    0    0    0    0  0.00000000000E+00  0.00000000000E+00  0.45593999997E+02  0.45594000000E+02  0.51100000000E-03 0.  1.
         11   -1    0    0    0    0 -0.00000000000E+00 -0.00000000000E+00 -0.45593999997E+02  0.45594000000E+02  0.51100000000E-03 0. -1.
         23    2    1    2    0    0  0.00000000000E+00  0.00000000000E+00  0.35527136788E-14  0.91188000000E+02  0.91188000000E+02 0.  0.
    9900012    2    3    3    0    0  0.14935837254E+02 -0.15669569208E+02  0.29785364623E+02  0.54367047006E+02  0.39999915259E+02 0.  0.
         12    1    3    3    0    0 -0.14935837254E+02  0.15669569208E+02 -0.29785364623E+02  0.36820952994E+02  0.00000000000E+00 0. -1.
         11    1    4    4    0    0 -0.77878409256E+01 -0.73054039479E+01 -0.31640198538E+01  0.11136894317E+02  0.51100000000E-03 0. -1.
        -11    1    4    4    0    0  0.91183306909E+01 -0.43164890518E+01  0.25005291340E+02  0.26963690912E+02  0.51100000000E-03 0.  1.
        -12    1    4    4    0    0  0.13605347489E+02 -0.40476762087E+01  0.79440931367E+01  0.16266461777E+02  0.00000000000E+00 0.  1.
</event>
<event>
 8    1  0.2509217E-006  0.9118800E+02  0.7816164E-02  0.1184000E+00
        -11   -1    0    0    0    0  0.00000000000E+00  0.00000000000E+00  0.45593999997E+02  0.45594000000E+02  0.51100000000E-03 0. -1.
         11   -1    0    0    0    0 -0.00000000000E+00 -0.00000000000E+00 -0.45593999997E+02  0.45594000000E+02  0.51100000000E-03 0.  1.
         23    2    1    2    0    0  0.00000000000E+00  0.35527136788E-14  0.00000000000E+00  0.91188000000E+02  0.91188000000E+02 0.  0.
    9900012    2    3    3    0    0 -0.42372825160E+01  0.29818157912E+02  0.21182644741E+02  0.54367061085E+02  0.39999947355E+02 0.  0.
         12    1    3    3    0    0  0.42372825160E+01 -0.29818157912E+02 -0.21182644741E+02  0.36820938915E+02  0.00000000000E+00 0. -1.
         11    1    4    4    0    0 -0.33155290325E+01  0.21453053860E+02  0.80142011977E+01  0.23139871948E+02  0.51100000000E-03 0. -1.
        -11    1    4    4    0    0  0.26423172233E-01  0.12964914383E+02 -0.38884719219E+01  0.13535505801E+02  0.51100000000E-03 0.  1.
         12    1    4    4    0    0 -0.94817665572E+00 -0.45998103313E+01  0.17056915465E+02  0.17691683335E+02  0.00000000000E+00 0. -1.
</event>
<event>
 8    1  0.2509217E-006  0.9118800E+02  0.7816164E-02  0.1184000E+00
        -11   -1    0    0    0    0  0.00000000000E+00  0.00000000000E+00  0.45593999997E+02  0.45594000000E+02  0.51100000000E-03 0. -1.
         11   -1    0    0    0    0 -0.00000000000E+00 -0.00000000000E+00 -0.45593999997E+02  0.45594000000E+02  0.51100000000E-03 0.  1.
         23    2    1    2    0    0  0.00000000000E+00 -0.35527136788E-14  0.35527136788E-14  0.91188000000E+02  0.91188000000E+02 0.  0.
    9900012    2    3    3    0    0 -0.89376540883E+01  0.28747662451E+02 -0.21200571448E+02  0.54367163688E+02  0.40000181259E+02 0.  0.
         12    1    3    3    0    0  0.89376540883E+01 -0.28747662451E+02  0.21200571448E+02  0.36820836312E+02  0.00000000000E+00 0. -1.
         11    1    4    4    0    0  0.21148792927E+01 -0.46695847160E+01  0.52523922010E+01  0.73393024149E+01  0.51100000000E-03 0. -1.
        -11    1    4    4    0    0 -0.12345266615E+01  0.26919444851E+02 -0.20337554767E+02  0.33760875305E+02  0.51100000000E-03 0.  1.
        -12    1    4    4    0    0 -0.98180067196E+01  0.64978023156E+01 -0.61154088824E+01  0.13266985968E+02  0.00000000000E+00 0.  1.
</event>
<event>
 8    1  0.2509217E-006  0.9118800E+02  0.7816164E-02  0.1184000E+00
        -11   -1    0    0    0    0  0.00000000000E+00  0.00000000000E+00  0.45593999997E+02  0.45594000000E+02  0.51100000000E-03 0. -1.
         11   -1    0    0    0    0 -0.00000000000E+00 -0.00000000000E+00 -0.45593999997E+02  0.45594000000E+02  0.51100000000E-03 0.  1.
         23    2    1    2    0    0  0.00000000000E+00  0.35527136788E-14  0.00000000000E+00  0.91188000000E+02  0.91188000000E+02 0.  0.
    9900012    2    3    3    0    0 -0.71110503725E+01 -0.29811467276E+02  0.20408078931E+02  0.54367077902E+02  0.39999985693E+02 0.  0.
        -12    1    3    3    0    0  0.71110503725E+01  0.29811467276E+02 -0.20408078931E+02  0.36820922098E+02  0.00000000000E+00 0.  1.
         11    1    4    4    0    0 -0.21917839243E+02 -0.13724070957E+02  0.12868537306E+02  0.28884962409E+02  0.51100000000E-03 0. -1.
        -11    1    4    4    0    0  0.92201475706E+01 -0.15619225111E+02  0.32577969490E+01  0.18427820151E+02  0.51100000000E-03 0.  1.
         12    1    4    4    0    0  0.55866413002E+01 -0.46817120774E+00  0.42817446759E+01  0.70542953416E+01  0.00000000000E+00 0. -1.
</event>
<event>
 8    1  0.2509217E-006  0.9118800E+02  0.7816164E-02  0.1184000E+00
        -11   -1    0    0    0    0  0.00000000000E+00  0.00000000000E+00  0.45593999997E+02  0.45594000000E+02  0.51100000000E-03 0.  1.
         11   -1    0    0    0    0 -0.00000000000E+00 -0.00000000000E+00 -0.45593999997E+02  0.45594000000E+02  0.51100000000E-03 0. -1.
         23    2    1    2    0    0  0.00000000000E+00 -0.17763568394E-14  0.00000000000E+00  0.91188000000E+02  0.91188000000E+02 0.  0.
    9900012    2    3    3    0    0  0.34901419085E+02 -0.11466612641E+02 -0.24876342811E+01  0.54367074103E+02  0.39999977032E+02 0.  0.
         12    1    3    3    0    0 -0.34901419085E+02  0.11466612641E+02  0.24876342811E+01  0.36820925897E+02  0.00000000000E+00 0. -1.
         11    1    4    4    0    0  0.28044912442E+02 -0.21164482182E+02  0.41739398522E+01  0.35381834238E+02  0.51100000000E-03 0. -1.
        -11    1    4    4    0    0  0.56148158725E+01  0.76741436566E+01  0.22427719199E+01  0.97697832263E+01  0.51100000000E-03 0.  1.
         12    1    4    4    0    0  0.12416907710E+01  0.20237258839E+01 -0.89043460532E+01  0.92154566386E+01  0.00000000000E+00 0. -1.
</event>
<event>
 8    1  0.2509217E-006  0.9118800E+02  0.7816164E-02  0.1184000E+00
        -11   -1    0    0    0    0  0.00000000000E+00  0.00000000000E+00  0.45593999997E+02  0.45594000000E+02  0.51100000000E-03 0.  1.
         11   -1    0    0    0    0 -0.00000000000E+00 -0.00000000000E+00 -0.45593999997E+02  0.45594000000E+02  0.51100000000E-03 0. -1.
         23    2    1    2    0    0 -0.35527136788E-14  0.00000000000E+00  0.71054273576E-14  0.91188000000E+02  0.91188000000E+02 0.  0.
    9900012    2    3    3    0    0 -0.18185405343E+02  0.59560586984E+01  0.31457854667E+02  0.54367079005E+02  0.39999988208E+02 0.  0.
         12    1    3    3    0    0  0.18185405343E+02 -0.59560586984E+01 -0.31457854667E+02  0.36820920995E+02  0.00000000000E+00 0. -1.
         11    1    4    4    0    0  0.24198749919E+00 -0.23130822344E+01  0.33300762353E+00  0.23494258258E+01  0.51100000000E-03 0.  1.
        -11    1    4    4    0    0 -0.34023676184E+00  0.10990920110E+02 -0.45710483184E+01  0.11908424283E+02  0.51100000000E-03 0. -1.
        -12    1    4    4    0    0 -0.18087156080E+02 -0.27217791774E+01  0.35695895361E+02  0.40109228896E+02  0.00000000000E+00 0.  1.
</event>
<event>
 8    1  0.2509217E-006  0.9118800E+02  0.7816164E-02  0.1184000E+00
        -11   -1    0    0    0    0  0.00000000000E+00  0.00000000000E+00  0.45593999997E+02  0.45594000000E+02  0.51100000000E-03 0. -1.
         11   -1    0    0    0    0 -0.00000000000E+00 -0.00000000000E+00 -0.45593999997E+02  0.45594000000E+02  0.51100000000E-03 0.  1.
         23    2    1    2    0    0  0.71054273576E-14  0.88817841970E-15  0.00000000000E+00  0.91188000000E+02  0.91188000000E+02 0.  0.
    9900012    2    3    3    0    0 -0.33040095770E+02 -0.85730747604E+00 -0.16229514121E+02  0.54367081582E+02  0.39999994082E+02 0.  0.
         12    1    3    3    0    0  0.33040095770E+02  0.85730747604E+00  0.16229514121E+02  0.36820918418E+02  0.00000000000E+00 0. -1.
         11    1    4    4    0    0 -0.19624400756E+00  0.39620544272E+01 -0.16533975059E+01  0.42976866531E+01  0.51100000000E-03 0. -1.
        -11    1    4    4    0    0  0.12402353826E+01  0.10172707156E+02 -0.59413832386E+01  0.11845766743E+02  0.51100000000E-03 0.  1.
         12    1    4    4    0    0 -0.34084087145E+02 -0.14992069059E+02 -0.86347333762E+01  0.38223628185E+02  0.00000000000E+00 0. -1.
</event>
<event>
 8    1  0.2509217E-006  0.9118800E+02  0.7816164E-02  0.1184000E+00
        -11   -1    0    0    0    0  0.00000000000E+00  0.00000000000E+00  0.45593999997E+02  0.45594000000E+02  0.51100000000E-03 0. -1.
         11   -1    0    0    0    0 -0.00000000000E+00 -0.00000000000E+00 -0.45593999997E+02  0.45594000000E+02  0.51100000000E-03 0.  1.
         23    2    1    2    0    0  0.00000000000E+00  0.00000000000E+00  0.22204460493E-15  0.91188000000E+02  0.91188000000E+02 0.  0.
    9900012    2    3    3    0    0 -0.35502221615E+02 -0.97358947132E+01  0.76446703202E+00  0.54367084811E+02  0.40000001444E+02 0.  0.
        -12    1    3    3    0    0  0.35502221615E+02  0.97358947132E+01 -0.76446703202E+00  0.36820915189E+02  0.00000000000E+00 0.  1.
         11    1    4    4    0    0 -0.10176263151E+02 -0.74291155321E+01 -0.79583111423E+01  0.14902442948E+02  0.51100000000E-03 0. -1.
        -11    1    4    4    0    0 -0.21606499617E+02 -0.10718562084E+02 -0.32822727065E+01  0.24341358081E+02  0.51100000000E-03 0.  1.
        -12    1    4    4    0    0 -0.37194588476E+01  0.84117829031E+01  0.12005050881E+02  0.15123283783E+02  0.00000000000E+00 0.  1.
</event>
<event>
 8    1  0.2509217E-006  0.9118800E+02  0.7816164E-02  0.1184000E+00
        -11   -1    0    0    0    0  0.00000000000E+00  0.00000000000E+00  0.45593999997E+02  0.45594000000E+02  0.51100000000E-03 0.  1.
         11   -1    0    0    0    0 -0.00000000000E+00 -0.00000000000E+00 -0.45593999997E+02  0.45594000000E+02  0.51100000000E-03 0. -1.
         23    2    1    2    0    0  0.35527136788E-14  0.00000000000E+00 -0.17763568394E-14  0.91188000000E+02  0.91188000000E+02 0.  0.
    9900012    2    3    3    0    0  0.25782547885E+02  0.25013450924E+02 -0.80853089314E+01  0.54367017897E+02  0.39999848898E+02 0.  0.
        -12    1    3    3    0    0 -0.25782547885E+02 -0.25013450924E+02  0.80853089314E+01  0.36820982103E+02  0.00000000000E+00 0.  1.
         11    1    4    4    0    0  0.94529909776E+01  0.48346049032E+01  0.20748051676E+01  0.10818376021E+02  0.51100000000E-03 0.  1.
        -11    1    4    4    0    0  0.26737745523E+02  0.14243784496E+02 -0.61424977841E+01  0.30911530401E+02  0.51100000000E-03 0. -1.
         12    1    4    4    0    0 -0.10408188616E+02  0.59350615247E+01 -0.40176163149E+01  0.12637111475E+02  0.00000000000E+00 0. -1.
</event>
<event>
 8    1  0.2509217E-006  0.9118800E+02  0.7816164E-02  0.1184000E+00
        -11   -1    0    0    0    0  0.00000000000E+00  0.00000000000E+00  0.45593999997E+02  0.45594000000E+02  0.51100000000E-03 0.  1.
         11   -1    0    0    0    0 -0.00000000000E+00 -0.00000000000E+00 -0.45593999997E+02  0.45594000000E+02  0.51100000000E-03 0. -1.
         23    2    1    2    0    0 -0.71054273576E-14  0.00000000000E+00  0.44408920985E-15  0.91188000000E+02  0.91188000000E+02 0.  0.
    9900012    2    3    3    0    0 -0.35657613101E+02  0.86176566442E+01  0.31702918976E+01  0.54367080283E+02  0.39999991121E+02 0.  0.
        -12    1    3    3    0    0  0.35657613101E+02 -0.86176566442E+01 -0.31702918976E+01  0.36820919717E+02  0.00000000000E+00 0.  1.
         11    1    4    4    0    0  0.67738112554E+01  0.34936492905E+01  0.61020115080E+00  0.76460741557E+01  0.51100000000E-03 0. -1.
        -11    1    4    4    0    0 -0.15348427800E+02 -0.67096049511E+01  0.36561109027E+01  0.17145267036E+02  0.51100000000E-03 0.  1.
        -12    1    4    4    0    0 -0.27082996556E+02  0.11833612305E+02 -0.10960201559E+01  0.29575739092E+02  0.00000000000E+00 0.  1.
</event>
<event>
 8    1  0.2509217E-006  0.9118800E+02  0.7816164E-02  0.1184000E+00
        -11   -1    0    0    0    0  0.00000000000E+00  0.00000000000E+00  0.45593999997E+02  0.45594000000E+02  0.51100000000E-03 0.  1.
         11   -1    0    0    0    0 -0.00000000000E+00 -0.00000000000E+00 -0.45593999997E+02  0.45594000000E+02  0.51100000000E-03 0. -1.
         23    2    1    2    0    0  0.00000000000E+00  0.00000000000E+00  0.00000000000E+00  0.91188000000E+02  0.91188000000E+02 0.  0.
    9900012    2    3    3    0    0  0.20494620873E+02  0.17889567503E+02 -0.24813585352E+02  0.54367080291E+02  0.39999991140E+02 0.  0.
        -12    1    3    3    0    0 -0.20494620873E+02 -0.17889567503E+02  0.24813585352E+02  0.36820919709E+02  0.00000000000E+00 0.  1.
         11    1    4    4    0    0  0.98200150783E+01  0.11229807397E+01 -0.24516038375E+02  0.26433499953E+02  0.51100000000E-03 0. -1.
        -11    1    4    4    0    0  0.65640343844E+01  0.64800475865E+01 -0.97134130840E+01  0.13395072158E+02  0.51100000000E-03 0.  1.
        -12    1    4    4    0    0  0.41105714098E+01  0.10286539177E+02  0.94158661073E+01  0.14538508180E+02  0.00000000000E+00 0.  1.
</event>
<event>
 8    1  0.2509217E-006  0.9118800E+02  0.7816164E-02  0.1184000E+00
        -11   -1    0    0    0    0  0.00000000000E+00  0.00000000000E+00  0.45593999997E+02  0.45594000000E+02  0.51100000000E-03 0.  1.
         11   -1    0    0    0    0 -0.00000000000E+00 -0.00000000000E+00 -0.45593999997E+02  0.45594000000E+02  0.51100000000E-03 0. -1.
         23    2    1    2    0    0 -0.35527136788E-14  0.00000000000E+00  0.00000000000E+00  0.91188000000E+02  0.91188000000E+02 0.  0.
    9900012    2    3    3    0    0 -0.31069483085E+02  0.19699913870E+02  0.15423736537E+01  0.54367105088E+02  0.40000047669E+02 0.  0.
         12    1    3    3    0    0  0.31069483085E+02 -0.19699913870E+02 -0.15423736537E+01  0.36820894912E+02  0.00000000000E+00 0. -1.
         11    1    4    4    0    0 -0.17550807845E+02  0.10281379303E+02  0.90447142789E+01  0.22260828220E+02  0.51100000000E-03 0. -1.
        -11    1    4    4    0    0  0.29698555208E+01  0.99181923665E+01  0.49133050505E+01  0.11459980297E+02  0.51100000000E-03 0.  1.
         12    1    4    4    0    0 -0.16488530761E+02 -0.49965779874E+00 -0.12415645676E+02  0.20646296571E+02  0.00000000000E+00 0. -1.
</event>
<event>
 8    1  0.2509217E-006  0.9118800E+02  0.7816164E-02  0.1184000E+00
        -11   -1    0    0    0    0  0.00000000000E+00  0.00000000000E+00  0.45593999997E+02  0.45594000000E+02  0.51100000000E-03 0. -1.
         11   -1    0    0    0    0 -0.00000000000E+00 -0.00000000000E+00 -0.45593999997E+02  0.45594000000E+02  0.51100000000E-03 0.  1.
         23    2    1    2    0    0  0.00000000000E+00 -0.35527136788E-14  0.00000000000E+00  0.91188000000E+02  0.91188000000E+02 0.  0.
    9900012    2    3    3    0    0  0.20178911695E+02 -0.21686399771E+02  0.21869824877E+02  0.54367113912E+02  0.40000067784E+02 0.  0.
        -12    1    3    3    0    0 -0.20178911695E+02  0.21686399771E+02 -0.21869824877E+02  0.36820886088E+02  0.00000000000E+00 0.  1.
         11    1    4    4    0    0  0.17116013336E+02 -0.10299851032E+02  0.14962546537E+02  0.24958418279E+02  0.51100000000E-03 0. -1.
        -11    1    4    4    0    0  0.13166244879E+02  0.24696491098E+00  0.28123069092E+01  0.13465513963E+02  0.51100000000E-03 0.  1.
        -12    1    4    4    0    0 -0.10103346521E+02 -0.11633513650E+02  0.40949714301E+01  0.15943181670E+02  0.00000000000E+00 0.  1.
</event>
<event>
 8    1  0.2509217E-006  0.9118800E+02  0.7816164E-02  0.1184000E+00
        -11   -1    0    0    0    0  0.00000000000E+00  0.00000000000E+00  0.45593999997E+02  0.45594000000E+02  0.51100000000E-03 0. -1.
         11   -1    0    0    0    0 -0.00000000000E+00 -0.00000000000E+00 -0.45593999997E+02  0.45594000000E+02  0.51100000000E-03 0.  1.
         23    2    1    2    0    0  0.00000000000E+00  0.35527136788E-14 -0.71054273576E-14  0.91188000000E+02  0.91188000000E+02 0.  0.
    9900012    2    3    3    0    0  0.44535979134E+01 -0.24860369360E+02  0.26793724708E+02  0.54367133866E+02  0.40000113275E+02 0.  0.
        -12    1    3    3    0    0 -0.44535979134E+01  0.24860369360E+02 -0.26793724708E+02  0.36820866134E+02  0.00000000000E+00 0.  1.
         11    1    4    4    0    0  0.43392147902E+01  0.19622234024E+01 -0.61622026074E+01  0.77879295651E+01  0.51100000000E-03 0. -1.
        -11    1    4    4    0    0 -0.80798235022E+01 -0.16145084712E+02  0.12017353245E+02  0.21687878815E+02  0.51100000000E-03 0.  1.
         12    1    4    4    0    0  0.81942066254E+01 -0.10677508050E+02  0.20938574070E+02  0.24891325487E+02  0.00000000000E+00 0. -1.
</event>
<event>
 8    1  0.2509217E-006  0.9118800E+02  0.7816164E-02  0.1184000E+00
        -11   -1    0    0    0    0  0.00000000000E+00  0.00000000000E+00  0.45593999997E+02  0.45594000000E+02  0.51100000000E-03 0.  1.
         11   -1    0    0    0    0 -0.00000000000E+00 -0.00000000000E+00 -0.45593999997E+02  0.45594000000E+02  0.51100000000E-03 0. -1.
         23    2    1    2    0    0  0.00000000000E+00  0.00000000000E+00  0.00000000000E+00  0.91188000000E+02  0.91188000000E+02 0.  0.
    9900012    2    3    3    0    0 -0.20246144515E+02 -0.26600001018E+02  0.15437367734E+02  0.54367099082E+02  0.40000033976E+02 0.  0.
         12    1    3    3    0    0  0.20246144515E+02  0.26600001018E+02 -0.15437367734E+02  0.36820900918E+02  0.00000000000E+00 0. -1.
         11    1    4    4    0    0 -0.92170525139E+00 -0.18014319912E+02  0.14212892337E+02  0.22964572090E+02  0.51100000000E-03 0. -1.
        -11    1    4    4    0    0  0.45798316592E+01 -0.56824283775E+01  0.35486353311E+00  0.73068993889E+01  0.51100000000E-03 0.  1.
        -12    1    4    4    0    0 -0.23904270923E+02 -0.29032527292E+01  0.86961186350E+00  0.24095627602E+02  0.00000000000E+00 0.  1.
</event>
<event>
 8    1  0.2509217E-006  0.9118800E+02  0.7816164E-02  0.1184000E+00
        -11   -1    0    0    0    0  0.00000000000E+00  0.00000000000E+00  0.45593999997E+02  0.45594000000E+02  0.51100000000E-03 0.  1.
         11   -1    0    0    0    0 -0.00000000000E+00 -0.00000000000E+00 -0.45593999997E+02  0.45594000000E+02  0.51100000000E-03 0. -1.
         23    2    1    2    0    0 -0.35527136788E-14  0.00000000000E+00  0.00000000000E+00  0.91188000000E+02  0.91188000000E+02 0.  0.
    9900012    2    3    3    0    0  0.30455103687E+02  0.89245326987E+01  0.18671322263E+02  0.54367096976E+02  0.40000029176E+02 0.  0.
         12    1    3    3    0    0 -0.30455103687E+02 -0.89245326987E+01 -0.18671322263E+02  0.36820903024E+02  0.00000000000E+00 0. -1.
         11    1    4    4    0    0  0.25235514967E+02  0.45107719739E+01  0.15373581341E+02  0.29891893265E+02  0.51100000000E-03 0. -1.
        -11    1    4    4    0    0  0.10029796852E+02 -0.58551427011E+00 -0.68663844408E+01  0.12169095587E+02  0.51100000000E-03 0.  1.
         12    1    4    4    0    0 -0.48102081326E+01  0.49992749948E+01  0.10164125363E+02  0.12306108124E+02  0.00000000000E+00 0. -1.
</event>
<event>
 8    1  0.2509217E-006  0.9118800E+02  0.7816164E-02  0.1184000E+00
        -11   -1    0    0    0    0  0.00000000000E+00  0.00000000000E+00  0.45593999997E+02  0.45594000000E+02  0.51100000000E-03 0. -1.
         11   -1    0    0    0    0 -0.00000000000E+00 -0.00000000000E+00 -0.45593999997E+02  0.45594000000E+02  0.51100000000E-03 0.  1.
         23    2    1    2    0    0 -0.35527136788E-14 -0.35527136788E-14  0.00000000000E+00  0.91188000000E+02  0.91188000000E+02 0.  0.
    9900012    2    3    3    0    0 -0.19288820058E+02 -0.19746335264E+02  0.24367977423E+02  0.54367154555E+02  0.40000160439E+02 0.  0.
        -12    1    3    3    0    0  0.19288820058E+02  0.19746335264E+02 -0.24367977423E+02  0.36820845445E+02  0.00000000000E+00 0.  1.
         11    1    4    4    0    0 -0.27652339013E+02 -0.99433040915E+01  0.25822206000E+02  0.39119144573E+02  0.51100000000E-03 0. -1.
        -11    1    4    4    0    0  0.38180005234E+01 -0.21861119217E+00 -0.25308114784E+01  0.45858397105E+01  0.51100000000E-03 0.  1.
         12    1    4    4    0    0  0.45455184309E+01 -0.95844199800E+01  0.10765829012E+01  0.10662170272E+02  0.00000000000E+00 0. -1.
</event>
<event>
 8    1  0.2509217E-006  0.9118800E+02  0.7816164E-02  0.1184000E+00
        -11   -1    0    0    0    0  0.00000000000E+00  0.00000000000E+00  0.45593999997E+02  0.45594000000E+02  0.51100000000E-03 0.  1.
         11   -1    0    0    0    0 -0.00000000000E+00 -0.00000000000E+00 -0.45593999997E+02  0.45594000000E+02  0.51100000000E-03 0. -1.
         23    2    1    2    0    0 -0.17763568394E-14  0.35527136788E-14  0.00000000000E+00  0.91188000000E+02  0.91188000000E+02 0.  0.
    9900012    2    3    3    0    0  0.14283821535E+02  0.14977802859E+02  0.30453535750E+02  0.54367082361E+02  0.39999995859E+02 0.  0.
         12    1    3    3    0    0 -0.14283821535E+02 -0.14977802859E+02 -0.30453535750E+02  0.36820917639E+02  0.00000000000E+00 0. -1.
         11    1    4    4    0    0 -0.29567097979E+01  0.20821970199E+02  0.14145776574E+02  0.25345602596E+02  0.51100000000E-03 0. -1.
        -11    1    4    4    0    0  0.25806413574E+01  0.50723323748E+01  0.45741343596E+01  0.73014362243E+01  0.51100000000E-03 0.  1.
         12    1    4    4    0    0  0.14659889975E+02 -0.10916499715E+02  0.11733624816E+02  0.21720043541E+02  0.00000000000E+00 0. -1.
</event>
<event>
 8    1  0.2509217E-006  0.9118800E+02  0.7816164E-02  0.1184000E+00
        -11   -1    0    0    0    0  0.00000000000E+00  0.00000000000E+00  0.45593999997E+02  0.45594000000E+02  0.51100000000E-03 0. -1.
         11   -1    0    0    0    0 -0.00000000000E+00 -0.00000000000E+00 -0.45593999997E+02  0.45594000000E+02  0.51100000000E-03 0.  1.
         23    2    1    2    0    0 -0.71054273576E-14  0.00000000000E+00  0.88817841970E-15  0.91188000000E+02  0.91188000000E+02 0.  0.
    9900012    2    3    3    0    0  0.32372236217E+02  0.16670313493E+02  0.54696440977E+01  0.54367108699E+02  0.40000055900E+02 0.  0.
         12    1    3    3    0    0 -0.32372236217E+02 -0.16670313493E+02 -0.54696440977E+01  0.36820891301E+02  0.00000000000E+00 0. -1.
         11    1    4    4    0    0 -0.66896229479E+01 -0.14025211255E+01  0.83095136088E+01  0.10759467337E+02  0.51100000000E-03 0. -1.
        -11    1    4    4    0    0  0.27493168733E+02  0.10965292619E+02 -0.44614384453E+01  0.29933533077E+02  0.51100000000E-03 0.  1.
         12    1    4    4    0    0  0.11568690433E+02  0.71075419991E+01  0.16215689343E+01  0.13674108286E+02  0.00000000000E+00 0. -1.
</event>
<event>
 8    1  0.2509217E-006  0.9118800E+02  0.7816164E-02  0.1184000E+00
        -11   -1    0    0    0    0  0.00000000000E+00  0.00000000000E+00  0.45593999997E+02  0.45594000000E+02  0.51100000000E-03 0. -1.
         11   -1    0    0    0    0 -0.00000000000E+00 -0.00000000000E+00 -0.45593999997E+02  0.45594000000E+02  0.51100000000E-03 0.  1.
         23    2    1    2    0    0  0.00000000000E+00  0.00000000000E+00  0.00000000000E+00  0.91188000000E+02  0.91188000000E+02 0.  0.
    9900012    2    3    3    0    0 -0.91090339842E+01  0.13641261764E+02  0.32965476427E+02  0.54367066298E+02  0.39999959239E+02 0.  0.
        -12    1    3    3    0    0  0.91090339842E+01 -0.13641261764E+02 -0.32965476427E+02  0.36820933702E+02  0.00000000000E+00 0.  1.
         11    1    4    4    0    0 -0.13070738241E+02  0.92556085742E+01  0.27210797536E+02  0.31574324870E+02  0.51100000000E-03 0. -1.
        -11    1    4    4    0    0 -0.48508799163E+01  0.57135637803E+01  0.10339631231E+02  0.12770427608E+02  0.51100000000E-03 0.  1.
        -12    1    4    4    0    0  0.88125841730E+01 -0.13279105904E+01 -0.45849523393E+01  0.10022313820E+02  0.00000000000E+00 0.  1.
</event>
<event>
 8    1  0.2509217E-006  0.9118800E+02  0.7816164E-02  0.1184000E+00
        -11   -1    0    0    0    0  0.00000000000E+00  0.00000000000E+00  0.45593999997E+02  0.45594000000E+02  0.51100000000E-03 0. -1.
         11   -1    0    0    0    0 -0.00000000000E+00 -0.00000000000E+00 -0.45593999997E+02  0.45594000000E+02  0.51100000000E-03 0.  1.
         23    2    1    2    0    0  0.17763568394E-14 -0.22204460493E-15  0.00000000000E+00  0.91188000000E+02  0.91188000000E+02 0.  0.
    9900012    2    3    3    0    0 -0.91348396754E+01  0.17325239023E+01 -0.35627695536E+02  0.54367087135E+02  0.40000006742E+02 0.  0.
         12    1    3    3    0    0  0.91348396754E+01 -0.17325239023E+01  0.35627695536E+02  0.36820912865E+02  0.00000000000E+00 0. -1.
         11    1    4    4    0    0  0.10417756382E+02  0.18028103398E+00 -0.14648193507E+02  0.17975865002E+02  0.51100000000E-03 0. -1.
        -11    1    4    4    0    0 -0.21493446067E+01 -0.88593831734E+00 -0.18498179875E+02  0.18643691370E+02  0.51100000000E-03 0.  1.
        -12    1    4    4    0    0 -0.17403251451E+02  0.24381811856E+01 -0.24813221540E+01  0.17747530763E+02  0.00000000000E+00 0.  1.
</event>
<event>
 8    1  0.2509217E-006  0.9118800E+02  0.7816164E-02  0.1184000E+00
        -11   -1    0    0    0    0  0.00000000000E+00  0.00000000000E+00  0.45593999997E+02  0.45594000000E+02  0.51100000000E-03 0.  1.
         11   -1    0    0    0    0 -0.00000000000E+00 -0.00000000000E+00 -0.45593999997E+02  0.45594000000E+02  0.51100000000E-03 0. -1.
         23    2    1    2    0    0  0.17763568394E-14  0.00000000000E+00 -0.35527136788E-14  0.91188000000E+02  0.91188000000E+02 0.  0.
    9900012    2    3    3    0    0 -0.38201754019E+01 -0.30621738982E+02  0.20087272439E+02  0.54367039225E+02  0.39999897520E+02 0.  0.
        -12    1    3    3    0    0  0.38201754019E+01  0.30621738982E+02 -0.20087272439E+02  0.36820960775E+02  0.00000000000E+00 0.  1.
         11    1    4    4    0    0 -0.10184230254E+02 -0.87477262087E+01  0.55364061528E+01  0.14522157313E+02  0.51100000000E-03 0. -1.
        -11    1    4    4    0    0  0.16823229044E+02 -0.60741280903E+01  0.47209755651E+01  0.18498748014E+02  0.51100000000E-03 0.  1.
        -12    1    4    4    0    0 -0.10459174192E+02 -0.15799884683E+02  0.98298907206E+01  0.21346133897E+02  0.00000000000E+00 0.  1.
</event>
<event>
 8    1  0.2509217E-006  0.9118800E+02  0.7816164E-02  0.1184000E+00
        -11   -1    0    0    0    0  0.00000000000E+00  0.00000000000E+00  0.45593999997E+02  0.45594000000E+02  0.51100000000E-03 0.  1.
         11   -1    0    0    0    0 -0.00000000000E+00 -0.00000000000E+00 -0.45593999997E+02  0.45594000000E+02  0.51100000000E-03 0. -1.
         23    2    1    2    0    0  0.71054273576E-14 -0.35527136788E-14 -0.17763568394E-14  0.91188000000E+02  0.91188000000E+02 0.  0.
    9900012    2    3    3    0    0  0.30823181535E+02 -0.18820938624E+02 -0.71751298093E+01  0.54367099164E+02  0.40000034164E+02 0.  0.
         12    1    3    3    0    0 -0.30823181535E+02  0.18820938624E+02  0.71751298093E+01  0.36820900836E+02  0.00000000000E+00 0. -1.
         11    1    4    4    0    0  0.35228984575E+01 -0.10956190320E+02 -0.17722369849E+02  0.21131287542E+02  0.51100000000E-03 0. -1.
        -11    1    4    4    0    0  0.18564588034E+02 -0.10698239771E+02  0.10911409082E+02  0.24044856237E+02  0.51100000000E-03 0.  1.
         12    1    4    4    0    0  0.87356950437E+01  0.28334914670E+01 -0.36416904297E+00  0.91909553846E+01  0.00000000000E+00 0. -1.
</event>
<event>
 8    1  0.2509217E-006  0.9118800E+02  0.7816164E-02  0.1184000E+00
        -11   -1    0    0    0    0  0.00000000000E+00  0.00000000000E+00  0.45593999997E+02  0.45594000000E+02  0.51100000000E-03 0.  1.
         11   -1    0    0    0    0 -0.00000000000E+00 -0.00000000000E+00 -0.45593999997E+02  0.45594000000E+02  0.51100000000E-03 0. -1.
         23    2    1    2    0    0  0.71054273576E-14 -0.88817841970E-15  0.00000000000E+00  0.91188000000E+02  0.91188000000E+02 0.  0.
    9900012    2    3    3    0    0 -0.32945906502E+02 -0.31052401355E+01 -0.16146348907E+02  0.54367084007E+02  0.39999999611E+02 0.  0.
        -12    1    3    3    0    0  0.32945906502E+02  0.31052401355E+01  0.16146348907E+02  0.36820915993E+02  0.00000000000E+00 0.  1.
         11    1    4    4    0    0 -0.35735509087E+01  0.52622607854E+01  0.31230528345E+01  0.70862623392E+01  0.51100000000E-03 0.  1.
        -11    1    4    4    0    0  0.47201122542E+01  0.38450918410E+01 -0.64385621386E+01  0.88611101805E+01  0.51100000000E-03 0. -1.
        -12    1    4    4    0    0 -0.34092467847E+02 -0.12212592762E+02 -0.12830839603E+02  0.38419711488E+02  0.00000000000E+00 0.  1.
</event>
<event>
 8    1  0.2509217E-006  0.9118800E+02  0.7816164E-02  0.1184000E+00
        -11   -1    0    0    0    0  0.00000000000E+00  0.00000000000E+00  0.45593999997E+02  0.45594000000E+02  0.51100000000E-03 0.  1.
         11   -1    0    0    0    0 -0.00000000000E+00 -0.00000000000E+00 -0.45593999997E+02  0.45594000000E+02  0.51100000000E-03 0. -1.
         23    2    1    2    0    0  0.00000000000E+00 -0.17763568394E-14 -0.71054273576E-14  0.91188000000E+02  0.91188000000E+02 0.  0.
    9900012    2    3    3    0    0  0.12957791996E+02  0.92644431365E+01  0.33197073355E+02  0.54367082584E+02  0.39999996366E+02 0.  0.
         12    1    3    3    0    0 -0.12957791996E+02 -0.92644431365E+01 -0.33197073355E+02  0.36820917416E+02  0.00000000000E+00 0. -1.
         11    1    4    4    0    0  0.19774628921E+01  0.11151175269E+01 -0.62313224877E+01  0.66319851323E+01  0.51100000000E-03 0. -1.
        -11    1    4    4    0    0  0.87333711805E+01 -0.42757454732E+01  0.47350725453E+01  0.10815483521E+02  0.51100000000E-03 0.  1.
        -12    1    4    4    0    0  0.22469579230E+01  0.12425071083E+02  0.34693323298E+02  0.36919613930E+02  0.00000000000E+00 0.  1.
</event>
<event>
 8    1  0.2509217E-006  0.9118800E+02  0.7816164E-02  0.1184000E+00
        -11   -1    0    0    0    0  0.00000000000E+00  0.00000000000E+00  0.45593999997E+02  0.45594000000E+02  0.51100000000E-03 0. -1.
         11   -1    0    0    0    0 -0.00000000000E+00 -0.00000000000E+00 -0.45593999997E+02  0.45594000000E+02  0.51100000000E-03 0.  1.
         23    2    1    2    0    0 -0.35527136788E-14  0.00000000000E+00  0.00000000000E+00  0.91188000000E+02  0.91188000000E+02 0.  0.
    9900012    2    3    3    0    0 -0.17961354650E+02 -0.27728540063E+02 -0.16257230649E+02  0.54367085518E+02  0.40000003056E+02 0.  0.
         12    1    3    3    0    0  0.17961354650E+02  0.27728540063E+02  0.16257230649E+02  0.36820914482E+02  0.00000000000E+00 0. -1.
         11    1    4    4    0    0 -0.82042402653E+01 -0.28739320665E+02 -0.21104633825E+02  0.36587753139E+02  0.51100000000E-03 0.  1.
        -11    1    4    4    0    0 -0.18074109913E+01 -0.42442685389E+01  0.66374287031E+01  0.80830693411E+01  0.51100000000E-03 0. -1.
         12    1    4    4    0    0 -0.79497033936E+01  0.52550491408E+01 -0.17900255267E+01  0.96962630381E+01  0.00000000000E+00 0. -1.
</event>
<event>
 8    1  0.2509217E-006  0.9118800E+02  0.7816164E-02  0.1184000E+00
        -11   -1    0    0    0    0  0.00000000000E+00  0.00000000000E+00  0.45593999997E+02  0.45594000000E+02  0.51100000000E-03 0. -1.
         11   -1    0    0    0    0 -0.00000000000E+00 -0.00000000000E+00 -0.45593999997E+02  0.45594000000E+02  0.51100000000E-03 0.  1.
         23    2    1    2    0    0 -0.71054273576E-14  0.00000000000E+00  0.00000000000E+00  0.91188000000E+02  0.91188000000E+02 0.  0.
    9900012    2    3    3    0    0 -0.34489668228E+02 -0.46842678746E+01 -0.12012503188E+02  0.54367084574E+02  0.40000000903E+02 0.  0.
         12    1    3    3    0    0  0.34489668228E+02  0.46842678746E+01  0.12012503188E+02  0.36820915426E+02  0.00000000000E+00 0. -1.
         11    1    4    4    0    0 -0.15426005285E+02  0.52321441662E+01  0.18244073505E+01  0.16391016871E+02  0.51100000000E-03 0.  1.
        -11    1    4    4    0    0 -0.89794407162E+01  0.57224337768E+01  0.47642249801E+01  0.11665095106E+02  0.51100000000E-03 0. -1.
        -12    1    4    4    0    0 -0.10084222227E+02 -0.15638845818E+02 -0.18601135518E+02  0.26310972597E+02  0.00000000000E+00 0.  1.
</event>
<event>
 8    1  0.2509217E-006  0.9118800E+02  0.7816164E-02  0.1184000E+00
        -11   -1    0    0    0    0  0.00000000000E+00  0.00000000000E+00  0.45593999997E+02  0.45594000000E+02  0.51100000000E-03 0.  1.
         11   -1    0    0    0    0 -0.00000000000E+00 -0.00000000000E+00 -0.45593999997E+02  0.45594000000E+02  0.51100000000E-03 0. -1.
         23    2    1    2    0    0  0.00000000000E+00  0.00000000000E+00 -0.44408920985E-15  0.91188000000E+02  0.91188000000E+02 0.  0.
    9900012    2    3    3    0    0  0.21875394729E+02 -0.29580936472E+02  0.14882938526E+01  0.54367085893E+02  0.40000003909E+02 0.  0.
         12    1    3    3    0    0 -0.21875394729E+02  0.29580936472E+02 -0.14882938526E+01  0.36820914107E+02  0.00000000000E+00 0. -1.
         11    1    4    4    0    0  0.17459393380E+02 -0.60324935725E+01 -0.11728190262E+02  0.21880855627E+02  0.51100000000E-03 0. -1.
        -11    1    4    4    0    0  0.48854664677E+01 -0.23252060628E+02  0.50368475710E+01  0.24287773463E+02  0.51100000000E-03 0.  1.
        -12    1    4    4    0    0 -0.46946511879E+00 -0.29638227116E+00  0.81796365437E+01  0.81984568021E+01  0.00000000000E+00 0.  1.
</event>
<event>
 8    1  0.2509217E-006  0.9118800E+02  0.7816164E-02  0.1184000E+00
        -11   -1    0    0    0    0  0.00000000000E+00  0.00000000000E+00  0.45593999997E+02  0.45594000000E+02  0.51100000000E-03 0.  1.
         11   -1    0    0    0    0 -0.00000000000E+00 -0.00000000000E+00 -0.45593999997E+02  0.45594000000E+02  0.51100000000E-03 0. -1.
         23    2    1    2    0    0  0.26645352591E-14  0.00000000000E+00 -0.88817841970E-15  0.91188000000E+02  0.91188000000E+02 0.  0.
    9900012    2    3    3    0    0  0.73881665836E+01  0.35761523691E+02 -0.47231231477E+01  0.54367089169E+02  0.40000011379E+02 0.  0.
         12    1    3    3    0    0 -0.73881665836E+01 -0.35761523691E+02  0.47231231477E+01  0.36820910831E+02  0.00000000000E+00 0. -1.
         11    1    4    4    0    0  0.88132431984E+01  0.64097447826E+01  0.83645981321E+01  0.13737706724E+02  0.51100000000E-03 0. -1.
        -11    1    4    4    0    0  0.68574673460E+01  0.84107209393E+01  0.48038195271E+01  0.11867677424E+02  0.51100000000E-03 0.  1.
        -12    1    4    4    0    0 -0.82825439608E+01  0.20941057969E+02 -0.17891540807E+02  0.28761705022E+02  0.00000000000E+00 0.  1.
</event>
<event>
 8    1  0.2509217E-006  0.9118800E+02  0.7816164E-02  0.1184000E+00
        -11   -1    0    0    0    0  0.00000000000E+00  0.00000000000E+00  0.45593999997E+02  0.45594000000E+02  0.51100000000E-03 0.  1.
         11   -1    0    0    0    0 -0.00000000000E+00 -0.00000000000E+00 -0.45593999997E+02  0.45594000000E+02  0.51100000000E-03 0. -1.
         23    2    1    2    0    0  0.00000000000E+00  0.00000000000E+00  0.26645352591E-14  0.91188000000E+02  0.91188000000E+02 0.  0.
    9900012    2    3    3    0    0  0.44671933841E+01  0.35743634954E+02  0.76299761912E+01  0.54367084841E+02  0.40000001511E+02 0.  0.
        -12    1    3    3    0    0 -0.44671933841E+01 -0.35743634954E+02 -0.76299761912E+01  0.36820915159E+02  0.00000000000E+00 0.  1.
         11    1    4    4    0    0  0.65751385142E+01  0.83864115534E+01 -0.81634688609E+01  0.13424104042E+02  0.51100000000E-03 0. -1.
        -11    1    4    4    0    0  0.79345253527E+01  0.24889032313E+02  0.15936732338E+02  0.30600654567E+02  0.51100000000E-03 0.  1.
         12    1    4    4    0    0 -0.10042470483E+02  0.24681910880E+01 -0.14328728543E+00  0.10342326232E+02  0.00000000000E+00 0. -1.
</event>
<event>
 8    1  0.2509217E-006  0.9118800E+02  0.7816164E-02  0.1184000E+00
        -11   -1    0    0    0    0  0.00000000000E+00  0.00000000000E+00  0.45593999997E+02  0.45594000000E+02  0.51100000000E-03 0.  1.
         11   -1    0    0    0    0 -0.00000000000E+00 -0.00000000000E+00 -0.45593999997E+02  0.45594000000E+02  0.51100000000E-03 0. -1.
         23    2    1    2    0    0  0.17763568394E-14  0.88817841970E-15  0.00000000000E+00  0.91188000000E+02  0.91188000000E+02 0.  0.
    9900012    2    3    3    0    0  0.11344634913E+02 -0.51685437777E+01  0.34646289190E+02  0.54367082837E+02  0.39999996943E+02 0.  0.
         12    1    3    3    0    0 -0.11344634913E+02  0.51685437777E+01 -0.34646289190E+02  0.36820917163E+02  0.00000000000E+00 0. -1.
         11    1    4    4    0    0  0.30146312874E+01  0.11163085153E+02  0.44134517292E+01  0.12376632351E+02  0.51100000000E-03 0. -1.
        -11    1    4    4    0    0 -0.14661244474E+01  0.36086801061E+01  0.13847847499E+02  0.14385234570E+02  0.51100000000E-03 0.  1.
        -12    1    4    4    0    0  0.97961280733E+01 -0.19940309037E+02  0.16384989962E+02  0.27605215916E+02  0.00000000000E+00 0.  1.
</event>
<event>
 8    1  0.2509217E-006  0.9118800E+02  0.7816164E-02  0.1184000E+00
        -11   -1    0    0    0    0  0.00000000000E+00  0.00000000000E+00  0.45593999997E+02  0.45594000000E+02  0.51100000000E-03 0.  1.
         11   -1    0    0    0    0 -0.00000000000E+00 -0.00000000000E+00 -0.45593999997E+02  0.45594000000E+02  0.51100000000E-03 0. -1.
         23    2    1    2    0    0 -0.44408920985E-15  0.00000000000E+00  0.17763568394E-14  0.91188000000E+02  0.91188000000E+02 0.  0.
    9900012    2    3    3    0    0 -0.22092375606E+01 -0.33100323358E+02  0.15977099011E+02  0.54367084343E+02  0.40000000378E+02 0.  0.
        -12    1    3    3    0    0  0.22092375606E+01  0.33100323358E+02 -0.15977099011E+02  0.36820915657E+02  0.00000000000E+00 0.  1.
         11    1    4    4    0    0  0.37155366309E+01 -0.27180916355E+02  0.86165929123E+01  0.28755053469E+02  0.51100000000E-03 0. -1.
        -11    1    4    4    0    0 -0.10895574671E+02 -0.11741146862E+02  0.17335324839E+01  0.16111275933E+02  0.51100000000E-03 0.  1.
        -12    1    4    4    0    0  0.49708004799E+01  0.58217398589E+01  0.56269736144E+01  0.95007549412E+01  0.00000000000E+00 0.  1.
</event>
<event>
 8    1  0.2509217E-006  0.9118800E+02  0.7816164E-02  0.1184000E+00
        -11   -1    0    0    0    0  0.00000000000E+00  0.00000000000E+00  0.45593999997E+02  0.45594000000E+02  0.51100000000E-03 0.  1.
         11   -1    0    0    0    0 -0.00000000000E+00 -0.00000000000E+00 -0.45593999997E+02  0.45594000000E+02  0.51100000000E-03 0. -1.
         23    2    1    2    0    0  0.00000000000E+00  0.00000000000E+00  0.00000000000E+00  0.91188000000E+02  0.91188000000E+02 0.  0.
    9900012    2    3    3    0    0  0.99125467486E+01  0.16176914838E+02 -0.31556750664E+02  0.54367086525E+02  0.40000005350E+02 0.  0.
        -12    1    3    3    0    0 -0.99125467486E+01 -0.16176914838E+02  0.31556750664E+02  0.36820913475E+02  0.00000000000E+00 0.  1.
         11    1    4    4    0    0 -0.11039066083E+02 -0.44722056608E+01 -0.14136217076E+02  0.18484973274E+02  0.51100000000E-03 0. -1.
        -11    1    4    4    0    0  0.29927868915E+01  0.10070593331E+02 -0.64593863982E+01  0.12332773262E+02  0.51100000000E-03 0.  1.
        -12    1    4    4    0    0  0.17958825941E+02  0.10578527168E+02 -0.10961147189E+02  0.23549339989E+02  0.00000000000E+00 0.  1.
</event>
<event>
 8    1  0.2509217E-006  0.9118800E+02  0.7816164E-02  0.1184000E+00
        -11   -1    0    0    0    0  0.00000000000E+00  0.00000000000E+00  0.45593999997E+02  0.45594000000E+02  0.51100000000E-03 0. -1.
         11   -1    0    0    0    0 -0.00000000000E+00 -0.00000000000E+00 -0.45593999997E+02  0.45594000000E+02  0.51100000000E-03 0.  1.
         23    2    1    2    0    0  0.00000000000E+00 -0.88817841970E-15  0.00000000000E+00  0.91188000000E+02  0.91188000000E+02 0.  0.
    9900012    2    3    3    0    0  0.28758026462E+02  0.28346692599E+01  0.22819288892E+02  0.54367090433E+02  0.40000014259E+02 0.  0.
        -12    1    3    3    0    0 -0.28758026462E+02 -0.28346692599E+01 -0.22819288892E+02  0.36820909567E+02  0.00000000000E+00 0.  1.
         11    1    4    4    0    0  0.16065801847E+02  0.10429342744E+02  0.12866773968E+02  0.23074554203E+02  0.51100000000E-03 0. -1.
        -11    1    4    4    0    0  0.15343376336E+02 -0.14169143912E+02  0.11771517585E+02  0.23973995560E+02  0.51100000000E-03 0.  1.
        -12    1    4    4    0    0 -0.26511517205E+01  0.65744704281E+01 -0.18190026610E+01  0.73185406699E+01  0.00000000000E+00 0.  1.
</event>
<event>
 8    1  0.2509217E-006  0.9118800E+02  0.7816164E-02  0.1184000E+00
        -11   -1    0    0    0    0  0.00000000000E+00  0.00000000000E+00  0.45593999997E+02  0.45594000000E+02  0.51100000000E-03 0. -1.
         11   -1    0    0    0    0 -0.00000000000E+00 -0.00000000000E+00 -0.45593999997E+02  0.45594000000E+02  0.51100000000E-03 0.  1.
         23    2    1    2    0    0  0.00000000000E+00 -0.17763568394E-14  0.35527136788E-14  0.91188000000E+02  0.91188000000E+02 0.  0.
    9900012    2    3    3    0    0  0.16586716043E+02  0.10621194490E+02 -0.31110296799E+02  0.54367088979E+02  0.40000010944E+02 0.  0.
         12    1    3    3    0    0 -0.16586716043E+02 -0.10621194490E+02  0.31110296799E+02  0.36820911021E+02  0.00000000000E+00 0. -1.
         11    1    4    4    0    0  0.19407721417E+01  0.88433660524E+01 -0.12756665907E+01  0.91432513448E+01  0.51100000000E-03 0.  1.
        -11    1    4    4    0    0  0.20574233158E+01  0.55876284304E+01  0.51349204038E+01  0.78626961019E+01  0.51100000000E-03 0. -1.
        -12    1    4    4    0    0  0.12588520586E+02 -0.38097999926E+01 -0.34969550612E+02  0.37361141532E+02  0.00000000000E+00 0.  1.
</event>
<event>
 8    1  0.2509217E-006  0.9118800E+02  0.7816164E-02  0.1184000E+00
        -11   -1    0    0    0    0  0.00000000000E+00  0.00000000000E+00  0.45593999997E+02  0.45594000000E+02  0.51100000000E-03 0. -1.
         11   -1    0    0    0    0 -0.00000000000E+00 -0.00000000000E+00 -0.45593999997E+02  0.45594000000E+02  0.51100000000E-03 0.  1.
         23    2    1    2    0    0 -0.88817841970E-15  0.00000000000E+00  0.00000000000E+00  0.91188000000E+02  0.91188000000E+02 0.  0.
    9900012    2    3    3    0    0  0.39034077292E+01  0.35032136075E+02 -0.10643901350E+02  0.54367084940E+02  0.40000001739E+02 0.  0.
        -12    1    3    3    0    0 -0.39034077292E+01 -0.35032136075E+02  0.10643901350E+02  0.36820915060E+02  0.00000000000E+00 0.  1.
         11    1    4    4    0    0 -0.54042201652E+00  0.84534839254E+01  0.62342777051E+01  0.10517588374E+02  0.51100000000E-03 0. -1.
        -11    1    4    4    0    0 -0.10758565998E+02  0.20396931452E+02 -0.14568025920E+02  0.27276527170E+02  0.51100000000E-03 0.  1.
        -12    1    4    4    0    0  0.15202395743E+02  0.61817206976E+01 -0.23101531356E+01  0.16572969397E+02  0.00000000000E+00 0.  1.
</event>
<event>
 8    1  0.2509217E-006  0.9118800E+02  0.7816164E-02  0.1184000E+00
        -11   -1    0    0    0    0  0.00000000000E+00  0.00000000000E+00  0.45593999997E+02  0.45594000000E+02  0.51100000000E-03 0.  1.
         11   -1    0    0    0    0 -0.00000000000E+00 -0.00000000000E+00 -0.45593999997E+02  0.45594000000E+02  0.51100000000E-03 0. -1.
         23    2    1    2    0    0  0.00000000000E+00  0.88817841970E-15  0.00000000000E+00  0.91188000000E+02  0.91188000000E+02 0.  0.
    9900012    2    3    3    0    0 -0.20033267901E+02 -0.40393114148E+01 -0.30628946196E+02  0.54367079254E+02  0.39999988776E+02 0.  0.
        -12    1    3    3    0    0  0.20033267901E+02  0.40393114148E+01  0.30628946196E+02  0.36820920746E+02  0.00000000000E+00 0.  1.
         11    1    4    4    0    0  0.19804299753E+00 -0.10988467874E+02 -0.12919725085E+02  0.16961867343E+02  0.51100000000E-03 0. -1.
        -11    1    4    4    0    0 -0.98189738380E+01 -0.27730444393E+01  0.43940291726E+01  0.11108983541E+02  0.51100000000E-03 0.  1.
        -12    1    4    4    0    0 -0.10412337060E+02  0.97222008981E+01 -0.22103250284E+02  0.26296228370E+02  0.00000000000E+00 0.  1.
</event>
<event>
 8    1  0.2509217E-006  0.9118800E+02  0.7816164E-02  0.1184000E+00
        -11   -1    0    0    0    0  0.00000000000E+00  0.00000000000E+00  0.45593999997E+02  0.45594000000E+02  0.51100000000E-03 0.  1.
         11   -1    0    0    0    0 -0.00000000000E+00 -0.00000000000E+00 -0.45593999997E+02  0.45594000000E+02  0.51100000000E-03 0. -1.
         23    2    1    2    0    0  0.22204460493E-14  0.17763568394E-14  0.00000000000E+00  0.91188000000E+02  0.91188000000E+02 0.  0.
    9900012    2    3    3    0    0  0.31790244126E+01 -0.10013480992E+02  0.35290288815E+02  0.54367075481E+02  0.39999980174E+02 0.  0.
         12    1    3    3    0    0 -0.31790244126E+01  0.10013480992E+02 -0.35290288815E+02  0.36820924519E+02  0.00000000000E+00 0. -1.
         11    1    4    4    0    0 -0.58423983342E+01  0.41977588410E-01 -0.56330839139E+01  0.81158496201E+01  0.51100000000E-03 0. -1.
        -11    1    4    4    0    0  0.10348470501E+02 -0.46237091391E+01  0.10946723427E+02  0.15757546826E+02  0.51100000000E-03 0.  1.
         12    1    4    4    0    0 -0.13270477545E+01 -0.54317494417E+01  0.29976649302E+02  0.30493679035E+02  0.00000000000E+00 0. -1.
</event>
<event>
 8    1  0.2509217E-006  0.9118800E+02  0.7816164E-02  0.1184000E+00
        -11   -1    0    0    0    0  0.00000000000E+00  0.00000000000E+00  0.45593999997E+02  0.45594000000E+02  0.51100000000E-03 0.  1.
         11   -1    0    0    0    0 -0.00000000000E+00 -0.00000000000E+00 -0.45593999997E+02  0.45594000000E+02  0.51100000000E-03 0. -1.
         23    2    1    2    0    0  0.00000000000E+00  0.17763568394E-14  0.35527136788E-14  0.91188000000E+02  0.91188000000E+02 0.  0.
    9900012    2    3    3    0    0 -0.21554021438E+02 -0.14052329947E+02  0.26338616323E+02  0.54367264987E+02  0.40000412189E+02 0.  0.
         12    1    3    3    0    0  0.21554021438E+02  0.14052329947E+02 -0.26338616323E+02  0.36820735013E+02  0.00000000000E+00 0. -1.
         11    1    4    4    0    0 -0.84296311135E+01  0.98251766679E+00 -0.72703438476E+01  0.11175058013E+02  0.51100000000E-03 0. -1.
        -11    1    4    4    0    0 -0.94826808122E+01 -0.15401765101E+02  0.34902211284E+02  0.39310303438E+02  0.51100000000E-03 0.  1.
        -12    1    4    4    0    0 -0.36417095126E+01  0.36691748779E+00 -0.12932511139E+01  0.38819035357E+01  0.00000000000E+00 0.  1.
</event>
<event>
 8    1  0.2509217E-006  0.9118800E+02  0.7816164E-02  0.1184000E+00
        -11   -1    0    0    0    0  0.00000000000E+00  0.00000000000E+00  0.45593999997E+02  0.45594000000E+02  0.51100000000E-03 0.  1.
         11   -1    0    0    0    0 -0.00000000000E+00 -0.00000000000E+00 -0.45593999997E+02  0.45594000000E+02  0.51100000000E-03 0. -1.
         23    2    1    2    0    0  0.00000000000E+00  0.00000000000E+00 -0.35527136788E-14  0.91188000000E+02  0.91188000000E+02 0.  0.
    9900012    2    3    3    0    0 -0.21819885505E+02 -0.16944508351E+02 -0.24342456092E+02  0.54367096490E+02  0.40000028069E+02 0.  0.
        -12    1    3    3    0    0  0.21819885505E+02  0.16944508351E+02  0.24342456092E+02  0.36820903510E+02  0.00000000000E+00 0.  1.
         11    1    4    4    0    0 -0.14845694261E+02 -0.11613019261E+02 -0.27509113412E+02  0.33346786583E+02  0.51100000000E-03 0. -1.
        -11    1    4    4    0    0  0.13762797639E+01 -0.91870697733E+00 -0.69710562292E+01  0.71647605480E+01  0.51100000000E-03 0.  1.
         12    1    4    4    0    0 -0.83504710077E+01 -0.44127821121E+01  0.10137713549E+02  0.13855549359E+02  0.00000000000E+00 0. -1.
</event>
<event>
 8    1  0.2509217E-006  0.9118800E+02  0.7816164E-02  0.1184000E+00
        -11   -1    0    0    0    0  0.00000000000E+00  0.00000000000E+00  0.45593999997E+02  0.45594000000E+02  0.51100000000E-03 0.  1.
         11   -1    0    0    0    0 -0.00000000000E+00 -0.00000000000E+00 -0.45593999997E+02  0.45594000000E+02  0.51100000000E-03 0. -1.
         23    2    1    2    0    0  0.00000000000E+00  0.17763568394E-14  0.00000000000E+00  0.91188000000E+02  0.91188000000E+02 0.  0.
    9900012    2    3    3    0    0  0.34203883555E+02  0.10552149564E+02 -0.86328836866E+01  0.54367079433E+02  0.39999989183E+02 0.  0.
         12    1    3    3    0    0 -0.34203883555E+02 -0.10552149564E+02  0.86328836866E+01  0.36820920567E+02  0.00000000000E+00 0. -1.
         11    1    4    4    0    0  0.68974193287E+01 -0.52105587584E+01 -0.99447662682E+01  0.13176596388E+02  0.51100000000E-03 0. -1.
        -11    1    4    4    0    0  0.30456824016E+02  0.10297990445E+02  0.67622597359E+01  0.32854145756E+02  0.51100000000E-03 0.  1.
         12    1    4    4    0    0 -0.31503597899E+01  0.54647178770E+01 -0.54503771542E+01  0.83363372895E+01  0.00000000000E+00 0. -1.
</event>
<event>
 8    1  0.2509217E-006  0.9118800E+02  0.7816164E-02  0.1184000E+00
        -11   -1    0    0    0    0  0.00000000000E+00  0.00000000000E+00  0.45593999997E+02  0.45594000000E+02  0.51100000000E-03 0.  1.
         11   -1    0    0    0    0 -0.00000000000E+00 -0.00000000000E+00 -0.45593999997E+02  0.45594000000E+02  0.51100000000E-03 0. -1.
         23    2    1    2    0    0  0.17763568394E-14  0.88817841970E-15  0.71054273576E-14  0.91188000000E+02  0.91188000000E+02 0.  0.
    9900012    2    3    3    0    0  0.10685878537E+02 -0.52103807467E+01 -0.34848881114E+02  0.54367074122E+02  0.39999977076E+02 0.  0.
        -12    1    3    3    0    0 -0.10685878537E+02  0.52103807467E+01  0.34848881114E+02  0.36820925878E+02  0.00000000000E+00 0.  1.
         11    1    4    4    0    0 -0.35057839826E+01 -0.63790756368E+01  0.15840551699E+01  0.74493193216E+01  0.51100000000E-03 0. -1.
        -11    1    4    4    0    0 -0.27842212519E+01  0.45454318868E+01  0.12278707023E+01  0.54699639615E+01  0.51100000000E-03 0.  1.
         12    1    4    4    0    0  0.16975883771E+02 -0.33767369967E+01 -0.37660806986E+02  0.41447790839E+02  0.00000000000E+00 0. -1.
</event>
<event>
 8    1  0.2509217E-006  0.9118800E+02  0.7816164E-02  0.1184000E+00
        -11   -1    0    0    0    0  0.00000000000E+00  0.00000000000E+00  0.45593999997E+02  0.45594000000E+02  0.51100000000E-03 0.  1.
         11   -1    0    0    0    0 -0.00000000000E+00 -0.00000000000E+00 -0.45593999997E+02  0.45594000000E+02  0.51100000000E-03 0. -1.
         23    2    1    2    0    0  0.00000000000E+00 -0.35527136788E-14 -0.17763568394E-14  0.91188000000E+02  0.91188000000E+02 0.  0.
    9900012    2    3    3    0    0 -0.19045545854E+02  0.30148891356E+02 -0.91700513637E+01  0.54367104996E+02  0.40000047459E+02 0.  0.
         12    1    3    3    0    0  0.19045545854E+02 -0.30148891356E+02  0.91700513637E+01  0.36820895004E+02  0.00000000000E+00 0. -1.
         11    1    4    4    0    0 -0.81683473023E+01  0.63257973250E+01 -0.19100347994E+02  0.21715453097E+02  0.51100000000E-03 0. -1.
        -11    1    4    4    0    0  0.42859826739E+00  0.16740204580E+02  0.13730357199E+01  0.16801886002E+02  0.51100000000E-03 0.  1.
         12    1    4    4    0    0 -0.11305796819E+02  0.70828894508E+01  0.85572609107E+01  0.15849765897E+02  0.00000000000E+00 0. -1.
</event>
<event>
 8    1  0.2509217E-006  0.9118800E+02  0.7816164E-02  0.1184000E+00
        -11   -1    0    0    0    0  0.00000000000E+00  0.00000000000E+00  0.45593999997E+02  0.45594000000E+02  0.51100000000E-03 0. -1.
         11   -1    0    0    0    0 -0.00000000000E+00 -0.00000000000E+00 -0.45593999997E+02  0.45594000000E+02  0.51100000000E-03 0.  1.
         23    2    1    2    0    0  0.00000000000E+00 -0.35527136788E-14 -0.66613381478E-15  0.91188000000E+02  0.91188000000E+02 0.  0.
    9900012    2    3    3    0    0 -0.33032467770E+02 -0.16205579674E+02 -0.14237243069E+01  0.54366922742E+02  0.39999631972E+02 0.  0.
        -12    1    3    3    0    0  0.33032467770E+02  0.16205579674E+02  0.14237243069E+01  0.36821077258E+02  0.00000000000E+00 0.  1.
         11    1    4    4    0    0 -0.14949514153E+02 -0.49908962792E+01  0.37647016579E+01  0.16204011784E+02  0.51100000000E-03 0. -1.
        -11    1    4    4    0    0 -0.21044067092E+02 -0.16828542268E+01 -0.13597770926E+02  0.25111434299E+02  0.51100000000E-03 0.  1.
        -12    1    4    4    0    0  0.29611134744E+01 -0.95318291680E+01  0.84093449612E+01  0.13051476659E+02  0.00000000000E+00 0.  1.
</event>
<event>
 8    1  0.2509217E-006  0.9118800E+02  0.7816164E-02  0.1184000E+00
        -11   -1    0    0    0    0  0.00000000000E+00  0.00000000000E+00  0.45593999997E+02  0.45594000000E+02  0.51100000000E-03 0. -1.
         11   -1    0    0    0    0 -0.00000000000E+00 -0.00000000000E+00 -0.45593999997E+02  0.45594000000E+02  0.51100000000E-03 0.  1.
         23    2    1    2    0    0  0.35527136788E-14  0.00000000000E+00 -0.35527136788E-14  0.91188000000E+02  0.91188000000E+02 0.  0.
    9900012    2    3    3    0    0  0.16463575759E+02 -0.27966108026E+02  0.17396189674E+02  0.54367082846E+02  0.39999996964E+02 0.  0.
         12    1    3    3    0    0 -0.16463575759E+02  0.27966108026E+02 -0.17396189674E+02  0.36820917154E+02  0.00000000000E+00 0. -1.
         11    1    4    4    0    0  0.10404698464E+02  0.23315524824E+01  0.16162232990E+02  0.19362635734E+02  0.51100000000E-03 0. -1.
        -11    1    4    4    0    0  0.25770075439E+01  0.13382362907E+01 -0.10690522579E+01  0.30943039996E+01  0.51100000000E-03 0.  1.
        -12    1    4    4    0    0  0.34818697511E+01 -0.31635896799E+02  0.23030089426E+01  0.31910143112E+02  0.00000000000E+00 0.  1.
</event>
<event>
 8    1  0.2509217E-006  0.9118800E+02  0.7816164E-02  0.1184000E+00
        -11   -1    0    0    0    0  0.00000000000E+00  0.00000000000E+00  0.45593999997E+02  0.45594000000E+02  0.51100000000E-03 0.  1.
         11   -1    0    0    0    0 -0.00000000000E+00 -0.00000000000E+00 -0.45593999997E+02  0.45594000000E+02  0.51100000000E-03 0. -1.
         23    2    1    2    0    0 -0.35527136788E-14  0.00000000000E+00  0.00000000000E+00  0.91188000000E+02  0.91188000000E+02 0.  0.
    9900012    2    3    3    0    0  0.24086522626E+02 -0.14068406699E+02 -0.24035378326E+02  0.54367081346E+02  0.39999993544E+02 0.  0.
        -12    1    3    3    0    0 -0.24086522626E+02  0.14068406699E+02  0.24035378326E+02  0.36820918654E+02  0.00000000000E+00 0.  1.
         11    1    4    4    0    0  0.85258888374E+01  0.37613963208E+01 -0.22702136554E+02  0.24540291097E+02  0.51100000000E-03 0. -1.
        -11    1    4    4    0    0  0.47680122615E+01 -0.77488851017E+01  0.82004098822E+01  0.12248505368E+02  0.51100000000E-03 0.  1.
         12    1    4    4    0    0  0.10792621527E+02 -0.10080917918E+02 -0.95336516541E+01  0.17578284881E+02  0.00000000000E+00 0. -1.
</event>
<event>
 8    1  0.2509217E-006  0.9118800E+02  0.7816164E-02  0.1184000E+00
        -11   -1    0    0    0    0  0.00000000000E+00  0.00000000000E+00  0.45593999997E+02  0.45594000000E+02  0.51100000000E-03 0.  1.
         11   -1    0    0    0    0 -0.00000000000E+00 -0.00000000000E+00 -0.45593999997E+02  0.45594000000E+02  0.51100000000E-03 0. -1.
         23    2    1    2    0    0 -0.71054273576E-14  0.00000000000E+00  0.00000000000E+00  0.91188000000E+02  0.91188000000E+02 0.  0.
    9900012    2    3    3    0    0 -0.19413747641E+02 -0.26174195587E+02  0.17140738258E+02  0.54366986704E+02  0.39999777789E+02 0.  0.
         12    1    3    3    0    0  0.19413747641E+02  0.26174195587E+02 -0.17140738258E+02  0.36821013296E+02  0.00000000000E+00 0. -1.
         11    1    4    4    0    0 -0.26068993360E+01  0.57750234773E+01 -0.27825743043E+01  0.69202268989E+01  0.51100000000E-03 0. -1.
        -11    1    4    4    0    0 -0.19447354143E+02 -0.13403133850E+02  0.68129570246E+01  0.24581699775E+02  0.51100000000E-03 0.  1.
         12    1    4    4    0    0  0.26405058381E+01 -0.18546085215E+02  0.13110355538E+02  0.22865060030E+02  0.00000000000E+00 0. -1.
</event>
<event>
 8    1  0.2509217E-006  0.9118800E+02  0.7816164E-02  0.1184000E+00
        -11   -1    0    0    0    0  0.00000000000E+00  0.00000000000E+00  0.45593999997E+02  0.45594000000E+02  0.51100000000E-03 0. -1.
         11   -1    0    0    0    0 -0.00000000000E+00 -0.00000000000E+00 -0.45593999997E+02  0.45594000000E+02  0.51100000000E-03 0.  1.
         23    2    1    2    0    0  0.00000000000E+00  0.00000000000E+00  0.00000000000E+00  0.91188000000E+02  0.91188000000E+02 0.  0.
    9900012    2    3    3    0    0 -0.19290256498E+02 -0.21850447791E+02 -0.22499392691E+02  0.54367099198E+02  0.40000034241E+02 0.  0.
         12    1    3    3    0    0  0.19290256498E+02  0.21850447791E+02  0.22499392691E+02  0.36820900802E+02  0.00000000000E+00 0. -1.
         11    1    4    4    0    0  0.38057209905E+00 -0.39895730359E+01  0.65926541040E+01  0.77152197977E+01  0.51100000000E-03 0. -1.
        -11    1    4    4    0    0 -0.38117927352E+01  0.49997863685E+01  0.14925217819E+00  0.62888714457E+01  0.51100000000E-03 0.  1.
        -12    1    4    4    0    0 -0.15859035861E+02 -0.22860661124E+02 -0.29241298973E+02  0.40363007954E+02  0.00000000000E+00 0.  1.
</event>
<event>
 8    1  0.2509217E-006  0.9118800E+02  0.7816164E-02  0.1184000E+00
        -11   -1    0    0    0    0  0.00000000000E+00  0.00000000000E+00  0.45593999997E+02  0.45594000000E+02  0.51100000000E-03 0. -1.
         11   -1    0    0    0    0 -0.00000000000E+00 -0.00000000000E+00 -0.45593999997E+02  0.45594000000E+02  0.51100000000E-03 0.  1.
         23    2    1    2    0    0 -0.17763568394E-14 -0.13322676296E-14  0.00000000000E+00  0.91188000000E+02  0.91188000000E+02 0.  0.
    9900012    2    3    3    0    0 -0.12916999400E+02 -0.36846352490E+01  0.34283406070E+02  0.54367118123E+02  0.40000077384E+02 0.  0.
        -12    1    3    3    0    0  0.12916999400E+02  0.36846352490E+01 -0.34283406070E+02  0.36820881877E+02  0.00000000000E+00 0.  1.
         11    1    4    4    0    0 -0.17458301145E+01  0.40110384110E+01  0.92198077299E+01  0.10204959910E+02  0.51100000000E-03 0. -1.
        -11    1    4    4    0    0 -0.21174370418E+02 -0.11722893802E+02  0.22571269298E+02  0.33094446660E+02  0.51100000000E-03 0.  1.
        -12    1    4    4    0    0  0.10003201133E+02  0.40272201421E+01  0.24923290423E+01  0.11067711553E+02  0.00000000000E+00 0.  1.
</event>
<event>
 8    1  0.2509217E-006  0.9118800E+02  0.7816164E-02  0.1184000E+00
        -11   -1    0    0    0    0  0.00000000000E+00  0.00000000000E+00  0.45593999997E+02  0.45594000000E+02  0.51100000000E-03 0.  1.
         11   -1    0    0    0    0 -0.00000000000E+00 -0.00000000000E+00 -0.45593999997E+02  0.45594000000E+02  0.51100000000E-03 0. -1.
         23    2    1    2    0    0  0.00000000000E+00  0.00000000000E+00 -0.35527136788E-14  0.91188000000E+02  0.91188000000E+02 0.  0.
    9900012    2    3    3    0    0  0.18571308024E+02 -0.20475383747E+02  0.24323690888E+02  0.54367126033E+02  0.40000095417E+02 0.  0.
         12    1    3    3    0    0 -0.18571308024E+02  0.20475383747E+02 -0.24323690888E+02  0.36820873967E+02  0.00000000000E+00 0. -1.
         11    1    4    4    0    0  0.11268285392E+01  0.12053163969E+01 -0.25852209830E+01  0.30669036446E+01  0.51100000000E-03 0. -1.
        -11    1    4    4    0    0 -0.77985473360E+01 -0.15960528483E+02  0.11880189968E+02  0.21370417028E+02  0.51100000000E-03 0.  1.
         12    1    4    4    0    0  0.25243026820E+02 -0.57201716613E+01  0.15028721903E+02  0.29929805361E+02  0.00000000000E+00 0. -1.
</event>
<event>
 8    1  0.2509217E-006  0.9118800E+02  0.7816164E-02  0.1184000E+00
        -11   -1    0    0    0    0  0.00000000000E+00  0.00000000000E+00  0.45593999997E+02  0.45594000000E+02  0.51100000000E-03 0.  1.
         11   -1    0    0    0    0 -0.00000000000E+00 -0.00000000000E+00 -0.45593999997E+02  0.45594000000E+02  0.51100000000E-03 0. -1.
         23    2    1    2    0    0  0.00000000000E+00  0.00000000000E+00  0.17763568394E-14  0.91188000000E+02  0.91188000000E+02 0.  0.
    9900012    2    3    3    0    0 -0.23923779113E+02 -0.26282140143E+02 -0.96269262759E+01  0.54367138969E+02  0.40000124908E+02 0.  0.
         12    1    3    3    0    0  0.23923779113E+02  0.26282140143E+02  0.96269262759E+01  0.36820861031E+02  0.00000000000E+00 0. -1.
         11    1    4    4    0    0 -0.14218389722E+02 -0.10265035552E+02 -0.36291102877E+01  0.17908210489E+02  0.51100000000E-03 0. -1.
        -11    1    4    4    0    0  0.12532609326E+00 -0.22168051896E+02  0.21706090763E+01  0.22274419757E+02  0.51100000000E-03 0.  1.
         12    1    4    4    0    0 -0.98307154840E+01  0.61509473051E+01 -0.81684250645E+01  0.14184508723E+02  0.00000000000E+00 0. -1.
</event>
<event>
 8    1  0.2509217E-006  0.9118800E+02  0.7816164E-02  0.1184000E+00
        -11   -1    0    0    0    0  0.00000000000E+00  0.00000000000E+00  0.45593999997E+02  0.45594000000E+02  0.51100000000E-03 0. -1.
         11   -1    0    0    0    0 -0.00000000000E+00 -0.00000000000E+00 -0.45593999997E+02  0.45594000000E+02  0.51100000000E-03 0.  1.
         23    2    1    2    0    0  0.00000000000E+00  0.00000000000E+00  0.00000000000E+00  0.91188000000E+02  0.91188000000E+02 0.  0.
    9900012    2    3    3    0    0 -0.25380500401E+02 -0.18813337229E+02  0.18912167554E+02  0.54367061122E+02  0.39999947440E+02 0.  0.
        -12    1    3    3    0    0  0.25380500401E+02  0.18813337229E+02 -0.18912167554E+02  0.36820938878E+02  0.00000000000E+00 0.  1.
         11    1    4    4    0    0 -0.21969523624E+01 -0.82659230251E+01  0.15594946725E+01  0.86939120673E+01  0.51100000000E-03 0.  1.
        -11    1    4    4    0    0 -0.13939242427E+02 -0.20585941120E+02  0.17180987797E+01  0.24920580148E+02  0.51100000000E-03 0. -1.
        -12    1    4    4    0    0 -0.92443056110E+01  0.10038526916E+02  0.15634574101E+02  0.20752568906E+02  0.00000000000E+00 0.  1.
</event>
<event>
 8    1  0.2509217E-006  0.9118800E+02  0.7816164E-02  0.1184000E+00
        -11   -1    0    0    0    0  0.00000000000E+00  0.00000000000E+00  0.45593999997E+02  0.45594000000E+02  0.51100000000E-03 0. -1.
         11   -1    0    0    0    0 -0.00000000000E+00 -0.00000000000E+00 -0.45593999997E+02  0.45594000000E+02  0.51100000000E-03 0.  1.
         23    2    1    2    0    0  0.00000000000E+00  0.00000000000E+00  0.00000000000E+00  0.91188000000E+02  0.91188000000E+02 0.  0.
    9900012    2    3    3    0    0 -0.16887403451E+02  0.52215558724E+01  0.32300651375E+02  0.54367066819E+02  0.39999960428E+02 0.  0.
        -12    1    3    3    0    0  0.16887403451E+02 -0.52215558724E+01 -0.32300651375E+02  0.36820933181E+02  0.00000000000E+00 0.  1.
         11    1    4    4    0    0 -0.12663566571E+02  0.84397055139E+01  0.63664110150E+01  0.16496234023E+02  0.51100000000E-03 0. -1.
        -11    1    4    4    0    0  0.75501334789E+01  0.75843617746E+01  0.58189579374E+01  0.12181433857E+02  0.51100000000E-03 0.  1.
         12    1    4    4    0    0 -0.11773970358E+02 -0.10802511416E+02  0.20115282423E+02  0.25689398939E+02  0.00000000000E+00 0. -1.
</event>
<event>
 8    1  0.2509217E-006  0.9118800E+02  0.7816164E-02  0.1184000E+00
        -11   -1    0    0    0    0  0.00000000000E+00  0.00000000000E+00  0.45593999997E+02  0.45594000000E+02  0.51100000000E-03 0.  1.
         11   -1    0    0    0    0 -0.00000000000E+00 -0.00000000000E+00 -0.45593999997E+02  0.45594000000E+02  0.51100000000E-03 0. -1.
         23    2    1    2    0    0 -0.35527136788E-14  0.00000000000E+00  0.00000000000E+00  0.91188000000E+02  0.91188000000E+02 0.  0.
    9900012    2    3    3    0    0 -0.27264079661E+02  0.19770482493E+02  0.14885496998E+02  0.54367081507E+02  0.39999993911E+02 0.  0.
         12    1    3    3    0    0  0.27264079661E+02 -0.19770482493E+02 -0.14885496998E+02  0.36820918493E+02  0.00000000000E+00 0. -1.
         11    1    4    4    0    0  0.40906138612E+01  0.38761445249E+01  0.62446700219E+01  0.84115112842E+01  0.51100000000E-03 0. -1.
        -11    1    4    4    0    0 -0.32999659955E+02  0.95918525540E+01  0.14400536804E+02  0.37260658248E+02  0.51100000000E-03 0.  1.
        -12    1    4    4    0    0  0.16449664324E+01  0.63024854142E+01 -0.57597098274E+01  0.86949119752E+01  0.00000000000E+00 0.  1.
</event>
<event>
 8    1  0.2509217E-006  0.9118800E+02  0.7816164E-02  0.1184000E+00
        -11   -1    0    0    0    0  0.00000000000E+00  0.00000000000E+00  0.45593999997E+02  0.45594000000E+02  0.51100000000E-03 0.  1.
         11   -1    0    0    0    0 -0.00000000000E+00 -0.00000000000E+00 -0.45593999997E+02  0.45594000000E+02  0.51100000000E-03 0. -1.
         23    2    1    2    0    0  0.00000000000E+00 -0.44408920985E-15  0.00000000000E+00  0.91188000000E+02  0.91188000000E+02 0.  0.
    9900012    2    3    3    0    0  0.14248966333E+02 -0.11662639346E+01  0.33932091605E+02  0.54367081302E+02  0.39999993443E+02 0.  0.
         12    1    3    3    0    0 -0.14248966333E+02  0.11662639346E+01 -0.33932091605E+02  0.36820918698E+02  0.00000000000E+00 0. -1.
         11    1    4    4    0    0  0.48498558508E+01 -0.53826498142E+01 -0.37850875591E+01  0.81744057208E+01  0.51100000000E-03 0. -1.
        -11    1    4    4    0    0  0.42373282917E+01  0.33314703094E+01  0.40084578205E+02  0.40445358888E+02  0.51100000000E-03 0.  1.
        -12    1    4    4    0    0  0.51617821905E+01  0.88491557019E+00 -0.23673990410E+01  0.57473166928E+01  0.00000000000E+00 0.  1.
</event>
<event>
 8    1  0.2509217E-006  0.9118800E+02  0.7816164E-02  0.1184000E+00
        -11   -1    0    0    0    0  0.00000000000E+00  0.00000000000E+00  0.45593999997E+02  0.45594000000E+02  0.51100000000E-03 0.  1.
         11   -1    0    0    0    0 -0.00000000000E+00 -0.00000000000E+00 -0.45593999997E+02  0.45594000000E+02  0.51100000000E-03 0. -1.
         23    2    1    2    0    0  0.00000000000E+00  0.99920072216E-15  0.00000000000E+00  0.91188000000E+02  0.91188000000E+02 0.  0.
    9900012    2    3    3    0    0  0.12801222855E+02  0.65267541121E+00 -0.34517857070E+02  0.54367085447E+02  0.40000002895E+02 0.  0.
        -12    1    3    3    0    0 -0.12801222855E+02 -0.65267541121E+00  0.34517857070E+02  0.36820914553E+02  0.00000000000E+00 0.  1.
         11    1    4    4    0    0  0.22990416596E+02 -0.39696988333E+01 -0.20361986648E+02  0.30966566885E+02  0.51100000000E-03 0. -1.
        -11    1    4    4    0    0 -0.39620761353E+01  0.73718860392E+01 -0.79663076214E+00  0.84069835202E+01  0.51100000000E-03 0.  1.
         12    1    4    4    0    0 -0.62271176060E+01 -0.27495117947E+01 -0.13359239660E+02  0.14993535043E+02  0.00000000000E+00 0. -1.
</event>
<event>
 8    1  0.2509217E-006  0.9118800E+02  0.7816164E-02  0.1184000E+00
        -11   -1    0    0    0    0  0.00000000000E+00  0.00000000000E+00  0.45593999997E+02  0.45594000000E+02  0.51100000000E-03 0.  1.
         11   -1    0    0    0    0 -0.00000000000E+00 -0.00000000000E+00 -0.45593999997E+02  0.45594000000E+02  0.51100000000E-03 0. -1.
         23    2    1    2    0    0  0.00000000000E+00  0.00000000000E+00  0.00000000000E+00  0.91188000000E+02  0.91188000000E+02 0.  0.
    9900012    2    3    3    0    0  0.34168605171E+02  0.10615153494E+02 -0.86950478782E+01  0.54367096689E+02  0.40000028522E+02 0.  0.
        -12    1    3    3    0    0 -0.34168605171E+02 -0.10615153494E+02  0.86950478782E+01  0.36820903311E+02  0.00000000000E+00 0.  1.
         11    1    4    4    0    0  0.11978485445E+02  0.10350811324E+02 -0.16362368840E+02  0.22767312598E+02  0.51100000000E-03 0. -1.
        -11    1    4    4    0    0  0.21580473789E+02 -0.27948089262E+01 -0.16020973803E+01  0.21819590330E+02  0.51100000000E-03 0.  1.
         12    1    4    4    0    0  0.60964593710E+00  0.30591510960E+01  0.92694183421E+01  0.97801937607E+01  0.00000000000E+00 0. -1.
</event>
<event>
 8    1  0.2509217E-006  0.9118800E+02  0.7816164E-02  0.1184000E+00
        -11   -1    0    0    0    0  0.00000000000E+00  0.00000000000E+00  0.45593999997E+02  0.45594000000E+02  0.51100000000E-03 0. -1.
         11   -1    0    0    0    0 -0.00000000000E+00 -0.00000000000E+00 -0.45593999997E+02  0.45594000000E+02  0.51100000000E-03 0.  1.
         23    2    1    2    0    0  0.00000000000E+00  0.00000000000E+00  0.35527136788E-14  0.91188000000E+02  0.91188000000E+02 0.  0.
    9900012    2    3    3    0    0  0.16735407290E+02  0.20099109204E+02  0.25917788649E+02  0.54367084525E+02  0.40000000792E+02 0.  0.
        -12    1    3    3    0    0 -0.16735407290E+02 -0.20099109204E+02 -0.25917788649E+02  0.36820915475E+02  0.00000000000E+00 0.  1.
         11    1    4    4    0    0  0.50516464393E+01  0.22003928695E+02 -0.28734655808E+01  0.22758488844E+02  0.51100000000E-03 0. -1.
        -11    1    4    4    0    0  0.75035657555E+01 -0.91676457344E+00  0.11283721236E+02  0.13581837929E+02  0.51100000000E-03 0.  1.
         12    1    4    4    0    0  0.41801950952E+01 -0.98805491745E+00  0.17507532993E+02  0.18026757752E+02  0.00000000000E+00 0. -1.
</event>
<event>
 8    1  0.2509217E-006  0.9118800E+02  0.7816164E-02  0.1184000E+00
        -11   -1    0    0    0    0  0.00000000000E+00  0.00000000000E+00  0.45593999997E+02  0.45594000000E+02  0.51100000000E-03 0.  1.
         11   -1    0    0    0    0 -0.00000000000E+00 -0.00000000000E+00 -0.45593999997E+02  0.45594000000E+02  0.51100000000E-03 0. -1.
         23    2    1    2    0    0  0.00000000000E+00  0.00000000000E+00  0.00000000000E+00  0.91188000000E+02  0.91188000000E+02 0.  0.
    9900012    2    3    3    0    0 -0.30312521659E+02  0.13146879440E+02  0.16250901926E+02  0.54367065441E+02  0.39999957287E+02 0.  0.
         12    1    3    3    0    0  0.30312521659E+02 -0.13146879440E+02 -0.16250901926E+02  0.36820934559E+02  0.00000000000E+00 0. -1.
         11    1    4    4    0    0 -0.18637446405E+02 -0.79173273608E+01  0.37915497113E+01  0.20601318660E+02  0.51100000000E-03 0. -1.
        -11    1    4    4    0    0 -0.51087728569E+01  0.69735783832E+00  0.11199606824E+02  0.12329519915E+02  0.51100000000E-03 0.  1.
        -12    1    4    4    0    0 -0.65663023972E+01  0.20366848963E+02  0.12597453905E+01  0.21436226867E+02  0.00000000000E+00 0.  1.
</event>
<event>
 8    1  0.2509217E-006  0.9118800E+02  0.7816164E-02  0.1184000E+00
        -11   -1    0    0    0    0  0.00000000000E+00  0.00000000000E+00  0.45593999997E+02  0.45594000000E+02  0.51100000000E-03 0.  1.
         11   -1    0    0    0    0 -0.00000000000E+00 -0.00000000000E+00 -0.45593999997E+02  0.45594000000E+02  0.51100000000E-03 0. -1.
         23    2    1    2    0    0  0.00000000000E+00  0.00000000000E+00  0.00000000000E+00  0.91188000000E+02  0.91188000000E+02 0.  0.
    9900012    2    3    3    0    0 -0.14311507645E+02  0.22005650665E+02 -0.25820506412E+02  0.54367265846E+02  0.40000414148E+02 0.  0.
        -12    1    3    3    0    0  0.14311507645E+02 -0.22005650665E+02  0.25820506412E+02  0.36820734154E+02  0.00000000000E+00 0.  1.
         11    1    4    4    0    0 -0.19907617492E+02  0.50766598573E+01 -0.17273741225E+02  0.26841532104E+02  0.51100000000E-03 0. -1.
        -11    1    4    4    0    0  0.75660553034E+01  0.93399228707E+01  0.40536412756E+01  0.12685084152E+02  0.51100000000E-03 0.  1.
         12    1    4    4    0    0 -0.19699454560E+01  0.75890679370E+01 -0.12600406462E+02  0.14840649590E+02  0.00000000000E+00 0. -1.
</event>
<event>
 8    1  0.2509217E-006  0.9118800E+02  0.7816164E-02  0.1184000E+00
        -11   -1    0    0    0    0  0.00000000000E+00  0.00000000000E+00  0.45593999997E+02  0.45594000000E+02  0.51100000000E-03 0.  1.
         11   -1    0    0    0    0 -0.00000000000E+00 -0.00000000000E+00 -0.45593999997E+02  0.45594000000E+02  0.51100000000E-03 0. -1.
         23    2    1    2    0    0  0.00000000000E+00  0.00000000000E+00  0.35527136788E-14  0.91188000000E+02  0.91188000000E+02 0.  0.
    9900012    2    3    3    0    0  0.30387217020E+02  0.89912194341E+01 -0.18749784267E+02  0.54367090245E+02  0.40000013832E+02 0.  0.
        -12    1    3    3    0    0 -0.30387217020E+02 -0.89912194341E+01  0.18749784267E+02  0.36820909755E+02  0.00000000000E+00 0.  1.
         11    1    4    4    0    0  0.78454871021E+01  0.47928792350E+00 -0.11917862694E+02  0.14276443403E+02  0.51100000000E-03 0. -1.
        -11    1    4    4    0    0  0.18117736918E+02  0.24305797302E+01  0.10582193011E+02  0.21122095494E+02  0.51100000000E-03 0.  1.
        -12    1    4    4    0    0  0.44239929996E+01  0.60813517804E+01 -0.17414114584E+02  0.18968551349E+02  0.00000000000E+00 0.  1.
</event>
<event>
 8    1  0.2509217E-006  0.9118800E+02  0.7816164E-02  0.1184000E+00
        -11   -1    0    0    0    0  0.00000000000E+00  0.00000000000E+00  0.45593999997E+02  0.45594000000E+02  0.51100000000E-03 0. -1.
         11   -1    0    0    0    0 -0.00000000000E+00 -0.00000000000E+00 -0.45593999997E+02  0.45594000000E+02  0.51100000000E-03 0.  1.
         23    2    1    2    0    0 -0.35527136788E-14  0.35527136788E-14  0.00000000000E+00  0.91188000000E+02  0.91188000000E+02 0.  0.
    9900012    2    3    3    0    0 -0.20161635653E+02  0.21649654408E+02 -0.21922150454E+02  0.54367085173E+02  0.40000002268E+02 0.  0.
         12    1    3    3    0    0  0.20161635653E+02 -0.21649654408E+02  0.21922150454E+02  0.36820914827E+02  0.00000000000E+00 0. -1.
         11    1    4    4    0    0 -0.11840209474E+02  0.22469891436E+02  0.50613939442E+01  0.25897959195E+02  0.51100000000E-03 0. -1.
        -11    1    4    4    0    0 -0.11724718671E+01 -0.10797255654E+01 -0.25258496204E+01  0.29867062362E+01  0.51100000000E-03 0.  1.
         12    1    4    4    0    0 -0.71489543118E+01  0.25948853756E+00 -0.24457694778E+02  0.25482419742E+02  0.00000000000E+00 0. -1.
</event>
<event>
 8    1  0.2509217E-006  0.9118800E+02  0.7816164E-02  0.1184000E+00
        -11   -1    0    0    0    0  0.00000000000E+00  0.00000000000E+00  0.45593999997E+02  0.45594000000E+02  0.51100000000E-03 0.  1.
         11   -1    0    0    0    0 -0.00000000000E+00 -0.00000000000E+00 -0.45593999997E+02  0.45594000000E+02  0.51100000000E-03 0. -1.
         23    2    1    2    0    0  0.44408920985E-15  0.17763568394E-14  0.00000000000E+00  0.91188000000E+02  0.91188000000E+02 0.  0.
    9900012    2    3    3    0    0 -0.89989143463E+00 -0.15535665079E+02  0.33370816893E+02  0.54367107640E+02  0.40000053487E+02 0.  0.
         12    1    3    3    0    0  0.89989143463E+00  0.15535665079E+02 -0.33370816893E+02  0.36820892360E+02  0.00000000000E+00 0. -1.
         11    1    4    4    0    0 -0.52530159034E+01 -0.31216103276E+01  0.41977033238E+01  0.74134567224E+01  0.51100000000E-03 0. -1.
        -11    1    4    4    0    0 -0.25437747987E+01 -0.23044429138E+02  0.23688089379E+02  0.33145770216E+02  0.51100000000E-03 0.  1.
         12    1    4    4    0    0  0.68968992675E+01  0.10630374386E+02  0.54850241902E+01  0.13807880702E+02  0.00000000000E+00 0. -1.
</event>
<event>
 8    1  0.2509217E-006  0.9118800E+02  0.7816164E-02  0.1184000E+00
        -11   -1    0    0    0    0  0.00000000000E+00  0.00000000000E+00  0.45593999997E+02  0.45594000000E+02  0.51100000000E-03 0.  1.
         11   -1    0    0    0    0 -0.00000000000E+00 -0.00000000000E+00 -0.45593999997E+02  0.45594000000E+02  0.51100000000E-03 0. -1.
         23    2    1    2    0    0  0.00000000000E+00  0.00000000000E+00  0.00000000000E+00  0.91188000000E+02  0.91188000000E+02 0.  0.
    9900012    2    3    3    0    0  0.20410315437E+02 -0.29181999272E+02 -0.93599971170E+01  0.54367087413E+02  0.40000007375E+02 0.  0.
        -12    1    3    3    0    0 -0.20410315437E+02  0.29181999272E+02  0.93599971170E+01  0.36820912587E+02  0.00000000000E+00 0.  1.
         11    1    4    4    0    0 -0.31378284373E+01 -0.21079266016E+02  0.82354379150E+01  0.22847403813E+02  0.51100000000E-03 0. -1.
        -11    1    4    4    0    0  0.20575391077E+01 -0.96046089477E+00  0.73261217221E+00  0.23859323473E+01  0.51100000000E-03 0.  1.
         12    1    4    4    0    0  0.21490604767E+02 -0.71422723610E+01 -0.18328047204E+02  0.29133751253E+02  0.00000000000E+00 0. -1.
</event>
<event>
 8    1  0.2509217E-006  0.9118800E+02  0.7816164E-02  0.1184000E+00
        -11   -1    0    0    0    0  0.00000000000E+00  0.00000000000E+00  0.45593999997E+02  0.45594000000E+02  0.51100000000E-03 0.  1.
         11   -1    0    0    0    0 -0.00000000000E+00 -0.00000000000E+00 -0.45593999997E+02  0.45594000000E+02  0.51100000000E-03 0. -1.
         23    2    1    2    0    0 -0.35527136788E-14  0.00000000000E+00  0.00000000000E+00  0.91188000000E+02  0.91188000000E+02 0.  0.
    9900012    2    3    3    0    0  0.27431676654E+02 -0.23124747398E+02  0.82782314497E+01  0.54367082817E+02  0.39999996897E+02 0.  0.
        -12    1    3    3    0    0 -0.27431676654E+02  0.23124747398E+02 -0.82782314497E+01  0.36820917183E+02  0.00000000000E+00 0.  1.
         11    1    4    4    0    0  0.10005469749E+02 -0.31602658243E+02  0.33637853999E+01  0.33318950845E+02  0.51100000000E-03 0. -1.
        -11    1    4    4    0    0  0.11871562192E+02  0.24708861604E+01  0.42110408696E+01  0.12836359794E+02  0.51100000000E-03 0.  1.
         12    1    4    4    0    0  0.55546447127E+01  0.60070246845E+01  0.70340518023E+00  0.82117721773E+01  0.00000000000E+00 0. -1.
</event>
<event>
 8    1  0.2509217E-006  0.9118800E+02  0.7816164E-02  0.1184000E+00
        -11   -1    0    0    0    0  0.00000000000E+00  0.00000000000E+00  0.45593999997E+02  0.45594000000E+02  0.51100000000E-03 0. -1.
         11   -1    0    0    0    0 -0.00000000000E+00 -0.00000000000E+00 -0.45593999997E+02  0.45594000000E+02  0.51100000000E-03 0.  1.
         23    2    1    2    0    0 -0.17763568394E-14  0.35527136788E-14  0.00000000000E+00  0.91188000000E+02  0.91188000000E+02 0.  0.
    9900012    2    3    3    0    0 -0.10417031348E+02  0.29917684664E+02  0.18766898370E+02  0.54367097347E+02  0.40000030022E+02 0.  0.
        -12    1    3    3    0    0  0.10417031348E+02 -0.29917684664E+02 -0.18766898370E+02  0.36820902653E+02  0.00000000000E+00 0.  1.
         11    1    4    4    0    0  0.10910235754E+02  0.56323318101E+01  0.87162304064E+01  0.15057525646E+02  0.51100000000E-03 0. -1.
        -11    1    4    4    0    0  0.82356198103E+00  0.70649396882E+01  0.86758045829E+01  0.11218788373E+02  0.51100000000E-03 0.  1.
        -12    1    4    4    0    0 -0.22150829083E+02  0.17220413165E+02  0.13748633809E+01  0.28090783328E+02  0.00000000000E+00 0.  1.
</event>
<event>
 8    1  0.2509217E-006  0.9118800E+02  0.7816164E-02  0.1184000E+00
        -11   -1    0    0    0    0  0.00000000000E+00  0.00000000000E+00  0.45593999997E+02  0.45594000000E+02  0.51100000000E-03 0. -1.
         11   -1    0    0    0    0 -0.00000000000E+00 -0.00000000000E+00 -0.45593999997E+02  0.45594000000E+02  0.51100000000E-03 0.  1.
         23    2    1    2    0    0  0.35527136788E-14 -0.35527136788E-14  0.35527136788E-14  0.91188000000E+02  0.91188000000E+02 0.  0.
    9900012    2    3    3    0    0  0.16495661284E+02  0.23641591546E+02 -0.22907368786E+02  0.54367092397E+02  0.40000018737E+02 0.  0.
        -12    1    3    3    0    0 -0.16495661284E+02 -0.23641591546E+02  0.22907368786E+02  0.36820907603E+02  0.00000000000E+00 0.  1.
         11    1    4    4    0    0  0.24380453232E+02  0.17208409050E+02 -0.19273087146E+02  0.35524466643E+02  0.51100000000E-03 0. -1.
        -11    1    4    4    0    0  0.10337615183E+01 -0.35828889006E+01  0.20740898683E+01  0.42670370040E+01  0.51100000000E-03 0.  1.
        -12    1    4    4    0    0 -0.89185534663E+01  0.10016071396E+02 -0.57083715076E+01  0.14575588750E+02  0.00000000000E+00 0.  1.
</event>
<event>
 8    1  0.2509217E-006  0.9118800E+02  0.7816164E-02  0.1184000E+00
        -11   -1    0    0    0    0  0.00000000000E+00  0.00000000000E+00  0.45593999997E+02  0.45594000000E+02  0.51100000000E-03 0. -1.
         11   -1    0    0    0    0 -0.00000000000E+00 -0.00000000000E+00 -0.45593999997E+02  0.45594000000E+02  0.51100000000E-03 0.  1.
         23    2    1    2    0    0  0.17763568394E-14  0.35527136788E-14  0.00000000000E+00  0.91188000000E+02  0.91188000000E+02 0.  0.
    9900012    2    3    3    0    0 -0.74401015540E+01  0.21345493636E+02 -0.29065343207E+02  0.54367090377E+02  0.40000014133E+02 0.  0.
         12    1    3    3    0    0  0.74401015540E+01 -0.21345493636E+02  0.29065343207E+02  0.36820909623E+02  0.00000000000E+00 0. -1.
         11    1    4    4    0    0 -0.21508049235E+02  0.73135634075E+01 -0.92869908163E+01  0.24542465041E+02  0.51100000000E-03 0. -1.
        -11    1    4    4    0    0  0.48924164333E+01  0.70869523167E+01 -0.23266208031E+01  0.89204145822E+01  0.51100000000E-03 0.  1.
         12    1    4    4    0    0  0.91755312473E+01  0.69449779121E+01 -0.17451731587E+02  0.20904210754E+02  0.00000000000E+00 0. -1.
</event>
<event>
 8    1  0.2509217E-006  0.9118800E+02  0.7816164E-02  0.1184000E+00
        -11   -1    0    0    0    0  0.00000000000E+00  0.00000000000E+00  0.45593999997E+02  0.45594000000E+02  0.51100000000E-03 0. -1.
         11   -1    0    0    0    0 -0.00000000000E+00 -0.00000000000E+00 -0.45593999997E+02  0.45594000000E+02  0.51100000000E-03 0.  1.
         23    2    1    2    0    0 -0.35527136788E-14 -0.71054273576E-14  0.00000000000E+00  0.91188000000E+02  0.91188000000E+02 0.  0.
    9900012    2    3    3    0    0 -0.23476683681E+02 -0.27174441064E+02 -0.81347800223E+01  0.54367087874E+02  0.40000008427E+02 0.  0.
         12    1    3    3    0    0  0.23476683681E+02  0.27174441064E+02  0.81347800223E+01  0.36820912126E+02  0.00000000000E+00 0. -1.
         11    1    4    4    0    0 -0.16950330249E+02 -0.87306872037E+01  0.57635138343E+01  0.19918752134E+02  0.51100000000E-03 0. -1.
        -11    1    4    4    0    0 -0.68877878035E+01  0.45119781739E+01 -0.59266367283E+01  0.10145175752E+02  0.51100000000E-03 0.  1.
         12    1    4    4    0    0  0.36143437204E+00 -0.22955732034E+02 -0.79716571283E+01  0.24303159988E+02  0.00000000000E+00 0. -1.
</event>
<event>
 8    1  0.2509217E-006  0.9118800E+02  0.7816164E-02  0.1184000E+00
        -11   -1    0    0    0    0  0.00000000000E+00  0.00000000000E+00  0.45593999997E+02  0.45594000000E+02  0.51100000000E-03 0.  1.
         11   -1    0    0    0    0 -0.00000000000E+00 -0.00000000000E+00 -0.45593999997E+02  0.45594000000E+02  0.51100000000E-03 0. -1.
         23    2    1    2    0    0 -0.35527136788E-14 -0.35527136788E-14  0.00000000000E+00  0.91188000000E+02  0.91188000000E+02 0.  0.
    9900012    2    3    3    0    0  0.18946837289E+02 -0.25041541908E+02  0.19228019158E+02  0.54367106676E+02  0.40000051290E+02 0.  0.
         12    1    3    3    0    0 -0.18946837289E+02  0.25041541908E+02 -0.19228019158E+02  0.36820893324E+02  0.00000000000E+00 0. -1.
         11    1    4    4    0    0  0.48496446960E+00 -0.12433445508E+02  0.15089783203E+02  0.19558305528E+02  0.51100000000E-03 0. -1.
        -11    1    4    4    0    0  0.13960977533E+02 -0.96611550346E+01 -0.99844772687E+01  0.19696106135E+02  0.51100000000E-03 0.  1.
        -12    1    4    4    0    0  0.45008952865E+01 -0.29469413663E+01  0.14122713223E+02  0.15112695014E+02  0.00000000000E+00 0.  1.
</event>
<event>
 8    1  0.2509217E-006  0.9118800E+02  0.7816164E-02  0.1184000E+00
        -11   -1    0    0    0    0  0.00000000000E+00  0.00000000000E+00  0.45593999997E+02  0.45594000000E+02  0.51100000000E-03 0.  1.
         11   -1    0    0    0    0 -0.00000000000E+00 -0.00000000000E+00 -0.45593999997E+02  0.45594000000E+02  0.51100000000E-03 0. -1.
         23    2    1    2    0    0  0.00000000000E+00  0.00000000000E+00  0.00000000000E+00  0.91188000000E+02  0.91188000000E+02 0.  0.
    9900012    2    3    3    0    0  0.11982336994E+01 -0.22758196256E+02  0.28920740566E+02  0.54367075301E+02  0.39999979763E+02 0.  0.
         12    1    3    3    0    0 -0.11982336994E+01  0.22758196256E+02 -0.28920740566E+02  0.36820924699E+02  0.00000000000E+00 0. -1.
         11    1    4    4    0    0 -0.26126221093E+01  0.31711783809E+01  0.41051425627E+00  0.41292479734E+01  0.51100000000E-03 0. -1.
        -11    1    4    4    0    0  0.22528580317E+01 -0.28189983769E+02  0.77854074996E+01  0.29331947164E+02  0.51100000000E-03 0.  1.
        -12    1    4    4    0    0  0.15579977770E+01  0.22606091321E+01  0.20724818810E+02  0.20905880164E+02  0.00000000000E+00 0.  1.
</event>
<event>
 8    1  0.2509217E-006  0.9118800E+02  0.7816164E-02  0.1184000E+00
        -11   -1    0    0    0    0  0.00000000000E+00  0.00000000000E+00  0.45593999997E+02  0.45594000000E+02  0.51100000000E-03 0. -1.
         11   -1    0    0    0    0 -0.00000000000E+00 -0.00000000000E+00 -0.45593999997E+02  0.45594000000E+02  0.51100000000E-03 0.  1.
         23    2    1    2    0    0  0.35527136788E-14  0.00000000000E+00  0.00000000000E+00  0.91188000000E+02  0.91188000000E+02 0.  0.
    9900012    2    3    3    0    0  0.19748448217E+02 -0.17979546187E+02  0.25347871373E+02  0.54367083781E+02  0.39999999096E+02 0.  0.
        -12    1    3    3    0    0 -0.19748448217E+02  0.17979546187E+02 -0.25347871373E+02  0.36820916219E+02  0.00000000000E+00 0.  1.
         11    1    4    4    0    0  0.24225483322E+02 -0.73242109619E+01  0.97157066493E+01  0.27109280041E+02  0.51100000000E-03 0. -1.
        -11    1    4    4    0    0  0.53876465411E+01  0.55346214572E+00 -0.29763123341E+00  0.54241718456E+01  0.51100000000E-03 0.  1.
         12    1    4    4    0    0 -0.98646816459E+01 -0.11208797370E+02  0.15929795957E+02  0.21833631894E+02  0.00000000000E+00 0. -1.
</event>
<event>
 8    1  0.2509217E-006  0.9118800E+02  0.7816164E-02  0.1184000E+00
        -11   -1    0    0    0    0  0.00000000000E+00  0.00000000000E+00  0.45593999997E+02  0.45594000000E+02  0.51100000000E-03 0. -1.
         11   -1    0    0    0    0 -0.00000000000E+00 -0.00000000000E+00 -0.45593999997E+02  0.45594000000E+02  0.51100000000E-03 0.  1.
         23    2    1    2    0    0  0.00000000000E+00 -0.17763568394E-14 -0.44408920985E-15  0.91188000000E+02  0.91188000000E+02 0.  0.
    9900012    2    3    3    0    0  0.34096865535E+02 -0.13779526289E+02 -0.18192378578E+01  0.54367065595E+02  0.39999957638E+02 0.  0.
         12    1    3    3    0    0 -0.34096865535E+02  0.13779526289E+02  0.18192378578E+01  0.36820934405E+02  0.00000000000E+00 0. -1.
         11    1    4    4    0    0  0.13114961171E+02 -0.78037091732E+01 -0.15297913890E+02  0.21608476416E+02  0.51100000000E-03 0. -1.
        -11    1    4    4    0    0  0.57620769623E+01 -0.75084432578E+01 -0.33282543748E+01  0.10032722887E+02  0.51100000000E-03 0.  1.
         12    1    4    4    0    0  0.15219827401E+02  0.15326261416E+01  0.16806930407E+02  0.22725866292E+02  0.00000000000E+00 0. -1.
</event>
<event>
 8    1  0.2509217E-006  0.9118800E+02  0.7816164E-02  0.1184000E+00
        -11   -1    0    0    0    0  0.00000000000E+00  0.00000000000E+00  0.45593999997E+02  0.45594000000E+02  0.51100000000E-03 0.  1.
         11   -1    0    0    0    0 -0.00000000000E+00 -0.00000000000E+00 -0.45593999997E+02  0.45594000000E+02  0.51100000000E-03 0. -1.
         23    2    1    2    0    0  0.00000000000E+00 -0.35527136788E-14  0.00000000000E+00  0.91188000000E+02  0.91188000000E+02 0.  0.
    9900012    2    3    3    0    0  0.14930079894E+02  0.28590429757E+02  0.17761184719E+02  0.54367086894E+02  0.40000006192E+02 0.  0.
        -12    1    3    3    0    0 -0.14930079894E+02 -0.28590429757E+02 -0.17761184719E+02  0.36820913106E+02  0.00000000000E+00 0.  1.
         11    1    4    4    0    0  0.45836468073E+01  0.70388471891E+01  0.52699259257E+01  0.99160126729E+01  0.51100000000E-03 0. -1.
        -11    1    4    4    0    0  0.14718109150E+02  0.10610818716E+02  0.22561309173E+02  0.28952113613E+02  0.51100000000E-03 0.  1.
         12    1    4    4    0    0 -0.43716760635E+01  0.10940763852E+02 -0.10070050380E+02  0.15498960608E+02  0.00000000000E+00 0. -1.
</event>
<event>
 8    1  0.2509217E-006  0.9118800E+02  0.7816164E-02  0.1184000E+00
        -11   -1    0    0    0    0  0.00000000000E+00  0.00000000000E+00  0.45593999997E+02  0.45594000000E+02  0.51100000000E-03 0. -1.
         11   -1    0    0    0    0 -0.00000000000E+00 -0.00000000000E+00 -0.45593999997E+02  0.45594000000E+02  0.51100000000E-03 0.  1.
         23    2    1    2    0    0  0.00000000000E+00  0.00000000000E+00 -0.88817841970E-15  0.91188000000E+02  0.91188000000E+02 0.  0.
    9900012    2    3    3    0    0  0.24679499296E+02  0.26299997567E+02  0.74170231192E+01  0.54367084891E+02  0.40000001626E+02 0.  0.
        -12    1    3    3    0    0 -0.24679499296E+02 -0.26299997567E+02 -0.74170231192E+01  0.36820915109E+02  0.00000000000E+00 0.  1.
         11    1    4    4    0    0  0.43255808981E+01  0.66405333043E+01  0.13377578618E+02  0.15548856633E+02  0.51100000000E-03 0. -1.
        -11    1    4    4    0    0  0.13451000888E+02 -0.16225021863E+01  0.42856437513E+01  0.14210161183E+02  0.51100000000E-03 0.  1.
         12    1    4    4    0    0  0.69029175102E+01  0.21281966449E+02 -0.10246199250E+02  0.24608067074E+02  0.00000000000E+00 0. -1.
</event>
<event>
 8    1  0.2509217E-006  0.9118800E+02  0.7816164E-02  0.1184000E+00
        -11   -1    0    0    0    0  0.00000000000E+00  0.00000000000E+00  0.45593999997E+02  0.45594000000E+02  0.51100000000E-03 0.  1.
         11   -1    0    0    0    0 -0.00000000000E+00 -0.00000000000E+00 -0.45593999997E+02  0.45594000000E+02  0.51100000000E-03 0. -1.
         23    2    1    2    0    0  0.00000000000E+00  0.00000000000E+00 -0.17763568394E-14  0.91188000000E+02  0.91188000000E+02 0.  0.
    9900012    2    3    3    0    0  0.11075595027E+02  0.32046200707E+02  0.14357973142E+02  0.54367093198E+02  0.40000020563E+02 0.  0.
         12    1    3    3    0    0 -0.11075595027E+02 -0.32046200707E+02 -0.14357973142E+02  0.36820906802E+02  0.00000000000E+00 0. -1.
         11    1    4    4    0    0 -0.36088906168E+01  0.35740661476E+01  0.21079078275E+01  0.54992104871E+01  0.51100000000E-03 0. -1.
        -11    1    4    4    0    0  0.16138106549E+02  0.13930567343E+02 -0.89478432038E+01  0.23120620402E+02  0.51100000000E-03 0.  1.
        -12    1    4    4    0    0 -0.14536209047E+01  0.14541567216E+02  0.21197908519E+02  0.25747262309E+02  0.00000000000E+00 0.  1.
</event>
<event>
 8    1  0.2509217E-006  0.9118800E+02  0.7816164E-02  0.1184000E+00
        -11   -1    0    0    0    0  0.00000000000E+00  0.00000000000E+00  0.45593999997E+02  0.45594000000E+02  0.51100000000E-03 0.  1.
         11   -1    0    0    0    0 -0.00000000000E+00 -0.00000000000E+00 -0.45593999997E+02  0.45594000000E+02  0.51100000000E-03 0. -1.
         23    2    1    2    0    0  0.00000000000E+00 -0.35527136788E-14 -0.17763568394E-14  0.91188000000E+02  0.91188000000E+02 0.  0.
    9900012    2    3    3    0    0 -0.25937564415E+02 -0.20902493486E+02 -0.15687791805E+02  0.54367105206E+02  0.40000047938E+02 0.  0.
        -12    1    3    3    0    0  0.25937564415E+02  0.20902493486E+02  0.15687791805E+02  0.36820894794E+02  0.00000000000E+00 0.  1.
         11    1    4    4    0    0 -0.72839094633E+01 -0.21447639157E+02 -0.89441086737E+01  0.24352692720E+02  0.51100000000E-03 0. -1.
        -11    1    4    4    0    0 -0.51708814205E+01 -0.10531656130E+02 -0.17332381167E+01  0.11859928757E+02  0.51100000000E-03 0.  1.
        -12    1    4    4    0    0 -0.13482773531E+02  0.11076801801E+02 -0.50104450144E+01  0.18154483729E+02  0.00000000000E+00 0.  1.
</event>
<event>
 8    1  0.2509217E-006  0.9118800E+02  0.7816164E-02  0.1184000E+00
        -11   -1    0    0    0    0  0.00000000000E+00  0.00000000000E+00  0.45593999997E+02  0.45594000000E+02  0.51100000000E-03 0. -1.
         11   -1    0    0    0    0 -0.00000000000E+00 -0.00000000000E+00 -0.45593999997E+02  0.45594000000E+02  0.51100000000E-03 0.  1.
         23    2    1    2    0    0  0.00000000000E+00 -0.35527136788E-14  0.35527136788E-14  0.91188000000E+02  0.91188000000E+02 0.  0.
    9900012    2    3    3    0    0 -0.15301866173E+02  0.31637568541E+02 -0.10986170362E+02  0.54367098452E+02  0.40000032542E+02 0.  0.
         12    1    3    3    0    0  0.15301866173E+02 -0.31637568541E+02  0.10986170362E+02  0.36820901548E+02  0.00000000000E+00 0. -1.
         11    1    4    4    0    0 -0.17724848162E+02  0.19927926256E+02 -0.20839766792E+02  0.33846541440E+02  0.51100000000E-03 0.  1.
        -11    1    4    4    0    0 -0.26274067496E+01  0.65427918288E+01  0.11138081923E+02  0.13182118962E+02  0.51100000000E-03 0. -1.
        -12    1    4    4    0    0  0.50503887382E+01  0.51668504554E+01 -0.12844854940E+01  0.73384380504E+01  0.00000000000E+00 0.  1.
</event>
<event>
 8    1  0.2509217E-006  0.9118800E+02  0.7816164E-02  0.1184000E+00
        -11   -1    0    0    0    0  0.00000000000E+00  0.00000000000E+00  0.45593999997E+02  0.45594000000E+02  0.51100000000E-03 0.  1.
         11   -1    0    0    0    0 -0.00000000000E+00 -0.00000000000E+00 -0.45593999997E+02  0.45594000000E+02  0.51100000000E-03 0. -1.
         23    2    1    2    0    0  0.00000000000E+00 -0.17763568394E-14  0.35527136788E-14  0.91188000000E+02  0.91188000000E+02 0.  0.
    9900012    2    3    3    0    0  0.20331849476E+02 -0.15839777833E+02  0.26296348318E+02  0.54367073888E+02  0.39999976541E+02 0.  0.
         12    1    3    3    0    0 -0.20331849476E+02  0.15839777833E+02 -0.26296348318E+02  0.36820926112E+02  0.00000000000E+00 0. -1.
         11    1    4    4    0    0  0.14930575486E+01 -0.54198845227E+01  0.49028562185E+00  0.56431152154E+01  0.51100000000E-03 0. -1.
        -11    1    4    4    0    0  0.16968493361E+02  0.10442265072E+02  0.16206720565E+02  0.25683233023E+02  0.51100000000E-03 0.  1.
        -12    1    4    4    0    0  0.18702985666E+01 -0.20862158382E+02  0.95993421315E+01  0.23040725650E+02  0.00000000000E+00 0.  1.
</event>
<event>
 8    1  0.2509217E-006  0.9118800E+02  0.7816164E-02  0.1184000E+00
        -11   -1    0    0    0    0  0.00000000000E+00  0.00000000000E+00  0.45593999997E+02  0.45594000000E+02  0.51100000000E-03 0. -1.
         11   -1    0    0    0    0 -0.00000000000E+00 -0.00000000000E+00 -0.45593999997E+02  0.45594000000E+02  0.51100000000E-03 0.  1.
         23    2    1    2    0    0  0.00000000000E+00  0.00000000000E+00  0.17763568394E-14  0.91188000000E+02  0.91188000000E+02 0.  0.
    9900012    2    3    3    0    0  0.21215918192E+02  0.28566353911E+02  0.94672951846E+01  0.54367062497E+02  0.39999950575E+02 0.  0.
        -12    1    3    3    0    0 -0.21215918192E+02 -0.28566353911E+02 -0.94672951846E+01  0.36820937503E+02  0.00000000000E+00 0.  1.
         11    1    4    4    0    0  0.16127934242E+02  0.36940808608E+01  0.87281445835E+01  0.18706603231E+02  0.51100000000E-03 0. -1.
        -11    1    4    4    0    0  0.75692553946E+01  0.26534049317E+02  0.72226938593E+01  0.28522214277E+02  0.51100000000E-03 0.  1.
        -12    1    4    4    0    0 -0.24812714448E+01 -0.16617762672E+01 -0.64835432582E+01  0.71382449892E+01  0.00000000000E+00 0.  1.
</event>
<event>
 8    1  0.2509217E-006  0.9118800E+02  0.7816164E-02  0.1184000E+00
        -11   -1    0    0    0    0  0.00000000000E+00  0.00000000000E+00  0.45593999997E+02  0.45594000000E+02  0.51100000000E-03 0.  1.
         11   -1    0    0    0    0 -0.00000000000E+00 -0.00000000000E+00 -0.45593999997E+02  0.45594000000E+02  0.51100000000E-03 0. -1.
         23    2    1    2    0    0 -0.71054273576E-14  0.00000000000E+00 -0.17763568394E-14  0.91188000000E+02  0.91188000000E+02 0.  0.
    9900012    2    3    3    0    0  0.34309712964E+02 -0.84923536753E+01  0.10319904710E+02  0.54367124021E+02  0.40000090831E+02 0.  0.
         12    1    3    3    0    0 -0.34309712964E+02  0.84923536753E+01 -0.10319904710E+02  0.36820875979E+02  0.00000000000E+00 0. -1.
         11    1    4    4    0    0  0.10631546281E+02  0.84472754721E+01  0.20406141740E+00  0.13580422694E+02  0.51100000000E-03 0. -1.
        -11    1    4    4    0    0  0.13919845677E+01 -0.10621768974E+02  0.13652706689E+02  0.17353846761E+02  0.51100000000E-03 0.  1.
         12    1    4    4    0    0  0.22286182115E+02 -0.63178601730E+01 -0.35368633964E+01  0.23432854566E+02  0.00000000000E+00 0. -1.
</event>
<event>
 8    1  0.2509217E-006  0.9118800E+02  0.7816164E-02  0.1184000E+00
        -11   -1    0    0    0    0  0.00000000000E+00  0.00000000000E+00  0.45593999997E+02  0.45594000000E+02  0.51100000000E-03 0. -1.
         11   -1    0    0    0    0 -0.00000000000E+00 -0.00000000000E+00 -0.45593999997E+02  0.45594000000E+02  0.51100000000E-03 0.  1.
         23    2    1    2    0    0  0.00000000000E+00 -0.17763568394E-14 -0.35527136788E-14  0.91188000000E+02  0.91188000000E+02 0.  0.
    9900012    2    3    3    0    0 -0.34436683270E+02 -0.81927803835E+01  0.10137785736E+02  0.54367061599E+02  0.39999948528E+02 0.  0.
        -12    1    3    3    0    0  0.34436683270E+02  0.81927803835E+01 -0.10137785736E+02  0.36820938401E+02  0.00000000000E+00 0.  1.
         11    1    4    4    0    0 -0.21796590865E+02  0.61108296560E-03 -0.89058701814E+01  0.23545825483E+02  0.51100000000E-03 0.  1.
        -11    1    4    4    0    0 -0.26707151492E+01  0.47663679505E+01  0.11668349961E+02  0.12884152045E+02  0.51100000000E-03 0. -1.
         12    1    4    4    0    0 -0.99693772558E+01 -0.12959759417E+02  0.73753059563E+01  0.17937084071E+02  0.00000000000E+00 0. -1.
</event>
<event>
 8    1  0.2509217E-006  0.9118800E+02  0.7816164E-02  0.1184000E+00
        -11   -1    0    0    0    0  0.00000000000E+00  0.00000000000E+00  0.45593999997E+02  0.45594000000E+02  0.51100000000E-03 0.  1.
         11   -1    0    0    0    0 -0.00000000000E+00 -0.00000000000E+00 -0.45593999997E+02  0.45594000000E+02  0.51100000000E-03 0. -1.
         23    2    1    2    0    0  0.00000000000E+00  0.17763568394E-14  0.35527136788E-14  0.91188000000E+02  0.91188000000E+02 0.  0.
    9900012    2    3    3    0    0 -0.29206753066E+02  0.15055992648E+02  0.16615160099E+02  0.54367070023E+02  0.39999967730E+02 0.  0.
         12    1    3    3    0    0  0.29206753066E+02 -0.15055992648E+02 -0.16615160099E+02  0.36820929977E+02  0.00000000000E+00 0. -1.
         11    1    4    4    0    0 -0.61777324243E+01  0.15434031418E+02  0.31996991232E+01  0.16929612472E+02  0.51100000000E-03 0. -1.
        -11    1    4    4    0    0 -0.24069952533E+02  0.83205247867E+01  0.65205685999E+01  0.26289000795E+02  0.51100000000E-03 0.  1.
        -12    1    4    4    0    0  0.10409318918E+01 -0.86985635562E+01  0.68948923760E+01  0.11148456755E+02  0.00000000000E+00 0.  1.
</event>
<event>
 8    1  0.2509217E-006  0.9118800E+02  0.7816164E-02  0.1184000E+00
        -11   -1    0    0    0    0  0.00000000000E+00  0.00000000000E+00  0.45593999997E+02  0.45594000000E+02  0.51100000000E-03 0.  1.
         11   -1    0    0    0    0 -0.00000000000E+00 -0.00000000000E+00 -0.45593999997E+02  0.45594000000E+02  0.51100000000E-03 0. -1.
         23    2    1    2    0    0 -0.17763568394E-14 -0.35527136788E-14  0.71054273576E-14  0.91188000000E+02  0.91188000000E+02 0.  0.
    9900012    2    3    3    0    0  0.11356130110E+02 -0.18101274168E+02 -0.29986072957E+02  0.54367049592E+02  0.39999921155E+02 0.  0.
        -12    1    3    3    0    0 -0.11356130110E+02  0.18101274168E+02  0.29986072957E+02  0.36820950408E+02  0.00000000000E+00 0.  1.
         11    1    4    4    0    0  0.46897989015E+01  0.74039927287E+00 -0.18046602777E+02  0.18660714801E+02  0.51100000000E-03 0. -1.
        -11    1    4    4    0    0  0.10754980201E+02 -0.19136569671E+02 -0.18001128579E+02  0.28388704238E+02  0.51100000000E-03 0.  1.
         12    1    4    4    0    0 -0.40886489923E+01  0.29489623044E+00  0.60616583994E+01  0.73176305536E+01  0.00000000000E+00 0. -1.
</event>
<event>
 8    1  0.2509217E-006  0.9118800E+02  0.7816164E-02  0.1184000E+00
        -11   -1    0    0    0    0  0.00000000000E+00  0.00000000000E+00  0.45593999997E+02  0.45594000000E+02  0.51100000000E-03 0.  1.
         11   -1    0    0    0    0 -0.00000000000E+00 -0.00000000000E+00 -0.45593999997E+02  0.45594000000E+02  0.51100000000E-03 0. -1.
         23    2    1    2    0    0 -0.35527136788E-14  0.00000000000E+00 -0.35527136788E-14  0.91188000000E+02  0.91188000000E+02 0.  0.
    9900012    2    3    3    0    0  0.29159284174E+02 -0.14577464627E+02  0.17117642166E+02  0.54367082008E+02  0.39999995053E+02 0.  0.
         12    1    3    3    0    0 -0.29159284174E+02  0.14577464627E+02 -0.17117642166E+02  0.36820917992E+02  0.00000000000E+00 0. -1.
         11    1    4    4    0    0  0.19097542307E+02 -0.25704425873E+01  0.89851715608E+01  0.21261622834E+02  0.51100000000E-03 0. -1.
        -11    1    4    4    0    0  0.12846982231E+02 -0.69832495026E+01  0.17072888481E+02  0.22478751020E+02  0.51100000000E-03 0.  1.
         12    1    4    4    0    0 -0.27852403648E+01 -0.50237725368E+01 -0.89404178763E+01  0.10626708154E+02  0.00000000000E+00 0. -1.
</event>
<event>
 8    1  0.2509217E-006  0.9118800E+02  0.7816164E-02  0.1184000E+00
        -11   -1    0    0    0    0  0.00000000000E+00  0.00000000000E+00  0.45593999997E+02  0.45594000000E+02  0.51100000000E-03 0. -1.
         11   -1    0    0    0    0 -0.00000000000E+00 -0.00000000000E+00 -0.45593999997E+02  0.45594000000E+02  0.51100000000E-03 0.  1.
         23    2    1    2    0    0  0.00000000000E+00 -0.35527136788E-14  0.00000000000E+00  0.91188000000E+02  0.91188000000E+02 0.  0.
    9900012    2    3    3    0    0  0.11113080613E+02  0.28954215474E+02 -0.19847725229E+02  0.54367090842E+02  0.40000015193E+02 0.  0.
         12    1    3    3    0    0 -0.11113080613E+02 -0.28954215474E+02  0.19847725229E+02  0.36820909158E+02  0.00000000000E+00 0. -1.
         11    1    4    4    0    0  0.11499701834E+02  0.14221497456E+02  0.33544451612E+01  0.18594258113E+02  0.51100000000E-03 0. -1.
        -11    1    4    4    0    0 -0.11204000790E+02  0.45251485893E+01 -0.12930035886E+02  0.17697243620E+02  0.51100000000E-03 0.  1.
         12    1    4    4    0    0  0.10817379569E+02  0.10207569429E+02 -0.10272134504E+02  0.18075589110E+02  0.00000000000E+00 0. -1.
</event>
<event>
 8    1  0.2509217E-006  0.9118800E+02  0.7816164E-02  0.1184000E+00
        -11   -1    0    0    0    0  0.00000000000E+00  0.00000000000E+00  0.45593999997E+02  0.45594000000E+02  0.51100000000E-03 0. -1.
         11   -1    0    0    0    0 -0.00000000000E+00 -0.00000000000E+00 -0.45593999997E+02  0.45594000000E+02  0.51100000000E-03 0.  1.
         23    2    1    2    0    0  0.17763568394E-14  0.00000000000E+00  0.00000000000E+00  0.91188000000E+02  0.91188000000E+02 0.  0.
    9900012    2    3    3    0    0 -0.91410736455E+01  0.35156398136E+02  0.60206025889E+01  0.54367092722E+02  0.40000019478E+02 0.  0.
         12    1    3    3    0    0  0.91410736455E+01 -0.35156398136E+02 -0.60206025889E+01  0.36820907278E+02  0.00000000000E+00 0. -1.
         11    1    4    4    0    0  0.64237923522E+01  0.15104998126E+02  0.58178754397E+01  0.17414756715E+02  0.51100000000E-03 0. -1.
        -11    1    4    4    0    0  0.39194196666E+01  0.16034405968E+02  0.32582709993E+01  0.16824991989E+02  0.51100000000E-03 0.  1.
         12    1    4    4    0    0 -0.19484285664E+02  0.40169940421E+01 -0.30555438502E+01  0.20127344018E+02  0.00000000000E+00 0. -1.
</event>
<event>
 8    1  0.2509217E-006  0.9118800E+02  0.7816164E-02  0.1184000E+00
        -11   -1    0    0    0    0  0.00000000000E+00  0.00000000000E+00  0.45593999997E+02  0.45594000000E+02  0.51100000000E-03 0. -1.
         11   -1    0    0    0    0 -0.00000000000E+00 -0.00000000000E+00 -0.45593999997E+02  0.45594000000E+02  0.51100000000E-03 0.  1.
         23    2    1    2    0    0  0.17763568394E-14 -0.33306690739E-15  0.71054273576E-14  0.91188000000E+02  0.91188000000E+02 0.  0.
    9900012    2    3    3    0    0  0.13659610609E+02 -0.44279174383E+00  0.34190625824E+02  0.54367083108E+02  0.39999997562E+02 0.  0.
        -12    1    3    3    0    0 -0.13659610609E+02  0.44279174383E+00 -0.34190625824E+02  0.36820916892E+02  0.00000000000E+00 0.  1.
         11    1    4    4    0    0  0.88175276829E+01  0.80716214985E+01  0.30344643812E+02  0.32614372237E+02  0.51100000000E-03 0.  1.
        -11    1    4    4    0    0  0.64525280607E+01 -0.54548336142E+01  0.10962482130E+02  0.13840749360E+02  0.51100000000E-03 0. -1.
         12    1    4    4    0    0 -0.16104451343E+01 -0.30595796281E+01 -0.71165001180E+01  0.79119615116E+01  0.00000000000E+00 0. -1.
</event>
<event>
 8    1  0.2509217E-006  0.9118800E+02  0.7816164E-02  0.1184000E+00
        -11   -1    0    0    0    0  0.00000000000E+00  0.00000000000E+00  0.45593999997E+02  0.45594000000E+02  0.51100000000E-03 0. -1.
         11   -1    0    0    0    0 -0.00000000000E+00 -0.00000000000E+00 -0.45593999997E+02  0.45594000000E+02  0.51100000000E-03 0.  1.
         23    2    1    2    0    0  0.00000000000E+00  0.17763568394E-14 -0.17763568394E-14  0.91188000000E+02  0.91188000000E+02 0.  0.
    9900012    2    3    3    0    0  0.31216134729E+02 -0.15583784895E+02 -0.11767751986E+02  0.54367062942E+02  0.39999951589E+02 0.  0.
        -12    1    3    3    0    0 -0.31216134729E+02  0.15583784895E+02  0.11767751986E+02  0.36820937058E+02  0.00000000000E+00 0.  1.
         11    1    4    4    0    0  0.19533436862E+02 -0.39359560333E+01 -0.21479585322E+02  0.29298796757E+02  0.51100000000E-03 0.  1.
        -11    1    4    4    0    0  0.78342822377E+01 -0.49195705618E+00 -0.23497513844E+01  0.81938593931E+01  0.51100000000E-03 0. -1.
         12    1    4    4    0    0  0.38484156293E+01 -0.11155871805E+02  0.12061584721E+02  0.16874406792E+02  0.00000000000E+00 0. -1.
</event>
<event>
 8    1  0.2509217E-006  0.9118800E+02  0.7816164E-02  0.1184000E+00
        -11   -1    0    0    0    0  0.00000000000E+00  0.00000000000E+00  0.45593999997E+02  0.45594000000E+02  0.51100000000E-03 0. -1.
         11   -1    0    0    0    0 -0.00000000000E+00 -0.00000000000E+00 -0.45593999997E+02  0.45594000000E+02  0.51100000000E-03 0.  1.
         23    2    1    2    0    0 -0.17763568394E-14  0.00000000000E+00  0.00000000000E+00  0.91188000000E+02  0.91188000000E+02 0.  0.
    9900012    2    3    3    0    0 -0.15292909532E+02  0.33234871438E+02  0.41653515283E+01  0.54367083189E+02  0.39999997745E+02 0.  0.
        -12    1    3    3    0    0  0.15292909532E+02 -0.33234871438E+02 -0.41653515283E+01  0.36820916811E+02  0.00000000000E+00 0.  1.
         11    1    4    4    0    0  0.27473004077E+01  0.19453272368E+02  0.13000665313E+01  0.19689277249E+02  0.51100000000E-03 0. -1.
        -11    1    4    4    0    0 -0.13474845142E+02 -0.38112636281E+01  0.75487541291E+01  0.15908515682E+02  0.51100000000E-03 0.  1.
        -12    1    4    4    0    0 -0.45653647977E+01  0.17592862698E+02 -0.46834691321E+01  0.18769290257E+02  0.00000000000E+00 0.  1.
</event>
<event>
 8    1  0.2509217E-006  0.9118800E+02  0.7816164E-02  0.1184000E+00
        -11   -1    0    0    0    0  0.00000000000E+00  0.00000000000E+00  0.45593999997E+02  0.45594000000E+02  0.51100000000E-03 0.  1.
         11   -1    0    0    0    0 -0.00000000000E+00 -0.00000000000E+00 -0.45593999997E+02  0.45594000000E+02  0.51100000000E-03 0. -1.
         23    2    1    2    0    0  0.44408920985E-15 -0.35527136788E-14  0.00000000000E+00  0.91188000000E+02  0.91188000000E+02 0.  0.
    9900012    2    3    3    0    0  0.12339392030E+01 -0.22251339045E+02 -0.29311043141E+02  0.54367055616E+02  0.39999934889E+02 0.  0.
        -12    1    3    3    0    0 -0.12339392030E+01  0.22251339045E+02  0.29311043141E+02  0.36820944384E+02  0.00000000000E+00 0.  1.
         11    1    4    4    0    0 -0.56130607818E+01 -0.31833749871E+01 -0.28068477608E+02  0.28800690324E+02  0.51100000000E-03 0. -1.
        -11    1    4    4    0    0 -0.44268360630E+01 -0.15764668137E+01 -0.68646966925E+00  0.47490384301E+01  0.51100000000E-03 0.  1.
         12    1    4    4    0    0  0.11273836048E+02 -0.17491497245E+02 -0.55609586435E+00  0.20817326862E+02  0.00000000000E+00 0. -1.
</event>
<event>
 8    1  0.2509217E-006  0.9118800E+02  0.7816164E-02  0.1184000E+00
        -11   -1    0    0    0    0  0.00000000000E+00  0.00000000000E+00  0.45593999997E+02  0.45594000000E+02  0.51100000000E-03 0.  1.
         11   -1    0    0    0    0 -0.00000000000E+00 -0.00000000000E+00 -0.45593999997E+02  0.45594000000E+02  0.51100000000E-03 0. -1.
         23    2    1    2    0    0  0.00000000000E+00  0.00000000000E+00  0.00000000000E+00  0.91188000000E+02  0.91188000000E+02 0.  0.
    9900012    2    3    3    0    0  0.14553209854E+02 -0.32525679020E+02 -0.92770822750E+01  0.54367082462E+02  0.39999996089E+02 0.  0.
         12    1    3    3    0    0 -0.14553209854E+02  0.32525679020E+02  0.92770822750E+01  0.36820917538E+02  0.00000000000E+00 0. -1.
         11    1    4    4    0    0  0.17107130026E+01  0.50916044831E+01 -0.25360533686E+01  0.59399109537E+01  0.51100000000E-03 0. -1.
        -11    1    4    4    0    0  0.10913861693E+02 -0.51020289969E+01  0.59908527220E+01  0.13454865051E+02  0.51100000000E-03 0.  1.
        -12    1    4    4    0    0  0.19286351588E+01 -0.32515254506E+02 -0.12731881628E+02  0.34972306458E+02  0.00000000000E+00 0.  1.
</event>
<event>
 8    1  0.2509217E-006  0.9118800E+02  0.7816164E-02  0.1184000E+00
        -11   -1    0    0    0    0  0.00000000000E+00  0.00000000000E+00  0.45593999997E+02  0.45594000000E+02  0.51100000000E-03 0. -1.
         11   -1    0    0    0    0 -0.00000000000E+00 -0.00000000000E+00 -0.45593999997E+02  0.45594000000E+02  0.51100000000E-03 0.  1.
         23    2    1    2    0    0  0.88817841970E-15  0.00000000000E+00  0.00000000000E+00  0.91188000000E+02  0.91188000000E+02 0.  0.
    9900012    2    3    3    0    0  0.43157745697E+01  0.14786789486E+02 -0.33444051253E+02  0.54367087224E+02  0.40000006945E+02 0.  0.
         12    1    3    3    0    0 -0.43157745697E+01 -0.14786789486E+02  0.33444051253E+02  0.36820912776E+02  0.00000000000E+00 0. -1.
         11    1    4    4    0    0 -0.45356500382E+01  0.86564746932E+01 -0.12757218272E+02  0.16070261158E+02  0.51100000000E-03 0. -1.
        -11    1    4    4    0    0  0.77085082961E+01 -0.17403314068E+01 -0.27006213270E+02  0.28138681721E+02  0.51100000000E-03 0.  1.
        -12    1    4    4    0    0  0.11429163119E+01  0.78706462001E+01  0.63193802892E+01  0.10158144345E+02  0.00000000000E+00 0.  1.
</event>
<event>
 8    1  0.2509217E-006  0.9118800E+02  0.7816164E-02  0.1184000E+00
        -11   -1    0    0    0    0  0.00000000000E+00  0.00000000000E+00  0.45593999997E+02  0.45594000000E+02  0.51100000000E-03 0.  1.
         11   -1    0    0    0    0 -0.00000000000E+00 -0.00000000000E+00 -0.45593999997E+02  0.45594000000E+02  0.51100000000E-03 0. -1.
         23    2    1    2    0    0  0.71054273576E-14 -0.17763568394E-14  0.00000000000E+00  0.91188000000E+02  0.91188000000E+02 0.  0.
    9900012    2    3    3    0    0  0.27216398702E+02 -0.11827259674E+02  0.21798255398E+02  0.54367077034E+02  0.39999983715E+02 0.  0.
         12    1    3    3    0    0 -0.27216398702E+02  0.11827259674E+02 -0.21798255398E+02  0.36820922966E+02  0.00000000000E+00 0. -1.
         11    1    4    4    0    0  0.11495502974E+02 -0.69768151490E+01 -0.64351738939E+01  0.14907514936E+02  0.51100000000E-03 0. -1.
        -11    1    4    4    0    0  0.19074203877E+02  0.33824104966E+00  0.13178895804E+02  0.23186697812E+02  0.51100000000E-03 0.  1.
        -12    1    4    4    0    0 -0.33533081503E+01 -0.51886855747E+01  0.15054533487E+02  0.16272864286E+02  0.00000000000E+00 0.  1.
</event>
<event>
 8    1  0.2509217E-006  0.9118800E+02  0.7816164E-02  0.1184000E+00
        -11   -1    0    0    0    0  0.00000000000E+00  0.00000000000E+00  0.45593999997E+02  0.45594000000E+02  0.51100000000E-03 0. -1.
         11   -1    0    0    0    0 -0.00000000000E+00 -0.00000000000E+00 -0.45593999997E+02  0.45594000000E+02  0.51100000000E-03 0.  1.
         23    2    1    2    0    0  0.00000000000E+00 -0.17763568394E-14  0.00000000000E+00  0.91188000000E+02  0.91188000000E+02 0.  0.
    9900012    2    3    3    0    0  0.96722402481E+01 -0.88816691094E+01 -0.34399758442E+02  0.54367086670E+02  0.40000005681E+02 0.  0.
         12    1    3    3    0    0 -0.96722402481E+01  0.88816691094E+01  0.34399758442E+02  0.36820913330E+02  0.00000000000E+00 0. -1.
         11    1    4    4    0    0  0.10990743140E+02  0.28916256596E+01  0.39954750053E+01  0.12046649098E+02  0.51100000000E-03 0. -1.
        -11    1    4    4    0    0 -0.48557940194E+01 -0.12229729964E+02 -0.22818860024E+02  0.26340945382E+02  0.51100000000E-03 0.  1.
         12    1    4    4    0    0  0.35372911275E+01  0.45643519531E+00 -0.15576373424E+02  0.15979492190E+02  0.00000000000E+00 0. -1.
</event>
<event>
 8    1  0.2509217E-006  0.9118800E+02  0.7816164E-02  0.1184000E+00
        -11   -1    0    0    0    0  0.00000000000E+00  0.00000000000E+00  0.45593999997E+02  0.45594000000E+02  0.51100000000E-03 0.  1.
         11   -1    0    0    0    0 -0.00000000000E+00 -0.00000000000E+00 -0.45593999997E+02  0.45594000000E+02  0.51100000000E-03 0. -1.
         23    2    1    2    0    0  0.00000000000E+00  0.00000000000E+00 -0.35527136788E-14  0.91188000000E+02  0.91188000000E+02 0.  0.
    9900012    2    3    3    0    0  0.57680977719E+01 -0.26454554374E+02 -0.24953261732E+02  0.54367086512E+02  0.40000005322E+02 0.  0.
        -12    1    3    3    0    0 -0.57680977719E+01  0.26454554374E+02  0.24953261732E+02  0.36820913488E+02  0.00000000000E+00 0.  1.
         11    1    4    4    0    0  0.52404373223E+01 -0.37935450272E+01 -0.25544157517E+02  0.26350657501E+02  0.51100000000E-03 0. -1.
        -11    1    4    4    0    0  0.62741010531E+01 -0.53237778627E+01  0.44408917746E+01  0.93503195010E+01  0.51100000000E-03 0.  1.
        -12    1    4    4    0    0 -0.57464406035E+01 -0.17337231484E+02 -0.38499959898E+01  0.18666109510E+02  0.00000000000E+00 0.  1.
</event>
<event>
 8    1  0.2509217E-006  0.9118800E+02  0.7816164E-02  0.1184000E+00
        -11   -1    0    0    0    0  0.00000000000E+00  0.00000000000E+00  0.45593999997E+02  0.45594000000E+02  0.51100000000E-03 0. -1.
         11   -1    0    0    0    0 -0.00000000000E+00 -0.00000000000E+00 -0.45593999997E+02  0.45594000000E+02  0.51100000000E-03 0.  1.
         23    2    1    2    0    0  0.35527136788E-14  0.00000000000E+00  0.35527136788E-14  0.91188000000E+02  0.91188000000E+02 0.  0.
    9900012    2    3    3    0    0  0.20433132596E+02  0.50232874346E+01  0.30216397199E+02  0.54367122987E+02  0.40000088472E+02 0.  0.
        -12    1    3    3    0    0 -0.20433132596E+02 -0.50232874346E+01 -0.30216397199E+02  0.36820877013E+02  0.00000000000E+00 0.  1.
         11    1    4    4    0    0  0.55548594790E+01  0.10426382078E+02  0.71910684463E+01  0.13830306314E+02  0.51100000000E-03 0. -1.
        -11    1    4    4    0    0 -0.86816871035E+01  0.12591367858E+01  0.46819073544E+01  0.99437102303E+01  0.51100000000E-03 0.  1.
         12    1    4    4    0    0  0.23559960221E+02 -0.66622314291E+01  0.18343421398E+02  0.30593106443E+02  0.00000000000E+00 0. -1.
</event>
<event>
 8    1  0.2509217E-006  0.9118800E+02  0.7816164E-02  0.1184000E+00
        -11   -1    0    0    0    0  0.00000000000E+00  0.00000000000E+00  0.45593999997E+02  0.45594000000E+02  0.51100000000E-03 0.  1.
         11   -1    0    0    0    0 -0.00000000000E+00 -0.00000000000E+00 -0.45593999997E+02  0.45594000000E+02  0.51100000000E-03 0. -1.
         23    2    1    2    0    0  0.35527136788E-14 -0.71054273576E-14  0.00000000000E+00  0.91188000000E+02  0.91188000000E+02 0.  0.
    9900012    2    3    3    0    0 -0.15298784903E+02  0.26720109359E+02  0.20193168081E+02  0.54367067084E+02  0.39999961031E+02 0.  0.
         12    1    3    3    0    0  0.15298784903E+02 -0.26720109359E+02 -0.20193168081E+02  0.36820932916E+02  0.00000000000E+00 0. -1.
         11    1    4    4    0    0 -0.53094563941E+00  0.49618426886E+01  0.19879996978E+02  0.20496733063E+02  0.51100000000E-03 0. -1.
        -11    1    4    4    0    0 -0.74299024010E+01  0.83049089267E+01  0.10627049531E+02  0.15398348741E+02  0.51100000000E-03 0.  1.
         12    1    4    4    0    0 -0.73379368630E+01  0.13453357743E+02 -0.10313878427E+02  0.18471985280E+02  0.00000000000E+00 0. -1.
</event>
<event>
 8    1  0.2509217E-006  0.9118800E+02  0.7816164E-02  0.1184000E+00
        -11   -1    0    0    0    0  0.00000000000E+00  0.00000000000E+00  0.45593999997E+02  0.45594000000E+02  0.51100000000E-03 0. -1.
         11   -1    0    0    0    0 -0.00000000000E+00 -0.00000000000E+00 -0.45593999997E+02  0.45594000000E+02  0.51100000000E-03 0.  1.
         23    2    1    2    0    0  0.00000000000E+00  0.35527136788E-14  0.17763568394E-14  0.91188000000E+02  0.91188000000E+02 0.  0.
    9900012    2    3    3    0    0 -0.34034645844E+02  0.10714479645E+02 -0.90896650877E+01  0.54367092852E+02  0.40000019775E+02 0.  0.
         12    1    3    3    0    0  0.34034645844E+02 -0.10714479645E+02  0.90896650877E+01  0.36820907148E+02  0.00000000000E+00 0. -1.
         11    1    4    4    0    0 -0.12892091182E+02  0.26929528236E+01  0.92269548183E+01  0.16080880120E+02  0.51100000000E-03 0. -1.
        -11    1    4    4    0    0 -0.19721012453E+02  0.92902069412E+01 -0.20360846716E+01  0.21894563668E+02  0.51100000000E-03 0.  1.
         12    1    4    4    0    0 -0.14215422088E+01 -0.12686801198E+01 -0.16280535234E+02  0.16391649063E+02  0.00000000000E+00 0. -1.
</event>
<event>
 8    1  0.2509217E-006  0.9118800E+02  0.7816164E-02  0.1184000E+00
        -11   -1    0    0    0    0  0.00000000000E+00  0.00000000000E+00  0.45593999997E+02  0.45594000000E+02  0.51100000000E-03 0. -1.
         11   -1    0    0    0    0 -0.00000000000E+00 -0.00000000000E+00 -0.45593999997E+02  0.45594000000E+02  0.51100000000E-03 0.  1.
         23    2    1    2    0    0  0.00000000000E+00  0.00000000000E+00  0.00000000000E+00  0.91188000000E+02  0.91188000000E+02 0.  0.
    9900012    2    3    3    0    0  0.18425643002E+02  0.48664538507E+01 -0.31505453437E+02  0.54367078102E+02  0.39999986150E+02 0.  0.
         12    1    3    3    0    0 -0.18425643002E+02 -0.48664538507E+01  0.31505453437E+02  0.36820921898E+02  0.00000000000E+00 0. -1.
         11    1    4    4    0    0  0.43885032792E+00 -0.13904749528E+02 -0.48394255676E+01  0.14729381831E+02  0.51100000000E-03 0. -1.
        -11    1    4    4    0    0  0.11369251162E+02  0.24834419765E+01 -0.89702757357E+01  0.14693304702E+02  0.51100000000E-03 0.  1.
        -12    1    4    4    0    0  0.66175415125E+01  0.16287761402E+02 -0.17695752134E+02  0.24944391569E+02  0.00000000000E+00 0.  1.
</event>
<event>
 8    1  0.2509217E-006  0.9118800E+02  0.7816164E-02  0.1184000E+00
        -11   -1    0    0    0    0  0.00000000000E+00  0.00000000000E+00  0.45593999997E+02  0.45594000000E+02  0.51100000000E-03 0. -1.
         11   -1    0    0    0    0 -0.00000000000E+00 -0.00000000000E+00 -0.45593999997E+02  0.45594000000E+02  0.51100000000E-03 0.  1.
         23    2    1    2    0    0  0.00000000000E+00  0.00000000000E+00  0.00000000000E+00  0.91188000000E+02  0.91188000000E+02 0.  0.
    9900012    2    3    3    0    0  0.12944265845E+02 -0.91805572236E+01 -0.33225656453E+02  0.54367069866E+02  0.39999967373E+02 0.  0.
         12    1    3    3    0    0 -0.12944265845E+02  0.91805572236E+01  0.33225656453E+02  0.36820930134E+02  0.00000000000E+00 0. -1.
         11    1    4    4    0    0  0.53322347908E+01  0.11670006852E+02 -0.59865631146E+00  0.12844460963E+02  0.51100000000E-03 0. -1.
        -11    1    4    4    0    0  0.44229127543E+01 -0.10008885194E+02 -0.57389446687E+01  0.12356189794E+02  0.51100000000E-03 0.  1.
         12    1    4    4    0    0  0.31891182996E+01 -0.10841678882E+02 -0.26888055473E+02  0.29166419109E+02  0.00000000000E+00 0. -1.
</event>
<event>
 8    1  0.2509217E-006  0.9118800E+02  0.7816164E-02  0.1184000E+00
        -11   -1    0    0    0    0  0.00000000000E+00  0.00000000000E+00  0.45593999997E+02  0.45594000000E+02  0.51100000000E-03 0. -1.
         11   -1    0    0    0    0 -0.00000000000E+00 -0.00000000000E+00 -0.45593999997E+02  0.45594000000E+02  0.51100000000E-03 0.  1.
         23    2    1    2    0    0  0.17763568394E-14  0.17763568394E-14  0.71054273576E-14  0.91188000000E+02  0.91188000000E+02 0.  0.
    9900012    2    3    3    0    0  0.85148670309E+01  0.15699340973E+02  0.32199506584E+02  0.54367075354E+02  0.39999979885E+02 0.  0.
        -12    1    3    3    0    0 -0.85148670309E+01 -0.15699340973E+02 -0.32199506584E+02  0.36820924646E+02  0.00000000000E+00 0.  1.
         11    1    4    4    0    0  0.12511333810E+02 -0.13579904314E+01  0.10314720849E+02  0.16271787799E+02  0.51100000000E-03 0. -1.
        -11    1    4    4    0    0  0.84950258222E+01  0.60859450688E+01  0.18321444202E+02  0.21092167006E+02  0.51100000000E-03 0.  1.
        -12    1    4    4    0    0 -0.12491492601E+02  0.10971386336E+02  0.35633415322E+01  0.17003120549E+02  0.00000000000E+00 0.  1.
</event>
<event>
 8    1  0.2509217E-006  0.9118800E+02  0.7816164E-02  0.1184000E+00
        -11   -1    0    0    0    0  0.00000000000E+00  0.00000000000E+00  0.45593999997E+02  0.45594000000E+02  0.51100000000E-03 0.  1.
         11   -1    0    0    0    0 -0.00000000000E+00 -0.00000000000E+00 -0.45593999997E+02  0.45594000000E+02  0.51100000000E-03 0. -1.
         23    2    1    2    0    0  0.00000000000E+00  0.00000000000E+00  0.22204460493E-15  0.91188000000E+02  0.91188000000E+02 0.  0.
    9900012    2    3    3    0    0  0.33071595009E+02 -0.16129915319E+02  0.13683962000E+01  0.54367121782E+02  0.40000085726E+02 0.  0.
        -12    1    3    3    0    0 -0.33071595009E+02  0.16129915319E+02 -0.13683962000E+01  0.36820878218E+02  0.00000000000E+00 0.  1.
         11    1    4    4    0    0  0.24225135529E+02 -0.13899242106E+02  0.93229356020E+01  0.29444239692E+02  0.51100000000E-03 0. -1.
        -11    1    4    4    0    0  0.15547825899E+02 -0.28851020093E+01 -0.20090166355E+01  0.15940352941E+02  0.51100000000E-03 0.  1.
         12    1    4    4    0    0 -0.67013664195E+01  0.65442879676E+00 -0.59455227665E+01  0.89825291486E+01  0.00000000000E+00 0. -1.
</event>
<event>
 8    1  0.2509217E-006  0.9118800E+02  0.7816164E-02  0.1184000E+00
        -11   -1    0    0    0    0  0.00000000000E+00  0.00000000000E+00  0.45593999997E+02  0.45594000000E+02  0.51100000000E-03 0. -1.
         11   -1    0    0    0    0 -0.00000000000E+00 -0.00000000000E+00 -0.45593999997E+02  0.45594000000E+02  0.51100000000E-03 0.  1.
         23    2    1    2    0    0  0.35527136788E-14  0.35527136788E-14  0.35527136788E-14  0.91188000000E+02  0.91188000000E+02 0.  0.
    9900012    2    3    3    0    0 -0.13143291205E+02 -0.22561891448E+02 -0.25961412978E+02  0.54367081852E+02  0.39999994698E+02 0.  0.
         12    1    3    3    0    0  0.13143291205E+02  0.22561891448E+02  0.25961412978E+02  0.36820918148E+02  0.00000000000E+00 0. -1.
         11    1    4    4    0    0 -0.22402854192E+01  0.13306652801E+01 -0.92698389392E+01  0.96290946131E+01  0.51100000000E-03 0. -1.
        -11    1    4    4    0    0  0.29932038122E+01 -0.19252256908E+01 -0.18349603798E+02  0.18691541478E+02  0.51100000000E-03 0.  1.
         12    1    4    4    0    0 -0.13896209598E+02 -0.21967331038E+02  0.16580297587E+01  0.26046445761E+02  0.00000000000E+00 0. -1.
</event>
<event>
 8    1  0.2509217E-006  0.9118800E+02  0.7816164E-02  0.1184000E+00
        -11   -1    0    0    0    0  0.00000000000E+00  0.00000000000E+00  0.45593999997E+02  0.45594000000E+02  0.51100000000E-03 0. -1.
         11   -1    0    0    0    0 -0.00000000000E+00 -0.00000000000E+00 -0.45593999997E+02  0.45594000000E+02  0.51100000000E-03 0.  1.
         23    2    1    2    0    0  0.35527136788E-14  0.00000000000E+00  0.35527136788E-14  0.91188000000E+02  0.91188000000E+02 0.  0.
    9900012    2    3    3    0    0  0.28563230187E+02  0.12025861624E+01  0.23205076634E+02  0.54367083203E+02  0.39999997777E+02 0.  0.
        -12    1    3    3    0    0 -0.28563230187E+02 -0.12025861624E+01 -0.23205076634E+02  0.36820916797E+02  0.00000000000E+00 0.  1.
         11    1    4    4    0    0  0.22270074362E+02 -0.17336554478E+01  0.68070666251E+01  0.23351615139E+02  0.51100000000E-03 0. -1.
        -11    1    4    4    0    0 -0.65577279436E+01  0.26853122369E+01 -0.30411101217E+01  0.77112287364E+01  0.51100000000E-03 0.  1.
        -12    1    4    4    0    0  0.12850883769E+02  0.25092937333E+00  0.19439120130E+02  0.23304239327E+02  0.00000000000E+00 0.  1.
</event>
<event>
 8    1  0.2509217E-006  0.9118800E+02  0.7816164E-02  0.1184000E+00
        -11   -1    0    0    0    0  0.00000000000E+00  0.00000000000E+00  0.45593999997E+02  0.45594000000E+02  0.51100000000E-03 0. -1.
         11   -1    0    0    0    0 -0.00000000000E+00 -0.00000000000E+00 -0.45593999997E+02  0.45594000000E+02  0.51100000000E-03 0.  1.
         23    2    1    2    0    0 -0.17763568394E-14  0.00000000000E+00 -0.88817841970E-15  0.91188000000E+02  0.91188000000E+02 0.  0.
    9900012    2    3    3    0    0  0.87988464499E+01 -0.35418407742E+02 -0.48884566404E+01  0.54367077766E+02  0.39999985384E+02 0.  0.
         12    1    3    3    0    0 -0.87988464499E+01  0.35418407742E+02  0.48884566404E+01  0.36820922234E+02  0.00000000000E+00 0. -1.
         11    1    4    4    0    0  0.49272567986E+01 -0.28215572055E+02  0.37449307876E+01  0.28886344054E+02  0.51100000000E-03 0. -1.
        -11    1    4    4    0    0  0.12966513237E+02 -0.65133809744E+01 -0.73628882282E+01  0.16271653897E+02  0.51100000000E-03 0.  1.
         12    1    4    4    0    0 -0.90949235854E+01 -0.68945471262E+00 -0.12704991998E+01  0.92090798152E+01  0.00000000000E+00 0. -1.
</event>
<event>
 8    1  0.2509217E-006  0.9118800E+02  0.7816164E-02  0.1184000E+00
        -11   -1    0    0    0    0  0.00000000000E+00  0.00000000000E+00  0.45593999997E+02  0.45594000000E+02  0.51100000000E-03 0.  1.
         11   -1    0    0    0    0 -0.00000000000E+00 -0.00000000000E+00 -0.45593999997E+02  0.45594000000E+02  0.51100000000E-03 0. -1.
         23    2    1    2    0    0  0.00000000000E+00 -0.35527136788E-14 -0.35527136788E-14  0.91188000000E+02  0.91188000000E+02 0.  0.
    9900012    2    3    3    0    0 -0.90228087584E+01 -0.26655024671E+02  0.23746150951E+02  0.54367067053E+02  0.39999960961E+02 0.  0.
         12    1    3    3    0    0  0.90228087584E+01  0.26655024671E+02 -0.23746150951E+02  0.36820932947E+02  0.00000000000E+00 0. -1.
         11    1    4    4    0    0 -0.96181099994E+01  0.23798360047E+01 -0.95995488756E+00  0.99545553902E+01  0.51100000000E-03 0. -1.
        -11    1    4    4    0    0  0.23589296015E+01 -0.78793532909E+01  0.21402004328E+02  0.22928029717E+02  0.51100000000E-03 0.  1.
        -12    1    4    4    0    0 -0.17636283605E+01 -0.21155507385E+02  0.33041015102E+01  0.21484481946E+02  0.00000000000E+00 0.  1.
</event>
<event>
 8    1  0.2509217E-006  0.9118800E+02  0.7816164E-02  0.1184000E+00
        -11   -1    0    0    0    0  0.00000000000E+00  0.00000000000E+00  0.45593999997E+02  0.45594000000E+02  0.51100000000E-03 0. -1.
         11   -1    0    0    0    0 -0.00000000000E+00 -0.00000000000E+00 -0.45593999997E+02  0.45594000000E+02  0.51100000000E-03 0.  1.
         23    2    1    2    0    0  0.00000000000E+00  0.00000000000E+00  0.35527136788E-14  0.91188000000E+02  0.91188000000E+02 0.  0.
    9900012    2    3    3    0    0 -0.20492510164E+02 -0.20548130957E+02  0.22662986168E+02  0.54367087455E+02  0.40000007470E+02 0.  0.
        -12    1    3    3    0    0  0.20492510164E+02  0.20548130957E+02 -0.22662986168E+02  0.36820912545E+02  0.00000000000E+00 0.  1.
         11    1    4    4    0    0 -0.18642397291E+02 -0.81325363970E+01  0.17433276601E+02  0.26787987202E+02  0.51100000000E-03 0. -1.
        -11    1    4    4    0    0 -0.12584410791E+02 -0.93501225856E+01  0.48438714956E+01  0.16408999929E+02  0.51100000000E-03 0.  1.
        -12    1    4    4    0    0  0.10734297919E+02 -0.30654719740E+01  0.38583807162E+00  0.11170100324E+02  0.00000000000E+00 0.  1.
</event>
<event>
 8    1  0.2509217E-006  0.9118800E+02  0.7816164E-02  0.1184000E+00
        -11   -1    0    0    0    0  0.00000000000E+00  0.00000000000E+00  0.45593999997E+02  0.45594000000E+02  0.51100000000E-03 0.  1.
         11   -1    0    0    0    0 -0.00000000000E+00 -0.00000000000E+00 -0.45593999997E+02  0.45594000000E+02  0.51100000000E-03 0. -1.
         23    2    1    2    0    0 -0.17763568394E-14  0.17763568394E-14  0.00000000000E+00  0.91188000000E+02  0.91188000000E+02 0.  0.
    9900012    2    3    3    0    0  0.13436872148E+02 -0.83779297506E+01 -0.33242162901E+02  0.54367073418E+02  0.39999975472E+02 0.  0.
        -12    1    3    3    0    0 -0.13436872148E+02  0.83779297506E+01  0.33242162901E+02  0.36820926582E+02  0.00000000000E+00 0.  1.
         11    1    4    4    0    0  0.70985179040E+01  0.15386671911E+01 -0.27595105917E+02  0.28535001735E+02  0.51100000000E-03 0. -1.
        -11    1    4    4    0    0 -0.59349792046E+01  0.36061637388E+01 -0.16375721957E+01  0.71351270506E+01  0.51100000000E-03 0.  1.
         12    1    4    4    0    0  0.12273333448E+02 -0.13522760681E+02 -0.40094847878E+01  0.18696944633E+02  0.00000000000E+00 0. -1.
</event>
<event>
 8    1  0.2509217E-006  0.9118800E+02  0.7816164E-02  0.1184000E+00
        -11   -1    0    0    0    0  0.00000000000E+00  0.00000000000E+00  0.45593999997E+02  0.45594000000E+02  0.51100000000E-03 0.  1.
         11   -1    0    0    0    0 -0.00000000000E+00 -0.00000000000E+00 -0.45593999997E+02  0.45594000000E+02  0.51100000000E-03 0. -1.
         23    2    1    2    0    0  0.00000000000E+00  0.88817841970E-15  0.17763568394E-14  0.91188000000E+02  0.91188000000E+02 0.  0.
    9900012    2    3    3    0    0 -0.35345013997E+02  0.55362181724E+01  0.87097368571E+01  0.54367092322E+02  0.40000018566E+02 0.  0.
         12    1    3    3    0    0  0.35345013997E+02 -0.55362181724E+01 -0.87097368571E+01  0.36820907678E+02  0.00000000000E+00 0. -1.
         11    1    4    4    0    0 -0.68677513705E+01 -0.18447492202E+01 -0.11184279974E+02  0.13253574135E+02  0.51100000000E-03 0. -1.
        -11    1    4    4    0    0 -0.44051745483E+01 -0.15519457551E+01 -0.39172589449E+01  0.60958195783E+01  0.51100000000E-03 0.  1.
        -12    1    4    4    0    0 -0.24072088078E+02  0.89329131478E+01  0.23811275776E+02  0.35017698608E+02  0.00000000000E+00 0.  1.
</event>
<event>
 8    1  0.2509217E-006  0.9118800E+02  0.7816164E-02  0.1184000E+00
        -11   -1    0    0    0    0  0.00000000000E+00  0.00000000000E+00  0.45593999997E+02  0.45594000000E+02  0.51100000000E-03 0. -1.
         11   -1    0    0    0    0 -0.00000000000E+00 -0.00000000000E+00 -0.45593999997E+02  0.45594000000E+02  0.51100000000E-03 0.  1.
         23    2    1    2    0    0 -0.88817841970E-15  0.00000000000E+00  0.71054273576E-14  0.91188000000E+02  0.91188000000E+02 0.  0.
    9900012    2    3    3    0    0  0.73781450793E+01 -0.29052551762E+02 -0.21384423761E+02  0.54367063451E+02  0.39999952750E+02 0.  0.
         12    1    3    3    0    0 -0.73781450793E+01  0.29052551762E+02  0.21384423761E+02  0.36820936549E+02  0.00000000000E+00 0. -1.
         11    1    4    4    0    0  0.30514197124E+01  0.24802715938E+01 -0.25718719734E+01  0.46986631236E+01  0.51100000000E-03 0. -1.
        -11    1    4    4    0    0  0.12378225082E+02 -0.88751717428E+00  0.74648329935E+00  0.12432432606E+02  0.51100000000E-03 0.  1.
        -12    1    4    4    0    0 -0.80514997154E+01 -0.30645306182E+02 -0.19559035087E+02  0.37235967722E+02  0.00000000000E+00 0.  1.
</event>
<event>
 8    1  0.2509217E-006  0.9118800E+02  0.7816164E-02  0.1184000E+00
        -11   -1    0    0    0    0  0.00000000000E+00  0.00000000000E+00  0.45593999997E+02  0.45594000000E+02  0.51100000000E-03 0.  1.
         11   -1    0    0    0    0 -0.00000000000E+00 -0.00000000000E+00 -0.45593999997E+02  0.45594000000E+02  0.51100000000E-03 0. -1.
         23    2    1    2    0    0  0.00000000000E+00 -0.88817841970E-15  0.71054273576E-14  0.91188000000E+02  0.91188000000E+02 0.  0.
    9900012    2    3    3    0    0  0.11511118998E+02 -0.45577383656E+01  0.34677104482E+02  0.54367076398E+02  0.39999982266E+02 0.  0.
         12    1    3    3    0    0 -0.11511118998E+02  0.45577383656E+01 -0.34677104482E+02  0.36820923602E+02  0.00000000000E+00 0. -1.
         11    1    4    4    0    0  0.60469806020E+01  0.16181088881E+02  0.12508194108E+02  0.21327178245E+02  0.51100000000E-03 0. -1.
        -11    1    4    4    0    0 -0.18769160586E+00 -0.17641733524E+02  0.13386104344E+02  0.22146191087E+02  0.51100000000E-03 0.  1.
        -12    1    4    4    0    0  0.56518300022E+01 -0.30970937229E+01  0.87828060301E+01  0.10893707067E+02  0.00000000000E+00 0.  1.
</event>
<event>
 8    1  0.2509217E-006  0.9118800E+02  0.7816164E-02  0.1184000E+00
        -11   -1    0    0    0    0  0.00000000000E+00  0.00000000000E+00  0.45593999997E+02  0.45594000000E+02  0.51100000000E-03 0. -1.
         11   -1    0    0    0    0 -0.00000000000E+00 -0.00000000000E+00 -0.45593999997E+02  0.45594000000E+02  0.51100000000E-03 0.  1.
         23    2    1    2    0    0  0.00000000000E+00  0.17763568394E-14  0.00000000000E+00  0.91188000000E+02  0.91188000000E+02 0.  0.
    9900012    2    3    3    0    0 -0.20503545147E+02 -0.10391667311E+02 -0.28764521310E+02  0.54367084757E+02  0.40000001322E+02 0.  0.
         12    1    3    3    0    0  0.20503545147E+02  0.10391667311E+02  0.28764521310E+02  0.36820915243E+02  0.00000000000E+00 0. -1.
         11    1    4    4    0    0 -0.65017681364E+00 -0.52044221458E+00  0.11490555502E+01  0.14191261065E+01  0.51100000000E-03 0. -1.
        -11    1    4    4    0    0 -0.26450808390E+02 -0.18581458116E+02 -0.25463340624E+02  0.41149697036E+02  0.51100000000E-03 0.  1.
         12    1    4    4    0    0  0.65974400563E+01  0.87102330203E+01 -0.44502362366E+01  0.11798261615E+02  0.00000000000E+00 0. -1.
</event>
<event>
 8    1  0.2509217E-006  0.9118800E+02  0.7816164E-02  0.1184000E+00
        -11   -1    0    0    0    0  0.00000000000E+00  0.00000000000E+00  0.45593999997E+02  0.45594000000E+02  0.51100000000E-03 0. -1.
         11   -1    0    0    0    0 -0.00000000000E+00 -0.00000000000E+00 -0.45593999997E+02  0.45594000000E+02  0.51100000000E-03 0.  1.
         23    2    1    2    0    0  0.71054273576E-14 -0.17763568394E-14  0.17763568394E-14  0.91188000000E+02  0.91188000000E+02 0.  0.
    9900012    2    3    3    0    0  0.35371831661E+02  0.97701592694E+01 -0.30270878162E+01  0.54367003981E+02  0.39999817175E+02 0.  0.
         12    1    3    3    0    0 -0.35371831661E+02 -0.97701592694E+01  0.30270878162E+01  0.36820996019E+02  0.00000000000E+00 0. -1.
         11    1    4    4    0    0 -0.23807580955E+01  0.45619436899E+01  0.90958278841E+01  0.10450522690E+02  0.51100000000E-03 0. -1.
        -11    1    4    4    0    0  0.69113604662E+01  0.86540292271E+01 -0.45454101564E+01  0.11971628089E+02  0.51100000000E-03 0.  1.
         12    1    4    4    0    0  0.30841229290E+02 -0.34458136476E+01 -0.75775055440E+01  0.31944853202E+02  0.00000000000E+00 0. -1.
</event>
<event>
 8    1  0.2509217E-006  0.9118800E+02  0.7816164E-02  0.1184000E+00
        -11   -1    0    0    0    0  0.00000000000E+00  0.00000000000E+00  0.45593999997E+02  0.45594000000E+02  0.51100000000E-03 0.  1.
         11   -1    0    0    0    0 -0.00000000000E+00 -0.00000000000E+00 -0.45593999997E+02  0.45594000000E+02  0.51100000000E-03 0. -1.
         23    2    1    2    0    0  0.00000000000E+00  0.17763568394E-14  0.35527136788E-14  0.91188000000E+02  0.91188000000E+02 0.  0.
    9900012    2    3    3    0    0 -0.18272936296E+02  0.12736851502E+02 -0.29319846900E+02  0.54367068327E+02  0.39999963865E+02 0.  0.
        -12    1    3    3    0    0  0.18272936296E+02 -0.12736851502E+02  0.29319846900E+02  0.36820931673E+02  0.00000000000E+00 0.  1.
         11    1    4    4    0    0 -0.43253592853E+01  0.23459248613E+01 -0.16778319688E+02  0.17484968064E+02  0.51100000000E-03 0. -1.
        -11    1    4    4    0    0 -0.55936469814E+01 -0.41684403184E+01 -0.17940772029E+02  0.19249313819E+02  0.51100000000E-03 0.  1.
        -12    1    4    4    0    0 -0.83539300290E+01  0.14559366959E+02  0.53992448172E+01  0.17632786444E+02  0.00000000000E+00 0.  1.
</event>
<event>
 8    1  0.2509217E-006  0.9118800E+02  0.7816164E-02  0.1184000E+00
        -11   -1    0    0    0    0  0.00000000000E+00  0.00000000000E+00  0.45593999997E+02  0.45594000000E+02  0.51100000000E-03 0. -1.
         11   -1    0    0    0    0 -0.00000000000E+00 -0.00000000000E+00 -0.45593999997E+02  0.45594000000E+02  0.51100000000E-03 0.  1.
         23    2    1    2    0    0 -0.71054273576E-14  0.88817841970E-15 -0.35527136788E-14  0.91188000000E+02  0.91188000000E+02 0.  0.
    9900012    2    3    3    0    0  0.22320685779E+02  0.35097323814E+01  0.29073154457E+02  0.54367088209E+02  0.40000009191E+02 0.  0.
        -12    1    3    3    0    0 -0.22320685779E+02 -0.35097323814E+01 -0.29073154457E+02  0.36820911791E+02  0.00000000000E+00 0.  1.
         11    1    4    4    0    0 -0.46905055388E+01 -0.85791940092E+00  0.32826190199E+01  0.57889943685E+01  0.51100000000E-03 0. -1.
        -11    1    4    4    0    0 -0.48750665052E+01 -0.54422718090E+01  0.19139871423E+01  0.75530088650E+01  0.51100000000E-03 0.  1.
         12    1    4    4    0    0  0.31886257823E+02  0.98099235913E+01  0.23876548295E+02  0.41025084976E+02  0.00000000000E+00 0. -1.
</event>
<event>
 8    1  0.2509217E-006  0.9118800E+02  0.7816164E-02  0.1184000E+00
        -11   -1    0    0    0    0  0.00000000000E+00  0.00000000000E+00  0.45593999997E+02  0.45594000000E+02  0.51100000000E-03 0. -1.
         11   -1    0    0    0    0 -0.00000000000E+00 -0.00000000000E+00 -0.45593999997E+02  0.45594000000E+02  0.51100000000E-03 0.  1.
         23    2    1    2    0    0  0.00000000000E+00  0.00000000000E+00 -0.17763568394E-14  0.91188000000E+02  0.91188000000E+02 0.  0.
    9900012    2    3    3    0    0  0.13129878722E+02 -0.32575061565E+02 -0.11056739935E+02  0.54367084080E+02  0.39999999777E+02 0.  0.
        -12    1    3    3    0    0 -0.13129878722E+02  0.32575061565E+02  0.11056739935E+02  0.36820915920E+02  0.00000000000E+00 0.  1.
         11    1    4    4    0    0  0.11644493089E+02 -0.90804360961E+01 -0.69189475736E+01  0.16307065180E+02  0.51100000000E-03 0. -1.
        -11    1    4    4    0    0  0.83030530680E+01  0.15699975680E+01 -0.81932032356E+01  0.11770053616E+02  0.51100000000E-03 0.  1.
         12    1    4    4    0    0 -0.68176674350E+01 -0.25064623037E+02  0.40554108746E+01  0.26289965283E+02  0.00000000000E+00 0. -1.
</event>
<event>
 8    1  0.2509217E-006  0.9118800E+02  0.7816164E-02  0.1184000E+00
        -11   -1    0    0    0    0  0.00000000000E+00  0.00000000000E+00  0.45593999997E+02  0.45594000000E+02  0.51100000000E-03 0. -1.
         11   -1    0    0    0    0 -0.00000000000E+00 -0.00000000000E+00 -0.45593999997E+02  0.45594000000E+02  0.51100000000E-03 0.  1.
         23    2    1    2    0    0  0.00000000000E+00  0.17763568394E-14 -0.35527136788E-14  0.91188000000E+02  0.91188000000E+02 0.  0.
    9900012    2    3    3    0    0  0.19162116084E+02 -0.10147300529E+02  0.29759454572E+02  0.54367088316E+02  0.40000009434E+02 0.  0.
        -12    1    3    3    0    0 -0.19162116084E+02  0.10147300529E+02 -0.29759454572E+02  0.36820911684E+02  0.00000000000E+00 0.  1.
         11    1    4    4    0    0  0.15549292960E+02 -0.40117871719E+01  0.11985673014E+01  0.16103152229E+02  0.51100000000E-03 0. -1.
        -11    1    4    4    0    0  0.54285580603E+01 -0.15126552485E+02  0.20531956256E+02  0.26073800272E+02  0.51100000000E-03 0.  1.
        -12    1    4    4    0    0 -0.18157349364E+01  0.89910391275E+01  0.80289310143E+01  0.12190135815E+02  0.00000000000E+00 0.  1.
</event>
<event>
 8    1  0.2509217E-006  0.9118800E+02  0.7816164E-02  0.1184000E+00
        -11   -1    0    0    0    0  0.00000000000E+00  0.00000000000E+00  0.45593999997E+02  0.45594000000E+02  0.51100000000E-03 0.  1.
         11   -1    0    0    0    0 -0.00000000000E+00 -0.00000000000E+00 -0.45593999997E+02  0.45594000000E+02  0.51100000000E-03 0. -1.
         23    2    1    2    0    0  0.00000000000E+00  0.00000000000E+00  0.00000000000E+00  0.91188000000E+02  0.91188000000E+02 0.  0.
    9900012    2    3    3    0    0  0.34884247665E+02  0.11121412431E+02  0.38964622664E+01  0.54367096048E+02  0.40000027061E+02 0.  0.
         12    1    3    3    0    0 -0.34884247665E+02 -0.11121412431E+02 -0.38964622664E+01  0.36820903952E+02  0.00000000000E+00 0. -1.
         11    1    4    4    0    0  0.14687643379E+02 -0.78895543062E-01 -0.83717918849E+01  0.16906211644E+02  0.51100000000E-03 0. -1.
        -11    1    4    4    0    0  0.25573181032E+02  0.40682146950E+01  0.60918039581E+01  0.26601654735E+02  0.51100000000E-03 0.  1.
        -12    1    4    4    0    0 -0.53765767450E+01  0.71320932789E+01  0.61764501932E+01  0.10859229670E+02  0.00000000000E+00 0.  1.
</event>
<event>
 8    1  0.2509217E-006  0.9118800E+02  0.7816164E-02  0.1184000E+00
        -11   -1    0    0    0    0  0.00000000000E+00  0.00000000000E+00  0.45593999997E+02  0.45594000000E+02  0.51100000000E-03 0.  1.
         11   -1    0    0    0    0 -0.00000000000E+00 -0.00000000000E+00 -0.45593999997E+02  0.45594000000E+02  0.51100000000E-03 0. -1.
         23    2    1    2    0    0 -0.88817841970E-15  0.00000000000E+00  0.71054273576E-14  0.91188000000E+02  0.91188000000E+02 0.  0.
    9900012    2    3    3    0    0 -0.74954124442E+01 -0.67426201121E+01  0.35413748921E+02  0.54367112635E+02  0.40000064874E+02 0.  0.
         12    1    3    3    0    0  0.74954124442E+01  0.67426201121E+01 -0.35413748921E+02  0.36820887365E+02  0.00000000000E+00 0. -1.
         11    1    4    4    0    0 -0.39393346779E+01 -0.39630878710E+01  0.83753424008E+01  0.10068305904E+02  0.51100000000E-03 0. -1.
        -11    1    4    4    0    0 -0.41027853968E+01 -0.16160500961E+02  0.25973371410E+02  0.30864391489E+02  0.51100000000E-03 0.  1.
         12    1    4    4    0    0  0.54670763048E+00  0.13380968720E+02  0.10650351102E+01  0.13434415242E+02  0.00000000000E+00 0. -1.
</event>
<event>
 8    1  0.2509217E-006  0.9118800E+02  0.7816164E-02  0.1184000E+00
        -11   -1    0    0    0    0  0.00000000000E+00  0.00000000000E+00  0.45593999997E+02  0.45594000000E+02  0.51100000000E-03 0.  1.
         11   -1    0    0    0    0 -0.00000000000E+00 -0.00000000000E+00 -0.45593999997E+02  0.45594000000E+02  0.51100000000E-03 0. -1.
         23    2    1    2    0    0  0.35527136788E-14  0.35527136788E-14 -0.35527136788E-14  0.91188000000E+02  0.91188000000E+02 0.  0.
    9900012    2    3    3    0    0 -0.17549339281E+02 -0.27866679968E+02  0.16469538870E+02  0.54367124505E+02  0.40000091933E+02 0.  0.
         12    1    3    3    0    0  0.17549339281E+02  0.27866679968E+02 -0.16469538870E+02  0.36820875495E+02  0.00000000000E+00 0. -1.
         11    1    4    4    0    0 -0.15694411916E+01 -0.41110633696E+01  0.24366225887E+01  0.50300216286E+01  0.51100000000E-03 0. -1.
        -11    1    4    4    0    0 -0.22139980793E+02 -0.73646452839E+01  0.20109148143E+02  0.30802509458E+02  0.51100000000E-03 0.  1.
         12    1    4    4    0    0  0.61600827030E+01 -0.16390971314E+02 -0.60762318609E+01  0.18534593418E+02  0.00000000000E+00 0. -1.
</event>
<event>
 8    1  0.2509217E-006  0.9118800E+02  0.7816164E-02  0.1184000E+00
        -11   -1    0    0    0    0  0.00000000000E+00  0.00000000000E+00  0.45593999997E+02  0.45594000000E+02  0.51100000000E-03 0. -1.
         11   -1    0    0    0    0 -0.00000000000E+00 -0.00000000000E+00 -0.45593999997E+02  0.45594000000E+02  0.51100000000E-03 0.  1.
         23    2    1    2    0    0  0.00000000000E+00 -0.88817841970E-15  0.00000000000E+00  0.91188000000E+02  0.91188000000E+02 0.  0.
    9900012    2    3    3    0    0  0.28829118415E+02 -0.70512101557E+01  0.21793203455E+02  0.54367063700E+02  0.39999953316E+02 0.  0.
        -12    1    3    3    0    0 -0.28829118415E+02  0.70512101557E+01 -0.21793203455E+02  0.36820936300E+02  0.00000000000E+00 0.  1.
         11    1    4    4    0    0  0.21442679406E+02  0.51436443186E+00  0.87081655092E+01  0.23149194752E+02  0.51100000000E-03 0.  1.
        -11    1    4    4    0    0  0.10553756077E+02  0.64213595887E+01  0.11343002830E+02  0.16771384551E+02  0.51100000000E-03 0. -1.
         12    1    4    4    0    0 -0.31673170687E+01 -0.13986934176E+02  0.17420351156E+01  0.14446484396E+02  0.00000000000E+00 0. -1.
</event>
<event>
 8    1  0.2509217E-006  0.9118800E+02  0.7816164E-02  0.1184000E+00
        -11   -1    0    0    0    0  0.00000000000E+00  0.00000000000E+00  0.45593999997E+02  0.45594000000E+02  0.51100000000E-03 0.  1.
         11   -1    0    0    0    0 -0.00000000000E+00 -0.00000000000E+00 -0.45593999997E+02  0.45594000000E+02  0.51100000000E-03 0. -1.
         23    2    1    2    0    0  0.00000000000E+00  0.00000000000E+00  0.00000000000E+00  0.91188000000E+02  0.91188000000E+02 0.  0.
    9900012    2    3    3    0    0 -0.32658664848E+01  0.57838759685E+01  0.36216904202E+02  0.54367037831E+02  0.39999894343E+02 0.  0.
         12    1    3    3    0    0  0.32658664848E+01 -0.57838759685E+01 -0.36216904202E+02  0.36820962169E+02  0.00000000000E+00 0. -1.
         11    1    4    4    0    0 -0.33296472678E+01 -0.89509966729E+01  0.12158140711E+02  0.15460507048E+02  0.51100000000E-03 0. -1.
        -11    1    4    4    0    0  0.48679023391E+01  0.12245692992E+02 -0.10517754371E+01  0.13219671020E+02  0.51100000000E-03 0.  1.
        -12    1    4    4    0    0 -0.48041215561E+01  0.24891796495E+01  0.25110538928E+02  0.25686859763E+02  0.00000000000E+00 0.  1.
</event>
<event>
 8    1  0.2509217E-006  0.9118800E+02  0.7816164E-02  0.1184000E+00
        -11   -1    0    0    0    0  0.00000000000E+00  0.00000000000E+00  0.45593999997E+02  0.45594000000E+02  0.51100000000E-03 0.  1.
         11   -1    0    0    0    0 -0.00000000000E+00 -0.00000000000E+00 -0.45593999997E+02  0.45594000000E+02  0.51100000000E-03 0. -1.
         23    2    1    2    0    0  0.35527136788E-14 -0.88817841970E-15  0.00000000000E+00  0.91188000000E+02  0.91188000000E+02 0.  0.
    9900012    2    3    3    0    0  0.18880212491E+02 -0.53532332028E+01 -0.31155419603E+02  0.54367086105E+02  0.40000004394E+02 0.  0.
        -12    1    3    3    0    0 -0.18880212491E+02  0.53532332028E+01  0.31155419603E+02  0.36820913895E+02  0.00000000000E+00 0.  1.
         11    1    4    4    0    0 -0.38307564114E+01 -0.63765129781E+01 -0.74040084066E+01  0.10495425346E+02  0.51100000000E-03 0.  1.
        -11    1    4    4    0    0  0.73069944355E+01  0.14558421829E+02 -0.89893100145E+01  0.18605039872E+02  0.51100000000E-03 0. -1.
         12    1    4    4    0    0  0.15403974467E+02 -0.13535142054E+02 -0.14762101182E+02  0.25266620888E+02  0.00000000000E+00 0. -1.
</event>
<event>
 8    1  0.2509217E-006  0.9118800E+02  0.7816164E-02  0.1184000E+00
        -11   -1    0    0    0    0  0.00000000000E+00  0.00000000000E+00  0.45593999997E+02  0.45594000000E+02  0.51100000000E-03 0. -1.
         11   -1    0    0    0    0 -0.00000000000E+00 -0.00000000000E+00 -0.45593999997E+02  0.45594000000E+02  0.51100000000E-03 0.  1.
         23    2    1    2    0    0  0.17763568394E-14 -0.17763568394E-14  0.00000000000E+00  0.91188000000E+02  0.91188000000E+02 0.  0.
    9900012    2    3    3    0    0 -0.15687390701E+02 -0.14028139774E+02  0.30214178323E+02  0.54367088764E+02  0.40000010455E+02 0.  0.
        -12    1    3    3    0    0  0.15687390701E+02  0.14028139774E+02 -0.30214178323E+02  0.36820911236E+02  0.00000000000E+00 0.  1.
         11    1    4    4    0    0  0.99685611858E+00  0.22792009553E+01  0.13709913808E+02  0.13933779674E+02  0.51100000000E-03 0. -1.
        -11    1    4    4    0    0 -0.51597231046E+01 -0.10911801056E+02 -0.68199397263E+01  0.13863683599E+02  0.51100000000E-03 0.  1.
         12    1    4    4    0    0 -0.11524523715E+02 -0.53955396727E+01  0.23324204241E+02  0.26569625491E+02  0.00000000000E+00 0. -1.
</event>
<event>
 8    1  0.2509217E-006  0.9118800E+02  0.7816164E-02  0.1184000E+00
        -11   -1    0    0    0    0  0.00000000000E+00  0.00000000000E+00  0.45593999997E+02  0.45594000000E+02  0.51100000000E-03 0.  1.
         11   -1    0    0    0    0 -0.00000000000E+00 -0.00000000000E+00 -0.45593999997E+02  0.45594000000E+02  0.51100000000E-03 0. -1.
         23    2    1    2    0    0 -0.35527136788E-14 -0.17763568394E-14  0.35527136788E-14  0.91188000000E+02  0.91188000000E+02 0.  0.
    9900012    2    3    3    0    0  0.16612599201E+02  0.12001697471E+02 -0.30590213070E+02  0.54367077550E+02  0.39999984892E+02 0.  0.
        -12    1    3    3    0    0 -0.16612599201E+02 -0.12001697471E+02  0.30590213070E+02  0.36820922450E+02  0.00000000000E+00 0.  1.
         11    1    4    4    0    0  0.11109238246E+02  0.73370782511E+01  0.98034044800E-01  0.13313808719E+02  0.51100000000E-03 0. -1.
        -11    1    4    4    0    0  0.28895374211E+01  0.11508296097E+02 -0.27628266290E+01  0.12182919060E+02  0.51100000000E-03 0.  1.
        -12    1    4    4    0    0  0.26138235336E+01 -0.68436768773E+01 -0.27925420485E+02  0.28870349772E+02  0.00000000000E+00 0.  1.
</event>
<event>
 8    1  0.2509217E-006  0.9118800E+02  0.7816164E-02  0.1184000E+00
        -11   -1    0    0    0    0  0.00000000000E+00  0.00000000000E+00  0.45593999997E+02  0.45594000000E+02  0.51100000000E-03 0. -1.
         11   -1    0    0    0    0 -0.00000000000E+00 -0.00000000000E+00 -0.45593999997E+02  0.45594000000E+02  0.51100000000E-03 0.  1.
         23    2    1    2    0    0 -0.35527136788E-14  0.00000000000E+00  0.17763568394E-14  0.91188000000E+02  0.91188000000E+02 0.  0.
    9900012    2    3    3    0    0  0.18194621270E+02 -0.27775046751E+02 -0.15914891957E+02  0.54367065042E+02  0.39999956376E+02 0.  0.
         12    1    3    3    0    0 -0.18194621270E+02  0.27775046751E+02  0.15914891957E+02  0.36820934958E+02  0.00000000000E+00 0. -1.
         11    1    4    4    0    0  0.12906872512E+02 -0.63732167393E+01 -0.67390089368E+01  0.15894008033E+02  0.51100000000E-03 0. -1.
        -11    1    4    4    0    0  0.17837826505E+02 -0.12949963005E+02 -0.73324355055E+01  0.23230458604E+02  0.51100000000E-03 0.  1.
         12    1    4    4    0    0 -0.12550077748E+02 -0.84518670074E+01 -0.18434475146E+01  0.15242598404E+02  0.00000000000E+00 0. -1.
</event>
<event>
 8    1  0.2509217E-006  0.9118800E+02  0.7816164E-02  0.1184000E+00
        -11   -1    0    0    0    0  0.00000000000E+00  0.00000000000E+00  0.45593999997E+02  0.45594000000E+02  0.51100000000E-03 0.  1.
         11   -1    0    0    0    0 -0.00000000000E+00 -0.00000000000E+00 -0.45593999997E+02  0.45594000000E+02  0.51100000000E-03 0. -1.
         23    2    1    2    0    0 -0.88817841970E-15  0.00000000000E+00  0.35527136788E-14  0.91188000000E+02  0.91188000000E+02 0.  0.
    9900012    2    3    3    0    0  0.52013275108E+01  0.20593579923E+02  0.30077069667E+02  0.54367089342E+02  0.40000011772E+02 0.  0.
         12    1    3    3    0    0 -0.52013275108E+01 -0.20593579923E+02 -0.30077069667E+02  0.36820910658E+02  0.00000000000E+00 0. -1.
         11    1    4    4    0    0 -0.38535411198E+01 -0.30368250468E+01 -0.91618456907E+00  0.49911401456E+01  0.51100000000E-03 0. -1.
        -11    1    4    4    0    0  0.13004697379E+02  0.25364079075E+02  0.13835096909E+02  0.31683884989E+02  0.51100000000E-03 0.  1.
        -12    1    4    4    0    0 -0.39498287479E+01 -0.17336741048E+01  0.17158157328E+02  0.17692064207E+02  0.00000000000E+00 0.  1.
</event>
<event>
 8    1  0.2509217E-006  0.9118800E+02  0.7816164E-02  0.1184000E+00
        -11   -1    0    0    0    0  0.00000000000E+00  0.00000000000E+00  0.45593999997E+02  0.45594000000E+02  0.51100000000E-03 0. -1.
         11   -1    0    0    0    0 -0.00000000000E+00 -0.00000000000E+00 -0.45593999997E+02  0.45594000000E+02  0.51100000000E-03 0.  1.
         23    2    1    2    0    0  0.00000000000E+00  0.17763568394E-14 -0.17763568394E-14  0.91188000000E+02  0.91188000000E+02 0.  0.
    9900012    2    3    3    0    0  0.34115565871E+02 -0.13494353321E+02 -0.31316803301E+01  0.54367125106E+02  0.40000093305E+02 0.  0.
        -12    1    3    3    0    0 -0.34115565871E+02  0.13494353321E+02  0.31316803301E+01  0.36820874894E+02  0.00000000000E+00 0.  1.
         11    1    4    4    0    0  0.21016193303E+02  0.20917159270E+01 -0.56923924734E+01  0.21873705420E+02  0.51100000000E-03 0. -1.
        -11    1    4    4    0    0  0.52347626823E+01 -0.14254575752E+02 -0.95888388444E+01  0.17959440438E+02  0.51100000000E-03 0.  1.
         12    1    4    4    0    0  0.78646098863E+01 -0.13314934960E+01  0.12149550988E+02  0.14533979248E+02  0.00000000000E+00 0. -1.
</event>
<event>
 8    1  0.2509217E-006  0.9118800E+02  0.7816164E-02  0.1184000E+00
        -11   -1    0    0    0    0  0.00000000000E+00  0.00000000000E+00  0.45593999997E+02  0.45594000000E+02  0.51100000000E-03 0. -1.
         11   -1    0    0    0    0 -0.00000000000E+00 -0.00000000000E+00 -0.45593999997E+02  0.45594000000E+02  0.51100000000E-03 0.  1.
         23    2    1    2    0    0  0.22204460493E-15  0.00000000000E+00  0.00000000000E+00  0.91188000000E+02  0.91188000000E+02 0.  0.
    9900012    2    3    3    0    0 -0.13907917076E+01  0.35090457598E+02  0.11068225470E+02  0.54367080252E+02  0.39999991051E+02 0.  0.
        -12    1    3    3    0    0  0.13907917076E+01 -0.35090457598E+02 -0.11068225470E+02  0.36820919748E+02  0.00000000000E+00 0.  1.
         11    1    4    4    0    0 -0.17905883181E+01  0.14299693016E+01  0.32852264056E+01  0.40054627105E+01  0.51100000000E-03 0. -1.
        -11    1    4    4    0    0  0.57057818092E+01 -0.18786940380E+01  0.12742901679E+02  0.14087830948E+02  0.51100000000E-03 0.  1.
        -12    1    4    4    0    0 -0.53059851987E+01  0.35539182334E+02 -0.49599026152E+01  0.36273786594E+02  0.00000000000E+00 0.  1.
</event>
<event>
 8    1  0.2509217E-006  0.9118800E+02  0.7816164E-02  0.1184000E+00
        -11   -1    0    0    0    0  0.00000000000E+00  0.00000000000E+00  0.45593999997E+02  0.45594000000E+02  0.51100000000E-03 0. -1.
         11   -1    0    0    0    0 -0.00000000000E+00 -0.00000000000E+00 -0.45593999997E+02  0.45594000000E+02  0.51100000000E-03 0.  1.
         23    2    1    2    0    0  0.00000000000E+00  0.00000000000E+00  0.00000000000E+00  0.91188000000E+02  0.91188000000E+02 0.  0.
    9900012    2    3    3    0    0  0.18906569439E+02 -0.17346915431E+02 -0.26408474686E+02  0.54367063318E+02  0.39999952446E+02 0.  0.
         12    1    3    3    0    0 -0.18906569439E+02  0.17346915431E+02  0.26408474686E+02  0.36820936682E+02  0.00000000000E+00 0. -1.
         11    1    4    4    0    0 -0.75942025725E+01  0.16373286989E+01 -0.38423364296E+01  0.86669664520E+01  0.51100000000E-03 0. -1.
        -11    1    4    4    0    0  0.19955456108E+02 -0.19570664105E+02 -0.70148599780E+01  0.28817345172E+02  0.51100000000E-03 0.  1.
        -12    1    4    4    0    0  0.65453159034E+01  0.58641997564E+00 -0.15551278278E+02  0.16882751693E+02  0.00000000000E+00 0.  1.
</event>
<event>
 8    1  0.2509217E-006  0.9118800E+02  0.7816164E-02  0.1184000E+00
        -11   -1    0    0    0    0  0.00000000000E+00  0.00000000000E+00  0.45593999997E+02  0.45594000000E+02  0.51100000000E-03 0. -1.
         11   -1    0    0    0    0 -0.00000000000E+00 -0.00000000000E+00 -0.45593999997E+02  0.45594000000E+02  0.51100000000E-03 0.  1.
         23    2    1    2    0    0 -0.13322676296E-14  0.35527136788E-14 -0.35527136788E-14  0.91188000000E+02  0.91188000000E+02 0.  0.
    9900012    2    3    3    0    0 -0.36764506574E+01  0.20847901054E+02 -0.30126871966E+02  0.54367086347E+02  0.40000004945E+02 0.  0.
         12    1    3    3    0    0  0.36764506574E+01 -0.20847901054E+02  0.30126871966E+02  0.36820913653E+02  0.00000000000E+00 0. -1.
         11    1    4    4    0    0  0.48019888207E+01 -0.31691598338E+01 -0.16524616199E+02  0.17497588733E+02  0.51100000000E-03 0. -1.
        -11    1    4    4    0    0  0.44303539586E+01  0.29220227104E+01  0.38875713326E+01  0.65787129476E+01  0.51100000000E-03 0.  1.
        -12    1    4    4    0    0 -0.12908793437E+02  0.21095038177E+02 -0.17489827099E+02  0.30290784666E+02  0.00000000000E+00 0.  1.
</event>
<event>
 8    1  0.2509217E-006  0.9118800E+02  0.7816164E-02  0.1184000E+00
        -11   -1    0    0    0    0  0.00000000000E+00  0.00000000000E+00  0.45593999997E+02  0.45594000000E+02  0.51100000000E-03 0.  1.
         11   -1    0    0    0    0 -0.00000000000E+00 -0.00000000000E+00 -0.45593999997E+02  0.45594000000E+02  0.51100000000E-03 0. -1.
         23    2    1    2    0    0  0.88817841970E-15 -0.17763568394E-14 -0.71054273576E-14  0.91188000000E+02  0.91188000000E+02 0.  0.
    9900012    2    3    3    0    0  0.79234212994E+01 -0.14787604674E+02 -0.32776900157E+02  0.54367095055E+02  0.40000024797E+02 0.  0.
        -12    1    3    3    0    0 -0.79234212994E+01  0.14787604674E+02  0.32776900157E+02  0.36820904945E+02  0.00000000000E+00 0.  1.
         11    1    4    4    0    0  0.10793894533E+02  0.16671902099E+01 -0.15308569001E+02  0.18805317533E+02  0.51100000000E-03 0. -1.
        -11    1    4    4    0    0 -0.68416917006E+01 -0.15780056399E+01  0.47878605883E+01  0.84983796338E+01  0.51100000000E-03 0.  1.
         12    1    4    4    0    0  0.39712184666E+01 -0.14876789244E+02 -0.22256191744E+02  0.27063397888E+02  0.00000000000E+00 0. -1.
</event>
<event>
 8    1  0.2509217E-006  0.9118800E+02  0.7816164E-02  0.1184000E+00
        -11   -1    0    0    0    0  0.00000000000E+00  0.00000000000E+00  0.45593999997E+02  0.45594000000E+02  0.51100000000E-03 0.  1.
         11   -1    0    0    0    0 -0.00000000000E+00 -0.00000000000E+00 -0.45593999997E+02  0.45594000000E+02  0.51100000000E-03 0. -1.
         23    2    1    2    0    0 -0.88817841970E-15  0.00000000000E+00  0.88817841970E-15  0.91188000000E+02  0.91188000000E+02 0.  0.
    9900012    2    3    3    0    0  0.60592747686E+01  0.35617934993E+02 -0.71011947190E+01  0.54367094657E+02  0.40000023888E+02 0.  0.
        -12    1    3    3    0    0 -0.60592747686E+01 -0.35617934993E+02  0.71011947190E+01  0.36820905343E+02  0.00000000000E+00 0.  1.
         11    1    4    4    0    0  0.85997848997E+01  0.27587705650E+01  0.42476289977E+01  0.99804542840E+01  0.51100000000E-03 0. -1.
        -11    1    4    4    0    0 -0.12431720586E+02  0.77350724389E+01  0.10410359939E+01  0.14678650434E+02  0.51100000000E-03 0.  1.
         12    1    4    4    0    0  0.98912104550E+01  0.25124091989E+02 -0.12389859711E+02  0.29707989938E+02  0.00000000000E+00 0. -1.
</event>
<event>
 8    1  0.2509217E-006  0.9118800E+02  0.7816164E-02  0.1184000E+00
        -11   -1    0    0    0    0  0.00000000000E+00  0.00000000000E+00  0.45593999997E+02  0.45594000000E+02  0.51100000000E-03 0.  1.
         11   -1    0    0    0    0 -0.00000000000E+00 -0.00000000000E+00 -0.45593999997E+02  0.45594000000E+02  0.51100000000E-03 0. -1.
         23    2    1    2    0    0 -0.17763568394E-14  0.35527136788E-14 -0.35527136788E-14  0.91188000000E+02  0.91188000000E+02 0.  0.
    9900012    2    3    3    0    0 -0.82857260524E+01  0.25672136812E+02 -0.25061290330E+02  0.54367080163E+02  0.39999990846E+02 0.  0.
        -12    1    3    3    0    0  0.82857260524E+01 -0.25672136812E+02  0.25061290330E+02  0.36820919837E+02  0.00000000000E+00 0.  1.
         11    1    4    4    0    0  0.87140981689E+01  0.42990276958E+01 -0.55499536494E+01  0.11190135468E+02  0.51100000000E-03 0. -1.
        -11    1    4    4    0    0 -0.11133360772E+02  0.20141772667E+02 -0.25742939373E+02  0.34530300549E+02  0.51100000000E-03 0.  1.
        -12    1    4    4    0    0 -0.58664634490E+01  0.12313364495E+01  0.62316026924E+01  0.86466441448E+01  0.00000000000E+00 0.  1.
</event>
<event>
 8    1  0.2509217E-006  0.9118800E+02  0.7816164E-02  0.1184000E+00
        -11   -1    0    0    0    0  0.00000000000E+00  0.00000000000E+00  0.45593999997E+02  0.45594000000E+02  0.51100000000E-03 0. -1.
         11   -1    0    0    0    0 -0.00000000000E+00 -0.00000000000E+00 -0.45593999997E+02  0.45594000000E+02  0.51100000000E-03 0.  1.
         23    2    1    2    0    0 -0.88817841970E-15  0.00000000000E+00 -0.22204460493E-14  0.91188000000E+02  0.91188000000E+02 0.  0.
    9900012    2    3    3    0    0 -0.44604875581E+01 -0.36381486902E+02 -0.35031525495E+01  0.54367073664E+02  0.39999976032E+02 0.  0.
         12    1    3    3    0    0  0.44604875581E+01  0.36381486902E+02  0.35031525495E+01  0.36820926336E+02  0.00000000000E+00 0. -1.
         11    1    4    4    0    0 -0.50179340242E+01 -0.34927852267E+01  0.12836260569E+02  0.14217904070E+02  0.51100000000E-03 0. -1.
        -11    1    4    4    0    0 -0.40381772826E+01 -0.26985354259E+02 -0.69748799789E+01  0.28163188230E+02  0.51100000000E-03 0.  1.
         12    1    4    4    0    0  0.45956237487E+01 -0.59033474156E+01 -0.93645331391E+01  0.11985981364E+02  0.00000000000E+00 0. -1.
</event>
<event>
 8    1  0.2509217E-006  0.9118800E+02  0.7816164E-02  0.1184000E+00
        -11   -1    0    0    0    0  0.00000000000E+00  0.00000000000E+00  0.45593999997E+02  0.45594000000E+02  0.51100000000E-03 0.  1.
         11   -1    0    0    0    0 -0.00000000000E+00 -0.00000000000E+00 -0.45593999997E+02  0.45594000000E+02  0.51100000000E-03 0. -1.
         23    2    1    2    0    0  0.35527136788E-14  0.00000000000E+00  0.00000000000E+00  0.91188000000E+02  0.91188000000E+02 0.  0.
    9900012    2    3    3    0    0  0.27800375128E+02 -0.23648686030E+02  0.48641167204E+01  0.54367070630E+02  0.39999969115E+02 0.  0.
        -12    1    3    3    0    0 -0.27800375128E+02  0.23648686030E+02 -0.48641167204E+01  0.36820929370E+02  0.00000000000E+00 0.  1.
         11    1    4    4    0    0  0.31023416640E+02 -0.20149576922E+02  0.77978525914E+01  0.37805612486E+02  0.51100000000E-03 0. -1.
        -11    1    4    4    0    0 -0.81546704992E+01 -0.33991963717E+01  0.25404409733E+01  0.91927703944E+01  0.51100000000E-03 0.  1.
         12    1    4    4    0    0  0.49316289871E+01 -0.99912736447E-01 -0.54741768444E+01  0.73686877491E+01  0.00000000000E+00 0. -1.
</event>
<event>
 8    1  0.2509217E-006  0.9118800E+02  0.7816164E-02  0.1184000E+00
        -11   -1    0    0    0    0  0.00000000000E+00  0.00000000000E+00  0.45593999997E+02  0.45594000000E+02  0.51100000000E-03 0.  1.
         11   -1    0    0    0    0 -0.00000000000E+00 -0.00000000000E+00 -0.45593999997E+02  0.45594000000E+02  0.51100000000E-03 0. -1.
         23    2    1    2    0    0  0.00000000000E+00  0.00000000000E+00 -0.22204460493E-15  0.91188000000E+02  0.91188000000E+02 0.  0.
    9900012    2    3    3    0    0  0.36466641923E+02  0.48885568545E+01  0.14344071063E+01  0.54367197659E+02  0.40000258703E+02 0.  0.
        -12    1    3    3    0    0 -0.36466641923E+02 -0.48885568545E+01 -0.14344071063E+01  0.36820802341E+02  0.00000000000E+00 0.  1.
         11    1    4    4    0    0  0.16932853455E+02  0.14156202063E+02 -0.10272564670E+02  0.24344304635E+02  0.51100000000E-03 0. -1.
        -11    1    4    4    0    0  0.11573062902E+02 -0.48071567396E+01 -0.28411250387E+01  0.12849767803E+02  0.51100000000E-03 0.  1.
         12    1    4    4    0    0  0.79607255655E+01 -0.44604884694E+01  0.14548096815E+02  0.17173125221E+02  0.00000000000E+00 0. -1.
</event>
<event>
 8    1  0.2509217E-006  0.9118800E+02  0.7816164E-02  0.1184000E+00
        -11   -1    0    0    0    0  0.00000000000E+00  0.00000000000E+00  0.45593999997E+02  0.45594000000E+02  0.51100000000E-03 0.  1.
         11   -1    0    0    0    0 -0.00000000000E+00 -0.00000000000E+00 -0.45593999997E+02  0.45594000000E+02  0.51100000000E-03 0. -1.
         23    2    1    2    0    0 -0.35527136788E-14  0.71054273576E-14  0.00000000000E+00  0.91188000000E+02  0.91188000000E+02 0.  0.
    9900012    2    3    3    0    0  0.97498681196E+01 -0.23876474329E+02 -0.26279894340E+02  0.54367098311E+02  0.40000032219E+02 0.  0.
        -12    1    3    3    0    0 -0.97498681196E+01  0.23876474329E+02  0.26279894340E+02  0.36820901689E+02  0.00000000000E+00 0.  1.
         11    1    4    4    0    0 -0.12129531878E+02  0.73426749881E+00 -0.12116157627E+02  0.17160010730E+02  0.51100000000E-03 0. -1.
        -11    1    4    4    0    0  0.15504581553E+02 -0.11013279015E+02 -0.10599382385E+02  0.21772259207E+02  0.51100000000E-03 0.  1.
         12    1    4    4    0    0  0.63748184450E+01 -0.13597462813E+02 -0.35643543273E+01  0.15434828374E+02  0.00000000000E+00 0. -1.
</event>
<event>
 8    1  0.2509217E-006  0.9118800E+02  0.7816164E-02  0.1184000E+00
        -11   -1    0    0    0    0  0.00000000000E+00  0.00000000000E+00  0.45593999997E+02  0.45594000000E+02  0.51100000000E-03 0.  1.
         11   -1    0    0    0    0 -0.00000000000E+00 -0.00000000000E+00 -0.45593999997E+02  0.45594000000E+02  0.51100000000E-03 0. -1.
         23    2    1    2    0    0  0.00000000000E+00 -0.44408920985E-15  0.00000000000E+00  0.91188000000E+02  0.91188000000E+02 0.  0.
    9900012    2    3    3    0    0 -0.25087107690E+02 -0.23356758574E+01  0.26850708010E+02  0.54367097314E+02  0.40000029947E+02 0.  0.
         12    1    3    3    0    0  0.25087107690E+02  0.23356758574E+01 -0.26850708010E+02  0.36820902686E+02  0.00000000000E+00 0. -1.
         11    1    4    4    0    0 -0.19632580241E+01  0.70830856962E+01 -0.33708754554E+01  0.80862405756E+01  0.51100000000E-03 0. -1.
        -11    1    4    4    0    0  0.16042888509E+01 -0.10108277149E+02  0.10281306206E+02  0.14507110918E+02  0.51100000000E-03 0.  1.
        -12    1    4    4    0    0 -0.24728138517E+02  0.68951559490E+00  0.19940277260E+02  0.31773745821E+02  0.00000000000E+00 0.  1.
</event>
<event>
 8    1  0.2509217E-006  0.9118800E+02  0.7816164E-02  0.1184000E+00
        -11   -1    0    0    0    0  0.00000000000E+00  0.00000000000E+00  0.45593999997E+02  0.45594000000E+02  0.51100000000E-03 0. -1.
         11   -1    0    0    0    0 -0.00000000000E+00 -0.00000000000E+00 -0.45593999997E+02  0.45594000000E+02  0.51100000000E-03 0.  1.
         23    2    1    2    0    0  0.00000000000E+00  0.71054273576E-14  0.00000000000E+00  0.91188000000E+02  0.91188000000E+02 0.  0.
    9900012    2    3    3    0    0  0.10882668765E+02 -0.34868107872E+02  0.46438823126E+01  0.54367040358E+02  0.39999900104E+02 0.  0.
         12    1    3    3    0    0 -0.10882668765E+02  0.34868107872E+02 -0.46438823126E+01  0.36820959642E+02  0.00000000000E+00 0. -1.
         11    1    4    4    0    0 -0.17523819132E-01 -0.63721161582E+01  0.83924925600E+01  0.10537461888E+02  0.51100000000E-03 0. -1.
        -11    1    4    4    0    0  0.13432160816E+02 -0.10750311306E+02  0.11166433233E+02  0.20510518491E+02  0.51100000000E-03 0.  1.
         12    1    4    4    0    0 -0.25319682317E+01 -0.17745680408E+02 -0.14915043481E+02  0.23319059979E+02  0.00000000000E+00 0. -1.
</event>
<event>
 8    1  0.2509217E-006  0.9118800E+02  0.7816164E-02  0.1184000E+00
        -11   -1    0    0    0    0  0.00000000000E+00  0.00000000000E+00  0.45593999997E+02  0.45594000000E+02  0.51100000000E-03 0. -1.
         11   -1    0    0    0    0 -0.00000000000E+00 -0.00000000000E+00 -0.45593999997E+02  0.45594000000E+02  0.51100000000E-03 0.  1.
         23    2    1    2    0    0  0.00000000000E+00  0.88817841970E-15  0.44408920985E-15  0.91188000000E+02  0.91188000000E+02 0.  0.
    9900012    2    3    3    0    0  0.36339790613E+02 -0.56248053285E+01  0.18872085613E+01  0.54367076968E+02  0.39999983564E+02 0.  0.
         12    1    3    3    0    0 -0.36339790613E+02  0.56248053285E+01 -0.18872085613E+01  0.36820923032E+02  0.00000000000E+00 0. -1.
         11    1    4    4    0    0 -0.28939441304E+01  0.64950505580E+01 -0.39409418843E+00  0.71215100134E+01  0.51100000000E-03 0. -1.
        -11    1    4    4    0    0  0.41075150182E+02 -0.12644965630E+02  0.56734055479E+01  0.43350324670E+02  0.51100000000E-03 0.  1.
         12    1    4    4    0    0 -0.18414154386E+01  0.52510974397E+00 -0.33921027982E+01  0.38952422844E+01  0.00000000000E+00 0. -1.
</event>
<event>
 8    1  0.2509217E-006  0.9118800E+02  0.7816164E-02  0.1184000E+00
        -11   -1    0    0    0    0  0.00000000000E+00  0.00000000000E+00  0.45593999997E+02  0.45594000000E+02  0.51100000000E-03 0. -1.
         11   -1    0    0    0    0 -0.00000000000E+00 -0.00000000000E+00 -0.45593999997E+02  0.45594000000E+02  0.51100000000E-03 0.  1.
         23    2    1    2    0    0 -0.35527136788E-14 -0.71054273576E-14 -0.44408920985E-15  0.91188000000E+02  0.91188000000E+02 0.  0.
    9900012    2    3    3    0    0 -0.29097086624E+02 -0.22489336455E+02  0.18353525861E+01  0.54367092579E+02  0.40000019152E+02 0.  0.
        -12    1    3    3    0    0  0.29097086624E+02  0.22489336455E+02 -0.18353525861E+01  0.36820907421E+02  0.00000000000E+00 0.  1.
         11    1    4    4    0    0 -0.69018103603E+01  0.14610528295E+01  0.12253531759E+02  0.14139261029E+02  0.51100000000E-03 0. -1.
        -11    1    4    4    0    0  0.13649769991E+01  0.26075914231E+01 -0.24802884225E+01  0.38489642968E+01  0.51100000000E-03 0.  1.
         12    1    4    4    0    0 -0.23560253263E+02 -0.26557980708E+02 -0.79378907502E+01  0.36378867253E+02  0.00000000000E+00 0. -1.
</event>
<event>
 8    1  0.2509217E-006  0.9118800E+02  0.7816164E-02  0.1184000E+00
        -11   -1    0    0    0    0  0.00000000000E+00  0.00000000000E+00  0.45593999997E+02  0.45594000000E+02  0.51100000000E-03 0. -1.
         11   -1    0    0    0    0 -0.00000000000E+00 -0.00000000000E+00 -0.45593999997E+02  0.45594000000E+02  0.51100000000E-03 0.  1.
         23    2    1    2    0    0  0.00000000000E+00  0.00000000000E+00  0.55511151231E-16  0.91188000000E+02  0.91188000000E+02 0.  0.
    9900012    2    3    3    0    0  0.30033537298E+02 -0.21296053087E+02  0.49550949642E+00  0.54367071585E+02  0.39999971292E+02 0.  0.
        -12    1    3    3    0    0 -0.30033537298E+02  0.21296053087E+02 -0.49550949642E+00  0.36820928415E+02  0.00000000000E+00 0.  1.
         11    1    4    4    0    0  0.33153765853E+01 -0.12078177972E+02  0.13294914951E+02  0.18265510364E+02  0.51100000000E-03 0. -1.
        -11    1    4    4    0    0  0.21482492962E+02 -0.14235698473E+02 -0.67057096268E+01  0.26629291330E+02  0.51100000000E-03 0.  1.
        -12    1    4    4    0    0  0.52356677500E+01  0.50178233582E+01 -0.60936958280E+01  0.94722698909E+01  0.00000000000E+00 0.  1.
</event>
<event>
 8    1  0.2509217E-006  0.9118800E+02  0.7816164E-02  0.1184000E+00
        -11   -1    0    0    0    0  0.00000000000E+00  0.00000000000E+00  0.45593999997E+02  0.45594000000E+02  0.51100000000E-03 0.  1.
         11   -1    0    0    0    0 -0.00000000000E+00 -0.00000000000E+00 -0.45593999997E+02  0.45594000000E+02  0.51100000000E-03 0. -1.
         23    2    1    2    0    0  0.71054273576E-14 -0.35527136788E-14  0.00000000000E+00  0.91188000000E+02  0.91188000000E+02 0.  0.
    9900012    2    3    3    0    0  0.27946311298E+02 -0.21085553550E+02 -0.11409749147E+02  0.54367092091E+02  0.40000018039E+02 0.  0.
        -12    1    3    3    0    0 -0.27946311298E+02  0.21085553550E+02  0.11409749147E+02  0.36820907909E+02  0.00000000000E+00 0.  1.
         11    1    4    4    0    0  0.51798031720E+01 -0.29926503439E+01 -0.14024927779E+02  0.15247456065E+02  0.51100000000E-03 0. -1.
        -11    1    4    4    0    0  0.88588909767E+01 -0.16031975865E+02 -0.94338792500E+01  0.20603453046E+02  0.51100000000E-03 0.  1.
        -12    1    4    4    0    0  0.13907617149E+02 -0.20609273416E+01  0.12049057882E+02  0.18516182979E+02  0.00000000000E+00 0.  1.
</event>
<event>
 8    1  0.2509217E-006  0.9118800E+02  0.7816164E-02  0.1184000E+00
        -11   -1    0    0    0    0  0.00000000000E+00  0.00000000000E+00  0.45593999997E+02  0.45594000000E+02  0.51100000000E-03 0.  1.
         11   -1    0    0    0    0 -0.00000000000E+00 -0.00000000000E+00 -0.45593999997E+02  0.45594000000E+02  0.51100000000E-03 0. -1.
         23    2    1    2    0    0 -0.22204460493E-15 -0.71054273576E-14  0.00000000000E+00  0.91188000000E+02  0.91188000000E+02 0.  0.
    9900012    2    3    3    0    0 -0.67488106762E+00 -0.33315929255E+02  0.15664423600E+02  0.54367071531E+02  0.39999971169E+02 0.  0.
         12    1    3    3    0    0  0.67488106762E+00  0.33315929255E+02 -0.15664423600E+02  0.36820928469E+02  0.00000000000E+00 0. -1.
         11    1    4    4    0    0  0.14850636336E+02 -0.25534531351E+02  0.11118359851E+02  0.31562186504E+02  0.51100000000E-03 0.  1.
        -11    1    4    4    0    0 -0.15894154780E+01  0.21311430782E+01  0.50374687302E+01  0.56959725991E+01  0.51100000000E-03 0. -1.
        -12    1    4    4    0    0 -0.13936101926E+02 -0.99125409821E+01 -0.49140498030E+00  0.17108912428E+02  0.00000000000E+00 0.  1.
</event>
<event>
 8    1  0.2509217E-006  0.9118800E+02  0.7816164E-02  0.1184000E+00
        -11   -1    0    0    0    0  0.00000000000E+00  0.00000000000E+00  0.45593999997E+02  0.45594000000E+02  0.51100000000E-03 0.  1.
         11   -1    0    0    0    0 -0.00000000000E+00 -0.00000000000E+00 -0.45593999997E+02  0.45594000000E+02  0.51100000000E-03 0. -1.
         23    2    1    2    0    0  0.00000000000E+00  0.17763568394E-14  0.00000000000E+00  0.91188000000E+02  0.91188000000E+02 0.  0.
    9900012    2    3    3    0    0 -0.27626206892E+02  0.11047096050E+02 -0.21691830187E+02  0.54367066617E+02  0.39999959966E+02 0.  0.
        -12    1    3    3    0    0  0.27626206892E+02 -0.11047096050E+02  0.21691830187E+02  0.36820933383E+02  0.00000000000E+00 0.  1.
         11    1    4    4    0    0 -0.77901326292E+01 -0.10863689367E+02 -0.92463784748E+01  0.16254274152E+02  0.51100000000E-03 0. -1.
        -11    1    4    4    0    0  0.33311872963E+01  0.30139671293E+01 -0.60571336409E+01  0.75411985032E+01  0.51100000000E-03 0.  1.
         12    1    4    4    0    0 -0.23167261559E+02  0.18896818288E+02 -0.63883180711E+01  0.30571593961E+02  0.00000000000E+00 0. -1.
</event>
<event>
 8    1  0.2509217E-006  0.9118800E+02  0.7816164E-02  0.1184000E+00
        -11   -1    0    0    0    0  0.00000000000E+00  0.00000000000E+00  0.45593999997E+02  0.45594000000E+02  0.51100000000E-03 0.  1.
         11   -1    0    0    0    0 -0.00000000000E+00 -0.00000000000E+00 -0.45593999997E+02  0.45594000000E+02  0.51100000000E-03 0. -1.
         23    2    1    2    0    0  0.45796699766E-15  0.00000000000E+00  0.35527136788E-14  0.91188000000E+02  0.91188000000E+02 0.  0.
    9900012    2    3    3    0    0 -0.55537038968E-01  0.24693366258E+02 -0.27313273235E+02  0.54367077736E+02  0.39999985316E+02 0.  0.
        -12    1    3    3    0    0  0.55537038968E-01 -0.24693366258E+02  0.27313273235E+02  0.36820922264E+02  0.00000000000E+00 0.  1.
         11    1    4    4    0    0  0.53491718003E+01  0.27341528238E+02 -0.20772343495E+02  0.34751446874E+02  0.51100000000E-03 0. -1.
        -11    1    4    4    0    0 -0.68502390181E+01  0.61338855687E+01 -0.53440876552E+01  0.10635299709E+02  0.51100000000E-03 0.  1.
        -12    1    4    4    0    0  0.14455301788E+01 -0.87820475484E+01 -0.11968420849E+01  0.89803311530E+01  0.00000000000E+00 0.  1.
</event>
<event>
 8    1  0.2509217E-006  0.9118800E+02  0.7816164E-02  0.1184000E+00
        -11   -1    0    0    0    0  0.00000000000E+00  0.00000000000E+00  0.45593999997E+02  0.45594000000E+02  0.51100000000E-03 0.  1.
         11   -1    0    0    0    0 -0.00000000000E+00 -0.00000000000E+00 -0.45593999997E+02  0.45594000000E+02  0.51100000000E-03 0. -1.
         23    2    1    2    0    0  0.00000000000E+00 -0.71054273576E-14 -0.88817841970E-15  0.91188000000E+02  0.91188000000E+02 0.  0.
    9900012    2    3    3    0    0 -0.25979001835E+02 -0.25381171663E+02  0.60548753692E+01  0.54367164498E+02  0.40000183105E+02 0.  0.
        -12    1    3    3    0    0  0.25979001835E+02  0.25381171663E+02 -0.60548753692E+01  0.36820835502E+02  0.00000000000E+00 0.  1.
         11    1    4    4    0    0 -0.93737920900E+01  0.35601002795E+01 -0.55083962957E+00  0.10042196807E+02  0.51100000000E-03 0. -1.
        -11    1    4    4    0    0 -0.89870463026E+01 -0.25378262086E+02 -0.74597393370E+01  0.27936909260E+02  0.51100000000E-03 0.  1.
         12    1    4    4    0    0 -0.76181634427E+01 -0.35630098563E+01  0.14065454336E+02  0.16388058431E+02  0.00000000000E+00 0. -1.
</event>
<event>
 8    1  0.2509217E-006  0.9118800E+02  0.7816164E-02  0.1184000E+00
        -11   -1    0    0    0    0  0.00000000000E+00  0.00000000000E+00  0.45593999997E+02  0.45594000000E+02  0.51100000000E-03 0.  1.
         11   -1    0    0    0    0 -0.00000000000E+00 -0.00000000000E+00 -0.45593999997E+02  0.45594000000E+02  0.51100000000E-03 0. -1.
         23    2    1    2    0    0  0.00000000000E+00 -0.88817841970E-15  0.44408920985E-15  0.91188000000E+02  0.91188000000E+02 0.  0.
    9900012    2    3    3    0    0  0.36126292368E+02  0.63763738081E+01  0.31641682505E+01  0.54367094200E+02  0.40000022848E+02 0.  0.
        -12    1    3    3    0    0 -0.36126292368E+02 -0.63763738081E+01 -0.31641682505E+01  0.36820905800E+02  0.00000000000E+00 0.  1.
         11    1    4    4    0    0  0.37420128515E+02 -0.74277254879E+00 -0.77288231259E+01  0.38217174625E+02  0.51100000000E-03 0. -1.
        -11    1    4    4    0    0 -0.44275686255E+01  0.16163142913E+01  0.17493571797E+01  0.50275328567E+01  0.51100000000E-03 0.  1.
         12    1    4    4    0    0  0.31337324781E+01  0.55028320655E+01  0.91436341967E+01  0.11122386718E+02  0.00000000000E+00 0. -1.
</event>
<event>
 8    1  0.2509217E-006  0.9118800E+02  0.7816164E-02  0.1184000E+00
        -11   -1    0    0    0    0  0.00000000000E+00  0.00000000000E+00  0.45593999997E+02  0.45594000000E+02  0.51100000000E-03 0.  1.
         11   -1    0    0    0    0 -0.00000000000E+00 -0.00000000000E+00 -0.45593999997E+02  0.45594000000E+02  0.51100000000E-03 0. -1.
         23    2    1    2    0    0  0.13322676296E-14  0.71054273576E-14  0.00000000000E+00  0.91188000000E+02  0.91188000000E+02 0.  0.
    9900012    2    3    3    0    0  0.38274721215E+01 -0.36560604053E+02 -0.21093827698E+01  0.54367125388E+02  0.40000093946E+02 0.  0.
        -12    1    3    3    0    0 -0.38274721215E+01  0.36560604053E+02  0.21093827698E+01  0.36820874612E+02  0.00000000000E+00 0.  1.
         11    1    4    4    0    0  0.58940617108E+01 -0.65637514194E+00 -0.19633486994E+01  0.62470417122E+01  0.51100000000E-03 0. -1.
        -11    1    4    4    0    0  0.14969430884E+02 -0.16284228792E+02  0.56271336604E+00  0.22126378261E+02  0.51100000000E-03 0.  1.
         12    1    4    4    0    0 -0.17036020474E+02 -0.19620000119E+02 -0.70874743637E+00  0.25993705414E+02  0.00000000000E+00 0. -1.
</event>
<event>
 8    1  0.2509217E-006  0.9118800E+02  0.7816164E-02  0.1184000E+00
        -11   -1    0    0    0    0  0.00000000000E+00  0.00000000000E+00  0.45593999997E+02  0.45594000000E+02  0.51100000000E-03 0.  1.
         11   -1    0    0    0    0 -0.00000000000E+00 -0.00000000000E+00 -0.45593999997E+02  0.45594000000E+02  0.51100000000E-03 0. -1.
         23    2    1    2    0    0  0.00000000000E+00 -0.17763568394E-14  0.00000000000E+00  0.91188000000E+02  0.91188000000E+02 0.  0.
    9900012    2    3    3    0    0  0.34535716439E+02  0.88248266625E+01  0.92296117767E+01  0.54367095487E+02  0.40000025782E+02 0.  0.
        -12    1    3    3    0    0 -0.34535716439E+02 -0.88248266625E+01 -0.92296117767E+01  0.36820904513E+02  0.00000000000E+00 0.  1.
         11    1    4    4    0    0  0.10049495674E+02  0.56075993377E+01 -0.44883901563E+01  0.12352456439E+02  0.51100000000E-03 0. -1.
        -11    1    4    4    0    0  0.10836574541E+02  0.92015297112E+01 -0.75094072688E+01  0.16077645804E+02  0.51100000000E-03 0.  1.
         12    1    4    4    0    0  0.13649646224E+02 -0.59843023864E+01  0.21227409202E+02  0.25936993244E+02  0.00000000000E+00 0. -1.
</event>
<event>
 8    1  0.2509217E-006  0.9118800E+02  0.7816164E-02  0.1184000E+00
        -11   -1    0    0    0    0  0.00000000000E+00  0.00000000000E+00  0.45593999997E+02  0.45594000000E+02  0.51100000000E-03 0. -1.
         11   -1    0    0    0    0 -0.00000000000E+00 -0.00000000000E+00 -0.45593999997E+02  0.45594000000E+02  0.51100000000E-03 0.  1.
         23    2    1    2    0    0  0.35527136788E-14  0.88817841970E-15  0.35527136788E-14  0.91188000000E+02  0.91188000000E+02 0.  0.
    9900012    2    3    3    0    0 -0.24856265525E+02 -0.64426107469E+01 -0.26390128764E+02  0.54367081146E+02  0.39999993088E+02 0.  0.
         12    1    3    3    0    0  0.24856265525E+02  0.64426107469E+01  0.26390128764E+02  0.36820918854E+02  0.00000000000E+00 0. -1.
         11    1    4    4    0    0 -0.15869711540E+02 -0.42004050921E+01  0.71115584581E+00  0.16431582097E+02  0.51100000000E-03 0. -1.
        -11    1    4    4    0    0 -0.26586959067E+00  0.10775644969E+02 -0.12654928850E+02  0.16623249850E+02  0.51100000000E-03 0.  1.
         12    1    4    4    0    0 -0.87206843939E+01 -0.13017850624E+02 -0.14446355761E+02  0.21312249199E+02  0.00000000000E+00 0. -1.
</event>
<event>
 8    1  0.2509217E-006  0.9118800E+02  0.7816164E-02  0.1184000E+00
        -11   -1    0    0    0    0  0.00000000000E+00  0.00000000000E+00  0.45593999997E+02  0.45594000000E+02  0.51100000000E-03 0.  1.
         11   -1    0    0    0    0 -0.00000000000E+00 -0.00000000000E+00 -0.45593999997E+02  0.45594000000E+02  0.51100000000E-03 0. -1.
         23    2    1    2    0    0  0.17763568394E-14 -0.35527136788E-14  0.35527136788E-14  0.91188000000E+02  0.91188000000E+02 0.  0.
    9900012    2    3    3    0    0 -0.15121789535E+02  0.19983505999E+02 -0.26977219568E+02  0.54367090093E+02  0.40000013485E+02 0.  0.
        -12    1    3    3    0    0  0.15121789535E+02 -0.19983505999E+02  0.26977219568E+02  0.36820909907E+02  0.00000000000E+00 0.  1.
         11    1    4    4    0    0 -0.24600414414E+02  0.12360461900E+02 -0.14758799168E+02  0.31237534488E+02  0.51100000000E-03 0. -1.
        -11    1    4    4    0    0  0.66819537120E+01  0.11222860749E+02 -0.13086200509E+02  0.18489179344E+02  0.51100000000E-03 0.  1.
         12    1    4    4    0    0  0.27966711670E+01 -0.35998166499E+01  0.86778010882E+00  0.46403762613E+01  0.00000000000E+00 0. -1.
</event>
<event>
 8    1  0.2509217E-006  0.9118800E+02  0.7816164E-02  0.1184000E+00
        -11   -1    0    0    0    0  0.00000000000E+00  0.00000000000E+00  0.45593999997E+02  0.45594000000E+02  0.51100000000E-03 0.  1.
         11   -1    0    0    0    0 -0.00000000000E+00 -0.00000000000E+00 -0.45593999997E+02  0.45594000000E+02  0.51100000000E-03 0. -1.
         23    2    1    2    0    0  0.71054273576E-14  0.00000000000E+00  0.44408920985E-15  0.91188000000E+02  0.91188000000E+02 0.  0.
    9900012    2    3    3    0    0  0.35681126225E+02  0.90636988393E+01  0.69678090194E+00  0.54367096847E+02  0.40000028883E+02 0.  0.
         12    1    3    3    0    0 -0.35681126225E+02 -0.90636988393E+01 -0.69678090194E+00  0.36820903153E+02  0.00000000000E+00 0. -1.
         11    1    4    4    0    0  0.48693502948E+01 -0.55864983395E+00 -0.11906790142E+02  0.12876114075E+02  0.51100000000E-03 0.  1.
        -11    1    4    4    0    0  0.29078310067E+02  0.38404200195E+01  0.21369947699E+01  0.29408564895E+02  0.51100000000E-03 0. -1.
        -12    1    4    4    0    0  0.17334658636E+01  0.57819286537E+01  0.10466576274E+02  0.12082417877E+02  0.00000000000E+00 0.  1.
</event>
<event>
 8    1  0.2509217E-006  0.9118800E+02  0.7816164E-02  0.1184000E+00
        -11   -1    0    0    0    0  0.00000000000E+00  0.00000000000E+00  0.45593999997E+02  0.45594000000E+02  0.51100000000E-03 0.  1.
         11   -1    0    0    0    0 -0.00000000000E+00 -0.00000000000E+00 -0.45593999997E+02  0.45594000000E+02  0.51100000000E-03 0. -1.
         23    2    1    2    0    0  0.17763568394E-14  0.00000000000E+00  0.35527136788E-14  0.91188000000E+02  0.91188000000E+02 0.  0.
    9900012    2    3    3    0    0  0.14469226089E+02  0.12960884795E+02  0.31280016805E+02  0.54367048226E+02  0.39999918040E+02 0.  0.
         12    1    3    3    0    0 -0.14469226089E+02 -0.12960884795E+02 -0.31280016805E+02  0.36820951774E+02  0.00000000000E+00 0. -1.
         11    1    4    4    0    0 -0.75983592122E+01 -0.20746422292E+01  0.31181658233E+00  0.78826666134E+01  0.51100000000E-03 0. -1.
        -11    1    4    4    0    0  0.14739845695E+02  0.11834390890E+01  0.40416129718E+01  0.15329651492E+02  0.51100000000E-03 0.  1.
        -12    1    4    4    0    0  0.73277396058E+01  0.13852087936E+02  0.26926587250E+02  0.31154730120E+02  0.00000000000E+00 0.  1.
</event>
<event>
 8    1  0.2509217E-006  0.9118800E+02  0.7816164E-02  0.1184000E+00
        -11   -1    0    0    0    0  0.00000000000E+00  0.00000000000E+00  0.45593999997E+02  0.45594000000E+02  0.51100000000E-03 0.  1.
         11   -1    0    0    0    0 -0.00000000000E+00 -0.00000000000E+00 -0.45593999997E+02  0.45594000000E+02  0.51100000000E-03 0. -1.
         23    2    1    2    0    0  0.00000000000E+00  0.00000000000E+00  0.00000000000E+00  0.91188000000E+02  0.91188000000E+02 0.  0.
    9900012    2    3    3    0    0 -0.10475612357E+02 -0.20343554233E+02  0.28847549414E+02  0.54367085287E+02  0.40000002529E+02 0.  0.
         12    1    3    3    0    0  0.10475612357E+02  0.20343554233E+02 -0.28847549414E+02  0.36820914713E+02  0.00000000000E+00 0. -1.
         11    1    4    4    0    0 -0.11215350891E+02  0.15398567084E+01 -0.11148705642E+01  0.11375332563E+02  0.51100000000E-03 0. -1.
        -11    1    4    4    0    0 -0.80529449663E+01 -0.10820550247E+02  0.51513439991E+01  0.14438510157E+02  0.51100000000E-03 0.  1.
        -12    1    4    4    0    0  0.87926835001E+01 -0.11062860694E+02  0.24811075979E+02  0.28553242568E+02  0.00000000000E+00 0.  1.
</event>
<event>
 8    1  0.2509217E-006  0.9118800E+02  0.7816164E-02  0.1184000E+00
        -11   -1    0    0    0    0  0.00000000000E+00  0.00000000000E+00  0.45593999997E+02  0.45594000000E+02  0.51100000000E-03 0.  1.
         11   -1    0    0    0    0 -0.00000000000E+00 -0.00000000000E+00 -0.45593999997E+02  0.45594000000E+02  0.51100000000E-03 0. -1.
         23    2    1    2    0    0  0.00000000000E+00  0.00000000000E+00 -0.17763568394E-14  0.91188000000E+02  0.91188000000E+02 0.  0.
    9900012    2    3    3    0    0 -0.80834888983E+01  0.34285523753E+02 -0.10720974887E+02  0.54367092429E+02  0.40000018811E+02 0.  0.
        -12    1    3    3    0    0  0.80834888983E+01 -0.34285523753E+02  0.10720974887E+02  0.36820907571E+02  0.00000000000E+00 0.  1.
         11    1    4    4    0    0 -0.12782034058E+02  0.17219322757E+02 -0.17252941557E+02  0.27523616468E+02  0.51100000000E-03 0. -1.
        -11    1    4    4    0    0  0.10115494400E+02  0.17163612571E+02  0.75969488147E+01  0.21321971180E+02  0.51100000000E-03 0.  1.
        -12    1    4    4    0    0 -0.54169492402E+01 -0.97411574793E-01 -0.10649821450E+01  0.55215047818E+01  0.00000000000E+00 0.  1.
</event>
<event>
 8    1  0.2509217E-006  0.9118800E+02  0.7816164E-02  0.1184000E+00
        -11   -1    0    0    0    0  0.00000000000E+00  0.00000000000E+00  0.45593999997E+02  0.45594000000E+02  0.51100000000E-03 0. -1.
         11   -1    0    0    0    0 -0.00000000000E+00 -0.00000000000E+00 -0.45593999997E+02  0.45594000000E+02  0.51100000000E-03 0.  1.
         23    2    1    2    0    0  0.00000000000E+00  0.35527136788E-14  0.00000000000E+00  0.91188000000E+02  0.91188000000E+02 0.  0.
    9900012    2    3    3    0    0 -0.64582085022E+01 -0.22339804375E+02 -0.28548287848E+02  0.54367081277E+02  0.39999993388E+02 0.  0.
         12    1    3    3    0    0  0.64582085022E+01  0.22339804375E+02  0.28548287848E+02  0.36820918723E+02  0.00000000000E+00 0. -1.
         11    1    4    4    0    0 -0.12299353092E+02  0.44838944131E+00  0.37140566650E+01  0.12855713000E+02  0.51100000000E-03 0. -1.
        -11    1    4    4    0    0  0.54442395333E+01 -0.22416974476E+02 -0.24210205965E+02  0.33440911499E+02  0.51100000000E-03 0.  1.
         12    1    4    4    0    0  0.39690505619E+00 -0.37121934025E+00 -0.80521385474E+01  0.80704567782E+01  0.00000000000E+00 0. -1.
</event>
<event>
 8    1  0.2509217E-006  0.9118800E+02  0.7816164E-02  0.1184000E+00
        -11   -1    0    0    0    0  0.00000000000E+00  0.00000000000E+00  0.45593999997E+02  0.45594000000E+02  0.51100000000E-03 0.  1.
         11   -1    0    0    0    0 -0.00000000000E+00 -0.00000000000E+00 -0.45593999997E+02  0.45594000000E+02  0.51100000000E-03 0. -1.
         23    2    1    2    0    0 -0.17763568394E-14  0.71054273576E-14  0.35527136788E-14  0.91188000000E+02  0.91188000000E+02 0.  0.
    9900012    2    3    3    0    0  0.71690121343E+01 -0.33512086605E+02 -0.13465837294E+02  0.54367035080E+02  0.39999888071E+02 0.  0.
        -12    1    3    3    0    0 -0.71690121343E+01  0.33512086605E+02  0.13465837294E+02  0.36820964920E+02  0.00000000000E+00 0.  1.
         11    1    4    4    0    0  0.19125484794E+01 -0.24302820147E+02  0.57939247231E+01  0.25057024419E+02  0.51100000000E-03 0. -1.
        -11    1    4    4    0    0  0.31842152621E+01 -0.12836830901E+02 -0.45000952466E+01  0.13970480017E+02  0.51100000000E-03 0.  1.
        -12    1    4    4    0    0  0.20722483928E+01  0.36275644424E+01 -0.14759666771E+02  0.15339530644E+02  0.00000000000E+00 0.  1.
</event>
<event>
 8    1  0.2509217E-006  0.9118800E+02  0.7816164E-02  0.1184000E+00
        -11   -1    0    0    0    0  0.00000000000E+00  0.00000000000E+00  0.45593999997E+02  0.45594000000E+02  0.51100000000E-03 0.  1.
         11   -1    0    0    0    0 -0.00000000000E+00 -0.00000000000E+00 -0.45593999997E+02  0.45594000000E+02  0.51100000000E-03 0. -1.
         23    2    1    2    0    0  0.00000000000E+00  0.00000000000E+00 -0.88817841970E-15  0.91188000000E+02  0.91188000000E+02 0.  0.
    9900012    2    3    3    0    0 -0.27616702612E+02 -0.23587539346E+02 -0.60601185738E+01  0.54367091365E+02  0.40000016385E+02 0.  0.
        -12    1    3    3    0    0  0.27616702612E+02  0.23587539346E+02  0.60601185738E+01  0.36820908635E+02  0.00000000000E+00 0.  1.
         11    1    4    4    0    0 -0.22581364014E+01  0.75738077771E+00 -0.87821432054E+01  0.90993870778E+01  0.51100000000E-03 0. -1.
        -11    1    4    4    0    0 -0.13085808105E+02 -0.23705439197E+02  0.12247954027E+02  0.29718657429E+02  0.51100000000E-03 0.  1.
        -12    1    4    4    0    0 -0.12272758105E+02 -0.63948092685E+00 -0.95259293950E+01  0.15549046859E+02  0.00000000000E+00 0.  1.
</event>
<event>
 8    1  0.2509217E-006  0.9118800E+02  0.7816164E-02  0.1184000E+00
        -11   -1    0    0    0    0  0.00000000000E+00  0.00000000000E+00  0.45593999997E+02  0.45594000000E+02  0.51100000000E-03 0. -1.
         11   -1    0    0    0    0 -0.00000000000E+00 -0.00000000000E+00 -0.45593999997E+02  0.45594000000E+02  0.51100000000E-03 0.  1.
         23    2    1    2    0    0  0.35527136788E-14  0.88817841970E-15  0.00000000000E+00  0.91188000000E+02  0.91188000000E+02 0.  0.
    9900012    2    3    3    0    0  0.17451997313E+02  0.70708654879E+01 -0.31641860704E+02  0.54367126874E+02  0.40000097334E+02 0.  0.
         12    1    3    3    0    0 -0.17451997313E+02 -0.70708654879E+01  0.31641860704E+02  0.36820873126E+02  0.00000000000E+00 0. -1.
         11    1    4    4    0    0  0.13355542017E+02 -0.11079072723E+02 -0.88058442821E+00  0.17375033357E+02  0.51100000000E-03 0. -1.
        -11    1    4    4    0    0 -0.21619645934E+01  0.31348846669E+01 -0.93999946171E+01  0.10142065462E+02  0.51100000000E-03 0.  1.
        -12    1    4    4    0    0  0.62584198887E+01  0.15015053544E+02 -0.21361281659E+02  0.26850028054E+02  0.00000000000E+00 0.  1.
</event>
<event>
 8    1  0.2509217E-006  0.9118800E+02  0.7816164E-02  0.1184000E+00
        -11   -1    0    0    0    0  0.00000000000E+00  0.00000000000E+00  0.45593999997E+02  0.45594000000E+02  0.51100000000E-03 0.  1.
         11   -1    0    0    0    0 -0.00000000000E+00 -0.00000000000E+00 -0.45593999997E+02  0.45594000000E+02  0.51100000000E-03 0. -1.
         23    2    1    2    0    0  0.00000000000E+00 -0.88817841970E-15  0.00000000000E+00  0.91188000000E+02  0.91188000000E+02 0.  0.
    9900012    2    3    3    0    0  0.33367607815E+02  0.28848439278E+01  0.15299179237E+02  0.54367021454E+02  0.39999857009E+02 0.  0.
        -12    1    3    3    0    0 -0.33367607815E+02 -0.28848439278E+01 -0.15299179237E+02  0.36820978546E+02  0.00000000000E+00 0.  1.
         11    1    4    4    0    0  0.17738802138E+02 -0.28846628246E+01  0.19446993208E-01  0.17971832387E+02  0.51100000000E-03 0. -1.
        -11    1    4    4    0    0  0.14774147328E+02 -0.96076660066E+01  0.77506920783E+01  0.19252425908E+02  0.51100000000E-03 0.  1.
        -12    1    4    4    0    0  0.85465834869E+00  0.15377172759E+02  0.75290401651E+01  0.17142763160E+02  0.00000000000E+00 0.  1.
</event>
<event>
 8    1  0.2509217E-006  0.9118800E+02  0.7816164E-02  0.1184000E+00
        -11   -1    0    0    0    0  0.00000000000E+00  0.00000000000E+00  0.45593999997E+02  0.45594000000E+02  0.51100000000E-03 0.  1.
         11   -1    0    0    0    0 -0.00000000000E+00 -0.00000000000E+00 -0.45593999997E+02  0.45594000000E+02  0.51100000000E-03 0. -1.
         23    2    1    2    0    0  0.00000000000E+00 -0.88817841970E-15 -0.35527136788E-14  0.91188000000E+02  0.91188000000E+02 0.  0.
    9900012    2    3    3    0    0 -0.26355305855E+02  0.56387341916E+01  0.25087467351E+02  0.54367102563E+02  0.40000041913E+02 0.  0.
        -12    1    3    3    0    0  0.26355305855E+02 -0.56387341916E+01 -0.25087467351E+02  0.36820897437E+02  0.00000000000E+00 0.  1.
         11    1    4    4    0    0 -0.20408222206E+02 -0.43201892932E+01 -0.85955709875E+00  0.20878180185E+02  0.51100000000E-03 0. -1.
        -11    1    4    4    0    0 -0.29440072967E+00  0.26455345174E+00 -0.26965807930E+01  0.27254740051E+01  0.51100000000E-03 0.  1.
        -12    1    4    4    0    0 -0.56526829189E+01  0.96943700331E+01  0.28643605243E+02  0.30763448373E+02  0.00000000000E+00 0.  1.
</event>
<event>
 8    1  0.2509217E-006  0.9118800E+02  0.7816164E-02  0.1184000E+00
        -11   -1    0    0    0    0  0.00000000000E+00  0.00000000000E+00  0.45593999997E+02  0.45594000000E+02  0.51100000000E-03 0. -1.
         11   -1    0    0    0    0 -0.00000000000E+00 -0.00000000000E+00 -0.45593999997E+02  0.45594000000E+02  0.51100000000E-03 0.  1.
         23    2    1    2    0    0 -0.35527136788E-14  0.35527136788E-14  0.35527136788E-14  0.91188000000E+02  0.91188000000E+02 0.  0.
    9900012    2    3    3    0    0 -0.25574998394E+02  0.18471399526E+02  0.18987031106E+02  0.54367075330E+02  0.39999979830E+02 0.  0.
         12    1    3    3    0    0  0.25574998394E+02 -0.18471399526E+02 -0.18987031106E+02  0.36820924670E+02  0.00000000000E+00 0. -1.
         11    1    4    4    0    0  0.85308657529E+00 -0.20164526795E+01 -0.48402915109E+00  0.22423475631E+01  0.51100000000E-03 0. -1.
        -11    1    4    4    0    0 -0.96691151944E+01  0.27919639501E+02  0.84374743146E+01  0.30727659064E+02  0.51100000000E-03 0.  1.
         12    1    4    4    0    0 -0.16758969775E+02 -0.74317872952E+01  0.11033585943E+02  0.21397068703E+02  0.00000000000E+00 0. -1.
</event>
<event>
 8    1  0.2509217E-006  0.9118800E+02  0.7816164E-02  0.1184000E+00
        -11   -1    0    0    0    0  0.00000000000E+00  0.00000000000E+00  0.45593999997E+02  0.45594000000E+02  0.51100000000E-03 0.  1.
         11   -1    0    0    0    0 -0.00000000000E+00 -0.00000000000E+00 -0.45593999997E+02  0.45594000000E+02  0.51100000000E-03 0. -1.
         23    2    1    2    0    0 -0.35527136788E-14 -0.88817841970E-15  0.00000000000E+00  0.91188000000E+02  0.91188000000E+02 0.  0.
    9900012    2    3    3    0    0 -0.25735588954E+02  0.65815236849E+01 -0.25497908790E+02  0.54367077341E+02  0.39999984414E+02 0.  0.
         12    1    3    3    0    0  0.25735588954E+02 -0.65815236849E+01  0.25497908790E+02  0.36820922659E+02  0.00000000000E+00 0. -1.
         11    1    4    4    0    0 -0.11649923457E+02  0.11497641743E+02 -0.17616565723E+02  0.24047034543E+02  0.51100000000E-03 0. -1.
        -11    1    4    4    0    0 -0.67579009854E+01  0.67459389493E+01  0.55812875178E+01  0.11060184838E+02  0.51100000000E-03 0.  1.
         12    1    4    4    0    0 -0.73277645115E+01 -0.11662057007E+02 -0.13462630585E+02  0.19259857960E+02  0.00000000000E+00 0. -1.
</event>
<event>
 8    1  0.2509217E-006  0.9118800E+02  0.7816164E-02  0.1184000E+00
        -11   -1    0    0    0    0  0.00000000000E+00  0.00000000000E+00  0.45593999997E+02  0.45594000000E+02  0.51100000000E-03 0. -1.
         11   -1    0    0    0    0 -0.00000000000E+00 -0.00000000000E+00 -0.45593999997E+02  0.45594000000E+02  0.51100000000E-03 0.  1.
         23    2    1    2    0    0  0.35527136788E-14 -0.35527136788E-14 -0.83266726847E-16  0.91188000000E+02  0.91188000000E+02 0.  0.
    9900012    2    3    3    0    0 -0.30748639133E+02  0.20254987933E+02 -0.18966324061E+00  0.54367091309E+02  0.40000016258E+02 0.  0.
        -12    1    3    3    0    0  0.30748639133E+02 -0.20254987933E+02  0.18966324061E+00  0.36820908691E+02  0.00000000000E+00 0.  1.
         11    1    4    4    0    0 -0.70315790447E+01  0.10317892894E+02 -0.74074460215E+01  0.14517998294E+02  0.51100000000E-03 0.  1.
        -11    1    4    4    0    0 -0.53410791553E+01  0.14234310749E+02  0.13113847553E+02  0.20077742078E+02  0.51100000000E-03 0. -1.
         12    1    4    4    0    0 -0.18375980933E+02 -0.42972157102E+01 -0.58960647720E+01  0.19771350938E+02  0.00000000000E+00 0. -1.
</event>
<event>
 8    1  0.2509217E-006  0.9118800E+02  0.7816164E-02  0.1184000E+00
        -11   -1    0    0    0    0  0.00000000000E+00  0.00000000000E+00  0.45593999997E+02  0.45594000000E+02  0.51100000000E-03 0. -1.
         11   -1    0    0    0    0 -0.00000000000E+00 -0.00000000000E+00 -0.45593999997E+02  0.45594000000E+02  0.51100000000E-03 0.  1.
         23    2    1    2    0    0  0.00000000000E+00  0.00000000000E+00 -0.17763568394E-14  0.91188000000E+02  0.91188000000E+02 0.  0.
    9900012    2    3    3    0    0 -0.35278128862E+02 -0.44405264165E+01  0.95663830567E+01  0.54367077474E+02  0.39999984718E+02 0.  0.
        -12    1    3    3    0    0  0.35278128862E+02  0.44405264165E+01 -0.95663830567E+01  0.36820922526E+02  0.00000000000E+00 0.  1.
         11    1    4    4    0    0 -0.17661895154E+02  0.12562805333E+02 -0.67868657598E+01  0.22711850770E+02  0.51100000000E-03 0.  1.
        -11    1    4    4    0    0 -0.16397347496E+02 -0.18788750108E+02  0.14891350449E+02  0.29045523820E+02  0.51100000000E-03 0. -1.
         12    1    4    4    0    0 -0.12188862116E+01  0.17854183579E+01  0.14618983672E+01  0.26097028846E+01  0.00000000000E+00 0. -1.
</event>
<event>
 8    1  0.2509217E-006  0.9118800E+02  0.7816164E-02  0.1184000E+00
        -11   -1    0    0    0    0  0.00000000000E+00  0.00000000000E+00  0.45593999997E+02  0.45594000000E+02  0.51100000000E-03 0. -1.
         11   -1    0    0    0    0 -0.00000000000E+00 -0.00000000000E+00 -0.45593999997E+02  0.45594000000E+02  0.51100000000E-03 0.  1.
         23    2    1    2    0    0  0.35527136788E-14  0.17763568394E-14 -0.35527136788E-14  0.91188000000E+02  0.91188000000E+02 0.  0.
    9900012    2    3    3    0    0 -0.26170954456E+02 -0.72162410359E+01  0.24875439077E+02  0.54367075771E+02  0.39999980835E+02 0.  0.
        -12    1    3    3    0    0  0.26170954456E+02  0.72162410359E+01 -0.24875439077E+02  0.36820924229E+02  0.00000000000E+00 0.  1.
         11    1    4    4    0    0 -0.30295257383E+01  0.10986610881E+02  0.88845501647E+01  0.14450566658E+02  0.51100000000E-03 0. -1.
        -11    1    4    4    0    0 -0.49186651796E+01 -0.11113668475E+02 -0.31490373796E+01  0.12554813053E+02  0.51100000000E-03 0.  1.
         12    1    4    4    0    0 -0.18222763538E+02 -0.70891834420E+01  0.19139926292E+02  0.27361696060E+02  0.00000000000E+00 0. -1.
</event>
<event>
 8    1  0.2509217E-006  0.9118800E+02  0.7816164E-02  0.1184000E+00
        -11   -1    0    0    0    0  0.00000000000E+00  0.00000000000E+00  0.45593999997E+02  0.45594000000E+02  0.51100000000E-03 0. -1.
         11   -1    0    0    0    0 -0.00000000000E+00 -0.00000000000E+00 -0.45593999997E+02  0.45594000000E+02  0.51100000000E-03 0.  1.
         23    2    1    2    0    0  0.88817841970E-15  0.00000000000E+00  0.35527136788E-14  0.91188000000E+02  0.91188000000E+02 0.  0.
    9900012    2    3    3    0    0 -0.22259688387E+01  0.24317562274E+02 -0.27558690461E+02  0.54367079423E+02  0.39999989160E+02 0.  0.
         12    1    3    3    0    0  0.22259688387E+01 -0.24317562274E+02  0.27558690461E+02  0.36820920577E+02  0.00000000000E+00 0. -1.
         11    1    4    4    0    0 -0.56928226167E+01  0.30618684794E+02 -0.13721770245E+02  0.34032323852E+02  0.51100000000E-03 0. -1.
        -11    1    4    4    0    0 -0.14254960821E+00 -0.21230285461E+01 -0.14606014903E+02  0.14760191130E+02  0.51100000000E-03 0.  1.
        -12    1    4    4    0    0  0.36094033862E+01 -0.41780939742E+01  0.76909468645E+00  0.55745644402E+01  0.00000000000E+00 0.  1.
</event>
<event>
 8    1  0.2509217E-006  0.9118800E+02  0.7816164E-02  0.1184000E+00
        -11   -1    0    0    0    0  0.00000000000E+00  0.00000000000E+00  0.45593999997E+02  0.45594000000E+02  0.51100000000E-03 0. -1.
         11   -1    0    0    0    0 -0.00000000000E+00 -0.00000000000E+00 -0.45593999997E+02  0.45594000000E+02  0.51100000000E-03 0.  1.
         23    2    1    2    0    0  0.35527136788E-14  0.00000000000E+00  0.00000000000E+00  0.91188000000E+02  0.91188000000E+02 0.  0.
    9900012    2    3    3    0    0 -0.29651333809E+02  0.13375772451E+02 -0.17253040144E+02  0.54367078236E+02  0.39999986456E+02 0.  0.
         12    1    3    3    0    0  0.29651333809E+02 -0.13375772451E+02  0.17253040144E+02  0.36820921764E+02  0.00000000000E+00 0. -1.
         11    1    4    4    0    0  0.41663791848E+01  0.93217378174E+01 -0.99447605832E+01  0.14253132104E+02  0.51100000000E-03 0. -1.
        -11    1    4    4    0    0 -0.32847976355E+01  0.22351630140E+01 -0.86275703459E+01  0.94984640621E+01  0.51100000000E-03 0.  1.
        -12    1    4    4    0    0 -0.30532915358E+02  0.18188716195E+01  0.13192907851E+01  0.30615482071E+02  0.00000000000E+00 0.  1.
</event>
<event>
 8    1  0.2509217E-006  0.9118800E+02  0.7816164E-02  0.1184000E+00
        -11   -1    0    0    0    0  0.00000000000E+00  0.00000000000E+00  0.45593999997E+02  0.45594000000E+02  0.51100000000E-03 0. -1.
         11   -1    0    0    0    0 -0.00000000000E+00 -0.00000000000E+00 -0.45593999997E+02  0.45594000000E+02  0.51100000000E-03 0.  1.
         23    2    1    2    0    0  0.00000000000E+00  0.00000000000E+00  0.35527136788E-14  0.91188000000E+02  0.91188000000E+02 0.  0.
    9900012    2    3    3    0    0 -0.55682586938E+01  0.25534545793E+02 -0.25937643983E+02  0.54367083266E+02  0.39999997923E+02 0.  0.
        -12    1    3    3    0    0  0.55682586938E+01 -0.25534545793E+02  0.25937643983E+02  0.36820916734E+02  0.00000000000E+00 0.  1.
         11    1    4    4    0    0  0.59330134283E+01 -0.52918872901E+01  0.10906745779E+01  0.80246053316E+01  0.51100000000E-03 0. -1.
        -11    1    4    4    0    0  0.22656603324E+01 -0.27274813818E+00  0.77914804419E+00  0.24113648053E+01  0.51100000000E-03 0.  1.
        -12    1    4    4    0    0 -0.13766932454E+02  0.31099181221E+02 -0.27807466605E+02  0.43931113130E+02  0.00000000000E+00 0.  1.
</event>
<event>
 8    1  0.2509217E-006  0.9118800E+02  0.7816164E-02  0.1184000E+00
        -11   -1    0    0    0    0  0.00000000000E+00  0.00000000000E+00  0.45593999997E+02  0.45594000000E+02  0.51100000000E-03 0. -1.
         11   -1    0    0    0    0 -0.00000000000E+00 -0.00000000000E+00 -0.45593999997E+02  0.45594000000E+02  0.51100000000E-03 0.  1.
         23    2    1    2    0    0  0.00000000000E+00 -0.35527136788E-14 -0.17763568394E-14  0.91188000000E+02  0.91188000000E+02 0.  0.
    9900012    2    3    3    0    0 -0.14749498300E+02 -0.29855796119E+02 -0.15711878664E+02  0.54367090273E+02  0.40000013895E+02 0.  0.
         12    1    3    3    0    0  0.14749498300E+02  0.29855796119E+02  0.15711878664E+02  0.36820909727E+02  0.00000000000E+00 0. -1.
         11    1    4    4    0    0  0.45441046179E+00 -0.84505034700E+01  0.16424269859E+01  0.86206185642E+01  0.51100000000E-03 0. -1.
        -11    1    4    4    0    0  0.74727925039E+01 -0.15623001907E+02 -0.13654074367E+02  0.22053447882E+02  0.51100000000E-03 0.  1.
        -12    1    4    4    0    0 -0.22676701265E+02 -0.57822907422E+01 -0.37002312828E+01  0.23693023827E+02  0.00000000000E+00 0.  1.
</event>
<event>
 8    1  0.2509217E-006  0.9118800E+02  0.7816164E-02  0.1184000E+00
        -11   -1    0    0    0    0  0.00000000000E+00  0.00000000000E+00  0.45593999997E+02  0.45594000000E+02  0.51100000000E-03 0.  1.
         11   -1    0    0    0    0 -0.00000000000E+00 -0.00000000000E+00 -0.45593999997E+02  0.45594000000E+02  0.51100000000E-03 0. -1.
         23    2    1    2    0    0  0.35527136788E-14  0.00000000000E+00  0.00000000000E+00  0.91188000000E+02  0.91188000000E+02 0.  0.
    9900012    2    3    3    0    0  0.21338834241E+02 -0.12023551680E+02 -0.27493029095E+02  0.54367105245E+02  0.40000048027E+02 0.  0.
        -12    1    3    3    0    0 -0.21338834241E+02  0.12023551680E+02  0.27493029095E+02  0.36820894755E+02  0.00000000000E+00 0.  1.
         11    1    4    4    0    0 -0.52618838031E+00  0.29739347108E+01 -0.11246541652E+02  0.11644992970E+02  0.51100000000E-03 0. -1.
        -11    1    4    4    0    0  0.37860198001E+01 -0.14575265598E+02  0.39941710963E+01  0.15579657127E+02  0.51100000000E-03 0.  1.
        -12    1    4    4    0    0  0.18079002821E+02 -0.42222079247E+00 -0.20240658539E+02  0.27142455149E+02  0.00000000000E+00 0.  1.
</event>
<event>
 8    1  0.2509217E-006  0.9118800E+02  0.7816164E-02  0.1184000E+00
        -11   -1    0    0    0    0  0.00000000000E+00  0.00000000000E+00  0.45593999997E+02  0.45594000000E+02  0.51100000000E-03 0.  1.
         11   -1    0    0    0    0 -0.00000000000E+00 -0.00000000000E+00 -0.45593999997E+02  0.45594000000E+02  0.51100000000E-03 0. -1.
         23    2    1    2    0    0 -0.35527136788E-14  0.17763568394E-14  0.00000000000E+00  0.91188000000E+02  0.91188000000E+02 0.  0.
    9900012    2    3    3    0    0 -0.26293231788E+02 -0.15894823183E+02  0.20292866384E+02  0.54367083825E+02  0.39999999196E+02 0.  0.
         12    1    3    3    0    0  0.26293231788E+02  0.15894823183E+02 -0.20292866384E+02  0.36820916175E+02  0.00000000000E+00 0. -1.
         11    1    4    4    0    0 -0.42141538844E+01  0.25964552554E+01 -0.20873998814E+01  0.53719560107E+01  0.51100000000E-03 0. -1.
        -11    1    4    4    0    0 -0.28125680183E+02 -0.16885984003E+02  0.25917794601E+02  0.41808162107E+02  0.51100000000E-03 0.  1.
        -12    1    4    4    0    0  0.60466022796E+01 -0.16052944353E+01 -0.35375283356E+01  0.71869657072E+01  0.00000000000E+00 0.  1.
</event>
<event>
 8    1  0.2509217E-006  0.9118800E+02  0.7816164E-02  0.1184000E+00
        -11   -1    0    0    0    0  0.00000000000E+00  0.00000000000E+00  0.45593999997E+02  0.45594000000E+02  0.51100000000E-03 0. -1.
         11   -1    0    0    0    0 -0.00000000000E+00 -0.00000000000E+00 -0.45593999997E+02  0.45594000000E+02  0.51100000000E-03 0.  1.
         23    2    1    2    0    0  0.00000000000E+00  0.00000000000E+00  0.00000000000E+00  0.91188000000E+02  0.91188000000E+02 0.  0.
    9900012    2    3    3    0    0 -0.33597554671E+02 -0.14860650179E+02  0.24790121751E+01  0.54367080607E+02  0.39999991860E+02 0.  0.
        -12    1    3    3    0    0  0.33597554671E+02  0.14860650179E+02 -0.24790121751E+01  0.36820919393E+02  0.00000000000E+00 0.  1.
         11    1    4    4    0    0 -0.14860839769E+02 -0.28426081848E+01 -0.37380236536E+01  0.15585178890E+02  0.51100000000E-03 0. -1.
        -11    1    4    4    0    0  0.74637665453E+01 -0.18781213377E+01 -0.42611605563E+01  0.87973086992E+01  0.51100000000E-03 0.  1.
        -12    1    4    4    0    0 -0.26200481447E+02 -0.10139920656E+02  0.10478196385E+02  0.29984593018E+02  0.00000000000E+00 0.  1.
</event>
<event>
 8    1  0.2509217E-006  0.9118800E+02  0.7816164E-02  0.1184000E+00
        -11   -1    0    0    0    0  0.00000000000E+00  0.00000000000E+00  0.45593999997E+02  0.45594000000E+02  0.51100000000E-03 0.  1.
         11   -1    0    0    0    0 -0.00000000000E+00 -0.00000000000E+00 -0.45593999997E+02  0.45594000000E+02  0.51100000000E-03 0. -1.
         23    2    1    2    0    0  0.00000000000E+00  0.00000000000E+00  0.00000000000E+00  0.91188000000E+02  0.91188000000E+02 0.  0.
    9900012    2    3    3    0    0 -0.22935171906E+02  0.24078747186E+02  0.15810502478E+02  0.54367079791E+02  0.39999990000E+02 0.  0.
         12    1    3    3    0    0  0.22935171906E+02 -0.24078747186E+02 -0.15810502478E+02  0.36820920209E+02  0.00000000000E+00 0. -1.
         11    1    4    4    0    0 -0.90264688081E+01  0.61862901114E+01 -0.11867128878E+02  0.16142368864E+02  0.51100000000E-03 0. -1.
        -11    1    4    4    0    0  0.38919558287E+00  0.53720888372E+01  0.10133716391E+01  0.54806691212E+01  0.51100000000E-03 0.  1.
        -12    1    4    4    0    0 -0.14297898681E+02  0.12520368238E+02  0.26664259717E+02  0.32744041805E+02  0.00000000000E+00 0.  1.
</event>
<event>
 8    1  0.2509217E-006  0.9118800E+02  0.7816164E-02  0.1184000E+00
        -11   -1    0    0    0    0  0.00000000000E+00  0.00000000000E+00  0.45593999997E+02  0.45594000000E+02  0.51100000000E-03 0.  1.
         11   -1    0    0    0    0 -0.00000000000E+00 -0.00000000000E+00 -0.45593999997E+02  0.45594000000E+02  0.51100000000E-03 0. -1.
         23    2    1    2    0    0  0.00000000000E+00 -0.35527136788E-14 -0.35527136788E-14  0.91188000000E+02  0.91188000000E+02 0.  0.
    9900012    2    3    3    0    0 -0.19014063282E+02  0.26351615402E+02 -0.17315815402E+02  0.54367086108E+02  0.40000004401E+02 0.  0.
        -12    1    3    3    0    0  0.19014063282E+02 -0.26351615402E+02  0.17315815402E+02  0.36820913892E+02  0.00000000000E+00 0.  1.
         11    1    4    4    0    0 -0.16497414029E+02  0.19056352147E+02 -0.48745655884E+01  0.25672370688E+02  0.51100000000E-03 0. -1.
        -11    1    4    4    0    0 -0.77474840846E+01  0.10633943950E+02 -0.16631915754E+02  0.21206718169E+02  0.51100000000E-03 0.  1.
        -12    1    4    4    0    0  0.52308348314E+01 -0.33386806952E+01  0.41906659403E+01  0.74879972517E+01  0.00000000000E+00 0.  1.
</event>
<event>
 8    1  0.2509217E-006  0.9118800E+02  0.7816164E-02  0.1184000E+00
        -11   -1    0    0    0    0  0.00000000000E+00  0.00000000000E+00  0.45593999997E+02  0.45594000000E+02  0.51100000000E-03 0.  1.
         11   -1    0    0    0    0 -0.00000000000E+00 -0.00000000000E+00 -0.45593999997E+02  0.45594000000E+02  0.51100000000E-03 0. -1.
         23    2    1    2    0    0 -0.35527136788E-14  0.00000000000E+00  0.00000000000E+00  0.91188000000E+02  0.91188000000E+02 0.  0.
    9900012    2    3    3    0    0  0.31787290302E+02  0.79047921429E+01 -0.16818522878E+02  0.54367078293E+02  0.39999986584E+02 0.  0.
        -12    1    3    3    0    0 -0.31787290302E+02 -0.79047921429E+01  0.16818522878E+02  0.36820921707E+02  0.00000000000E+00 0.  1.
         11    1    4    4    0    0  0.15296809906E+02  0.65751778513E+01  0.47309150528E+01  0.17309156957E+02  0.51100000000E-03 0. -1.
        -11    1    4    4    0    0  0.10628219214E+02 -0.50142409154E+01  0.20484247088E+01  0.11928859948E+02  0.51100000000E-03 0.  1.
         12    1    4    4    0    0  0.58622611823E+01  0.63438552070E+01 -0.23597862639E+02  0.25129061387E+02  0.00000000000E+00 0. -1.
</event>
<event>
 8    1  0.2509217E-006  0.9118800E+02  0.7816164E-02  0.1184000E+00
        -11   -1    0    0    0    0  0.00000000000E+00  0.00000000000E+00  0.45593999997E+02  0.45594000000E+02  0.51100000000E-03 0. -1.
         11   -1    0    0    0    0 -0.00000000000E+00 -0.00000000000E+00 -0.45593999997E+02  0.45594000000E+02  0.51100000000E-03 0.  1.
         23    2    1    2    0    0 -0.35527136788E-14  0.88817841970E-15 -0.35527136788E-14  0.91188000000E+02  0.91188000000E+02 0.  0.
    9900012    2    3    3    0    0  0.30543301792E+02 -0.69531016109E+01  0.19353056270E+02  0.54367086197E+02  0.40000004602E+02 0.  0.
        -12    1    3    3    0    0 -0.30543301792E+02  0.69531016109E+01 -0.19353056270E+02  0.36820913803E+02  0.00000000000E+00 0.  1.
         11    1    4    4    0    0 -0.48845965081E+01 -0.31434952980E+01  0.10919976405E+02  0.12368780485E+02  0.51100000000E-03 0. -1.
        -11    1    4    4    0    0  0.16332607320E+00  0.28786408450E+01  0.52177197302E+01  0.59613629285E+01  0.51100000000E-03 0.  1.
         12    1    4    4    0    0  0.35264572227E+02 -0.66882471579E+01  0.32153601342E+01  0.36036942783E+02  0.00000000000E+00 0. -1.
</event>
<event>
 8    1  0.2509217E-006  0.9118800E+02  0.7816164E-02  0.1184000E+00
        -11   -1    0    0    0    0  0.00000000000E+00  0.00000000000E+00  0.45593999997E+02  0.45594000000E+02  0.51100000000E-03 0.  1.
         11   -1    0    0    0    0 -0.00000000000E+00 -0.00000000000E+00 -0.45593999997E+02  0.45594000000E+02  0.51100000000E-03 0. -1.
         23    2    1    2    0    0  0.00000000000E+00 -0.35527136788E-14  0.88817841970E-15  0.91188000000E+02  0.91188000000E+02 0.  0.
    9900012    2    3    3    0    0  0.28323811781E+02 -0.22779238279E+02  0.58862467519E+01  0.54367083238E+02  0.39999997858E+02 0.  0.
        -12    1    3    3    0    0 -0.28323811781E+02  0.22779238279E+02 -0.58862467519E+01  0.36820916762E+02  0.00000000000E+00 0.  1.
         11    1    4    4    0    0  0.32397793057E+01 -0.75094157801E+01 -0.86902136523E+01  0.11933453351E+02  0.51100000000E-03 0. -1.
        -11    1    4    4    0    0  0.15747944343E+02 -0.20449596471E+02  0.17715142016E+02  0.31305111464E+02  0.51100000000E-03 0.  1.
        -12    1    4    4    0    0  0.93360881324E+01  0.51797739726E+01 -0.31386816120E+01  0.11128518423E+02  0.00000000000E+00 0.  1.
</event>
<event>
 8    1  0.2509217E-006  0.9118800E+02  0.7816164E-02  0.1184000E+00
        -11   -1    0    0    0    0  0.00000000000E+00  0.00000000000E+00  0.45593999997E+02  0.45594000000E+02  0.51100000000E-03 0. -1.
         11   -1    0    0    0    0 -0.00000000000E+00 -0.00000000000E+00 -0.45593999997E+02  0.45594000000E+02  0.51100000000E-03 0.  1.
         23    2    1    2    0    0  0.17763568394E-14 -0.35527136788E-14  0.35527136788E-14  0.91188000000E+02  0.91188000000E+02 0.  0.
    9900012    2    3    3    0    0 -0.10172214960E+02  0.17333982263E+02 -0.30851896366E+02  0.54367076497E+02  0.39999982489E+02 0.  0.
         12    1    3    3    0    0  0.10172214960E+02 -0.17333982263E+02  0.30851896366E+02  0.36820923503E+02  0.00000000000E+00 0. -1.
         11    1    4    4    0    0 -0.77573501430E+01  0.48757325747E+00 -0.61434625813E+01  0.99073882366E+01  0.51100000000E-03 0. -1.
        -11    1    4    4    0    0 -0.11428968200E+02  0.88513602008E+01  0.25299041114E+01  0.14675432075E+02  0.51100000000E-03 0.  1.
         12    1    4    4    0    0  0.90141033825E+01  0.79950488046E+01 -0.27238337896E+02  0.29784256185E+02  0.00000000000E+00 0. -1.
</event>
<event>
 8    1  0.2509217E-006  0.9118800E+02  0.7816164E-02  0.1184000E+00
        -11   -1    0    0    0    0  0.00000000000E+00  0.00000000000E+00  0.45593999997E+02  0.45594000000E+02  0.51100000000E-03 0. -1.
         11   -1    0    0    0    0 -0.00000000000E+00 -0.00000000000E+00 -0.45593999997E+02  0.45594000000E+02  0.51100000000E-03 0.  1.
         23    2    1    2    0    0 -0.88817841970E-15  0.00000000000E+00 -0.71054273576E-14  0.91188000000E+02  0.91188000000E+02 0.  0.
    9900012    2    3    3    0    0 -0.44059425292E+01  0.12951143504E+02 -0.34185308789E+02  0.54367084956E+02  0.40000001775E+02 0.  0.
         12    1    3    3    0    0  0.44059425292E+01 -0.12951143504E+02  0.34185308789E+02  0.36820915044E+02  0.00000000000E+00 0. -1.
         11    1    4    4    0    0 -0.67553101387E+01  0.65615722971E+01 -0.14373741403E+02  0.17184088229E+02  0.51100000000E-03 0. -1.
        -11    1    4    4    0    0 -0.91087533488E+01 -0.84175966763E+01 -0.10608244947E+02  0.16320544798E+02  0.51100000000E-03 0.  1.
         12    1    4    4    0    0  0.11458120958E+02  0.14807167883E+02 -0.92033224398E+01  0.20862451930E+02  0.00000000000E+00 0. -1.
</event>
<event>
 8    1  0.2509217E-006  0.9118800E+02  0.7816164E-02  0.1184000E+00
        -11   -1    0    0    0    0  0.00000000000E+00  0.00000000000E+00  0.45593999997E+02  0.45594000000E+02  0.51100000000E-03 0. -1.
         11   -1    0    0    0    0 -0.00000000000E+00 -0.00000000000E+00 -0.45593999997E+02  0.45594000000E+02  0.51100000000E-03 0.  1.
         23    2    1    2    0    0 -0.35527136788E-14 -0.22204460493E-14  0.00000000000E+00  0.91188000000E+02  0.91188000000E+02 0.  0.
    9900012    2    3    3    0    0 -0.30381112434E+02 -0.26748185161E+01  0.20630615920E+02  0.54366960362E+02  0.39999717735E+02 0.  0.
         12    1    3    3    0    0  0.30381112434E+02  0.26748185161E+01 -0.20630615920E+02  0.36821039638E+02  0.00000000000E+00 0. -1.
         11    1    4    4    0    0  0.25005980662E+00  0.13150871651E+02  0.76007138801E+01  0.15191405690E+02  0.51100000000E-03 0. -1.
        -11    1    4    4    0    0 -0.23882567764E+02 -0.11470532717E+02  0.15595812476E+02  0.30743772229E+02  0.51100000000E-03 0.  1.
         12    1    4    4    0    0 -0.67486044772E+01 -0.43551574497E+01 -0.25659104362E+01  0.84317824431E+01  0.00000000000E+00 0. -1.
</event>
<event>
 8    1  0.2509217E-006  0.9118800E+02  0.7816164E-02  0.1184000E+00
        -11   -1    0    0    0    0  0.00000000000E+00  0.00000000000E+00  0.45593999997E+02  0.45594000000E+02  0.51100000000E-03 0. -1.
         11   -1    0    0    0    0 -0.00000000000E+00 -0.00000000000E+00 -0.45593999997E+02  0.45594000000E+02  0.51100000000E-03 0.  1.
         23    2    1    2    0    0  0.17763568394E-14  0.00000000000E+00  0.00000000000E+00  0.91188000000E+02  0.91188000000E+02 0.  0.
    9900012    2    3    3    0    0  0.14094511241E+02  0.18899140389E+02  0.28283320655E+02  0.54367095858E+02  0.40000026627E+02 0.  0.
        -12    1    3    3    0    0 -0.14094511241E+02 -0.18899140389E+02 -0.28283320655E+02  0.36820904142E+02  0.00000000000E+00 0.  1.
         11    1    4    4    0    0  0.18186222721E+02  0.29552981191E+02  0.20975647683E+02  0.40547443694E+02  0.51100000000E-03 0. -1.
        -11    1    4    4    0    0 -0.13632866140E+01 -0.65542566960E+01  0.51350963554E+01  0.84371823537E+01  0.51100000000E-03 0.  1.
         12    1    4    4    0    0 -0.27284248663E+01 -0.40995841065E+01  0.21725766168E+01  0.53824698098E+01  0.00000000000E+00 0. -1.
</event>
<event>
 8    1  0.2509217E-006  0.9118800E+02  0.7816164E-02  0.1184000E+00
        -11   -1    0    0    0    0  0.00000000000E+00  0.00000000000E+00  0.45593999997E+02  0.45594000000E+02  0.51100000000E-03 0. -1.
         11   -1    0    0    0    0 -0.00000000000E+00 -0.00000000000E+00 -0.45593999997E+02  0.45594000000E+02  0.51100000000E-03 0.  1.
         23    2    1    2    0    0  0.00000000000E+00  0.35527136788E-14  0.17763568394E-14  0.91188000000E+02  0.91188000000E+02 0.  0.
    9900012    2    3    3    0    0 -0.24441926489E+02 -0.22914106569E+02 -0.15274679428E+02  0.54367083635E+02  0.39999998762E+02 0.  0.
         12    1    3    3    0    0  0.24441926489E+02  0.22914106569E+02  0.15274679428E+02  0.36820916365E+02  0.00000000000E+00 0. -1.
         11    1    4    4    0    0  0.77581571555E+01 -0.41001764175E+01 -0.51363279025E+01  0.10167709363E+02  0.51100000000E-03 0. -1.
        -11    1    4    4    0    0 -0.12037879622E+02 -0.16479756669E+02  0.20715003889E+01  0.20513021225E+02  0.51100000000E-03 0.  1.
        -12    1    4    4    0    0 -0.20162204023E+02 -0.23341734827E+01 -0.12209851914E+02  0.23686353047E+02  0.00000000000E+00 0.  1.
</event>
<event>
 8    1  0.2509217E-006  0.9118800E+02  0.7816164E-02  0.1184000E+00
        -11   -1    0    0    0    0  0.00000000000E+00  0.00000000000E+00  0.45593999997E+02  0.45594000000E+02  0.51100000000E-03 0. -1.
         11   -1    0    0    0    0 -0.00000000000E+00 -0.00000000000E+00 -0.45593999997E+02  0.45594000000E+02  0.51100000000E-03 0.  1.
         23    2    1    2    0    0  0.66613381478E-15  0.00000000000E+00 -0.35527136788E-14  0.91188000000E+02  0.91188000000E+02 0.  0.
    9900012    2    3    3    0    0 -0.93113233713E+00  0.31673060400E+02  0.18754439305E+02  0.54367098922E+02  0.40000033613E+02 0.  0.
        -12    1    3    3    0    0  0.93113233713E+00 -0.31673060400E+02 -0.18754439305E+02  0.36820901078E+02  0.00000000000E+00 0.  1.
         11    1    4    4    0    0 -0.62156910697E+01  0.91095299022E+01  0.22066382144E+02  0.24668675921E+02  0.51100000000E-03 0. -1.
        -11    1    4    4    0    0  0.87109606215E+01  0.18112733394E+02 -0.87131306477E+01  0.21905948779E+02  0.51100000000E-03 0.  1.
        -12    1    4    4    0    0 -0.34264018889E+01  0.44507971040E+01  0.54011878079E+01  0.77924742220E+01  0.00000000000E+00 0.  1.
</event>
<event>
 8    1  0.2509217E-006  0.9118800E+02  0.7816164E-02  0.1184000E+00
        -11   -1    0    0    0    0  0.00000000000E+00  0.00000000000E+00  0.45593999997E+02  0.45594000000E+02  0.51100000000E-03 0.  1.
         11   -1    0    0    0    0 -0.00000000000E+00 -0.00000000000E+00 -0.45593999997E+02  0.45594000000E+02  0.51100000000E-03 0. -1.
         23    2    1    2    0    0  0.00000000000E+00  0.00000000000E+00  0.35527136788E-14  0.91188000000E+02  0.91188000000E+02 0.  0.
    9900012    2    3    3    0    0 -0.24855914714E+02 -0.10018014641E+02  0.25250791147E+02  0.54367087910E+02  0.40000008508E+02 0.  0.
         12    1    3    3    0    0  0.24855914714E+02  0.10018014641E+02 -0.25250791147E+02  0.36820912090E+02  0.00000000000E+00 0. -1.
         11    1    4    4    0    0 -0.12637252429E+00 -0.43330141250E+01 -0.16501141118E+01  0.46383033822E+01  0.51100000000E-03 0. -1.
        -11    1    4    4    0    0 -0.24118950631E+02 -0.61227538847E+01  0.34253395555E+02  0.42338008951E+02  0.51100000000E-03 0.  1.
         12    1    4    4    0    0 -0.61059155828E+00  0.43775336831E+00 -0.73524902962E+01  0.73907755762E+01  0.00000000000E+00 0. -1.
</event>
<event>
 8    1  0.2509217E-006  0.9118800E+02  0.7816164E-02  0.1184000E+00
        -11   -1    0    0    0    0  0.00000000000E+00  0.00000000000E+00  0.45593999997E+02  0.45594000000E+02  0.51100000000E-03 0.  1.
         11   -1    0    0    0    0 -0.00000000000E+00 -0.00000000000E+00 -0.45593999997E+02  0.45594000000E+02  0.51100000000E-03 0. -1.
         23    2    1    2    0    0 -0.35527136788E-14 -0.44408920985E-15  0.00000000000E+00  0.91188000000E+02  0.91188000000E+02 0.  0.
    9900012    2    3    3    0    0 -0.26984658501E+02  0.37525314053E+01 -0.24769602835E+02  0.54366993618E+02  0.39999793550E+02 0.  0.
        -12    1    3    3    0    0  0.26984658501E+02 -0.37525314053E+01  0.24769602835E+02  0.36821006382E+02  0.00000000000E+00 0.  1.
         11    1    4    4    0    0  0.18816621136E+01  0.40693482158E+01  0.59446254245E+01  0.74457248747E+01  0.51100000000E-03 0.  1.
        -11    1    4    4    0    0 -0.50484856178E+00 -0.41801099752E+01  0.86700941173E+00  0.42988250785E+01  0.51100000000E-03 0. -1.
         12    1    4    4    0    0 -0.28361472053E+02  0.38632931647E+01 -0.31581237672E+02  0.42622443665E+02  0.00000000000E+00 0. -1.
</event>
<event>
 8    1  0.2509217E-006  0.9118800E+02  0.7816164E-02  0.1184000E+00
        -11   -1    0    0    0    0  0.00000000000E+00  0.00000000000E+00  0.45593999997E+02  0.45594000000E+02  0.51100000000E-03 0.  1.
         11   -1    0    0    0    0 -0.00000000000E+00 -0.00000000000E+00 -0.45593999997E+02  0.45594000000E+02  0.51100000000E-03 0. -1.
         23    2    1    2    0    0  0.00000000000E+00  0.71054273576E-14 -0.88817841970E-15  0.91188000000E+02  0.91188000000E+02 0.  0.
    9900012    2    3    3    0    0  0.21581369625E+02  0.28984514282E+02 -0.70655688043E+01  0.54367084129E+02  0.39999999888E+02 0.  0.
        -12    1    3    3    0    0 -0.21581369625E+02 -0.28984514282E+02  0.70655688043E+01  0.36820915871E+02  0.00000000000E+00 0.  1.
         11    1    4    4    0    0  0.14294419271E+02  0.54847299924E+01 -0.34164448497E+01  0.15687089630E+02  0.51100000000E-03 0. -1.
        -11    1    4    4    0    0  0.80607528315E+01  0.32286021561E+01  0.10738430408E+02  0.13809905719E+02  0.51100000000E-03 0.  1.
        -12    1    4    4    0    0 -0.77380247677E+00  0.20271182134E+02 -0.14387554362E+02  0.24870088780E+02  0.00000000000E+00 0.  1.
</event>
<event>
 8    1  0.2509217E-006  0.9118800E+02  0.7816164E-02  0.1184000E+00
        -11   -1    0    0    0    0  0.00000000000E+00  0.00000000000E+00  0.45593999997E+02  0.45594000000E+02  0.51100000000E-03 0.  1.
         11   -1    0    0    0    0 -0.00000000000E+00 -0.00000000000E+00 -0.45593999997E+02  0.45594000000E+02  0.51100000000E-03 0. -1.
         23    2    1    2    0    0  0.00000000000E+00  0.17763568394E-14  0.17763568394E-14  0.91188000000E+02  0.91188000000E+02 0.  0.
    9900012    2    3    3    0    0  0.35523287658E+02  0.66622903742E+01  0.70348642924E+01  0.54367090252E+02  0.40000013848E+02 0.  0.
         12    1    3    3    0    0 -0.35523287658E+02 -0.66622903742E+01 -0.70348642924E+01  0.36820909748E+02  0.00000000000E+00 0. -1.
         11    1    4    4    0    0  0.12837689868E+02  0.60374094927E+01 -0.67089084698E+01  0.15692866139E+02  0.51100000000E-03 0. -1.
        -11    1    4    4    0    0  0.41217947809E+01 -0.12625673628E+02  0.39845230147E+01  0.13866263040E+02  0.51100000000E-03 0.  1.
         12    1    4    4    0    0  0.18563803009E+02  0.13250554510E+02  0.97592497475E+01  0.24807961073E+02  0.00000000000E+00 0. -1.
</event>
<event>
 8    1  0.2509217E-006  0.9118800E+02  0.7816164E-02  0.1184000E+00
        -11   -1    0    0    0    0  0.00000000000E+00  0.00000000000E+00  0.45593999997E+02  0.45594000000E+02  0.51100000000E-03 0.  1.
         11   -1    0    0    0    0 -0.00000000000E+00 -0.00000000000E+00 -0.45593999997E+02  0.45594000000E+02  0.51100000000E-03 0. -1.
         23    2    1    2    0    0 -0.88817841970E-15 -0.35527136788E-14 -0.35527136788E-14  0.91188000000E+02  0.91188000000E+02 0.  0.
    9900012    2    3    3    0    0 -0.68839164009E+01  0.28824100698E+02  0.21853190345E+02  0.54367095417E+02  0.40000025621E+02 0.  0.
         12    1    3    3    0    0  0.68839164009E+01 -0.28824100698E+02 -0.21853190345E+02  0.36820904583E+02  0.00000000000E+00 0. -1.
         11    1    4    4    0    0  0.34674791150E+01  0.18203159416E+01 -0.82727869232E+01  0.91529211337E+01  0.51100000000E-03 0. -1.
        -11    1    4    4    0    0 -0.37088860001E+01  0.26761678000E+02  0.23156645233E+02  0.35583331258E+02  0.51100000000E-03 0.  1.
         12    1    4    4    0    0 -0.66425095159E+01  0.24210675708E+00  0.69693320351E+01  0.96308430247E+01  0.00000000000E+00 0. -1.
</event>
<event>
 8    1  0.2509217E-006  0.9118800E+02  0.7816164E-02  0.1184000E+00
        -11   -1    0    0    0    0  0.00000000000E+00  0.00000000000E+00  0.45593999997E+02  0.45594000000E+02  0.51100000000E-03 0. -1.
         11   -1    0    0    0    0 -0.00000000000E+00 -0.00000000000E+00 -0.45593999997E+02  0.45594000000E+02  0.51100000000E-03 0.  1.
         23    2    1    2    0    0  0.35527136788E-14  0.17763568394E-14  0.17763568394E-14  0.91188000000E+02  0.91188000000E+02 0.  0.
    9900012    2    3    3    0    0 -0.31627962361E+02 -0.13825789526E+02 -0.12818018665E+02  0.54367054037E+02  0.39999931289E+02 0.  0.
         12    1    3    3    0    0  0.31627962361E+02  0.13825789526E+02  0.12818018665E+02  0.36820945963E+02  0.00000000000E+00 0. -1.
         11    1    4    4    0    0 -0.19364071998E+02  0.79897487139E+01  0.58567807129E+00  0.20955819906E+02  0.51100000000E-03 0. -1.
        -11    1    4    4    0    0 -0.64386007647E+01  0.14656279403E+01 -0.27148494745E+01  0.71396115438E+01  0.51100000000E-03 0.  1.
         12    1    4    4    0    0 -0.58252895977E+01 -0.23281166180E+02 -0.10688847262E+02  0.26271622588E+02  0.00000000000E+00 0. -1.
</event>
<event>
 8    1  0.2509217E-006  0.9118800E+02  0.7816164E-02  0.1184000E+00
        -11   -1    0    0    0    0  0.00000000000E+00  0.00000000000E+00  0.45593999997E+02  0.45594000000E+02  0.51100000000E-03 0.  1.
         11   -1    0    0    0    0 -0.00000000000E+00 -0.00000000000E+00 -0.45593999997E+02  0.45594000000E+02  0.51100000000E-03 0. -1.
         23    2    1    2    0    0 -0.13322676296E-14  0.00000000000E+00  0.88817841970E-15  0.91188000000E+02  0.91188000000E+02 0.  0.
    9900012    2    3    3    0    0  0.72782536558E+00 -0.36208417333E+02  0.66483123880E+01  0.54367091902E+02  0.40000017609E+02 0.  0.
         12    1    3    3    0    0 -0.72782536558E+00  0.36208417333E+02 -0.66483123880E+01  0.36820908098E+02  0.00000000000E+00 0. -1.
         11    1    4    4    0    0  0.20695474371E+01  0.19652790367E+01 -0.66956497871E+01  0.72785351974E+01  0.51100000000E-03 0. -1.
        -11    1    4    4    0    0 -0.10038778046E+02 -0.81625167151E+01  0.84711357293E+01  0.15464924332E+02  0.51100000000E-03 0.  1.
         12    1    4    4    0    0  0.86970559743E+01 -0.30011179655E+02  0.48728264458E+01  0.31623632373E+02  0.00000000000E+00 0. -1.
</event>
<event>
 8    1  0.2509217E-006  0.9118800E+02  0.7816164E-02  0.1184000E+00
        -11   -1    0    0    0    0  0.00000000000E+00  0.00000000000E+00  0.45593999997E+02  0.45594000000E+02  0.51100000000E-03 0.  1.
         11   -1    0    0    0    0 -0.00000000000E+00 -0.00000000000E+00 -0.45593999997E+02  0.45594000000E+02  0.51100000000E-03 0. -1.
         23    2    1    2    0    0 -0.99920072216E-15  0.00000000000E+00  0.00000000000E+00  0.91188000000E+02  0.91188000000E+02 0.  0.
    9900012    2    3    3    0    0 -0.41731761067E+00 -0.12774058689E+02  0.34531564016E+02  0.54367086883E+02  0.40000006168E+02 0.  0.
         12    1    3    3    0    0  0.41731761067E+00  0.12774058689E+02 -0.34531564016E+02  0.36820913117E+02  0.00000000000E+00 0. -1.
         11    1    4    4    0    0  0.60841306587E+01  0.76530975325E+01  0.17060443999E+02  0.19663298234E+02  0.51100000000E-03 0. -1.
        -11    1    4    4    0    0 -0.10355752467E+00 -0.15724726352E+02  0.20815891731E+02  0.26087910837E+02  0.51100000000E-03 0.  1.
         12    1    4    4    0    0 -0.63978907447E+01 -0.47024298698E+01 -0.33447717150E+01  0.86158778129E+01  0.00000000000E+00 0. -1.
</event>
<event>
 8    1  0.2509217E-006  0.9118800E+02  0.7816164E-02  0.1184000E+00
        -11   -1    0    0    0    0  0.00000000000E+00  0.00000000000E+00  0.45593999997E+02  0.45594000000E+02  0.51100000000E-03 0. -1.
         11   -1    0    0    0    0 -0.00000000000E+00 -0.00000000000E+00 -0.45593999997E+02  0.45594000000E+02  0.51100000000E-03 0.  1.
         23    2    1    2    0    0 -0.44408920985E-15  0.44408920985E-15  0.00000000000E+00  0.91188000000E+02  0.91188000000E+02 0.  0.
    9900012    2    3    3    0    0  0.30167216526E+01  0.60035712680E+00  0.36692211652E+02  0.54367089716E+02  0.40000012626E+02 0.  0.
        -12    1    3    3    0    0 -0.30167216526E+01 -0.60035712680E+00 -0.36692211652E+02  0.36820910284E+02  0.00000000000E+00 0.  1.
         11    1    4    4    0    0  0.60945537627E+01 -0.14396525131E+02  0.42714970017E+01  0.16206455760E+02  0.51100000000E-03 0. -1.
        -11    1    4    4    0    0  0.29044993252E+01  0.41041383228E+01  0.22070806089E+01  0.54910174629E+01  0.51100000000E-03 0.  1.
         12    1    4    4    0    0 -0.59823314354E+01  0.10892743935E+02  0.30213634041E+02  0.32669616493E+02  0.00000000000E+00 0. -1.
</event>
<event>
 8    1  0.2509217E-006  0.9118800E+02  0.7816164E-02  0.1184000E+00
        -11   -1    0    0    0    0  0.00000000000E+00  0.00000000000E+00  0.45593999997E+02  0.45594000000E+02  0.51100000000E-03 0. -1.
         11   -1    0    0    0    0 -0.00000000000E+00 -0.00000000000E+00 -0.45593999997E+02  0.45594000000E+02  0.51100000000E-03 0.  1.
         23    2    1    2    0    0 -0.35527136788E-14 -0.35527136788E-14 -0.44408920985E-15  0.91188000000E+02  0.91188000000E+02 0.  0.
    9900012    2    3    3    0    0 -0.27283650783E+02 -0.24524344960E+02  0.31523165626E+01  0.54367106536E+02  0.40000050970E+02 0.  0.
         12    1    3    3    0    0  0.27283650783E+02  0.24524344960E+02 -0.31523165626E+01  0.36820893464E+02  0.00000000000E+00 0. -1.
         11    1    4    4    0    0 -0.87042710899E+01 -0.11642837487E+02 -0.26513898798E+01  0.14776666353E+02  0.51100000000E-03 0. -1.
        -11    1    4    4    0    0 -0.14573233351E+02  0.88440966583E+01  0.18418778657E+01  0.17146127561E+02  0.51100000000E-03 0.  1.
         12    1    4    4    0    0 -0.40061463419E+01 -0.21725604131E+02  0.39618285768E+01  0.22444312621E+02  0.00000000000E+00 0. -1.
</event>
<event>
 8    1  0.2509217E-006  0.9118800E+02  0.7816164E-02  0.1184000E+00
        -11   -1    0    0    0    0  0.00000000000E+00  0.00000000000E+00  0.45593999997E+02  0.45594000000E+02  0.51100000000E-03 0.  1.
         11   -1    0    0    0    0 -0.00000000000E+00 -0.00000000000E+00 -0.45593999997E+02  0.45594000000E+02  0.51100000000E-03 0. -1.
         23    2    1    2    0    0  0.17763568394E-14  0.71054273576E-14  0.00000000000E+00  0.91188000000E+02  0.91188000000E+02 0.  0.
    9900012    2    3    3    0    0 -0.37498689235E+01 -0.33870997468E+02 -0.13945372146E+02  0.54367090306E+02  0.40000013970E+02 0.  0.
        -12    1    3    3    0    0  0.37498689235E+01  0.33870997468E+02  0.13945372146E+02  0.36820909694E+02  0.00000000000E+00 0.  1.
         11    1    4    4    0    0  0.76465068502E+01  0.14173031925E+01  0.23563247253E+01  0.81258896019E+01  0.51100000000E-03 0. -1.
        -11    1    4    4    0    0 -0.65192527847E+01  0.68539289785E-01  0.96793335594E+00  0.65910734898E+01  0.51100000000E-03 0.  1.
         12    1    4    4    0    0 -0.48771229890E+01 -0.35356839950E+02 -0.17269630228E+02  0.39650127214E+02  0.00000000000E+00 0. -1.
</event>
<event>
 8    1  0.2509217E-006  0.9118800E+02  0.7816164E-02  0.1184000E+00
        -11   -1    0    0    0    0  0.00000000000E+00  0.00000000000E+00  0.45593999997E+02  0.45594000000E+02  0.51100000000E-03 0.  1.
         11   -1    0    0    0    0 -0.00000000000E+00 -0.00000000000E+00 -0.45593999997E+02  0.45594000000E+02  0.51100000000E-03 0. -1.
         23    2    1    2    0    0  0.71054273576E-14 -0.26645352591E-14  0.35527136788E-14  0.91188000000E+02  0.91188000000E+02 0.  0.
    9900012    2    3    3    0    0 -0.32367945790E+02  0.69856186231E+01 -0.16102722359E+02  0.54367075927E+02  0.39999981191E+02 0.  0.
        -12    1    3    3    0    0  0.32367945790E+02 -0.69856186231E+01  0.16102722359E+02  0.36820924073E+02  0.00000000000E+00 0.  1.
         11    1    4    4    0    0 -0.25780469266E+02 -0.15333874109E+01 -0.11747292651E+02  0.28372218056E+02  0.51100000000E-03 0. -1.
        -11    1    4    4    0    0 -0.89089169952E+01 -0.57909166535E+01 -0.43927374313E+01  0.11497811101E+02  0.51100000000E-03 0.  1.
        -12    1    4    4    0    0  0.23214404710E+01  0.14309922687E+02  0.37307723783E-01  0.14497046770E+02  0.00000000000E+00 0.  1.
</event>
<event>
 8    1  0.2509217E-006  0.9118800E+02  0.7816164E-02  0.1184000E+00
        -11   -1    0    0    0    0  0.00000000000E+00  0.00000000000E+00  0.45593999997E+02  0.45594000000E+02  0.51100000000E-03 0.  1.
         11   -1    0    0    0    0 -0.00000000000E+00 -0.00000000000E+00 -0.45593999997E+02  0.45594000000E+02  0.51100000000E-03 0. -1.
         23    2    1    2    0    0  0.35527136788E-14  0.00000000000E+00 -0.77715611724E-15  0.91188000000E+02  0.91188000000E+02 0.  0.
    9900012    2    3    3    0    0 -0.29882147970E+02 -0.21502411738E+02 -0.69880837342E+00  0.54367016702E+02  0.39999846176E+02 0.  0.
        -12    1    3    3    0    0  0.29882147970E+02  0.21502411738E+02  0.69880837342E+00  0.36820983298E+02  0.00000000000E+00 0.  1.
         11    1    4    4    0    0 -0.18283607731E+02 -0.14162827314E+02 -0.32623562408E+00  0.23129686966E+02  0.51100000000E-03 0. -1.
        -11    1    4    4    0    0  0.78116260838E+01 -0.21962437673E+01  0.60870694985E+01  0.10143835769E+02  0.51100000000E-03 0.  1.
        -12    1    4    4    0    0 -0.19410166323E+02 -0.51433406570E+01 -0.64596422478E+01  0.21093493968E+02  0.00000000000E+00 0.  1.
</event>
<event>
 8    1  0.2509217E-006  0.9118800E+02  0.7816164E-02  0.1184000E+00
        -11   -1    0    0    0    0  0.00000000000E+00  0.00000000000E+00  0.45593999997E+02  0.45594000000E+02  0.51100000000E-03 0. -1.
         11   -1    0    0    0    0 -0.00000000000E+00 -0.00000000000E+00 -0.45593999997E+02  0.45594000000E+02  0.51100000000E-03 0.  1.
         23    2    1    2    0    0  0.35527136788E-14 -0.17763568394E-14  0.00000000000E+00  0.91188000000E+02  0.91188000000E+02 0.  0.
    9900012    2    3    3    0    0 -0.30861265708E+02 -0.14241837337E+02  0.14160960880E+02  0.54367075719E+02  0.39999980717E+02 0.  0.
        -12    1    3    3    0    0  0.30861265708E+02  0.14241837337E+02 -0.14160960880E+02  0.36820924281E+02  0.00000000000E+00 0.  1.
         11    1    4    4    0    0 -0.23352324834E+02 -0.16165394921E+02  0.16003997907E+02  0.32600291676E+02  0.51100000000E-03 0. -1.
        -11    1    4    4    0    0  0.16430310321E+01 -0.20024840116E+01  0.76083620462E+01  0.80372051409E+01  0.51100000000E-03 0.  1.
        -12    1    4    4    0    0 -0.91519719069E+01  0.39260415958E+01 -0.94513990731E+01  0.13729578902E+02  0.00000000000E+00 0.  1.
</event>
<event>
 8    1  0.2509217E-006  0.9118800E+02  0.7816164E-02  0.1184000E+00
        -11   -1    0    0    0    0  0.00000000000E+00  0.00000000000E+00  0.45593999997E+02  0.45594000000E+02  0.51100000000E-03 0.  1.
         11   -1    0    0    0    0 -0.00000000000E+00 -0.00000000000E+00 -0.45593999997E+02  0.45594000000E+02  0.51100000000E-03 0. -1.
         23    2    1    2    0    0  0.00000000000E+00  0.00000000000E+00  0.35527136788E-14  0.91188000000E+02  0.91188000000E+02 0.  0.
    9900012    2    3    3    0    0 -0.58499039132E+01 -0.23882502257E+02  0.27407665671E+02  0.54367144125E+02  0.40000136661E+02 0.  0.
         12    1    3    3    0    0  0.58499039132E+01  0.23882502257E+02 -0.27407665671E+02  0.36820855875E+02  0.00000000000E+00 0. -1.
         11    1    4    4    0    0  0.46087799003E+01  0.68074119988E+01  0.12435786844E+01  0.83143369246E+01  0.51100000000E-03 0. -1.
        -11    1    4    4    0    0 -0.79071446137E+01 -0.38884478803E+01  0.44969019813E+00  0.88229918052E+01  0.51100000000E-03 0.  1.
        -12    1    4    4    0    0 -0.25515391999E+01 -0.26801466375E+02  0.25714396788E+02  0.37229815395E+02  0.00000000000E+00 0.  1.
</event>
<event>
 8    1  0.2509217E-006  0.9118800E+02  0.7816164E-02  0.1184000E+00
        -11   -1    0    0    0    0  0.00000000000E+00  0.00000000000E+00  0.45593999997E+02  0.45594000000E+02  0.51100000000E-03 0. -1.
         11   -1    0    0    0    0 -0.00000000000E+00 -0.00000000000E+00 -0.45593999997E+02  0.45594000000E+02  0.51100000000E-03 0.  1.
         23    2    1    2    0    0  0.00000000000E+00  0.00000000000E+00  0.00000000000E+00  0.91188000000E+02  0.91188000000E+02 0.  0.
    9900012    2    3    3    0    0 -0.13974619774E+02 -0.45309021917E+01 -0.33763307326E+02  0.54367082112E+02  0.39999995291E+02 0.  0.
         12    1    3    3    0    0  0.13974619774E+02  0.45309021917E+01  0.33763307326E+02  0.36820917888E+02  0.00000000000E+00 0. -1.
         11    1    4    4    0    0  0.91027112295E+01 -0.66645789838E+01 -0.77677950857E+01  0.13697248100E+02  0.51100000000E-03 0. -1.
        -11    1    4    4    0    0 -0.12089095989E+02  0.57199246715E+01 -0.13419403540E+01  0.13441152639E+02  0.51100000000E-03 0.  1.
        -12    1    4    4    0    0 -0.10988235014E+02 -0.35862478794E+01 -0.24653571886E+02  0.27228681373E+02  0.00000000000E+00 0.  1.
</event>
<event>
 8    1  0.2509217E-006  0.9118800E+02  0.7816164E-02  0.1184000E+00
        -11   -1    0    0    0    0  0.00000000000E+00  0.00000000000E+00  0.45593999997E+02  0.45594000000E+02  0.51100000000E-03 0.  1.
         11   -1    0    0    0    0 -0.00000000000E+00 -0.00000000000E+00 -0.45593999997E+02  0.45594000000E+02  0.51100000000E-03 0. -1.
         23    2    1    2    0    0  0.35527136788E-14 -0.88817841970E-15 -0.35527136788E-14  0.91188000000E+02  0.91188000000E+02 0.  0.
    9900012    2    3    3    0    0 -0.26108911949E+02 -0.54258730079E+01  0.25390260041E+02  0.54367072716E+02  0.39999973871E+02 0.  0.
         12    1    3    3    0    0  0.26108911949E+02  0.54258730079E+01 -0.25390260041E+02  0.36820927284E+02  0.00000000000E+00 0. -1.
         11    1    4    4    0    0  0.15964119720E+01  0.18514318346E+01 -0.38396836960E+01  0.45518679868E+01  0.51100000000E-03 0. -1.
        -11    1    4    4    0    0 -0.80331138081E+01  0.10868141345E+02  0.85340013677E+01  0.15983635173E+02  0.51100000000E-03 0.  1.
        -12    1    4    4    0    0 -0.19672210113E+02 -0.18145446187E+02  0.20695942370E+02  0.33831569556E+02  0.00000000000E+00 0.  1.
</event>
<event>
 8    1  0.2509217E-006  0.9118800E+02  0.7816164E-02  0.1184000E+00
        -11   -1    0    0    0    0  0.00000000000E+00  0.00000000000E+00  0.45593999997E+02  0.45594000000E+02  0.51100000000E-03 0.  1.
         11   -1    0    0    0    0 -0.00000000000E+00 -0.00000000000E+00 -0.45593999997E+02  0.45594000000E+02  0.51100000000E-03 0. -1.
         23    2    1    2    0    0  0.00000000000E+00  0.66613381478E-15  0.00000000000E+00  0.91188000000E+02  0.91188000000E+02 0.  0.
    9900012    2    3    3    0    0 -0.13197449524E+02 -0.96334290721E+00  0.34361011116E+02  0.54367084905E+02  0.40000001658E+02 0.  0.
         12    1    3    3    0    0  0.13197449524E+02  0.96334290721E+00 -0.34361011116E+02  0.36820915095E+02  0.00000000000E+00 0. -1.
         11    1    4    4    0    0  0.31730193062E+00 -0.16959685339E+02  0.61724196851E+01  0.18050772070E+02  0.51100000000E-03 0. -1.
        -11    1    4    4    0    0 -0.60001538012E+01  0.81792815929E+01  0.20956507622E+02  0.23282562251E+02  0.51100000000E-03 0.  1.
         12    1    4    4    0    0 -0.75145976535E+01  0.78170608388E+01  0.72320838092E+01  0.13033750584E+02  0.00000000000E+00 0. -1.
</event>
<event>
 8    1  0.2509217E-006  0.9118800E+02  0.7816164E-02  0.1184000E+00
        -11   -1    0    0    0    0  0.00000000000E+00  0.00000000000E+00  0.45593999997E+02  0.45594000000E+02  0.51100000000E-03 0.  1.
         11   -1    0    0    0    0 -0.00000000000E+00 -0.00000000000E+00 -0.45593999997E+02  0.45594000000E+02  0.51100000000E-03 0. -1.
         23    2    1    2    0    0  0.00000000000E+00  0.00000000000E+00 -0.35527136788E-14  0.91188000000E+02  0.91188000000E+02 0.  0.
    9900012    2    3    3    0    0 -0.13132660791E+02 -0.18314941465E+02  0.29118313365E+02  0.54367081576E+02  0.39999994070E+02 0.  0.
         12    1    3    3    0    0  0.13132660791E+02  0.18314941465E+02 -0.29118313365E+02  0.36820918424E+02  0.00000000000E+00 0. -1.
         11    1    4    4    0    0 -0.24453928250E+01 -0.10739407498E+02  0.10010327920E+02  0.14883597845E+02  0.51100000000E-03 0.  1.
        -11    1    4    4    0    0 -0.38070791901E+01 -0.17938090841E+02  0.19848530739E+02  0.27022826050E+02  0.51100000000E-03 0. -1.
        -12    1    4    4    0    0 -0.68801887756E+01  0.10362556873E+02 -0.74054529327E+00  0.12460657682E+02  0.00000000000E+00 0.  1.
</event>
<event>
 8    1  0.2509217E-006  0.9118800E+02  0.7816164E-02  0.1184000E+00
        -11   -1    0    0    0    0  0.00000000000E+00  0.00000000000E+00  0.45593999997E+02  0.45594000000E+02  0.51100000000E-03 0. -1.
         11   -1    0    0    0    0 -0.00000000000E+00 -0.00000000000E+00 -0.45593999997E+02  0.45594000000E+02  0.51100000000E-03 0.  1.
         23    2    1    2    0    0  0.00000000000E+00  0.00000000000E+00  0.35527136788E-14  0.91188000000E+02  0.91188000000E+02 0.  0.
    9900012    2    3    3    0    0 -0.16761989056E+02  0.19164430148E+02  0.26599641974E+02  0.54367073706E+02  0.39999976127E+02 0.  0.
        -12    1    3    3    0    0  0.16761989056E+02 -0.19164430148E+02 -0.26599641974E+02  0.36820926294E+02  0.00000000000E+00 0.  1.
         11    1    4    4    0    0 -0.11695221125E+02 -0.93962418765E+00  0.66652906519E+01  0.13493968672E+02  0.51100000000E-03 0. -1.
        -11    1    4    4    0    0 -0.12648079295E+02  0.22118283061E+02  0.82152088691E+01  0.26770917288E+02  0.51100000000E-03 0.  1.
        -12    1    4    4    0    0  0.75813113650E+01 -0.20142287251E+01  0.11719142453E+02  0.14102187746E+02  0.00000000000E+00 0.  1.
</event>
<event>
 8    1  0.2509217E-006  0.9118800E+02  0.7816164E-02  0.1184000E+00
        -11   -1    0    0    0    0  0.00000000000E+00  0.00000000000E+00  0.45593999997E+02  0.45594000000E+02  0.51100000000E-03 0.  1.
         11   -1    0    0    0    0 -0.00000000000E+00 -0.00000000000E+00 -0.45593999997E+02  0.45594000000E+02  0.51100000000E-03 0. -1.
         23    2    1    2    0    0 -0.44408920985E-15  0.00000000000E+00  0.00000000000E+00  0.91188000000E+02  0.91188000000E+02 0.  0.
    9900012    2    3    3    0    0  0.20719273454E+01 -0.36119371992E+02 -0.68467521515E+01  0.54367082969E+02  0.39999997244E+02 0.  0.
        -12    1    3    3    0    0 -0.20719273454E+01  0.36119371992E+02  0.68467521515E+01  0.36820917031E+02  0.00000000000E+00 0.  1.
         11    1    4    4    0    0 -0.19170036759E+01 -0.73823592313E+01 -0.19370730804E+02  0.20818245437E+02  0.51100000000E-03 0. -1.
        -11    1    4    4    0    0  0.73398989760E+01 -0.13507872682E+02  0.45360697704E+01  0.16028495581E+02  0.51100000000E-03 0.  1.
         12    1    4    4    0    0 -0.33509679547E+01 -0.15229140078E+02  0.79879088825E+01  0.17520341951E+02  0.00000000000E+00 0. -1.
</event>
<event>
 8    1  0.2509217E-006  0.9118800E+02  0.7816164E-02  0.1184000E+00
        -11   -1    0    0    0    0  0.00000000000E+00  0.00000000000E+00  0.45593999997E+02  0.45594000000E+02  0.51100000000E-03 0.  1.
         11   -1    0    0    0    0 -0.00000000000E+00 -0.00000000000E+00 -0.45593999997E+02  0.45594000000E+02  0.51100000000E-03 0. -1.
         23    2    1    2    0    0 -0.35527136788E-14  0.17763568394E-14  0.00000000000E+00  0.91188000000E+02  0.91188000000E+02 0.  0.
    9900012    2    3    3    0    0  0.30892901922E+02 -0.96431113177E+01 -0.17561839298E+02  0.54367093104E+02  0.40000020350E+02 0.  0.
        -12    1    3    3    0    0 -0.30892901922E+02  0.96431113177E+01  0.17561839298E+02  0.36820906896E+02  0.00000000000E+00 0.  1.
         11    1    4    4    0    0  0.87838571572E+01 -0.79970993487E+01 -0.99234982042E+01  0.15478551658E+02  0.51100000000E-03 0. -1.
        -11    1    4    4    0    0  0.12568941441E+00 -0.51269876938E+01 -0.14675096924E+02  0.15545426036E+02  0.51100000000E-03 0.  1.
        -12    1    4    4    0    0  0.21983355351E+02  0.34809757248E+01  0.70367558301E+01  0.23343115411E+02  0.00000000000E+00 0.  1.
</event>
<event>
 8    1  0.2509217E-006  0.9118800E+02  0.7816164E-02  0.1184000E+00
        -11   -1    0    0    0    0  0.00000000000E+00  0.00000000000E+00  0.45593999997E+02  0.45594000000E+02  0.51100000000E-03 0.  1.
         11   -1    0    0    0    0 -0.00000000000E+00 -0.00000000000E+00 -0.45593999997E+02  0.45594000000E+02  0.51100000000E-03 0. -1.
         23    2    1    2    0    0  0.00000000000E+00  0.17763568394E-14  0.00000000000E+00  0.91188000000E+02  0.91188000000E+02 0.  0.
    9900012    2    3    3    0    0  0.10072985859E+02 -0.98292000051E+01 -0.34025009963E+02  0.54367088552E+02  0.40000009972E+02 0.  0.
        -12    1    3    3    0    0 -0.10072985859E+02  0.98292000051E+01  0.34025009963E+02  0.36820911448E+02  0.00000000000E+00 0.  1.
         11    1    4    4    0    0  0.14982565272E+02  0.93661773074E+01 -0.43742370581E+01  0.18202650620E+02  0.51100000000E-03 0.  1.
        -11    1    4    4    0    0 -0.29714265742E+01 -0.60093797877E+01 -0.14570769879E+02  0.16038994870E+02  0.51100000000E-03 0. -1.
         12    1    4    4    0    0 -0.19381528395E+01 -0.13185997525E+02 -0.15080003026E+02  0.20125443062E+02  0.00000000000E+00 0. -1.
</event>
<event>
 8    1  0.2509217E-006  0.9118800E+02  0.7816164E-02  0.1184000E+00
        -11   -1    0    0    0    0  0.00000000000E+00  0.00000000000E+00  0.45593999997E+02  0.45594000000E+02  0.51100000000E-03 0.  1.
         11   -1    0    0    0    0 -0.00000000000E+00 -0.00000000000E+00 -0.45593999997E+02  0.45594000000E+02  0.51100000000E-03 0. -1.
         23    2    1    2    0    0  0.35527136788E-14  0.00000000000E+00  0.00000000000E+00  0.91188000000E+02  0.91188000000E+02 0.  0.
    9900012    2    3    3    0    0 -0.30553204005E+02  0.75057205535E+00  0.20535762187E+02  0.54367093412E+02  0.40000021051E+02 0.  0.
         12    1    3    3    0    0  0.30553204005E+02 -0.75057205535E+00 -0.20535762187E+02  0.36820906588E+02  0.00000000000E+00 0. -1.
         11    1    4    4    0    0 -0.45678106058E+01 -0.15185236553E+02  0.58414851119E+01  0.16899090256E+02  0.51100000000E-03 0. -1.
        -11    1    4    4    0    0 -0.23489949566E+02  0.11831457764E+02  0.51752245237E+01  0.26805672395E+02  0.51100000000E-03 0.  1.
        -12    1    4    4    0    0 -0.24954438334E+01  0.41043508440E+01  0.95190525513E+01  0.10662330761E+02  0.00000000000E+00 0.  1.
</event>
<event>
 8    1  0.2509217E-006  0.9118800E+02  0.7816164E-02  0.1184000E+00
        -11   -1    0    0    0    0  0.00000000000E+00  0.00000000000E+00  0.45593999997E+02  0.45594000000E+02  0.51100000000E-03 0.  1.
         11   -1    0    0    0    0 -0.00000000000E+00 -0.00000000000E+00 -0.45593999997E+02  0.45594000000E+02  0.51100000000E-03 0. -1.
         23    2    1    2    0    0 -0.71054273576E-14 -0.88817841970E-15  0.35527136788E-14  0.91188000000E+02  0.91188000000E+02 0.  0.
    9900012    2    3    3    0    0  0.34649131130E+02 -0.49343954464E+01 -0.11439712643E+02  0.54367115005E+02  0.40000070276E+02 0.  0.
        -12    1    3    3    0    0 -0.34649131130E+02  0.49343954464E+01  0.11439712643E+02  0.36820884995E+02  0.00000000000E+00 0.  1.
         11    1    4    4    0    0 -0.34540615598E+01 -0.83543090285E-01 -0.22221746364E+01  0.41079899078E+01  0.51100000000E-03 0. -1.
        -11    1    4    4    0    0  0.34506819260E+01 -0.12814609414E+00 -0.14485817379E+02  0.14891693409E+02  0.51100000000E-03 0.  1.
         12    1    4    4    0    0  0.34652510764E+02 -0.47227062620E+01  0.52682793725E+01  0.35367431688E+02  0.00000000000E+00 0. -1.
</event>
<event>
 8    1  0.2509217E-006  0.9118800E+02  0.7816164E-02  0.1184000E+00
        -11   -1    0    0    0    0  0.00000000000E+00  0.00000000000E+00  0.45593999997E+02  0.45594000000E+02  0.51100000000E-03 0.  1.
         11   -1    0    0    0    0 -0.00000000000E+00 -0.00000000000E+00 -0.45593999997E+02  0.45594000000E+02  0.51100000000E-03 0. -1.
         23    2    1    2    0    0 -0.35527136788E-14  0.00000000000E+00  0.00000000000E+00  0.91188000000E+02  0.91188000000E+02 0.  0.
    9900012    2    3    3    0    0 -0.24136576450E+02  0.21833692276E+02  0.17219028225E+02  0.54367090531E+02  0.40000014483E+02 0.  0.
        -12    1    3    3    0    0  0.24136576450E+02 -0.21833692276E+02 -0.17219028225E+02  0.36820909469E+02  0.00000000000E+00 0.  1.
         11    1    4    4    0    0 -0.10525070597E+02 -0.95944812512E+00  0.67237225850E+01  0.12526216405E+02  0.51100000000E-03 0. -1.
        -11    1    4    4    0    0 -0.11936200723E+02  0.14780687694E+01 -0.72602601958E+01  0.14048806119E+02  0.51100000000E-03 0.  1.
         12    1    4    4    0    0 -0.16753051299E+01  0.21315071632E+02  0.17755565836E+02  0.27792068007E+02  0.00000000000E+00 0. -1.
</event>
<event>
 8    1  0.2509217E-006  0.9118800E+02  0.7816164E-02  0.1184000E+00
        -11   -1    0    0    0    0  0.00000000000E+00  0.00000000000E+00  0.45593999997E+02  0.45594000000E+02  0.51100000000E-03 0.  1.
         11   -1    0    0    0    0 -0.00000000000E+00 -0.00000000000E+00 -0.45593999997E+02  0.45594000000E+02  0.51100000000E-03 0. -1.
         23    2    1    2    0    0  0.00000000000E+00  0.00000000000E+00  0.00000000000E+00  0.91188000000E+02  0.91188000000E+02 0.  0.
    9900012    2    3    3    0    0 -0.20824945914E+02  0.22518073466E+02 -0.20372532934E+02  0.54367053474E+02  0.39999930004E+02 0.  0.
         12    1    3    3    0    0  0.20824945914E+02 -0.22518073466E+02  0.20372532934E+02  0.36820946526E+02  0.00000000000E+00 0. -1.
         11    1    4    4    0    0  0.24575526591E+01 -0.22621478875E+01 -0.39723225861E+01  0.51900120545E+01  0.51100000000E-03 0. -1.
        -11    1    4    4    0    0 -0.15674570455E+02  0.30415767694E+02 -0.53621259659E+01  0.34634714933E+02  0.51100000000E-03 0.  1.
        -12    1    4    4    0    0 -0.76079281182E+01 -0.56355463400E+01 -0.11038084382E+02  0.14542326486E+02  0.00000000000E+00 0.  1.
</event>
<event>
 8    1  0.2509217E-006  0.9118800E+02  0.7816164E-02  0.1184000E+00
        -11   -1    0    0    0    0  0.00000000000E+00  0.00000000000E+00  0.45593999997E+02  0.45594000000E+02  0.51100000000E-03 0.  1.
         11   -1    0    0    0    0 -0.00000000000E+00 -0.00000000000E+00 -0.45593999997E+02  0.45594000000E+02  0.51100000000E-03 0. -1.
         23    2    1    2    0    0  0.00000000000E+00 -0.35527136788E-14  0.00000000000E+00  0.91188000000E+02  0.91188000000E+02 0.  0.
    9900012    2    3    3    0    0  0.18809231702E+02 -0.13882716460E+02  0.28447540697E+02  0.54367087664E+02  0.40000007948E+02 0.  0.
         12    1    3    3    0    0 -0.18809231702E+02  0.13882716460E+02 -0.28447540697E+02  0.36820912336E+02  0.00000000000E+00 0. -1.
         11    1    4    4    0    0  0.28008949485E+01  0.56243886076E+01  0.12017713627E+02  0.13561128302E+02  0.51100000000E-03 0. -1.
        -11    1    4    4    0    0  0.14013707529E+02 -0.25785758348E+02  0.86175711995E+01  0.30586792345E+02  0.51100000000E-03 0.  1.
        -12    1    4    4    0    0  0.19946292242E+01  0.62786532802E+01  0.78122558705E+01  0.10219167018E+02  0.00000000000E+00 0.  1.
</event>
<event>
 8    1  0.2509217E-006  0.9118800E+02  0.7816164E-02  0.1184000E+00
        -11   -1    0    0    0    0  0.00000000000E+00  0.00000000000E+00  0.45593999997E+02  0.45594000000E+02  0.51100000000E-03 0.  1.
         11   -1    0    0    0    0 -0.00000000000E+00 -0.00000000000E+00 -0.45593999997E+02  0.45594000000E+02  0.51100000000E-03 0. -1.
         23    2    1    2    0    0  0.00000000000E+00  0.13322676296E-14  0.88817841970E-15  0.91188000000E+02  0.91188000000E+02 0.  0.
    9900012    2    3    3    0    0  0.36592663143E+02  0.19400349319E+01 -0.36045742143E+01  0.54367086286E+02  0.40000004806E+02 0.  0.
         12    1    3    3    0    0 -0.36592663143E+02 -0.19400349319E+01  0.36045742143E+01  0.36820913714E+02  0.00000000000E+00 0. -1.
         11    1    4    4    0    0 -0.22597035138E+01 -0.15619956985E+01 -0.16251991002E+01  0.31917648580E+01  0.51100000000E-03 0. -1.
        -11    1    4    4    0    0  0.14129667297E+02 -0.11335530912E+02 -0.10716511056E+02  0.21047217594E+02  0.51100000000E-03 0.  1.
        -12    1    4    4    0    0  0.24722699360E+02  0.14837561542E+02  0.87371359416E+01  0.30128103834E+02  0.00000000000E+00 0.  1.
</event>
<event>
 8    1  0.2509217E-006  0.9118800E+02  0.7816164E-02  0.1184000E+00
        -11   -1    0    0    0    0  0.00000000000E+00  0.00000000000E+00  0.45593999997E+02  0.45594000000E+02  0.51100000000E-03 0. -1.
         11   -1    0    0    0    0 -0.00000000000E+00 -0.00000000000E+00 -0.45593999997E+02  0.45594000000E+02  0.51100000000E-03 0.  1.
         23    2    1    2    0    0  0.35527136788E-14  0.00000000000E+00  0.00000000000E+00  0.91188000000E+02  0.91188000000E+02 0.  0.
    9900012    2    3    3    0    0 -0.27765713196E+02  0.15777695420E+02 -0.18327811595E+02  0.54367093168E+02  0.40000020495E+02 0.  0.
         12    1    3    3    0    0  0.27765713196E+02 -0.15777695420E+02  0.18327811595E+02  0.36820906832E+02  0.00000000000E+00 0. -1.
         11    1    4    4    0    0 -0.26831641067E+02  0.51984239896E+01  0.26565589679E+01  0.27459386012E+02  0.51100000000E-03 0. -1.
        -11    1    4    4    0    0  0.55985806589E+01  0.17867723419E+01 -0.78227575039E+01  0.97842831124E+01  0.51100000000E-03 0.  1.
         12    1    4    4    0    0 -0.65326527880E+01  0.87924990880E+01 -0.13161613059E+02  0.17123424044E+02  0.00000000000E+00 0. -1.
</event>
<event>
 8    1  0.2509217E-006  0.9118800E+02  0.7816164E-02  0.1184000E+00
        -11   -1    0    0    0    0  0.00000000000E+00  0.00000000000E+00  0.45593999997E+02  0.45594000000E+02  0.51100000000E-03 0. -1.
         11   -1    0    0    0    0 -0.00000000000E+00 -0.00000000000E+00 -0.45593999997E+02  0.45594000000E+02  0.51100000000E-03 0.  1.
         23    2    1    2    0    0  0.88817841970E-15  0.00000000000E+00 -0.17763568394E-14  0.91188000000E+02  0.91188000000E+02 0.  0.
    9900012    2    3    3    0    0 -0.60112484061E+01 -0.34766536845E+02  0.10532458328E+02  0.54367083797E+02  0.39999999132E+02 0.  0.
         12    1    3    3    0    0  0.60112484061E+01  0.34766536845E+02 -0.10532458328E+02  0.36820916203E+02  0.00000000000E+00 0. -1.
         11    1    4    4    0    0  0.13334654530E+01 -0.11321944866E+02  0.70997276742E+01  0.13430215894E+02  0.51100000000E-03 0. -1.
        -11    1    4    4    0    0  0.59442106038E+00 -0.26344028616E+02  0.11953473509E+02  0.28935215729E+02  0.51100000000E-03 0.  1.
         12    1    4    4    0    0 -0.79391349194E+01  0.28994366369E+01 -0.85207428553E+01  0.12001652173E+02  0.00000000000E+00 0. -1.
</event>
<event>
 8    1  0.2509217E-006  0.9118800E+02  0.7816164E-02  0.1184000E+00
        -11   -1    0    0    0    0  0.00000000000E+00  0.00000000000E+00  0.45593999997E+02  0.45594000000E+02  0.51100000000E-03 0.  1.
         11   -1    0    0    0    0 -0.00000000000E+00 -0.00000000000E+00 -0.45593999997E+02  0.45594000000E+02  0.51100000000E-03 0. -1.
         23    2    1    2    0    0 -0.17763568394E-14 -0.35527136788E-14  0.71054273576E-14  0.91188000000E+02  0.91188000000E+02 0.  0.
    9900012    2    3    3    0    0 -0.62728813154E+01 -0.26168593314E+02  0.25132366592E+02  0.54367079770E+02  0.39999989953E+02 0.  0.
         12    1    3    3    0    0  0.62728813154E+01  0.26168593314E+02 -0.25132366592E+02  0.36820920230E+02  0.00000000000E+00 0. -1.
         11    1    4    4    0    0 -0.10288356823E+02 -0.39410120036E+01  0.20685475357E+02  0.23436526038E+02  0.51100000000E-03 0. -1.
        -11    1    4    4    0    0  0.57559357641E+01  0.61648057967E+00 -0.34003102470E+01  0.67136394647E+01  0.51100000000E-03 0.  1.
        -12    1    4    4    0    0 -0.17404602564E+01 -0.22844061890E+02  0.78472014819E+01  0.24216914268E+02  0.00000000000E+00 0.  1.
</event>
<event>
 8    1  0.2509217E-006  0.9118800E+02  0.7816164E-02  0.1184000E+00
        -11   -1    0    0    0    0  0.00000000000E+00  0.00000000000E+00  0.45593999997E+02  0.45594000000E+02  0.51100000000E-03 0. -1.
         11   -1    0    0    0    0 -0.00000000000E+00 -0.00000000000E+00 -0.45593999997E+02  0.45594000000E+02  0.51100000000E-03 0.  1.
         23    2    1    2    0    0  0.00000000000E+00 -0.17763568394E-14  0.00000000000E+00  0.91188000000E+02  0.91188000000E+02 0.  0.
    9900012    2    3    3    0    0 -0.16800589860E+02 -0.86903123471E+01 -0.31591130127E+02  0.54367070476E+02  0.39999968764E+02 0.  0.
         12    1    3    3    0    0  0.16800589860E+02  0.86903123471E+01  0.31591130127E+02  0.36820929524E+02  0.00000000000E+00 0. -1.
         11    1    4    4    0    0 -0.75379158967E+01 -0.11567391488E+02 -0.13318563430E+02  0.19183556865E+02  0.51100000000E-03 0. -1.
        -11    1    4    4    0    0 -0.15850027048E+02  0.24746490786E+01 -0.22286033585E+02  0.27459325169E+02  0.51100000000E-03 0.  1.
        -12    1    4    4    0    0  0.65873530849E+01  0.40243006287E+00  0.40134668883E+01  0.77241884417E+01  0.00000000000E+00 0.  1.
</event>
<event>
 8    1  0.2509217E-006  0.9118800E+02  0.7816164E-02  0.1184000E+00
        -11   -1    0    0    0    0  0.00000000000E+00  0.00000000000E+00  0.45593999997E+02  0.45594000000E+02  0.51100000000E-03 0. -1.
         11   -1    0    0    0    0 -0.00000000000E+00 -0.00000000000E+00 -0.45593999997E+02  0.45594000000E+02  0.51100000000E-03 0.  1.
         23    2    1    2    0    0 -0.35527136788E-14  0.35527136788E-14  0.00000000000E+00  0.91188000000E+02  0.91188000000E+02 0.  0.
    9900012    2    3    3    0    0  0.14360298069E+02 -0.31929478368E+02  0.11404833660E+02  0.54367082300E+02  0.39999995719E+02 0.  0.
         12    1    3    3    0    0 -0.14360298069E+02  0.31929478368E+02 -0.11404833660E+02  0.36820917700E+02  0.00000000000E+00 0. -1.
         11    1    4    4    0    0  0.52210057947E+01 -0.20276671638E+02  0.32027268686E+01  0.21181590448E+02  0.51100000000E-03 0. -1.
        -11    1    4    4    0    0  0.98267408651E+00 -0.19663933063E+02  0.10848224134E+01  0.19718335422E+02  0.51100000000E-03 0.  1.
         12    1    4    4    0    0  0.81566181875E+01  0.80111263340E+01  0.71172843783E+01  0.13467156430E+02  0.00000000000E+00 0. -1.
</event>
<event>
 8    1  0.2509217E-006  0.9118800E+02  0.7816164E-02  0.1184000E+00
        -11   -1    0    0    0    0  0.00000000000E+00  0.00000000000E+00  0.45593999997E+02  0.45594000000E+02  0.51100000000E-03 0. -1.
         11   -1    0    0    0    0 -0.00000000000E+00 -0.00000000000E+00 -0.45593999997E+02  0.45594000000E+02  0.51100000000E-03 0.  1.
         23    2    1    2    0    0  0.66613381478E-15 -0.35527136788E-14  0.00000000000E+00  0.91188000000E+02  0.91188000000E+02 0.  0.
    9900012    2    3    3    0    0  0.73479956688E+00  0.27203927700E+02  0.24802950354E+02  0.54367082589E+02  0.39999996379E+02 0.  0.
        -12    1    3    3    0    0 -0.73479956688E+00 -0.27203927700E+02 -0.24802950354E+02  0.36820917411E+02  0.00000000000E+00 0.  1.
         11    1    4    4    0    0 -0.84974180331E+01  0.74066614446E+00  0.25640237719E+01  0.89066782659E+01  0.51100000000E-03 0. -1.
        -11    1    4    4    0    0  0.61139151204E+01  0.15644175693E+01 -0.52727841134E+01  0.82237225755E+01  0.51100000000E-03 0.  1.
         12    1    4    4    0    0  0.31183024796E+01  0.24898843986E+02  0.27511710695E+02  0.37236681748E+02  0.00000000000E+00 0. -1.
</event>
<event>
 8    1  0.2509217E-006  0.9118800E+02  0.7816164E-02  0.1184000E+00
        -11   -1    0    0    0    0  0.00000000000E+00  0.00000000000E+00  0.45593999997E+02  0.45594000000E+02  0.51100000000E-03 0. -1.
         11   -1    0    0    0    0 -0.00000000000E+00 -0.00000000000E+00 -0.45593999997E+02  0.45594000000E+02  0.51100000000E-03 0.  1.
         23    2    1    2    0    0 -0.35527136788E-14 -0.35527136788E-14  0.00000000000E+00  0.91188000000E+02  0.91188000000E+02 0.  0.
    9900012    2    3    3    0    0  0.22614899109E+02 -0.18940284042E+02 -0.22036597148E+02  0.54367086986E+02  0.40000006402E+02 0.  0.
         12    1    3    3    0    0 -0.22614899109E+02  0.18940284042E+02  0.22036597148E+02  0.36820913014E+02  0.00000000000E+00 0. -1.
         11    1    4    4    0    0  0.45840944316E+01 -0.52241551460E+01  0.16941618988E+01  0.71537335390E+01  0.51100000000E-03 0. -1.
        -11    1    4    4    0    0  0.21433765271E+02 -0.12912238765E+01 -0.26427912753E+02  0.34051551000E+02  0.51100000000E-03 0.  1.
        -12    1    4    4    0    0 -0.34029605935E+01 -0.12424905019E+02  0.26971537058E+01  0.13161802447E+02  0.00000000000E+00 0.  1.
</event>
<event>
 8    1  0.2509217E-006  0.9118800E+02  0.7816164E-02  0.1184000E+00
        -11   -1    0    0    0    0  0.00000000000E+00  0.00000000000E+00  0.45593999997E+02  0.45594000000E+02  0.51100000000E-03 0.  1.
         11   -1    0    0    0    0 -0.00000000000E+00 -0.00000000000E+00 -0.45593999997E+02  0.45594000000E+02  0.51100000000E-03 0. -1.
         23    2    1    2    0    0  0.35527136788E-14  0.35527136788E-14  0.00000000000E+00  0.91188000000E+02  0.91188000000E+02 0.  0.
    9900012    2    3    3    0    0  0.25004574945E+02  0.20783929973E+02  0.17279454373E+02  0.54367081261E+02  0.39999993351E+02 0.  0.
        -12    1    3    3    0    0 -0.25004574945E+02 -0.20783929973E+02 -0.17279454373E+02  0.36820918739E+02  0.00000000000E+00 0.  1.
         11    1    4    4    0    0 -0.13968708177E+01  0.76782872998E+01  0.13608874301E+02  0.15687855301E+02  0.51100000000E-03 0.  1.
        -11    1    4    4    0    0  0.71551781082E+01  0.14463973183E+02 -0.58491446636E+01  0.17164369710E+02  0.51100000000E-03 0. -1.
         12    1    4    4    0    0  0.19246267655E+02 -0.13583305095E+01  0.95197247363E+01  0.21514856250E+02  0.00000000000E+00 0. -1.
</event>
<event>
 8    1  0.2509217E-006  0.9118800E+02  0.7816164E-02  0.1184000E+00
        -11   -1    0    0    0    0  0.00000000000E+00  0.00000000000E+00  0.45593999997E+02  0.45594000000E+02  0.51100000000E-03 0.  1.
         11   -1    0    0    0    0 -0.00000000000E+00 -0.00000000000E+00 -0.45593999997E+02  0.45594000000E+02  0.51100000000E-03 0. -1.
         23    2    1    2    0    0 -0.35527136788E-14  0.00000000000E+00 -0.17763568394E-14  0.91188000000E+02  0.91188000000E+02 0.  0.
    9900012    2    3    3    0    0 -0.20246854582E+02 -0.29017137396E+02  0.10190771034E+02  0.54367065773E+02  0.39999958042E+02 0.  0.
        -12    1    3    3    0    0  0.20246854582E+02  0.29017137396E+02 -0.10190771034E+02  0.36820934227E+02  0.00000000000E+00 0.  1.
         11    1    4    4    0    0  0.39117345539E+01 -0.38691618483E+01  0.55829888570E+01  0.78384848961E+01  0.51100000000E-03 0. -1.
        -11    1    4    4    0    0  0.65501703821E+01  0.72698853257E-01  0.29503362926E+00  0.65572145200E+01  0.51100000000E-03 0.  1.
         12    1    4    4    0    0 -0.30708759518E+02 -0.25220674401E+02  0.43127485480E+01  0.39971366356E+02  0.00000000000E+00 0. -1.
</event>
<event>
 8    1  0.2509217E-006  0.9118800E+02  0.7816164E-02  0.1184000E+00
        -11   -1    0    0    0    0  0.00000000000E+00  0.00000000000E+00  0.45593999997E+02  0.45594000000E+02  0.51100000000E-03 0.  1.
         11   -1    0    0    0    0 -0.00000000000E+00 -0.00000000000E+00 -0.45593999997E+02  0.45594000000E+02  0.51100000000E-03 0. -1.
         23    2    1    2    0    0 -0.17763568394E-14  0.00000000000E+00 -0.71054273576E-14  0.91188000000E+02  0.91188000000E+02 0.  0.
    9900012    2    3    3    0    0  0.68746382201E+01 -0.19699149636E+02  0.30339185437E+02  0.54367036949E+02  0.39999892332E+02 0.  0.
         12    1    3    3    0    0 -0.68746382201E+01  0.19699149636E+02 -0.30339185437E+02  0.36820963051E+02  0.00000000000E+00 0. -1.
         11    1    4    4    0    0 -0.97722365074E+01  0.22757800227E+01  0.37132737380E+01  0.10698793539E+02  0.51100000000E-03 0. -1.
        -11    1    4    4    0    0  0.28936744218E+01 -0.18339928197E+02  0.79641014705E+01  0.20202802539E+02  0.51100000000E-03 0.  1.
         12    1    4    4    0    0  0.13753200306E+02 -0.36350014617E+01  0.18661810229E+02  0.23465440871E+02  0.00000000000E+00 0. -1.
</event>
<event>
 8    1  0.2509217E-006  0.9118800E+02  0.7816164E-02  0.1184000E+00
        -11   -1    0    0    0    0  0.00000000000E+00  0.00000000000E+00  0.45593999997E+02  0.45594000000E+02  0.51100000000E-03 0.  1.
         11   -1    0    0    0    0 -0.00000000000E+00 -0.00000000000E+00 -0.45593999997E+02  0.45594000000E+02  0.51100000000E-03 0. -1.
         23    2    1    2    0    0 -0.17763568394E-14  0.71054273576E-14  0.00000000000E+00  0.91188000000E+02  0.91188000000E+02 0.  0.
    9900012    2    3    3    0    0 -0.96234932345E+01  0.32409369560E+02  0.14587719370E+02  0.54367076414E+02  0.39999982302E+02 0.  0.
        -12    1    3    3    0    0  0.96234932345E+01 -0.32409369560E+02 -0.14587719370E+02  0.36820923586E+02  0.00000000000E+00 0.  1.
         11    1    4    4    0    0 -0.14440763878E+02  0.15173000680E+01 -0.31912162417E+01  0.14866799327E+02  0.51100000000E-03 0. -1.
        -11    1    4    4    0    0  0.23044974302E+01 -0.14299120769E+01  0.48024675511E+00  0.27542683530E+01  0.51100000000E-03 0.  1.
        -12    1    4    4    0    0  0.25127732131E+01  0.32321981569E+02  0.17298688856E+02  0.36746008734E+02  0.00000000000E+00 0.  1.
</event>
<event>
 8    1  0.2509217E-006  0.9118800E+02  0.7816164E-02  0.1184000E+00
        -11   -1    0    0    0    0  0.00000000000E+00  0.00000000000E+00  0.45593999997E+02  0.45594000000E+02  0.51100000000E-03 0. -1.
         11   -1    0    0    0    0 -0.00000000000E+00 -0.00000000000E+00 -0.45593999997E+02  0.45594000000E+02  0.51100000000E-03 0.  1.
         23    2    1    2    0    0 -0.22204460493E-14  0.35527136788E-14  0.00000000000E+00  0.91188000000E+02  0.91188000000E+02 0.  0.
    9900012    2    3    3    0    0  0.33935424213E+01  0.29114303988E+02 -0.22284928884E+02  0.54367124369E+02  0.40000091624E+02 0.  0.
         12    1    3    3    0    0 -0.33935424213E+01 -0.29114303988E+02  0.22284928884E+02  0.36820875631E+02  0.00000000000E+00 0. -1.
         11    1    4    4    0    0 -0.95455011892E+01  0.23552573979E+01 -0.17429830557E+02  0.20011567252E+02  0.51100000000E-03 0. -1.
        -11    1    4    4    0    0  0.92738083535E+01  0.14156135854E+02  0.53292954100E+01  0.17742634909E+02  0.51100000000E-03 0.  1.
         12    1    4    4    0    0  0.36652352570E+01  0.12602910736E+02 -0.10184393737E+02  0.16612922208E+02  0.00000000000E+00 0. -1.
</event>
<event>
 8    1  0.2509217E-006  0.9118800E+02  0.7816164E-02  0.1184000E+00
        -11   -1    0    0    0    0  0.00000000000E+00  0.00000000000E+00  0.45593999997E+02  0.45594000000E+02  0.51100000000E-03 0.  1.
         11   -1    0    0    0    0 -0.00000000000E+00 -0.00000000000E+00 -0.45593999997E+02  0.45594000000E+02  0.51100000000E-03 0. -1.
         23    2    1    2    0    0  0.00000000000E+00  0.00000000000E+00  0.35527136788E-14  0.91188000000E+02  0.91188000000E+02 0.  0.
    9900012    2    3    3    0    0 -0.18101280966E+02  0.56034812400E+01 -0.31570943624E+02  0.54367083988E+02  0.39999999568E+02 0.  0.
        -12    1    3    3    0    0  0.18101280966E+02 -0.56034812400E+01  0.31570943624E+02  0.36820916012E+02  0.00000000000E+00 0.  1.
         11    1    4    4    0    0 -0.75513038050E+01 -0.66881701543E+01 -0.32346755404E+02  0.33883128465E+02  0.51100000000E-03 0. -1.
        -11    1    4    4    0    0 -0.89659030532E+01  0.91345489606E+01  0.60332190653E+01  0.14150163774E+02  0.51100000000E-03 0.  1.
         12    1    4    4    0    0 -0.15840741081E+01  0.31571024336E+01 -0.52574072855E+01  0.63337917492E+01  0.00000000000E+00 0. -1.
</event>
<event>
 8    1  0.2509217E-006  0.9118800E+02  0.7816164E-02  0.1184000E+00
        -11   -1    0    0    0    0  0.00000000000E+00  0.00000000000E+00  0.45593999997E+02  0.45594000000E+02  0.51100000000E-03 0. -1.
         11   -1    0    0    0    0 -0.00000000000E+00 -0.00000000000E+00 -0.45593999997E+02  0.45594000000E+02  0.51100000000E-03 0.  1.
         23    2    1    2    0    0  0.35527136788E-14  0.17763568394E-14  0.00000000000E+00  0.91188000000E+02  0.91188000000E+02 0.  0.
    9900012    2    3    3    0    0  0.28764562490E+02  0.15945039009E+02 -0.16557087538E+02  0.54367062043E+02  0.39999949541E+02 0.  0.
         12    1    3    3    0    0 -0.28764562490E+02 -0.15945039009E+02  0.16557087538E+02  0.36820937957E+02  0.00000000000E+00 0. -1.
         11    1    4    4    0    0  0.69239189755E+01  0.34547745829E+01  0.10891176358E+02  0.13360158836E+02  0.51100000000E-03 0. -1.
        -11    1    4    4    0    0  0.12722126296E+02  0.65227604650E+01 -0.35346662622E+01  0.14727279702E+02  0.51100000000E-03 0.  1.
         12    1    4    4    0    0  0.91185172184E+01  0.59675039612E+01 -0.23913597634E+02  0.26279623506E+02  0.00000000000E+00 0. -1.
</event>
<event>
 8    1  0.2509217E-006  0.9118800E+02  0.7816164E-02  0.1184000E+00
        -11   -1    0    0    0    0  0.00000000000E+00  0.00000000000E+00  0.45593999997E+02  0.45594000000E+02  0.51100000000E-03 0.  1.
         11   -1    0    0    0    0 -0.00000000000E+00 -0.00000000000E+00 -0.45593999997E+02  0.45594000000E+02  0.51100000000E-03 0. -1.
         23    2    1    2    0    0 -0.35527136788E-14  0.00000000000E+00  0.00000000000E+00  0.91188000000E+02  0.91188000000E+02 0.  0.
    9900012    2    3    3    0    0  0.23632513346E+02 -0.15025328920E+02  0.23906537064E+02  0.54367099541E+02  0.40000035024E+02 0.  0.
         12    1    3    3    0    0 -0.23632513346E+02  0.15025328920E+02 -0.23906537064E+02  0.36820900459E+02  0.00000000000E+00 0. -1.
         11    1    4    4    0    0  0.11076901202E+02  0.35216247204E+01 -0.83449718611E+01  0.14308673472E+02  0.51100000000E-03 0. -1.
        -11    1    4    4    0    0  0.52724776688E+01 -0.12423408654E+02  0.13825656115E+02  0.19320685046E+02  0.51100000000E-03 0.  1.
        -12    1    4    4    0    0  0.72831344757E+01 -0.61235449868E+01  0.18425852809E+02  0.20737741023E+02  0.00000000000E+00 0.  1.
</event>
<event>
 8    1  0.2509217E-006  0.9118800E+02  0.7816164E-02  0.1184000E+00
        -11   -1    0    0    0    0  0.00000000000E+00  0.00000000000E+00  0.45593999997E+02  0.45594000000E+02  0.51100000000E-03 0. -1.
         11   -1    0    0    0    0 -0.00000000000E+00 -0.00000000000E+00 -0.45593999997E+02  0.45594000000E+02  0.51100000000E-03 0.  1.
         23    2    1    2    0    0  0.00000000000E+00  0.17763568394E-14  0.13322676296E-14  0.91188000000E+02  0.91188000000E+02 0.  0.
    9900012    2    3    3    0    0 -0.33642641951E+02 -0.14808791038E+02  0.21568434743E+01  0.54367087148E+02  0.40000006772E+02 0.  0.
        -12    1    3    3    0    0  0.33642641951E+02  0.14808791038E+02 -0.21568434743E+01  0.36820912852E+02  0.00000000000E+00 0.  1.
         11    1    4    4    0    0 -0.41839935374E+01 -0.93871310508E+01  0.87799319169E+00  0.10314790526E+02  0.51100000000E-03 0. -1.
        -11    1    4    4    0    0 -0.15185364130E+02 -0.82773111792E+01  0.15847857429E+02  0.23457701283E+02  0.51100000000E-03 0.  1.
        -12    1    4    4    0    0 -0.14273284284E+02  0.28556511923E+01 -0.14569007146E+02  0.20594595340E+02  0.00000000000E+00 0.  1.
</event>
<event>
 8    1  0.2509217E-006  0.9118800E+02  0.7816164E-02  0.1184000E+00
        -11   -1    0    0    0    0  0.00000000000E+00  0.00000000000E+00  0.45593999997E+02  0.45594000000E+02  0.51100000000E-03 0.  1.
         11   -1    0    0    0    0 -0.00000000000E+00 -0.00000000000E+00 -0.45593999997E+02  0.45594000000E+02  0.51100000000E-03 0. -1.
         23    2    1    2    0    0 -0.17763568394E-14  0.17763568394E-14 -0.35527136788E-14  0.91188000000E+02  0.91188000000E+02 0.  0.
    9900012    2    3    3    0    0  0.15864647718E+02 -0.14903562224E+02  0.29698092342E+02  0.54367083350E+02  0.39999998113E+02 0.  0.
         12    1    3    3    0    0 -0.15864647718E+02  0.14903562224E+02 -0.29698092342E+02  0.36820916650E+02  0.00000000000E+00 0. -1.
         11    1    4    4    0    0 -0.51287068158E+01  0.10506697727E+01  0.52607734459E+01  0.74218109707E+01  0.51100000000E-03 0. -1.
        -11    1    4    4    0    0  0.20621874239E+01  0.73439695574E+01  0.12490400714E+02  0.14635457495E+02  0.51100000000E-03 0.  1.
         12    1    4    4    0    0  0.18931167110E+02 -0.23298201554E+02  0.11946918182E+02  0.32309814884E+02  0.00000000000E+00 0. -1.
</event>
<event>
 8    1  0.2509217E-006  0.9118800E+02  0.7816164E-02  0.1184000E+00
        -11   -1    0    0    0    0  0.00000000000E+00  0.00000000000E+00  0.45593999997E+02  0.45594000000E+02  0.51100000000E-03 0. -1.
         11   -1    0    0    0    0 -0.00000000000E+00 -0.00000000000E+00 -0.45593999997E+02  0.45594000000E+02  0.51100000000E-03 0.  1.
         23    2    1    2    0    0  0.00000000000E+00  0.11102230246E-14  0.00000000000E+00  0.91188000000E+02  0.91188000000E+02 0.  0.
    9900012    2    3    3    0    0  0.20028981767E+02  0.16248950409E+01  0.30854163088E+02  0.54367085096E+02  0.40000002093E+02 0.  0.
        -12    1    3    3    0    0 -0.20028981767E+02 -0.16248950409E+01 -0.30854163088E+02  0.36820914904E+02  0.00000000000E+00 0.  1.
         11    1    4    4    0    0  0.68485848658E+01 -0.75898250185E+01  0.68045240474E+01  0.12280476630E+02  0.51100000000E-03 0. -1.
        -11    1    4    4    0    0 -0.57314796539E+01 -0.56074078412E+01  0.13806949574E+02  0.15966362720E+02  0.51100000000E-03 0.  1.
        -12    1    4    4    0    0  0.18911876555E+02  0.14822127901E+02  0.10242689467E+02  0.26120245746E+02  0.00000000000E+00 0.  1.
</event>
<event>
 8    1  0.2509217E-006  0.9118800E+02  0.7816164E-02  0.1184000E+00
        -11   -1    0    0    0    0  0.00000000000E+00  0.00000000000E+00  0.45593999997E+02  0.45594000000E+02  0.51100000000E-03 0.  1.
         11   -1    0    0    0    0 -0.00000000000E+00 -0.00000000000E+00 -0.45593999997E+02  0.45594000000E+02  0.51100000000E-03 0. -1.
         23    2    1    2    0    0  0.00000000000E+00  0.00000000000E+00  0.00000000000E+00  0.91188000000E+02  0.91188000000E+02 0.  0.
    9900012    2    3    3    0    0 -0.23839923566E+02 -0.12626101171E+02 -0.25060327469E+02  0.54367076610E+02  0.39999982748E+02 0.  0.
        -12    1    3    3    0    0  0.23839923566E+02  0.12626101171E+02  0.25060327469E+02  0.36820923390E+02  0.00000000000E+00 0.  1.
         11    1    4    4    0    0  0.12512392967E+01 -0.47552827759E+01  0.52491186184E+01  0.71924655430E+01  0.51100000000E-03 0.  1.
        -11    1    4    4    0    0  0.85905450498E+00 -0.73933829882E+01 -0.15738132071E+02  0.17409448239E+02  0.51100000000E-03 0. -1.
        -12    1    4    4    0    0 -0.25950217368E+02 -0.47743540727E+00 -0.14571314016E+02  0.29765162828E+02  0.00000000000E+00 0.  1.
</event>
<event>
 8    1  0.2509217E-006  0.9118800E+02  0.7816164E-02  0.1184000E+00
        -11   -1    0    0    0    0  0.00000000000E+00  0.00000000000E+00  0.45593999997E+02  0.45594000000E+02  0.51100000000E-03 0. -1.
         11   -1    0    0    0    0 -0.00000000000E+00 -0.00000000000E+00 -0.45593999997E+02  0.45594000000E+02  0.51100000000E-03 0.  1.
         23    2    1    2    0    0 -0.71054273576E-14  0.44408920985E-15  0.17763568394E-14  0.91188000000E+02  0.91188000000E+02 0.  0.
    9900012    2    3    3    0    0 -0.33207026811E+02 -0.29693082326E+01  0.15628718491E+02  0.54367078465E+02  0.39999986976E+02 0.  0.
        -12    1    3    3    0    0  0.33207026811E+02  0.29693082326E+01 -0.15628718491E+02  0.36820921535E+02  0.00000000000E+00 0.  1.
         11    1    4    4    0    0 -0.12521907927E+02 -0.86371573252E+00  0.13212540625E+02  0.18224033939E+02  0.51100000000E-03 0. -1.
        -11    1    4    4    0    0  0.12692869011E+01 -0.10616797667E+02  0.61001369261E+01  0.12310123993E+02  0.51100000000E-03 0.  1.
        -12    1    4    4    0    0 -0.21954405785E+02  0.85112051667E+01 -0.36839590596E+01  0.23832920533E+02  0.00000000000E+00 0.  1.
</event>
<event>
 8    1  0.2509217E-006  0.9118800E+02  0.7816164E-02  0.1184000E+00
        -11   -1    0    0    0    0  0.00000000000E+00  0.00000000000E+00  0.45593999997E+02  0.45594000000E+02  0.51100000000E-03 0. -1.
         11   -1    0    0    0    0 -0.00000000000E+00 -0.00000000000E+00 -0.45593999997E+02  0.45594000000E+02  0.51100000000E-03 0.  1.
         23    2    1    2    0    0  0.00000000000E+00  0.00000000000E+00  0.00000000000E+00  0.91188000000E+02  0.91188000000E+02 0.  0.
    9900012    2    3    3    0    0  0.26938248442E+02  0.14491841539E+02 -0.20496286944E+02  0.54367075531E+02  0.39999980287E+02 0.  0.
         12    1    3    3    0    0 -0.26938248442E+02 -0.14491841539E+02  0.20496286944E+02  0.36820924469E+02  0.00000000000E+00 0. -1.
         11    1    4    4    0    0  0.51952253598E+01  0.84230869220E+01  0.11213348883E+02  0.14955866851E+02  0.51100000000E-03 0. -1.
        -11    1    4    4    0    0  0.52826572770E+01  0.39893405991E+01 -0.11439853726E+02  0.13217093473E+02  0.51100000000E-03 0.  1.
         12    1    4    4    0    0  0.16460365805E+02  0.20794140179E+01 -0.20269782100E+02  0.26194115207E+02  0.00000000000E+00 0. -1.
</event>
<event>
 8    1  0.2509217E-006  0.9118800E+02  0.7816164E-02  0.1184000E+00
        -11   -1    0    0    0    0  0.00000000000E+00  0.00000000000E+00  0.45593999997E+02  0.45594000000E+02  0.51100000000E-03 0. -1.
         11   -1    0    0    0    0 -0.00000000000E+00 -0.00000000000E+00 -0.45593999997E+02  0.45594000000E+02  0.51100000000E-03 0.  1.
         23    2    1    2    0    0  0.38857805862E-15  0.00000000000E+00  0.66613381478E-15  0.91188000000E+02  0.91188000000E+02 0.  0.
    9900012    2    3    3    0    0 -0.39545809715E+00 -0.36764601082E+02 -0.19974945516E+01  0.54367051284E+02  0.39999925013E+02 0.  0.
        -12    1    3    3    0    0  0.39545809715E+00  0.36764601082E+02  0.19974945516E+01  0.36820948716E+02  0.00000000000E+00 0.  1.
         11    1    4    4    0    0 -0.59447897464E+01 -0.29154016954E+02 -0.13426263252E+02  0.32642943722E+02  0.51100000000E-03 0. -1.
        -11    1    4    4    0    0 -0.55672275524E+01 -0.17456689751E+01  0.27502441191E+01  0.64502112963E+01  0.51100000000E-03 0.  1.
         12    1    4    4    0    0  0.11116559202E+02 -0.58649151530E+01  0.86785245813E+01  0.15273896266E+02  0.00000000000E+00 0. -1.
</event>
<event>
 8    1  0.2509217E-006  0.9118800E+02  0.7816164E-02  0.1184000E+00
        -11   -1    0    0    0    0  0.00000000000E+00  0.00000000000E+00  0.45593999997E+02  0.45594000000E+02  0.51100000000E-03 0.  1.
         11   -1    0    0    0    0 -0.00000000000E+00 -0.00000000000E+00 -0.45593999997E+02  0.45594000000E+02  0.51100000000E-03 0. -1.
         23    2    1    2    0    0 -0.22204460493E-15  0.00000000000E+00  0.00000000000E+00  0.91188000000E+02  0.91188000000E+02 0.  0.
    9900012    2    3    3    0    0  0.98887005763E+00 -0.27581143686E+02 -0.24373531397E+02  0.54367266930E+02  0.40000416619E+02 0.  0.
        -12    1    3    3    0    0 -0.98887005763E+00  0.27581143686E+02  0.24373531397E+02  0.36820733070E+02  0.00000000000E+00 0.  1.
         11    1    4    4    0    0 -0.31305906078E+01 -0.21339531558E+02 -0.14151008346E+02  0.25795876456E+02  0.51100000000E-03 0. -1.
        -11    1    4    4    0    0  0.75341393609E+01 -0.75539401824E+01  0.57952060550E+01  0.12141238885E+02  0.51100000000E-03 0.  1.
         12    1    4    4    0    0 -0.34146786955E+01  0.13123280543E+01 -0.16017729106E+02  0.16430151589E+02  0.00000000000E+00 0. -1.
</event>
<event>
 8    1  0.2509217E-006  0.9118800E+02  0.7816164E-02  0.1184000E+00
        -11   -1    0    0    0    0  0.00000000000E+00  0.00000000000E+00  0.45593999997E+02  0.45594000000E+02  0.51100000000E-03 0.  1.
         11   -1    0    0    0    0 -0.00000000000E+00 -0.00000000000E+00 -0.45593999997E+02  0.45594000000E+02  0.51100000000E-03 0. -1.
         23    2    1    2    0    0  0.00000000000E+00  0.00000000000E+00 -0.35527136788E-14  0.91188000000E+02  0.91188000000E+02 0.  0.
    9900012    2    3    3    0    0  0.97755862797E+01  0.21099631676E+02  0.28548579410E+02  0.54367110137E+02  0.40000059178E+02 0.  0.
         12    1    3    3    0    0 -0.97755862797E+01 -0.21099631676E+02 -0.28548579410E+02  0.36820889863E+02  0.00000000000E+00 0. -1.
         11    1    4    4    0    0  0.58770372633E+01 -0.37353011935E+01 -0.75282691164E+00  0.70041980712E+01  0.51100000000E-03 0. -1.
        -11    1    4    4    0    0  0.56751514788E+01 -0.55401372568E+00 -0.28357817527E+01  0.63683540987E+01  0.51100000000E-03 0.  1.
        -12    1    4    4    0    0 -0.17766024624E+01  0.25388946596E+02  0.32137188075E+02  0.40994557967E+02  0.00000000000E+00 0.  1.
</event>
<event>
 8    1  0.2509217E-006  0.9118800E+02  0.7816164E-02  0.1184000E+00
        -11   -1    0    0    0    0  0.00000000000E+00  0.00000000000E+00  0.45593999997E+02  0.45594000000E+02  0.51100000000E-03 0. -1.
         11   -1    0    0    0    0 -0.00000000000E+00 -0.00000000000E+00 -0.45593999997E+02  0.45594000000E+02  0.51100000000E-03 0.  1.
         23    2    1    2    0    0  0.00000000000E+00 -0.17763568394E-14  0.00000000000E+00  0.91188000000E+02  0.91188000000E+02 0.  0.
    9900012    2    3    3    0    0 -0.10413338137E+02 -0.14367274423E+02 -0.32263344982E+02  0.54367087261E+02  0.40000007029E+02 0.  0.
         12    1    3    3    0    0  0.10413338137E+02  0.14367274423E+02  0.32263344982E+02  0.36820912739E+02  0.00000000000E+00 0. -1.
         11    1    4    4    0    0 -0.42574308255E+01 -0.21067888612E+02 -0.59608646829E+01  0.22305011900E+02  0.51100000000E-03 0. -1.
        -11    1    4    4    0    0  0.17891916736E+01  0.95831015053E+01 -0.12144565504E+02  0.15573294862E+02  0.51100000000E-03 0.  1.
        -12    1    4    4    0    0 -0.79450989855E+01 -0.28824873156E+01 -0.14157914795E+02  0.16488780500E+02  0.00000000000E+00 0.  1.
</event>
<event>
 8    1  0.2509217E-006  0.9118800E+02  0.7816164E-02  0.1184000E+00
        -11   -1    0    0    0    0  0.00000000000E+00  0.00000000000E+00  0.45593999997E+02  0.45594000000E+02  0.51100000000E-03 0. -1.
         11   -1    0    0    0    0 -0.00000000000E+00 -0.00000000000E+00 -0.45593999997E+02  0.45594000000E+02  0.51100000000E-03 0.  1.
         23    2    1    2    0    0 -0.44408920985E-15 -0.71054273576E-14  0.35527136788E-14  0.91188000000E+02  0.91188000000E+02 0.  0.
    9900012    2    3    3    0    0 -0.25027709212E+01 -0.31899025867E+02  0.18219989339E+02  0.54367085765E+02  0.40000003619E+02 0.  0.
        -12    1    3    3    0    0  0.25027709212E+01  0.31899025867E+02 -0.18219989339E+02  0.36820914235E+02  0.00000000000E+00 0.  1.
         11    1    4    4    0    0 -0.52249416020E+01 -0.14591424718E+02  0.21524103661E+01  0.15647445820E+02  0.51100000000E-03 0. -1.
        -11    1    4    4    0    0  0.86423420730E+01  0.17608156751E+01 -0.46299931491E+01  0.99612943521E+01  0.51100000000E-03 0.  1.
        -12    1    4    4    0    0 -0.59201713921E+01 -0.19068416824E+02  0.20697572122E+02  0.28758345593E+02  0.00000000000E+00 0.  1.
</event>
<event>
 8    1  0.2509217E-006  0.9118800E+02  0.7816164E-02  0.1184000E+00
        -11   -1    0    0    0    0  0.00000000000E+00  0.00000000000E+00  0.45593999997E+02  0.45594000000E+02  0.51100000000E-03 0. -1.
         11   -1    0    0    0    0 -0.00000000000E+00 -0.00000000000E+00 -0.45593999997E+02  0.45594000000E+02  0.51100000000E-03 0.  1.
         23    2    1    2    0    0  0.00000000000E+00  0.00000000000E+00 -0.17763568394E-14  0.91188000000E+02  0.91188000000E+02 0.  0.
    9900012    2    3    3    0    0  0.56039864954E+00 -0.36374806612E+02 -0.56867440158E+01  0.54367086647E+02  0.40000005628E+02 0.  0.
         12    1    3    3    0    0 -0.56039864954E+00  0.36374806612E+02  0.56867440158E+01  0.36820913353E+02  0.00000000000E+00 0. -1.
         11    1    4    4    0    0  0.12010664866E+01 -0.54483545874E+01  0.79374163333E+01  0.97020465225E+01  0.51100000000E-03 0. -1.
        -11    1    4    4    0    0  0.47600470201E+01 -0.14975107743E+02  0.76952087114E+01  0.17496517851E+02  0.51100000000E-03 0.  1.
        -12    1    4    4    0    0 -0.54007148571E+01 -0.15951344281E+02 -0.21319369061E+02  0.27168522273E+02  0.00000000000E+00 0.  1.
</event>
<event>
 8    1  0.2509217E-006  0.9118800E+02  0.7816164E-02  0.1184000E+00
        -11   -1    0    0    0    0  0.00000000000E+00  0.00000000000E+00  0.45593999997E+02  0.45594000000E+02  0.51100000000E-03 0. -1.
         11   -1    0    0    0    0 -0.00000000000E+00 -0.00000000000E+00 -0.45593999997E+02  0.45594000000E+02  0.51100000000E-03 0.  1.
         23    2    1    2    0    0  0.35527136788E-14  0.00000000000E+00  0.00000000000E+00  0.91188000000E+02  0.91188000000E+02 0.  0.
    9900012    2    3    3    0    0 -0.20202562992E+02 -0.14221818406E+02 -0.27301558656E+02  0.54367098663E+02  0.40000033022E+02 0.  0.
         12    1    3    3    0    0  0.20202562992E+02  0.14221818406E+02  0.27301558656E+02  0.36820901337E+02  0.00000000000E+00 0. -1.
         11    1    4    4    0    0  0.14027767953E+01  0.31405100913E+01 -0.14109452228E+02  0.14522645380E+02  0.51100000000E-03 0. -1.
        -11    1    4    4    0    0 -0.41315473108E+01 -0.17752848862E+01 -0.15665939516E+02  0.16298557629E+02  0.51100000000E-03 0.  1.
         12    1    4    4    0    0 -0.17473792476E+02 -0.15587043611E+02  0.24738330880E+01  0.23545895655E+02  0.00000000000E+00 0. -1.
</event>
<event>
 8    1  0.2509217E-006  0.9118800E+02  0.7816164E-02  0.1184000E+00
        -11   -1    0    0    0    0  0.00000000000E+00  0.00000000000E+00  0.45593999997E+02  0.45594000000E+02  0.51100000000E-03 0. -1.
         11   -1    0    0    0    0 -0.00000000000E+00 -0.00000000000E+00 -0.45593999997E+02  0.45594000000E+02  0.51100000000E-03 0.  1.
         23    2    1    2    0    0  0.17763568394E-14 -0.17763568394E-14  0.00000000000E+00  0.91188000000E+02  0.91188000000E+02 0.  0.
    9900012    2    3    3    0    0 -0.95941675350E+01  0.11869617487E+02  0.33508850238E+02  0.54367096776E+02  0.40000028720E+02 0.  0.
        -12    1    3    3    0    0  0.95941675350E+01 -0.11869617487E+02 -0.33508850238E+02  0.36820903224E+02  0.00000000000E+00 0.  1.
         11    1    4    4    0    0  0.76794331350E+01 -0.78204840114E+01  0.16613535646E+02  0.19903347215E+02  0.51100000000E-03 0. -1.
        -11    1    4    4    0    0 -0.40101523506E+00 -0.92413815956E-01 -0.21785842675E+01  0.22171114550E+01  0.51100000000E-03 0.  1.
        -12    1    4    4    0    0 -0.16872585435E+02  0.19782515314E+02  0.19073898860E+02  0.32246638106E+02  0.00000000000E+00 0.  1.
</event>
<event>
 8    1  0.2509217E-006  0.9118800E+02  0.7816164E-02  0.1184000E+00
        -11   -1    0    0    0    0  0.00000000000E+00  0.00000000000E+00  0.45593999997E+02  0.45594000000E+02  0.51100000000E-03 0. -1.
         11   -1    0    0    0    0 -0.00000000000E+00 -0.00000000000E+00 -0.45593999997E+02  0.45594000000E+02  0.51100000000E-03 0.  1.
         23    2    1    2    0    0  0.00000000000E+00  0.35527136788E-14  0.00000000000E+00  0.91188000000E+02  0.91188000000E+02 0.  0.
    9900012    2    3    3    0    0  0.23204268975E+02  0.23136543114E+02 -0.16794102893E+02  0.54367087221E+02  0.40000006937E+02 0.  0.
         12    1    3    3    0    0 -0.23204268975E+02 -0.23136543114E+02  0.16794102893E+02  0.36820912779E+02  0.00000000000E+00 0. -1.
         11    1    4    4    0    0 -0.86813004529E+00 -0.14983650558E+01  0.11475980183E+01  0.20774332934E+01  0.51100000000E-03 0. -1.
        -11    1    4    4    0    0 -0.41272559828E+01 -0.40189532898E+01 -0.96530216701E+01  0.11241310205E+02  0.51100000000E-03 0.  1.
        -12    1    4    4    0    0  0.28199655003E+02  0.28653861459E+02 -0.82886792410E+01  0.41048343723E+02  0.00000000000E+00 0.  1.
</event>
<event>
 8    1  0.2509217E-006  0.9118800E+02  0.7816164E-02  0.1184000E+00
        -11   -1    0    0    0    0  0.00000000000E+00  0.00000000000E+00  0.45593999997E+02  0.45594000000E+02  0.51100000000E-03 0. -1.
         11   -1    0    0    0    0 -0.00000000000E+00 -0.00000000000E+00 -0.45593999997E+02  0.45594000000E+02  0.51100000000E-03 0.  1.
         23    2    1    2    0    0  0.00000000000E+00  0.00000000000E+00  0.88817841970E-15  0.91188000000E+02  0.91188000000E+02 0.  0.
    9900012    2    3    3    0    0  0.34113634167E+02  0.12982237215E+02  0.48478256875E+01  0.54367082941E+02  0.39999997180E+02 0.  0.
        -12    1    3    3    0    0 -0.34113634167E+02 -0.12982237215E+02 -0.48478256875E+01  0.36820917059E+02  0.00000000000E+00 0.  1.
         11    1    4    4    0    0  0.13444671134E+02 -0.78823508700E+01 -0.53544771813E+01  0.16479109906E+02  0.51100000000E-03 0.  1.
        -11    1    4    4    0    0  0.74916550963E+01 -0.38833044671E+01  0.19398730751E+01  0.86584096388E+01  0.51100000000E-03 0. -1.
         12    1    4    4    0    0  0.13177307936E+02  0.24747892553E+02  0.82624297937E+01  0.29229563396E+02  0.00000000000E+00 0. -1.
</event>
<event>
 8    1  0.2509217E-006  0.9118800E+02  0.7816164E-02  0.1184000E+00
        -11   -1    0    0    0    0  0.00000000000E+00  0.00000000000E+00  0.45593999997E+02  0.45594000000E+02  0.51100000000E-03 0. -1.
         11   -1    0    0    0    0 -0.00000000000E+00 -0.00000000000E+00 -0.45593999997E+02  0.45594000000E+02  0.51100000000E-03 0.  1.
         23    2    1    2    0    0  0.71054273576E-14  0.17763568394E-14  0.26645352591E-14  0.91188000000E+02  0.91188000000E+02 0.  0.
    9900012    2    3    3    0    0 -0.33933745365E+02 -0.13418885839E+02 -0.49207839805E+01  0.54367086287E+02  0.40000004809E+02 0.  0.
        -12    1    3    3    0    0  0.33933745365E+02  0.13418885839E+02  0.49207839805E+01  0.36820913713E+02  0.00000000000E+00 0.  1.
         11    1    4    4    0    0 -0.92206032075E+01 -0.19167719489E+01  0.56627739809E+01  0.10989110411E+02  0.51100000000E-03 0. -1.
        -11    1    4    4    0    0 -0.31134139513E+01 -0.72313195675E+01 -0.18400136791E+02  0.20013754353E+02  0.51100000000E-03 0.  1.
        -12    1    4    4    0    0 -0.21599728207E+02 -0.42707943222E+01  0.78165788297E+01  0.23364221522E+02  0.00000000000E+00 0.  1.
</event>
<event>
 8    1  0.2509217E-006  0.9118800E+02  0.7816164E-02  0.1184000E+00
        -11   -1    0    0    0    0  0.00000000000E+00  0.00000000000E+00  0.45593999997E+02  0.45594000000E+02  0.51100000000E-03 0.  1.
         11   -1    0    0    0    0 -0.00000000000E+00 -0.00000000000E+00 -0.45593999997E+02  0.45594000000E+02  0.51100000000E-03 0. -1.
         23    2    1    2    0    0  0.00000000000E+00  0.00000000000E+00 -0.35527136788E-14  0.91188000000E+02  0.91188000000E+02 0.  0.
    9900012    2    3    3    0    0 -0.20262321477E+02 -0.24164770891E+02 -0.19007453464E+02  0.54367066945E+02  0.39999960714E+02 0.  0.
        -12    1    3    3    0    0  0.20262321477E+02  0.24164770891E+02  0.19007453464E+02  0.36820933055E+02  0.00000000000E+00 0.  1.
         11    1    4    4    0    0  0.61632694162E+01 -0.14868501164E+02 -0.49115090048E+01  0.16827986740E+02  0.51100000000E-03 0. -1.
        -11    1    4    4    0    0 -0.20394950480E+02 -0.12935254650E+02 -0.29175279883E+01  0.24326668242E+02  0.51100000000E-03 0.  1.
        -12    1    4    4    0    0 -0.60306404139E+01  0.36389849233E+01 -0.11178416471E+02  0.13212411963E+02  0.00000000000E+00 0.  1.
</event>
<event>
 8    1  0.2509217E-006  0.9118800E+02  0.7816164E-02  0.1184000E+00
        -11   -1    0    0    0    0  0.00000000000E+00  0.00000000000E+00  0.45593999997E+02  0.45594000000E+02  0.51100000000E-03 0. -1.
         11   -1    0    0    0    0 -0.00000000000E+00 -0.00000000000E+00 -0.45593999997E+02  0.45594000000E+02  0.51100000000E-03 0.  1.
         23    2    1    2    0    0  0.26645352591E-14  0.00000000000E+00 -0.35527136788E-14  0.91188000000E+02  0.91188000000E+02 0.  0.
    9900012    2    3    3    0    0 -0.66768354717E+01 -0.28631273260E+02 -0.22168678248E+02  0.54367078832E+02  0.39999987813E+02 0.  0.
         12    1    3    3    0    0  0.66768354717E+01  0.28631273260E+02  0.22168678248E+02  0.36820921168E+02  0.00000000000E+00 0. -1.
         11    1    4    4    0    0 -0.20210604488E+01  0.13579908667E+01  0.28067362407E+01  0.37157224220E+01  0.51100000000E-03 0. -1.
        -11    1    4    4    0    0  0.10102028542E+02 -0.23140121077E+01  0.30357420780E+00  0.10368114113E+02  0.51100000000E-03 0.  1.
        -12    1    4    4    0    0 -0.14757803565E+02 -0.27675252019E+02 -0.25278988696E+02  0.40283242296E+02  0.00000000000E+00 0.  1.
</event>
