<event>
 4    1  0.3945627E+000  0.1909983E+03  0.7546771E-02  0.1157564E+00
         21   -1    0    0  503  502  0.00000000000E+00  0.00000000000E+00  0.27941022345E+03  0.27941022345E+03  0.00000000000E+00 0. -1.
         21   -1    0    0  501  503 -0.00000000000E+00 -0.00000000000E+00 -0.19374057757E+03  0.19374057757E+03  0.00000000000E+00 0. -1.
          6    1    1    2  501    0 -0.22967227555E+02  0.77613567742E+02 -0.92261705182E+02  0.21211454849E+03  0.17300000000E+03 0. -1.
         -6    1    1    2    0  502  0.22967227555E+02 -0.77613567742E+02  0.17793135106E+03  0.26103625252E+03  0.17300000000E+03 0. -1.
<mgrwt>
<rscale>  2 0.19099832E+03</rscale>
<asrwt>0</asrwt>
<pdfrwt beam="1">  1       21 0.42986188E-01 0.19099832E+03</pdfrwt>
<pdfrwt beam="2">  1       21 0.29806243E-01 0.19099832E+03</pdfrwt>
<totfact> 0.56206172E+04</totfact>
</mgrwt>
</event>
<event>
 4    1  0.3945627E+000  0.1894066E+03  0.7546771E-02  0.1158998E+00
         21   -1    0    0  501  502  0.00000000000E+00  0.00000000000E+00  0.10808855080E+04  0.10808855080E+04  0.00000000000E+00 0. -1.
         21   -1    0    0  502  503 -0.00000000000E+00 -0.00000000000E+00 -0.33703067403E+02  0.33703067403E+02  0.00000000000E+00 0. -1.
          6    1    1    2  501    0  0.67235777189E+02 -0.37751818571E+02  0.45484711831E+03  0.49270757106E+03  0.17300000000E+03 0. -1.
         -6    1    1    2    0  503 -0.67235777189E+02  0.37751818571E+02  0.59233532226E+03  0.62188100432E+03  0.17300000000E+03 0. -1.
<mgrwt>
<rscale>  2 0.18940657E+03</rscale>
<asrwt>0</asrwt>
<pdfrwt beam="1">  1       21 0.16629005E+00 0.18940657E+03</pdfrwt>
<pdfrwt beam="2">  1       21 0.51850881E-02 0.18940657E+03</pdfrwt>
<totfact> 0.57434700E+04</totfact>
</mgrwt>
</event>
<event>
 4    1  0.3945627E+000  0.2053209E+03  0.7546771E-02  0.1145326E+00
         21   -1    0    0  503  502  0.00000000000E+00  0.00000000000E+00  0.36289861643E+03  0.36289861643E+03  0.00000000000E+00 0. -1.
         21   -1    0    0  501  503 -0.00000000000E+00 -0.00000000000E+00 -0.14511617015E+03  0.14511617015E+03  0.00000000000E+00 0.  1.
          6    1    1    2  501    0 -0.78411259083E+02 -0.77970234050E+02 -0.45601699599E+01  0.20537156108E+03  0.17300000000E+03 0.  1.
         -6    1    1    2    0  502  0.78411259083E+02  0.77970234050E+02  0.22234261624E+03  0.30264322550E+03  0.17300000000E+03 0. -1.
<mgrwt>
<rscale>  2 0.20532093E+03</rscale>
<asrwt>0</asrwt>
<pdfrwt beam="1">  1       21 0.55830556E-01 0.20532093E+03</pdfrwt>
<pdfrwt beam="2">  1       21 0.22325565E-01 0.20532093E+03</pdfrwt>
<totfact> 0.56394441E+04</totfact>
</mgrwt>
</event>
<event>
 4    1  0.3945627E+000  0.2180747E+03  0.7546771E-02  0.1135327E+00
         21   -1    0    0  501  502  0.00000000000E+00  0.00000000000E+00  0.69340212331E+02  0.69340212331E+02  0.00000000000E+00 0. -1.
         21   -1    0    0  502  503 -0.00000000000E+00 -0.00000000000E+00 -0.79584093933E+03  0.79584093933E+03  0.00000000000E+00 0. -1.
          6    1    1    2  501    0  0.13111703718E+03 -0.20878121208E+02 -0.20242517105E+03  0.29754415346E+03  0.17300000000E+03 0.  1.
         -6    1    1    2    0  503 -0.13111703718E+03  0.20878121208E+02 -0.52407555595E+03  0.56763699820E+03  0.17300000000E+03 0.  1.
<mgrwt>
<rscale>  2 0.21807470E+03</rscale>
<asrwt>0</asrwt>
<pdfrwt beam="1">  1       21 0.10667725E-01 0.21807470E+03</pdfrwt>
<pdfrwt beam="2">  1       21 0.12243706E+00 0.21807470E+03</pdfrwt>
<totfact> 0.35843746E+04</totfact>
</mgrwt>
</event>
<event>
 4    1  0.3945627E+000  0.1730286E+03  0.7546771E-02  0.1174726E+00
         21   -1    0    0  501  502  0.00000000000E+00  0.00000000000E+00  0.37031158835E+02  0.37031158835E+02  0.00000000000E+00 0. -1.
         21   -1    0    0  502  503 -0.00000000000E+00 -0.00000000000E+00 -0.82291086174E+03  0.82291086174E+03  0.00000000000E+00 0. -1.
          6    1    1    2  501    0 -0.21852510638E+01  0.22638676716E+01 -0.33599826235E+03  0.37793350304E+03  0.17300000000E+03 0. -1.
         -6    1    1    2    0  503  0.21852510638E+01 -0.22638676716E+01 -0.44988144056E+03  0.48200851754E+03  0.17300000000E+03 0. -1.
<mgrwt>
<rscale>  2 0.17302861E+03</rscale>
<asrwt>0</asrwt>
<pdfrwt beam="1">  1       21 0.56971010E-02 0.17302861E+03</pdfrwt>
<pdfrwt beam="2">  1       21 0.12660168E+00 0.17302861E+03</pdfrwt>
<totfact> 0.10041687E+05</totfact>
</mgrwt>
</event>
<event>
 4    1  0.3945627E+000  0.2345658E+03  0.7546771E-02  0.1123467E+00
         21   -1    0    0  503  502  0.00000000000E+00  0.00000000000E+00  0.29977676170E+03  0.29977676170E+03  0.00000000000E+00 0. -1.
         21   -1    0    0  501  503 -0.00000000000E+00 -0.00000000000E+00 -0.21670336829E+03  0.21670336829E+03  0.00000000000E+00 0. -1.
          6    1    1    2  501    0  0.13988275844E+03  0.74329853730E+02 -0.59485828649E+02  0.24199106817E+03  0.17300000000E+03 0. -1.
         -6    1    1    2    0  502 -0.13988275844E+03 -0.74329853730E+02  0.14255922206E+03  0.27448906182E+03  0.17300000000E+03 0. -1.
<mgrwt>
<rscale>  2 0.23456580E+03</rscale>
<asrwt>0</asrwt>
<pdfrwt beam="1">  1       21 0.46119502E-01 0.23456580E+03</pdfrwt>
<pdfrwt beam="2">  1       21 0.33338980E-01 0.23456580E+03</pdfrwt>
<totfact> 0.38239581E+04</totfact>
</mgrwt>
</event>
<event>
 4    1  0.3945627E+000  0.2100384E+03  0.7546771E-02  0.1141536E+00
         21   -1    0    0  503  502  0.00000000000E+00  0.00000000000E+00  0.63432832740E+03  0.63432832740E+03  0.00000000000E+00 0.  1.
         21   -1    0    0  501  503 -0.00000000000E+00 -0.00000000000E+00 -0.70742306517E+02  0.70742306517E+02  0.00000000000E+00 0. -1.
          6    1    1    2  501    0  0.51915103716E+02  0.10720055285E+03  0.23598323319E+03  0.31591806354E+03  0.17300000000E+03 0.  1.
         -6    1    1    2    0  502 -0.51915103716E+02 -0.10720055285E+03  0.32760278769E+03  0.38915257037E+03  0.17300000000E+03 0. -1.
<mgrwt>
<rscale>  2 0.21003842E+03</rscale>
<asrwt>0</asrwt>
<pdfrwt beam="1">  1       21 0.97588970E-01 0.21003842E+03</pdfrwt>
<pdfrwt beam="2">  1       21 0.10883432E-01 0.21003842E+03</pdfrwt>
<totfact> 0.60230936E+04</totfact>
</mgrwt>
</event>
<event>
 4    1  0.3945627E+000  0.2328756E+03  0.7546771E-02  0.1124632E+00
         21   -1    0    0  503  502  0.00000000000E+00  0.00000000000E+00  0.15352310506E+03  0.15352310506E+03  0.00000000000E+00 0.  1.
         21   -1    0    0  501  503 -0.00000000000E+00 -0.00000000000E+00 -0.37593038669E+03  0.37593038669E+03  0.00000000000E+00 0.  1.
          6    1    1    2  501    0 -0.11434391112E+03 -0.10595990861E+03 -0.46170912317E+02  0.23740847791E+03  0.17300000000E+03 0.  1.
         -6    1    1    2    0  502  0.11434391112E+03  0.10595990861E+03 -0.17623636931E+03  0.29204501384E+03  0.17300000000E+03 0.  1.
<mgrwt>
<rscale>  2 0.23287557E+03</rscale>
<asrwt>0</asrwt>
<pdfrwt beam="1">  1       21 0.23618939E-01 0.23287557E+03</pdfrwt>
<pdfrwt beam="2">  1       21 0.57835444E-01 0.23287557E+03</pdfrwt>
<totfact> 0.46421061E+04</totfact>
</mgrwt>
</event>
<event>
 4    1  0.3945627E+000  0.2556969E+03  0.7546771E-02  0.1109757E+00
         21   -1    0    0  503  502  0.00000000000E+00  0.00000000000E+00  0.13904582342E+03  0.13904582342E+03  0.00000000000E+00 0.  1.
         21   -1    0    0  501  503 -0.00000000000E+00 -0.00000000000E+00 -0.59415299188E+03  0.59415299188E+03  0.00000000000E+00 0.  1.
          6    1    1    2  501    0 -0.12100504525E+03 -0.14425559712E+03 -0.39499063496E+03  0.47053002028E+03  0.17300000000E+03 0.  1.
         -6    1    1    2    0  502  0.12100504525E+03  0.14425559712E+03 -0.60116533503E+02  0.26266879502E+03  0.17300000000E+03 0.  1.
<mgrwt>
<rscale>  2 0.25569689E+03</rscale>
<asrwt>0</asrwt>
<pdfrwt beam="1">  1       21 0.21391665E-01 0.25569689E+03</pdfrwt>
<pdfrwt beam="2">  1       21 0.91408154E-01 0.25569689E+03</pdfrwt>
<totfact> 0.19917527E+04</totfact>
</mgrwt>
</event>
<event>
 4    1  0.3945627E+000  0.2217432E+03  0.7546771E-02  0.1132590E+00
         21   -1    0    0  501  502  0.00000000000E+00  0.00000000000E+00  0.13030667345E+03  0.13030667345E+03  0.00000000000E+00 0. -1.
         21   -1    0    0  502  503 -0.00000000000E+00 -0.00000000000E+00 -0.39456482628E+03  0.39456482628E+03  0.00000000000E+00 0.  1.
          6    1    1    2  501    0 -0.66516024753E+02 -0.12172375292E+03 -0.18696034952E+03  0.29004176573E+03  0.17300000000E+03 0.  1.
         -6    1    1    2    0  503  0.66516024753E+02  0.12172375292E+03 -0.77297803311E+02  0.23482973400E+03  0.17300000000E+03 0. -1.
<mgrwt>
<rscale>  2 0.22174322E+03</rscale>
<asrwt>0</asrwt>
<pdfrwt beam="1">  1       21 0.20047181E-01 0.22174322E+03</pdfrwt>
<pdfrwt beam="2">  1       21 0.60702281E-01 0.22174322E+03</pdfrwt>
<totfact> 0.57307489E+04</totfact>
</mgrwt>
</event>
<event>
 4    1  0.3945627E+000  0.1770553E+03  0.7546771E-02  0.1170684E+00
         21   -1    0    0  503  502  0.00000000000E+00  0.00000000000E+00  0.23716584786E+03  0.23716584786E+03  0.00000000000E+00 0. -1.
         21   -1    0    0  501  503 -0.00000000000E+00 -0.00000000000E+00 -0.14375512705E+03  0.14375512705E+03  0.00000000000E+00 0. -1.
          6    1    1    2  501    0  0.32226834320E+02 -0.19519062050E+02  0.10075062123E+03  0.20371364783E+03  0.17300000000E+03 0. -1.
         -6    1    1    2    0  502 -0.32226834320E+02  0.19519062050E+02 -0.73399004111E+01  0.17720732708E+03  0.17300000000E+03 0. -1.
<mgrwt>
<rscale>  2 0.17705525E+03</rscale>
<asrwt>0</asrwt>
<pdfrwt beam="1">  1       21 0.36487054E-01 0.17705525E+03</pdfrwt>
<pdfrwt beam="2">  1       21 0.22116173E-01 0.17705525E+03</pdfrwt>
<totfact> 0.13917214E+05</totfact>
</mgrwt>
</event>
<event>
 4    1  0.3945627E+000  0.1973662E+03  0.7546771E-02  0.1151980E+00
         21   -1    0    0  501  502  0.00000000000E+00  0.00000000000E+00  0.92410233124E+03  0.92410233124E+03  0.00000000000E+00 0. -1.
         21   -1    0    0  502  503 -0.00000000000E+00 -0.00000000000E+00 -0.42233280915E+02  0.42233280915E+02  0.00000000000E+00 0. -1.
          6    1    1    2  501    0 -0.54399767332E+02  0.77878576803E+02  0.46203972066E+03  0.50242821465E+03  0.17300000000E+03 0. -1.
         -6    1    1    2    0  503  0.54399767332E+02 -0.77878576803E+02  0.41982932967E+03  0.46390739750E+03  0.17300000000E+03 0. -1.
<mgrwt>
<rscale>  2 0.19736618E+03</rscale>
<asrwt>0</asrwt>
<pdfrwt beam="1">  1       21 0.14216957E+00 0.19736618E+03</pdfrwt>
<pdfrwt beam="2">  1       21 0.64974285E-02 0.19736618E+03</pdfrwt>
<totfact> 0.58991088E+04</totfact>
</mgrwt>
</event>
<event>
 4    1  0.3945627E+000  0.2003547E+03  0.7546771E-02  0.1149440E+00
         21   -1    0    0  501  502  0.00000000000E+00  0.00000000000E+00  0.36007405733E+03  0.36007405733E+03  0.00000000000E+00 0. -1.
         21   -1    0    0  502  503 -0.00000000000E+00 -0.00000000000E+00 -0.13486077790E+03  0.13486077790E+03  0.00000000000E+00 0.  1.
          6    1    1    2  501    0  0.79716210924E+02  0.62115493076E+02  0.95727498922E+01  0.20058326527E+03  0.17300000000E+03 0.  1.
         -6    1    1    2    0  503 -0.79716210924E+02 -0.62115493076E+02  0.21564052954E+03  0.29435156997E+03  0.17300000000E+03 0. -1.
<mgrwt>
<rscale>  2 0.20035471E+03</rscale>
<asrwt>0</asrwt>
<pdfrwt beam="1">  1       21 0.55396008E-01 0.20035471E+03</pdfrwt>
<pdfrwt beam="2">  1       21 0.20747812E-01 0.20035471E+03</pdfrwt>
<totfact> 0.65975200E+04</totfact>
</mgrwt>
</event>
<event>
 4    1  0.3945627E+000  0.1735972E+03  0.7546771E-02  0.1174148E+00
         21   -1    0    0  501  502  0.00000000000E+00  0.00000000000E+00  0.19535087553E+04  0.19535087553E+04  0.00000000000E+00 0. -1.
         21   -1    0    0  502  503 -0.00000000000E+00 -0.00000000000E+00 -0.15436556981E+02  0.15436556981E+02  0.00000000000E+00 0. -1.
          6    1    1    2  501    0 -0.12471010567E+02 -0.71733490574E+01  0.99404882664E+03  0.10090931834E+04  0.17300000000E+03 0.  1.
         -6    1    1    2    0  503  0.12471010567E+02  0.71733490574E+01  0.94402337167E+03  0.95985212887E+03  0.17300000000E+03 0.  1.
<mgrwt>
<rscale>  2 0.17359719E+03</rscale>
<asrwt>0</asrwt>
<pdfrwt beam="1">  1       21 0.30053961E+00 0.17359719E+03</pdfrwt>
<pdfrwt beam="2">  1       21 0.23748565E-02 0.17359719E+03</pdfrwt>
<totfact> 0.32108967E+04</totfact>
</mgrwt>
</event>
<event>
 4    1  0.3945627E+000  0.1840522E+03  0.7546771E-02  0.1163938E+00
         21   -1    0    0  503  502  0.00000000000E+00  0.00000000000E+00  0.19839779126E+03  0.19839779126E+03  0.00000000000E+00 0.  1.
         21   -1    0    0  501  503 -0.00000000000E+00 -0.00000000000E+00 -0.19142465989E+03  0.19142465989E+03  0.00000000000E+00 0.  1.
          6    1    1    2  501    0 -0.15099904729E+02 -0.60977123780E+02 -0.60578450257E+02  0.19376523265E+03  0.17300000000E+03 0.  1.
         -6    1    1    2    0  502  0.15099904729E+02  0.60977123780E+02  0.67551581631E+02  0.19605721851E+03  0.17300000000E+03 0.  1.
<mgrwt>
<rscale>  2 0.18405221E+03</rscale>
<asrwt>0</asrwt>
<pdfrwt beam="1">  1       21 0.30522737E-01 0.18405221E+03</pdfrwt>
<pdfrwt beam="2">  1       21 0.29449947E-01 0.18405221E+03</pdfrwt>
<totfact> 0.11416801E+05</totfact>
</mgrwt>
</event>
<event>
 4    1  0.3945627E+000  0.1741038E+03  0.7546771E-02  0.1173635E+00
         21   -1    0    0  503  502  0.00000000000E+00  0.00000000000E+00  0.69394622836E+03  0.69394622836E+03  0.00000000000E+00 0.  1.
         21   -1    0    0  501  503 -0.00000000000E+00 -0.00000000000E+00 -0.44138794851E+02  0.44138794851E+02  0.00000000000E+00 0.  1.
          6    1    1    2  501    0 -0.89504006282E+01  0.17407692954E+02  0.28731228034E+03  0.33594714447E+03  0.17300000000E+03 0. -1.
         -6    1    1    2    0  502  0.89504006282E+01 -0.17407692954E+02  0.36249515317E+03  0.40213787874E+03  0.17300000000E+03 0. -1.
<mgrwt>
<rscale>  2 0.17410381E+03</rscale>
<asrwt>0</asrwt>
<pdfrwt beam="1">  1       21 0.10676095E+00 0.17410381E+03</pdfrwt>
<pdfrwt beam="2">  1       21 0.67905843E-02 0.17410381E+03</pdfrwt>
<totfact> 0.11274777E+05</totfact>
</mgrwt>
</event>
<event>
 4    1  0.3945627E+000  0.2390840E+03  0.7546771E-02  0.1120405E+00
         21   -1    0    0  503  502  0.00000000000E+00  0.00000000000E+00  0.94313467364E+03  0.94313467364E+03  0.00000000000E+00 0. -1.
         21   -1    0    0  501  503 -0.00000000000E+00 -0.00000000000E+00 -0.68771007123E+02  0.68771007123E+02  0.00000000000E+00 0. -1.
          6    1    1    2  501    0 -0.91386994910E+02  0.13740666451E+03  0.26286400841E+03  0.35532894789E+03  0.17300000000E+03 0. -1.
         -6    1    1    2    0  502  0.91386994910E+02 -0.13740666451E+03  0.61149965810E+03  0.65657673287E+03  0.17300000000E+03 0. -1.
<mgrwt>
<rscale>  2 0.23908403E+03</rscale>
<asrwt>0</asrwt>
<pdfrwt beam="1">  1       21 0.14509763E+00 0.23908403E+03</pdfrwt>
<pdfrwt beam="2">  1       21 0.10580156E-01 0.23908403E+03</pdfrwt>
<totfact> 0.23284412E+04</totfact>
</mgrwt>
</event>
<event>
 4    1  0.3945627E+000  0.1730635E+03  0.7546771E-02  0.1174690E+00
         21   -1    0    0  503  502  0.00000000000E+00  0.00000000000E+00  0.64368058797E+02  0.64368058797E+02  0.00000000000E+00 0. -1.
         21   -1    0    0  501  503 -0.00000000000E+00 -0.00000000000E+00 -0.56870573805E+03  0.56870573805E+03  0.00000000000E+00 0. -1.
          6    1    1    2  501    0 -0.53721265578E+00 -0.46576575235E+01 -0.38713837137E+03  0.42406025628E+03  0.17300000000E+03 0. -1.
         -6    1    1    2    0  502  0.53721265578E+00  0.46576575235E+01 -0.11719930788E+03  0.20901354056E+03  0.17300000000E+03 0. -1.
<mgrwt>
<rscale>  2 0.17306352E+03</rscale>
<asrwt>0</asrwt>
<pdfrwt beam="1">  1       21 0.99027780E-02 0.17306352E+03</pdfrwt>
<pdfrwt beam="2">  1       21 0.87493193E-01 0.17306352E+03</pdfrwt>
<totfact> 0.93330637E+04</totfact>
</mgrwt>
</event>
<event>
 4    1  0.3945627E+000  0.1814620E+03  0.7546771E-02  0.1166396E+00
         21   -1    0    0  501  502  0.00000000000E+00  0.00000000000E+00  0.69797937892E+02  0.69797937892E+02  0.00000000000E+00 0. -1.
         21   -1    0    0  502  503 -0.00000000000E+00 -0.00000000000E+00 -0.48346847118E+03  0.48346847118E+03  0.00000000000E+00 0. -1.
          6    1    1    2  501    0  0.28835838391E+02 -0.46561077461E+02 -0.16380041369E+03  0.24445657086E+03  0.17300000000E+03 0. -1.
         -6    1    1    2    0  503 -0.28835838391E+02  0.46561077461E+02 -0.24987011960E+03  0.30880983821E+03  0.17300000000E+03 0. -1.
<mgrwt>
<rscale>  2 0.18146195E+03</rscale>
<asrwt>0</asrwt>
<pdfrwt beam="1">  1       21 0.10738144E-01 0.18146195E+03</pdfrwt>
<pdfrwt beam="2">  1       21 0.74379764E-01 0.18146195E+03</pdfrwt>
<totfact> 0.11633568E+05</totfact>
</mgrwt>
</event>
<event>
 4    1  0.3945627E+000  0.1908465E+03  0.7546771E-02  0.1157700E+00
         21   -1    0    0  501  502  0.00000000000E+00  0.00000000000E+00  0.43840655209E+03  0.43840655209E+03  0.00000000000E+00 0.  1.
         21   -1    0    0  502  503 -0.00000000000E+00 -0.00000000000E+00 -0.10390003283E+03  0.10390003283E+03  0.00000000000E+00 0. -1.
          6    1    1    2  501    0  0.89350904236E+01 -0.80084554986E+02  0.28863638645E+03  0.34602505020E+03  0.17300000000E+03 0.  1.
         -6    1    1    2    0  503 -0.89350904236E+01  0.80084554986E+02  0.45870132814E+02  0.19628153472E+03  0.17300000000E+03 0. -1.
<mgrwt>
<rscale>  2 0.19084646E+03</rscale>
<asrwt>0</asrwt>
<pdfrwt beam="1">  1       21 0.67447161E-01 0.19084646E+03</pdfrwt>
<pdfrwt beam="2">  1       21 0.15984621E-01 0.19084646E+03</pdfrwt>
<totfact> 0.70284199E+04</totfact>
</mgrwt>
</event>
<event>
 4    1  0.3945627E+000  0.1904054E+03  0.7546771E-02  0.1158096E+00
         21   -1    0    0  501  502  0.00000000000E+00  0.00000000000E+00  0.26483052679E+03  0.26483052679E+03  0.00000000000E+00 0. -1.
         21   -1    0    0  502  503 -0.00000000000E+00 -0.00000000000E+00 -0.16453576339E+03  0.16453576339E+03  0.00000000000E+00 0.  1.
          6    1    1    2  501    0  0.60030519974E+02 -0.52168444978E+02  0.13813789248E+03  0.23523666236E+03  0.17300000000E+03 0. -1.
         -6    1    1    2    0  503 -0.60030519974E+02  0.52168444978E+02 -0.37843129086E+02  0.19412962782E+03  0.17300000000E+03 0.  1.
<mgrwt>
<rscale>  2 0.19040538E+03</rscale>
<asrwt>0</asrwt>
<pdfrwt beam="1">  1       21 0.40743158E-01 0.19040538E+03</pdfrwt>
<pdfrwt beam="2">  1       21 0.25313194E-01 0.19040538E+03</pdfrwt>
<totfact> 0.85914428E+04</totfact>
</mgrwt>
</event>
<event>
 4    1  0.3945627E+000  0.2042602E+03  0.7546771E-02  0.1146194E+00
         21   -1    0    0  501  502  0.00000000000E+00  0.00000000000E+00  0.80454061485E+03  0.80454061485E+03  0.00000000000E+00 0.  1.
         21   -1    0    0  502  503 -0.00000000000E+00 -0.00000000000E+00 -0.92246443202E+02  0.92246443202E+02  0.00000000000E+00 0.  1.
          6    1    1    2  501    0  0.22269450010E+02 -0.10628874224E+03  0.65284239927E+03  0.68405074622E+03  0.17300000000E+03 0.  1.
         -6    1    1    2    0  503 -0.22269450010E+02  0.10628874224E+03  0.59451772381E+02  0.21273631183E+03  0.17300000000E+03 0.  1.
<mgrwt>
<rscale>  2 0.20426019E+03</rscale>
<asrwt>0</asrwt>
<pdfrwt beam="1">  1       21 0.12377547E+00 0.20426019E+03</pdfrwt>
<pdfrwt beam="2">  1       21 0.14191761E-01 0.20426019E+03</pdfrwt>
<totfact> 0.21053909E+04</totfact>
</mgrwt>
</event>
<event>
 4    1  0.3945627E+000  0.2073057E+03  0.7546771E-02  0.1143718E+00
         21   -1    0    0  503  502  0.00000000000E+00  0.00000000000E+00  0.11153855484E+04  0.11153855484E+04  0.00000000000E+00 0.  1.
         21   -1    0    0  501  503 -0.00000000000E+00 -0.00000000000E+00 -0.10207647874E+03  0.10207647874E+03  0.00000000000E+00 0.  1.
          6    1    1    2  501    0  0.25904057420E+01  0.11419260590E+03  0.26358751146E+02  0.20897474777E+03  0.17300000000E+03 0.  1.
         -6    1    1    2    0  502 -0.25904057420E+01 -0.11419260590E+03  0.98695031852E+03  0.10084872794E+04  0.17300000000E+03 0.  1.
<mgrwt>
<rscale>  2 0.20730572E+03</rscale>
<asrwt>0</asrwt>
<pdfrwt beam="1">  1       21 0.17159777E+00 0.20730572E+03</pdfrwt>
<pdfrwt beam="2">  1       21 0.15704074E-01 0.20730572E+03</pdfrwt>
<totfact> 0.74135092E+03</totfact>
</mgrwt>
</event>
<event>
 4    1  0.3945627E+000  0.1974351E+03  0.7546771E-02  0.1151921E+00
         21   -1    0    0  501  502  0.00000000000E+00  0.00000000000E+00  0.22459350481E+03  0.22459350481E+03  0.00000000000E+00 0.  1.
         21   -1    0    0  502  503 -0.00000000000E+00 -0.00000000000E+00 -0.20218315429E+03  0.20218315429E+03  0.00000000000E+00 0. -1.
          6    1    1    2  501    0  0.31090090230E+02 -0.89916747395E+02  0.91493297743E+02  0.21760431683E+03  0.17300000000E+03 0.  1.
         -6    1    1    2    0  503 -0.31090090230E+02  0.89916747395E+02 -0.69082947223E+02  0.20917234227E+03  0.17300000000E+03 0. -1.
<mgrwt>
<rscale>  2 0.19743509E+03</rscale>
<asrwt>0</asrwt>
<pdfrwt beam="1">  1       21 0.34552847E-01 0.19743509E+03</pdfrwt>
<pdfrwt beam="2">  1       21 0.31105100E-01 0.19743509E+03</pdfrwt>
<totfact> 0.79992909E+04</totfact>
</mgrwt>
</event>
<event>
 4    1  0.3945627E+000  0.1846648E+03  0.7546771E-02  0.1163363E+00
         21   -1    0    0  503  502  0.00000000000E+00  0.00000000000E+00  0.14879556161E+04  0.14879556161E+04  0.00000000000E+00 0.  1.
         21   -1    0    0  501  503 -0.00000000000E+00 -0.00000000000E+00 -0.27887495383E+02  0.27887495383E+02  0.00000000000E+00 0.  1.
          6    1    1    2  501    0  0.20758570889E+01 -0.64558316328E+02  0.41009138905E+03  0.44975107867E+03  0.17300000000E+03 0.  1.
         -6    1    1    2    0  502 -0.20758570889E+01  0.64558316328E+02  0.10499767317E+04  0.10660920329E+04  0.17300000000E+03 0.  1.
<mgrwt>
<rscale>  2 0.18466479E+03</rscale>
<asrwt>0</asrwt>
<pdfrwt beam="1">  1       21 0.22891619E+00 0.18466479E+03</pdfrwt>
<pdfrwt beam="2">  1       21 0.42903851E-02 0.18466479E+03</pdfrwt>
<totfact> 0.31120374E+04</totfact>
</mgrwt>
</event>
<event>
 4    1  0.3945627E+000  0.1911514E+03  0.7546771E-02  0.1157427E+00
         21   -1    0    0  501  502  0.00000000000E+00  0.00000000000E+00  0.32982738402E+03  0.32982738402E+03  0.00000000000E+00 0.  1.
         21   -1    0    0  502  503 -0.00000000000E+00 -0.00000000000E+00 -0.12229816807E+03  0.12229816807E+03  0.00000000000E+00 0.  1.
          6    1    1    2  501    0  0.81264112848E+02  0.24506164440E+01  0.17313552017E+03  0.25790457518E+03  0.17300000000E+03 0.  1.
         -6    1    1    2    0  503 -0.81264112848E+02 -0.24506164440E+01  0.34393695785E+02  0.19422097690E+03  0.17300000000E+03 0.  1.
<mgrwt>
<rscale>  2 0.19115141E+03</rscale>
<asrwt>0</asrwt>
<pdfrwt beam="1">  1       21 0.50742674E-01 0.19115141E+03</pdfrwt>
<pdfrwt beam="2">  1       21 0.18815103E-01 0.19115141E+03</pdfrwt>
<totfact> 0.95625066E+04</totfact>
</mgrwt>
</event>
<event>
 4    1  0.3945627E+000  0.2907735E+03  0.7546771E-02  0.1089946E+00
         21   -1    0    0  501  502  0.00000000000E+00  0.00000000000E+00  0.38033519840E+03  0.38033519840E+03  0.00000000000E+00 0.  1.
         21   -1    0    0  502  503 -0.00000000000E+00 -0.00000000000E+00 -0.24152144059E+03  0.24152144059E+03  0.00000000000E+00 0.  1.
          6    1    1    2  501    0 -0.17951460589E+03  0.14964875806E+03 -0.18304051816E+02  0.29134907384E+03  0.17300000000E+03 0.  1.
         -6    1    1    2    0  503  0.17951460589E+03 -0.14964875806E+03  0.15711780962E+03  0.33050756514E+03  0.17300000000E+03 0.  1.
<mgrwt>
<rscale>  2 0.29077353E+03</rscale>
<asrwt>0</asrwt>
<pdfrwt beam="1">  1       21 0.58513107E-01 0.29077353E+03</pdfrwt>
<pdfrwt beam="2">  1       21 0.37157145E-01 0.29077353E+03</pdfrwt>
<totfact> 0.18164644E+04</totfact>
</mgrwt>
</event>
<event>
 4    1  0.3945627E+000  0.3782748E+03  0.7546771E-02  0.1051573E+00
         21   -1    0    0  503  502  0.00000000000E+00  0.00000000000E+00  0.32181689708E+03  0.32181689708E+03  0.00000000000E+00 0. -1.
         21   -1    0    0  501  503 -0.00000000000E+00 -0.00000000000E+00 -0.55641010826E+03  0.55641010826E+03  0.00000000000E+00 0.  1.
          6    1    1    2  501    0  0.23138316091E+02 -0.33560013336E+03 -0.31410660334E+03  0.49168566122E+03  0.17300000000E+03 0.  1.
         -6    1    1    2    0  502 -0.23138316091E+02  0.33560013336E+03  0.79513392160E+02  0.38654134412E+03  0.17300000000E+03 0. -1.
<mgrwt>
<rscale>  2 0.37827481E+03</rscale>
<asrwt>0</asrwt>
<pdfrwt beam="1">  1       21 0.49510292E-01 0.37827481E+03</pdfrwt>
<pdfrwt beam="2">  1       21 0.85601555E-01 0.37827481E+03</pdfrwt>
<totfact> 0.41240187E+03</totfact>
</mgrwt>
</event>
<event>
 4    1  0.3945627E+000  0.2365206E+03  0.7546771E-02  0.1122133E+00
         21   -1    0    0  503  502  0.00000000000E+00  0.00000000000E+00  0.47873384236E+03  0.47873384236E+03  0.00000000000E+00 0. -1.
         21   -1    0    0  501  503 -0.00000000000E+00 -0.00000000000E+00 -0.11699639180E+03  0.11699639180E+03  0.00000000000E+00 0.  1.
          6    1    1    2  501    0  0.13554954314E+03  0.87403071913E+02  0.17047813587E+03  0.29155577585E+03  0.17300000000E+03 0. -1.
         -6    1    1    2    0  502 -0.13554954314E+03 -0.87403071913E+02  0.19125931470E+03  0.30417445830E+03  0.17300000000E+03 0.  1.
<mgrwt>
<rscale>  2 0.23652056E+03</rscale>
<asrwt>0</asrwt>
<pdfrwt beam="1">  1       21 0.73651359E-01 0.23652056E+03</pdfrwt>
<pdfrwt beam="2">  1       21 0.17999445E-01 0.23652056E+03</pdfrwt>
<totfact> 0.45522654E+04</totfact>
</mgrwt>
</event>
<event>
 4    1  0.3945627E+000  0.2190078E+03  0.7546771E-02  0.1134625E+00
         21   -1    0    0  503  502  0.00000000000E+00  0.00000000000E+00  0.19341871656E+03  0.19341871656E+03  0.00000000000E+00 0.  1.
         21   -1    0    0  501  503 -0.00000000000E+00 -0.00000000000E+00 -0.25636761001E+03  0.25636761001E+03  0.00000000000E+00 0. -1.
          6    1    1    2  501    0 -0.12530695930E+03  0.48307313982E+02 -0.72147106361E+02  0.23058541929E+03  0.17300000000E+03 0. -1.
         -6    1    1    2    0  502  0.12530695930E+03 -0.48307313982E+02  0.91982129108E+01  0.21920090728E+03  0.17300000000E+03 0.  1.
<mgrwt>
<rscale>  2 0.21900783E+03</rscale>
<asrwt>0</asrwt>
<pdfrwt beam="1">  1       21 0.29756725E-01 0.21900783E+03</pdfrwt>
<pdfrwt beam="2">  1       21 0.39441171E-01 0.21900783E+03</pdfrwt>
<totfact> 0.66318103E+04</totfact>
</mgrwt>
</event>
<event>
 4    1  0.3945627E+000  0.3178791E+03  0.7546771E-02  0.1076630E+00
         21   -1    0    0  501  502  0.00000000000E+00  0.00000000000E+00  0.12659074552E+03  0.12659074552E+03  0.00000000000E+00 0. -1.
         21   -1    0    0  502  503 -0.00000000000E+00 -0.00000000000E+00 -0.80517006514E+03  0.80517006514E+03  0.00000000000E+00 0. -1.
          6    1    1    2  501    0  0.21530376956E+02  0.26580928563E+03 -0.38257666182E+03  0.49740530318E+03  0.17300000000E+03 0. -1.
         -6    1    1    2    0  503 -0.21530376956E+02 -0.26580928563E+03 -0.29600265780E+03  0.43435550748E+03  0.17300000000E+03 0. -1.
<mgrwt>
<rscale>  2 0.31787912E+03</rscale>
<asrwt>0</asrwt>
<pdfrwt beam="1">  1       21 0.19475499E-01 0.31787912E+03</pdfrwt>
<pdfrwt beam="2">  1       21 0.12387232E+00 0.31787912E+03</pdfrwt>
<totfact> 0.11028992E+04</totfact>
</mgrwt>
</event>
<event>
 4    1  0.3945627E+000  0.2128547E+03  0.7546771E-02  0.1139325E+00
         21   -1    0    0  503  502  0.00000000000E+00  0.00000000000E+00  0.10130271360E+03  0.10130271360E+03  0.00000000000E+00 0.  1.
         21   -1    0    0  501  503 -0.00000000000E+00 -0.00000000000E+00 -0.68222903433E+03  0.68222903433E+03  0.00000000000E+00 0.  1.
          6    1    1    2  501    0  0.11776615119E+03  0.38848923562E+02 -0.52038537129E+03  0.56223486185E+03  0.17300000000E+03 0.  1.
         -6    1    1    2    0  502 -0.11776615119E+03 -0.38848923562E+02 -0.60540949444E+02  0.22129688608E+03  0.17300000000E+03 0.  1.
<mgrwt>
<rscale>  2 0.21285466E+03</rscale>
<asrwt>0</asrwt>
<pdfrwt beam="1">  1       21 0.15585032E-01 0.21285466E+03</pdfrwt>
<pdfrwt beam="2">  1       21 0.10495832E+00 0.21285466E+03</pdfrwt>
<totfact> 0.26441473E+04</totfact>
</mgrwt>
</event>
<event>
 4    1  0.3945627E+000  0.1832516E+03  0.7546771E-02  0.1164693E+00
         21   -1    0    0  503  502  0.00000000000E+00  0.00000000000E+00  0.42297920889E+02  0.42297920889E+02  0.00000000000E+00 0. -1.
         21   -1    0    0  501  503 -0.00000000000E+00 -0.00000000000E+00 -0.84887729189E+03  0.84887729189E+03  0.00000000000E+00 0. -1.
          6    1    1    2  501    0  0.26724442033E+02  0.54203022493E+02 -0.51666630001E+03  0.54820181413E+03  0.17300000000E+03 0.  1.
         -6    1    1    2    0  502 -0.26724442033E+02 -0.54203022493E+02 -0.28991307099E+03  0.34297339865E+03  0.17300000000E+03 0.  1.
<mgrwt>
<rscale>  2 0.18325164E+03</rscale>
<asrwt>0</asrwt>
<pdfrwt beam="1">  1       21 0.65073728E-02 0.18325164E+03</pdfrwt>
<pdfrwt beam="2">  1       21 0.13059650E+00 0.18325164E+03</pdfrwt>
<totfact> 0.73629934E+04</totfact>
</mgrwt>
</event>
<event>
 4    1  0.3945627E+000  0.1911320E+03  0.7546771E-02  0.1157444E+00
         21   -1    0    0  503  502  0.00000000000E+00  0.00000000000E+00  0.17293011703E+03  0.17293011703E+03  0.00000000000E+00 0.  1.
         21   -1    0    0  501  503 -0.00000000000E+00 -0.00000000000E+00 -0.25778997971E+03  0.25778997971E+03  0.00000000000E+00 0.  1.
          6    1    1    2  501    0 -0.54965688329E+02  0.59843222971E+02 -0.13393529274E+03  0.23338830492E+03  0.17300000000E+03 0.  1.
         -6    1    1    2    0  502  0.54965688329E+02 -0.59843222971E+02  0.49075430062E+02  0.19733179183E+03  0.17300000000E+03 0.  1.
<mgrwt>
<rscale>  2 0.19113199E+03</rscale>
<asrwt>0</asrwt>
<pdfrwt beam="1">  1       21 0.26604634E-01 0.19113199E+03</pdfrwt>
<pdfrwt beam="2">  1       21 0.39659997E-01 0.19113199E+03</pdfrwt>
<totfact> 0.82450319E+04</totfact>
</mgrwt>
</event>
<event>
 4    1  0.3945627E+000  0.1823675E+03  0.7546771E-02  0.1165531E+00
         21   -1    0    0  501  502  0.00000000000E+00  0.00000000000E+00  0.23182029680E+03  0.23182029680E+03  0.00000000000E+00 0. -1.
         21   -1    0    0  502  503 -0.00000000000E+00 -0.00000000000E+00 -0.16733041348E+03  0.16733041348E+03  0.00000000000E+00 0. -1.
          6    1    1    2  501    0 -0.14453779950E+02  0.55856993336E+02 -0.43127250952E+02  0.18739763935E+03  0.17300000000E+03 0. -1.
         -6    1    1    2    0  503  0.14453779950E+02 -0.55856993336E+02  0.10761713427E+03  0.21175307093E+03  0.17300000000E+03 0. -1.
<mgrwt>
<rscale>  2 0.18236753E+03</rscale>
<asrwt>0</asrwt>
<pdfrwt beam="1">  1       21 0.35664661E-01 0.18236753E+03</pdfrwt>
<pdfrwt beam="2">  1       21 0.25743140E-01 0.18236753E+03</pdfrwt>
<totfact> 0.10897374E+05</totfact>
</mgrwt>
</event>
<event>
 4    1  0.3945627E+000  0.1799796E+03  0.7546771E-02  0.1167823E+00
         21   -1    0    0  501  502  0.00000000000E+00  0.00000000000E+00  0.26929625249E+02  0.26929625249E+02  0.00000000000E+00 0. -1.
         21   -1    0    0  502  503 -0.00000000000E+00 -0.00000000000E+00 -0.13116412362E+04  0.13116412362E+04  0.00000000000E+00 0. -1.
          6    1    1    2  501    0  0.19813755095E+02  0.45508909206E+02 -0.83509726848E+03  0.85427167431E+03  0.17300000000E+03 0. -1.
         -6    1    1    2    0  503 -0.19813755095E+02 -0.45508909206E+02 -0.44961434249E+03  0.48429918715E+03  0.17300000000E+03 0. -1.
<mgrwt>
<rscale>  2 0.17997957E+03</rscale>
<asrwt>0</asrwt>
<pdfrwt beam="1">  1       21 0.41430197E-02 0.17997957E+03</pdfrwt>
<pdfrwt beam="2">  1       21 0.20179094E+00 0.17997957E+03</pdfrwt>
<totfact> 0.48719447E+04</totfact>
</mgrwt>
</event>
<event>
 4    1  0.3945627E+000  0.2523982E+03  0.7546771E-02  0.1111799E+00
         21   -1    0    0  503  502  0.00000000000E+00  0.00000000000E+00  0.23028977391E+04  0.23028977391E+04  0.00000000000E+00 0.  1.
         21   -1    0    0  501  503 -0.00000000000E+00 -0.00000000000E+00 -0.13273120613E+03  0.13273120613E+03  0.00000000000E+00 0.  1.
          6    1    1    2  501    0  0.13767802345E+03 -0.12173988359E+03  0.15793907332E+01  0.25240311383E+03  0.17300000000E+03 0.  1.
         -6    1    1    2    0  502 -0.13767802345E+03  0.12173988359E+03  0.21685871423E+04  0.21832258314E+04  0.17300000000E+03 0.  1.
<mgrwt>
<rscale>  2 0.25239817E+03</rscale>
<asrwt>0</asrwt>
<pdfrwt beam="1">  1       21 0.35429193E+00 0.25239817E+03</pdfrwt>
<pdfrwt beam="2">  1       21 0.20420187E-01 0.25239817E+03</pdfrwt>
<totfact> 0.33699231E+02</totfact>
</mgrwt>
</event>
<event>
 4    1  0.3945627E+000  0.2114909E+03  0.7546771E-02  0.1140391E+00
         21   -1    0    0  503  502  0.00000000000E+00  0.00000000000E+00  0.12976330171E+03  0.12976330171E+03  0.00000000000E+00 0. -1.
         21   -1    0    0  501  503 -0.00000000000E+00 -0.00000000000E+00 -0.40380599745E+03  0.40380599745E+03  0.00000000000E+00 0. -1.
          6    1    1    2  501    0 -0.27502022604E+02  0.11850326002E+03 -0.34946372802E+02  0.21435865472E+03  0.17300000000E+03 0. -1.
         -6    1    1    2    0  502  0.27502022604E+02 -0.11850326002E+03 -0.23909632294E+03  0.31921064444E+03  0.17300000000E+03 0. -1.
<mgrwt>
<rscale>  2 0.21149086E+03</rscale>
<asrwt>0</asrwt>
<pdfrwt beam="1">  1       21 0.19963585E-01 0.21149086E+03</pdfrwt>
<pdfrwt beam="2">  1       21 0.62123999E-01 0.21149086E+03</pdfrwt>
<totfact> 0.55189732E+04</totfact>
</mgrwt>
</event>
<event>
 4    1  0.3945627E+000  0.1803459E+03  0.7546771E-02  0.1167469E+00
         21   -1    0    0  501  502  0.00000000000E+00  0.00000000000E+00  0.51133154561E+03  0.51133154561E+03  0.00000000000E+00 0. -1.
         21   -1    0    0  502  503 -0.00000000000E+00 -0.00000000000E+00 -0.80187415497E+02  0.80187415497E+02  0.00000000000E+00 0. -1.
          6    1    1    2  501    0 -0.21597374526E+02 -0.46143359980E+02  0.35005688508E+03  0.39378227366E+03  0.17300000000E+03 0. -1.
         -6    1    1    2    0  503  0.21597374526E+02  0.46143359980E+02  0.81087245037E+02  0.19773668745E+03  0.17300000000E+03 0. -1.
<mgrwt>
<rscale>  2 0.18034593E+03</rscale>
<asrwt>0</asrwt>
<pdfrwt beam="1">  1       21 0.78666390E-01 0.18034593E+03</pdfrwt>
<pdfrwt beam="2">  1       21 0.12336526E-01 0.18034593E+03</pdfrwt>
<totfact> 0.80192822E+04</totfact>
</mgrwt>
</event>
<event>
 4    1  0.3945627E+000  0.2459486E+03  0.7546771E-02  0.1115892E+00
         21   -1    0    0  501  502  0.00000000000E+00  0.00000000000E+00  0.44411803213E+03  0.44411803213E+03  0.00000000000E+00 0.  1.
         21   -1    0    0  502  503 -0.00000000000E+00 -0.00000000000E+00 -0.19638015924E+03  0.19638015924E+03  0.00000000000E+00 0. -1.
          6    1    1    2  501    0 -0.10809957874E+03  0.13739068128E+03  0.30114528849E+03  0.38881769894E+03  0.17300000000E+03 0. -1.
         -6    1    1    2    0  503  0.10809957874E+03 -0.13739068128E+03 -0.53407415597E+02  0.25168049243E+03  0.17300000000E+03 0. -1.
<mgrwt>
<rscale>  2 0.24594861E+03</rscale>
<asrwt>0</asrwt>
<pdfrwt beam="1">  1       21 0.68325851E-01 0.24594861E+03</pdfrwt>
<pdfrwt beam="2">  1       21 0.30212332E-01 0.24594861E+03</pdfrwt>
<totfact> 0.19943467E+04</totfact>
</mgrwt>
</event>
<event>
 4    1  0.3945627E+000  0.1991853E+03  0.7546771E-02  0.1150428E+00
         21   -1    0    0  501  502  0.00000000000E+00  0.00000000000E+00  0.47114219943E+02  0.47114219943E+02  0.00000000000E+00 0. -1.
         21   -1    0    0  502  503 -0.00000000000E+00 -0.00000000000E+00 -0.11239566190E+04  0.11239566190E+04  0.00000000000E+00 0. -1.
          6    1    1    2  501    0 -0.25362309255E+02  0.95407199544E+02 -0.24520077471E+03  0.31590853166E+03  0.17300000000E+03 0. -1.
         -6    1    1    2    0  503  0.25362309255E+02 -0.95407199544E+02 -0.83164162430E+03  0.85516230724E+03  0.17300000000E+03 0. -1.
<mgrwt>
<rscale>  2 0.19918529E+03</rscale>
<asrwt>0</asrwt>
<pdfrwt beam="1">  1       21 0.72483417E-02 0.19918529E+03</pdfrwt>
<pdfrwt beam="2">  1       21 0.17291640E+00 0.19918529E+03</pdfrwt>
<totfact> 0.28869150E+04</totfact>
</mgrwt>
</event>
<event>
 4    1  0.3945627E+000  0.2090889E+03  0.7546771E-02  0.1142290E+00
         21   -1    0    0  501  502  0.00000000000E+00  0.00000000000E+00  0.20693886389E+03  0.20693886389E+03  0.00000000000E+00 0.  1.
         21   -1    0    0  502  503 -0.00000000000E+00 -0.00000000000E+00 -0.22327018173E+03  0.22327018173E+03  0.00000000000E+00 0. -1.
          6    1    1    2  501    0 -0.74578177806E+02  0.90704190497E+02  0.41721306917E+02  0.21321074605E+03  0.17300000000E+03 0.  1.
         -6    1    1    2    0  503  0.74578177806E+02 -0.90704190497E+02 -0.58052624754E+02  0.21699829958E+03  0.17300000000E+03 0.  1.
<mgrwt>
<rscale>  2 0.20908887E+03</rscale>
<asrwt>0</asrwt>
<pdfrwt beam="1">  1       21 0.31836749E-01 0.20908887E+03</pdfrwt>
<pdfrwt beam="2">  1       21 0.34349258E-01 0.20908887E+03</pdfrwt>
<totfact> 0.76940271E+04</totfact>
</mgrwt>
</event>
<event>
 4    1  0.3945627E+000  0.1991540E+03  0.7546771E-02  0.1150455E+00
         21   -1    0    0  503  502  0.00000000000E+00  0.00000000000E+00  0.15696690088E+03  0.15696690088E+03  0.00000000000E+00 0.  1.
         21   -1    0    0  501  503 -0.00000000000E+00 -0.00000000000E+00 -0.27766755426E+03  0.27766755426E+03  0.00000000000E+00 0.  1.
          6    1    1    2  501    0 -0.85556726711E+02 -0.49125928117E+02  0.48422635128E+01  0.19921284551E+03  0.17300000000E+03 0.  1.
         -6    1    1    2    0  502  0.85556726711E+02  0.49125928117E+02 -0.12554291690E+03  0.23542160963E+03  0.17300000000E+03 0.  1.
<mgrwt>
<rscale>  2 0.19915399E+03</rscale>
<asrwt>0</asrwt>
<pdfrwt beam="1">  1       21 0.24148754E-01 0.19915399E+03</pdfrwt>
<pdfrwt beam="2">  1       21 0.42718086E-01 0.19915399E+03</pdfrwt>
<totfact> 0.85054938E+04</totfact>
</mgrwt>
</event>
<event>
 4    1  0.3945627E+000  0.1902726E+03  0.7546771E-02  0.1158216E+00
         21   -1    0    0  503  502  0.00000000000E+00  0.00000000000E+00  0.76031765960E+02  0.76031765960E+02  0.00000000000E+00 0. -1.
         21   -1    0    0  501  503 -0.00000000000E+00 -0.00000000000E+00 -0.49083543409E+03  0.49083543409E+03  0.00000000000E+00 0. -1.
          6    1    1    2  501    0  0.71482529142E+02  0.34130737953E+02 -0.25640296967E+03  0.31929005951E+03  0.17300000000E+03 0. -1.
         -6    1    1    2    0  502 -0.71482529142E+02 -0.34130737953E+02 -0.15840069846E+03  0.24757714054E+03  0.17300000000E+03 0. -1.
<mgrwt>
<rscale>  2 0.19027259E+03</rscale>
<asrwt>0</asrwt>
<pdfrwt beam="1">  1       21 0.11697195E-01 0.19027259E+03</pdfrwt>
<pdfrwt beam="2">  1       21 0.75513141E-01 0.19027259E+03</pdfrwt>
<totfact> 0.96277358E+04</totfact>
</mgrwt>
</event>
<event>
 4    1  0.3945627E+000  0.1862586E+03  0.7546771E-02  0.1161880E+00
         21   -1    0    0  503  502  0.00000000000E+00  0.00000000000E+00  0.10423030201E+04  0.10423030201E+04  0.00000000000E+00 0.  1.
         21   -1    0    0  501  503 -0.00000000000E+00 -0.00000000000E+00 -0.66261631467E+02  0.66261631467E+02  0.00000000000E+00 0.  1.
          6    1    1    2  501    0  0.13374297982E+02 -0.67708066593E+02  0.96992403478E+02  0.20999947729E+03  0.17300000000E+03 0.  1.
         -6    1    1    2    0  502 -0.13374297982E+02  0.67708066593E+02  0.87904898515E+03  0.89856517428E+03  0.17300000000E+03 0.  1.
<mgrwt>
<rscale>  2 0.18625857E+03</rscale>
<asrwt>0</asrwt>
<pdfrwt beam="1">  1       21 0.16035430E+00 0.18625857E+03</pdfrwt>
<pdfrwt beam="2">  1       21 0.10194098E-01 0.18625857E+03</pdfrwt>
<totfact> 0.19710681E+04</totfact>
</mgrwt>
</event>
<event>
 4    1  0.3945627E+000  0.3784345E+03  0.7546771E-02  0.1051514E+00
         21   -1    0    0  501  502  0.00000000000E+00  0.00000000000E+00  0.45698571262E+03  0.45698571262E+03  0.00000000000E+00 0.  1.
         21   -1    0    0  502  503 -0.00000000000E+00 -0.00000000000E+00 -0.52554673456E+03  0.52554673456E+03  0.00000000000E+00 0. -1.
          6    1    1    2  501    0 -0.15461419905E+03  0.29896172767E+03  0.27785581984E+03  0.46948537973E+03  0.17300000000E+03 0.  1.
         -6    1    1    2    0  503  0.15461419905E+03 -0.29896172767E+03 -0.34641684178E+03  0.51304706746E+03  0.17300000000E+03 0. -1.
<mgrwt>
<rscale>  2 0.37843449E+03</rscale>
<asrwt>0</asrwt>
<pdfrwt beam="1">  1       21 0.70305495E-01 0.37843449E+03</pdfrwt>
<pdfrwt beam="2">  1       21 0.80853343E-01 0.37843449E+03</pdfrwt>
<totfact> 0.21934702E+03</totfact>
</mgrwt>
</event>
<event>
 4    1  0.3945627E+000  0.1898584E+03  0.7546771E-02  0.1158589E+00
         21   -1    0    0  501  502  0.00000000000E+00  0.00000000000E+00  0.50521564155E+03  0.50521564155E+03  0.00000000000E+00 0. -1.
         21   -1    0    0  502  503 -0.00000000000E+00 -0.00000000000E+00 -0.16601677040E+03  0.16601677040E+03  0.00000000000E+00 0. -1.
          6    1    1    2  501    0 -0.30077289188E+02 -0.72198165143E+02  0.42303636021E+03  0.46368737360E+03  0.17300000000E+03 0. -1.
         -6    1    1    2    0  503  0.30077289188E+02  0.72198165143E+02 -0.83837489057E+02  0.20754503836E+03  0.17300000000E+03 0. -1.
<mgrwt>
<rscale>  2 0.18985842E+03</rscale>
<asrwt>0</asrwt>
<pdfrwt beam="1">  1       21 0.77725483E-01 0.18985842E+03</pdfrwt>
<pdfrwt beam="2">  1       21 0.25541042E-01 0.18985842E+03</pdfrwt>
<totfact> 0.21375774E+04</totfact>
</mgrwt>
</event>
<event>
 4    1  0.3945627E+000  0.4160067E+03  0.7546771E-02  0.1038374E+00
         21   -1    0    0  501  502  0.00000000000E+00  0.00000000000E+00  0.40820671707E+03  0.40820671707E+03  0.00000000000E+00 0.  1.
         21   -1    0    0  502  503 -0.00000000000E+00 -0.00000000000E+00 -0.47252332063E+03  0.47252332063E+03  0.00000000000E+00 0. -1.
          6    1    1    2  501    0  0.35176076424E+03  0.13927274898E+03  0.10902227056E+03  0.43005510036E+03  0.17300000000E+03 0.  1.
         -6    1    1    2    0  503 -0.35176076424E+03 -0.13927274898E+03 -0.17333887411E+03  0.45067493734E+03  0.17300000000E+03 0. -1.
<mgrwt>
<rscale>  2 0.41600665E+03</rscale>
<asrwt>0</asrwt>
<pdfrwt beam="1">  1       21 0.62801033E-01 0.41600665E+03</pdfrwt>
<pdfrwt beam="2">  1       21 0.72695896E-01 0.41600665E+03</pdfrwt>
<totfact> 0.35397014E+03</totfact>
</mgrwt>
</event>
<event>
 4    1  0.3945627E+000  0.2197115E+03  0.7546771E-02  0.1134098E+00
         21   -1    0    0  503  502  0.00000000000E+00  0.00000000000E+00  0.22933432863E+02  0.22933432863E+02  0.00000000000E+00 0. -1.
         21   -1    0    0  501  503 -0.00000000000E+00 -0.00000000000E+00 -0.21194772454E+04  0.21194772454E+04  0.00000000000E+00 0. -1.
          6    1    1    2  501    0  0.86648844705E+02  0.10409666072E+03 -0.11370356859E+04  0.11580687752E+04  0.17300000000E+03 0. -1.
         -6    1    1    2    0  502 -0.86648844705E+02 -0.10409666072E+03 -0.95950812661E+03  0.98434190305E+03  0.17300000000E+03 0. -1.
<mgrwt>
<rscale>  2 0.21971149E+03</rscale>
<asrwt>0</asrwt>
<pdfrwt beam="1">  1       21 0.35282194E-02 0.21971149E+03</pdfrwt>
<pdfrwt beam="2">  1       21 0.32607352E+00 0.21971149E+03</pdfrwt>
<totfact> 0.11333812E+04</totfact>
</mgrwt>
</event>
<event>
 4    1  0.3945627E+000  0.1785739E+03  0.7546771E-02  0.1169190E+00
         21   -1    0    0  501  502  0.00000000000E+00  0.00000000000E+00  0.12890837172E+03  0.12890837172E+03  0.00000000000E+00 0.  1.
         21   -1    0    0  502  503 -0.00000000000E+00 -0.00000000000E+00 -0.37208707935E+03  0.37208707935E+03  0.00000000000E+00 0.  1.
          6    1    1    2  501    0 -0.35156477788E+02  0.26900625092E+02  0.23433659929E+02  0.18010485273E+03  0.17300000000E+03 0.  1.
         -6    1    1    2    0  503  0.35156477788E+02 -0.26900625092E+02 -0.26661236756E+03  0.32089059833E+03  0.17300000000E+03 0.  1.
<mgrwt>
<rscale>  2 0.17857385E+03</rscale>
<asrwt>0</asrwt>
<pdfrwt beam="1">  1       21 0.19832057E-01 0.17857385E+03</pdfrwt>
<pdfrwt beam="2">  1       21 0.57244165E-01 0.17857385E+03</pdfrwt>
<totfact> 0.67603019E+04</totfact>
</mgrwt>
</event>
<event>
 4    1  0.3945627E+000  0.2310731E+03  0.7546771E-02  0.1125887E+00
         21   -1    0    0  503  502  0.00000000000E+00  0.00000000000E+00  0.11454147849E+04  0.11454147849E+04  0.00000000000E+00 0. -1.
         21   -1    0    0  501  503 -0.00000000000E+00 -0.00000000000E+00 -0.46830454962E+02  0.46830454962E+02  0.00000000000E+00 0.  1.
          6    1    1    2  501    0 -0.12912607761E+03  0.82415045006E+02  0.58962198866E+03  0.63328419614E+03  0.17300000000E+03 0. -1.
         -6    1    1    2    0  502  0.12912607761E+03 -0.82415045006E+02  0.50896234124E+03  0.55896104369E+03  0.17300000000E+03 0.  1.
<mgrwt>
<rscale>  2 0.23107311E+03</rscale>
<asrwt>0</asrwt>
<pdfrwt beam="1">  1       21 0.17621764E+00 0.23107311E+03</pdfrwt>
<pdfrwt beam="2">  1       21 0.72046862E-02 0.23107311E+03</pdfrwt>
<totfact> 0.27116248E+04</totfact>
</mgrwt>
</event>
<event>
 4    1  0.3945627E+000  0.1883857E+03  0.7546771E-02  0.1159925E+00
         21   -1    0    0  503  502  0.00000000000E+00  0.00000000000E+00  0.19104241985E+04  0.19104241985E+04  0.00000000000E+00 0.  1.
         21   -1    0    0  501  503 -0.00000000000E+00 -0.00000000000E+00 -0.19860167569E+02  0.19860167569E+02  0.00000000000E+00 0.  1.
          6    1    1    2  501    0 -0.71943522819E+02 -0.19603736723E+02  0.11906455536E+04  0.12054567646E+04  0.17300000000E+03 0.  1.
         -6    1    1    2    0  502  0.71943522819E+02  0.19603736723E+02  0.69991847737E+03  0.72482760153E+03  0.17300000000E+03 0.  1.
<mgrwt>
<rscale>  2 0.18838571E+03</rscale>
<asrwt>0</asrwt>
<pdfrwt beam="1">  1       21 0.29391127E+00 0.18838571E+03</pdfrwt>
<pdfrwt beam="2">  1       21 0.30554119E-02 0.18838571E+03</pdfrwt>
<totfact> 0.22809995E+04</totfact>
</mgrwt>
</event>
<event>
 4    1  0.3945627E+000  0.1778250E+03  0.7546771E-02  0.1169925E+00
         21   -1    0    0  501  502  0.00000000000E+00  0.00000000000E+00  0.17972019369E+03  0.17972019369E+03  0.00000000000E+00 0. -1.
         21   -1    0    0  502  503 -0.00000000000E+00 -0.00000000000E+00 -0.18358390126E+03  0.18358390126E+03  0.00000000000E+00 0. -1.
          6    1    1    2  501    0 -0.12551970713E+02 -0.39181297926E+02  0.35110870352E+02  0.18125810132E+03  0.17300000000E+03 0. -1.
         -6    1    1    2    0  503  0.12551970713E+02  0.39181297926E+02 -0.38974577924E+02  0.18204599364E+03  0.17300000000E+03 0. -1.
<mgrwt>
<rscale>  2 0.17782499E+03</rscale>
<asrwt>0</asrwt>
<pdfrwt beam="1">  1       21 0.27649261E-01 0.17782499E+03</pdfrwt>
<pdfrwt beam="2">  1       21 0.28243677E-01 0.17782499E+03</pdfrwt>
<totfact> 0.15028410E+05</totfact>
</mgrwt>
</event>
<event>
 4    1  0.3945627E+000  0.1793024E+03  0.7546771E-02  0.1168480E+00
         21   -1    0    0  503  502  0.00000000000E+00  0.00000000000E+00  0.32880036524E+02  0.32880036524E+02  0.00000000000E+00 0. -1.
         21   -1    0    0  501  503 -0.00000000000E+00 -0.00000000000E+00 -0.16023972780E+04  0.16023972780E+04  0.00000000000E+00 0. -1.
          6    1    1    2  501    0  0.29813537795E+02  0.36489947385E+02 -0.12952449863E+04  0.13075966266E+04  0.17300000000E+03 0. -1.
         -6    1    1    2    0  502 -0.29813537795E+02 -0.36489947385E+02 -0.27427225518E+03  0.32768068795E+03  0.17300000000E+03 0. -1.
<mgrwt>
<rscale>  2 0.17930244E+03</rscale>
<asrwt>0</asrwt>
<pdfrwt beam="1">  1       21 0.50584667E-02 0.17930244E+03</pdfrwt>
<pdfrwt beam="2">  1       21 0.24652268E+00 0.17930244E+03</pdfrwt>
<totfact> 0.18605426E+04</totfact>
</mgrwt>
</event>
<event>
 4    1  0.3945627E+000  0.2049839E+03  0.7546771E-02  0.1145601E+00
         21   -1    0    0  503  502  0.00000000000E+00  0.00000000000E+00  0.83842229031E+03  0.83842229031E+03  0.00000000000E+00 0.  1.
         21   -1    0    0  501  503 -0.00000000000E+00 -0.00000000000E+00 -0.52449539926E+02  0.52449539926E+02  0.00000000000E+00 0.  1.
          6    1    1    2  501    0 -0.10992493575E+03 -0.24313675952E+01  0.29903167608E+03  0.36254426812E+03  0.17300000000E+03 0.  1.
         -6    1    1    2    0  502  0.10992493575E+03  0.24313675952E+01  0.48694107430E+03  0.52832756211E+03  0.17300000000E+03 0.  1.
<mgrwt>
<rscale>  2 0.20498391E+03</rscale>
<asrwt>0</asrwt>
<pdfrwt beam="1">  1       21 0.12898804E+00 0.20498391E+03</pdfrwt>
<pdfrwt beam="2">  1       21 0.80691606E-02 0.20498391E+03</pdfrwt>
<totfact> 0.51772978E+04</totfact>
</mgrwt>
</event>
<event>
 4    1  0.3945627E+000  0.4324816E+03  0.7546771E-02  0.1033079E+00
         21   -1    0    0  501  502  0.00000000000E+00  0.00000000000E+00  0.11593910460E+04  0.11593910460E+04  0.00000000000E+00 0.  1.
         21   -1    0    0  502  503 -0.00000000000E+00 -0.00000000000E+00 -0.30235891521E+03  0.30235891521E+03  0.00000000000E+00 0. -1.
          6    1    1    2  501    0 -0.13792490395E+02  0.39613268578E+03  0.92767792376E+03  0.10235363539E+04  0.17300000000E+03 0.  1.
         -6    1    1    2    0  503  0.13792490395E+02 -0.39613268578E+03 -0.70645792991E+02  0.43821360728E+03  0.17300000000E+03 0. -1.
<mgrwt>
<rscale>  2 0.43248160E+03</rscale>
<asrwt>0</asrwt>
<pdfrwt beam="1">  1       21 0.17836785E+00 0.43248160E+03</pdfrwt>
<pdfrwt beam="2">  1       21 0.46516757E-01 0.43248160E+03</pdfrwt>
<totfact> 0.69420679E+02</totfact>
</mgrwt>
</event>
<event>
 4    1  0.3945627E+000  0.1933764E+03  0.7546771E-02  0.1155451E+00
         21   -1    0    0  501  502  0.00000000000E+00  0.00000000000E+00  0.31681928538E+03  0.31681928538E+03  0.00000000000E+00 0. -1.
         21   -1    0    0  502  503 -0.00000000000E+00 -0.00000000000E+00 -0.21576462022E+03  0.21576462022E+03  0.00000000000E+00 0.  1.
          6    1    1    2  501    0 -0.26514609822E+02  0.82233748040E+02  0.22974899547E+03  0.30029820974E+03  0.17300000000E+03 0. -1.
         -6    1    1    2    0  503  0.26514609822E+02 -0.82233748040E+02 -0.12869433031E+03  0.23228569587E+03  0.17300000000E+03 0.  1.
<mgrwt>
<rscale>  2 0.19337635E+03</rscale>
<asrwt>0</asrwt>
<pdfrwt beam="1">  1       21 0.48741428E-01 0.19337635E+03</pdfrwt>
<pdfrwt beam="2">  1       21 0.33194557E-01 0.19337635E+03</pdfrwt>
<totfact> 0.35101788E+04</totfact>
</mgrwt>
</event>
<event>
 4    1  0.3945627E+000  0.1848351E+03  0.7546771E-02  0.1163204E+00
         21   -1    0    0  501  502  0.00000000000E+00  0.00000000000E+00  0.25830093675E+03  0.25830093675E+03  0.00000000000E+00 0. -1.
         21   -1    0    0  502  503 -0.00000000000E+00 -0.00000000000E+00 -0.14010352419E+03  0.14010352419E+03  0.00000000000E+00 0. -1.
          6    1    1    2  501    0  0.57683178140E+02 -0.30127531910E+02  0.10621852034E+03  0.21318159227E+03  0.17300000000E+03 0. -1.
         -6    1    1    2    0  503 -0.57683178140E+02  0.30127531910E+02  0.11978892215E+02  0.18522286867E+03  0.17300000000E+03 0. -1.
<mgrwt>
<rscale>  2 0.18483511E+03</rscale>
<asrwt>0</asrwt>
<pdfrwt beam="1">  1       21 0.39738605E-01 0.18483511E+03</pdfrwt>
<pdfrwt beam="2">  1       21 0.21554388E-01 0.18483511E+03</pdfrwt>
<totfact> 0.12278430E+05</totfact>
</mgrwt>
</event>
<event>
 4    1  0.3945627E+000  0.1756751E+03  0.7546771E-02  0.1172056E+00
         21   -1    0    0  501  502  0.00000000000E+00  0.00000000000E+00  0.25895899957E+02  0.25895899957E+02  0.00000000000E+00 0. -1.
         21   -1    0    0  502  503 -0.00000000000E+00 -0.00000000000E+00 -0.19960265524E+04  0.19960265524E+04  0.00000000000E+00 0. -1.
          6    1    1    2  501    0  0.29897574636E+01 -0.30394191957E+02 -0.34333753535E+03  0.38567137401E+03  0.17300000000E+03 0. -1.
         -6    1    1    2    0  503 -0.29897574636E+01  0.30394191957E+02 -0.16267931171E+04  0.16362510783E+04  0.17300000000E+03 0. -1.
<mgrwt>
<rscale>  2 0.17567511E+03</rscale>
<asrwt>0</asrwt>
<pdfrwt beam="1">  1       21 0.39839851E-02 0.17567511E+03</pdfrwt>
<pdfrwt beam="2">  1       21 0.30708097E+00 0.17567511E+03</pdfrwt>
<totfact> 0.12493706E+04</totfact>
</mgrwt>
</event>
<event>
 4    1  0.3945627E+000  0.1823694E+03  0.7546771E-02  0.1165529E+00
         21   -1    0    0  503  502  0.00000000000E+00  0.00000000000E+00  0.18814974781E+03  0.18814974781E+03  0.00000000000E+00 0. -1.
         21   -1    0    0  501  503 -0.00000000000E+00 -0.00000000000E+00 -0.98667234591E+03  0.98667234591E+03  0.00000000000E+00 0. -1.
          6    1    1    2  501    0  0.31260253899E+02 -0.48501316435E+02 -0.93145886741E+03  0.94914393158E+03  0.17300000000E+03 0. -1.
         -6    1    1    2    0  502 -0.31260253899E+02  0.48501316435E+02  0.13293626931E+03  0.22567816214E+03  0.17300000000E+03 0. -1.
<mgrwt>
<rscale>  2 0.18236935E+03</rscale>
<asrwt>0</asrwt>
<pdfrwt beam="1">  1       21 0.28946115E-01 0.18236935E+03</pdfrwt>
<pdfrwt beam="2">  1       21 0.15179575E+00 0.18236935E+03</pdfrwt>
<totfact> 0.33403096E+03</totfact>
</mgrwt>
</event>
<event>
 4    1  0.3945627E+000  0.2662574E+03  0.7546771E-02  0.1103441E+00
         21   -1    0    0  501  502  0.00000000000E+00  0.00000000000E+00  0.20207276322E+03  0.20207276322E+03  0.00000000000E+00 0. -1.
         21   -1    0    0  502  503 -0.00000000000E+00 -0.00000000000E+00 -0.37595101121E+03  0.37595101121E+03  0.00000000000E+00 0.  1.
          6    1    1    2  501    0 -0.19574878951E+03 -0.51443362603E+02 -0.16164870638E+03  0.31148565364E+03  0.17300000000E+03 0. -1.
         -6    1    1    2    0  503  0.19574878951E+03  0.51443362603E+02 -0.12229541615E+02  0.26653812080E+03  0.17300000000E+03 0.  1.
<mgrwt>
<rscale>  2 0.26625741E+03</rscale>
<asrwt>0</asrwt>
<pdfrwt beam="1">  1       21 0.31088117E-01 0.26625741E+03</pdfrwt>
<pdfrwt beam="2">  1       21 0.57838617E-01 0.26625741E+03</pdfrwt>
<totfact> 0.26860970E+04</totfact>
</mgrwt>
</event>
<event>
 4    1  0.3945627E+000  0.1756019E+03  0.7546771E-02  0.1172129E+00
         21   -1    0    0  503  502  0.00000000000E+00  0.00000000000E+00  0.96338901507E+02  0.96338901507E+02  0.00000000000E+00 0.  1.
         21   -1    0    0  501  503 -0.00000000000E+00 -0.00000000000E+00 -0.37368227610E+03  0.37368227610E+03  0.00000000000E+00 0. -1.
          6    1    1    2  501    0  0.39520571833E+01  0.29856592215E+02 -0.22768047246E+03  0.28753161982E+03  0.17300000000E+03 0. -1.
         -6    1    1    2    0  502 -0.39520571833E+01 -0.29856592215E+02 -0.49662902133E+02  0.18248955779E+03  0.17300000000E+03 0.  1.
<mgrwt>
<rscale>  2 0.17560192E+03</rscale>
<asrwt>0</asrwt>
<pdfrwt beam="1">  1       21 0.14821370E-01 0.17560192E+03</pdfrwt>
<pdfrwt beam="2">  1       21 0.57489579E-01 0.17560192E+03</pdfrwt>
<totfact> 0.11455263E+05</totfact>
</mgrwt>
</event>
<event>
 4    1  0.3945627E+000  0.2006928E+03  0.7546771E-02  0.1149156E+00
         21   -1    0    0  503  502  0.00000000000E+00  0.00000000000E+00  0.91890198896E+02  0.91890198896E+02  0.00000000000E+00 0. -1.
         21   -1    0    0  501  503 -0.00000000000E+00 -0.00000000000E+00 -0.68559209452E+03  0.68559209452E+03  0.00000000000E+00 0. -1.
          6    1    1    2  501    0 -0.99368297641E+02  0.21783887356E+02 -0.53031092953E+03  0.56701611821E+03  0.17300000000E+03 0. -1.
         -6    1    1    2    0  502  0.99368297641E+02 -0.21783887356E+02 -0.63390966090E+02  0.21046617521E+03  0.17300000000E+03 0. -1.
<mgrwt>
<rscale>  2 0.20069279E+03</rscale>
<asrwt>0</asrwt>
<pdfrwt beam="1">  1       21 0.14136954E-01 0.20069279E+03</pdfrwt>
<pdfrwt beam="2">  1       21 0.10547571E+00 0.20069279E+03</pdfrwt>
<totfact> 0.31428223E+04</totfact>
</mgrwt>
</event>
<event>
 4    1  0.3945627E+000  0.1738002E+03  0.7546771E-02  0.1173942E+00
         21   -1    0    0  501  502  0.00000000000E+00  0.00000000000E+00  0.72127865775E+02  0.72127865775E+02  0.00000000000E+00 0.  1.
         21   -1    0    0  502  503 -0.00000000000E+00 -0.00000000000E+00 -0.65708410425E+03  0.65708410425E+03  0.00000000000E+00 0.  1.
          6    1    1    2  501    0  0.16448051552E+02  0.26409611139E+01 -0.72910194019E+02  0.18847389598E+03  0.17300000000E+03 0.  1.
         -6    1    1    2    0  503 -0.16448051552E+02 -0.26409611139E+01 -0.51204604446E+03  0.54073807404E+03  0.17300000000E+03 0.  1.
<mgrwt>
<rscale>  2 0.17380021E+03</rscale>
<asrwt>0</asrwt>
<pdfrwt beam="1">  1       21 0.11096595E-01 0.17380021E+03</pdfrwt>
<pdfrwt beam="2">  1       21 0.10108986E+00 0.17380021E+03</pdfrwt>
<totfact> 0.54491387E+04</totfact>
</mgrwt>
</event>
<event>
 4    1  0.3945627E+000  0.1913977E+03  0.7546771E-02  0.1157207E+00
         21   -1    0    0  503  502  0.00000000000E+00  0.00000000000E+00  0.61577690824E+03  0.61577690824E+03  0.00000000000E+00 0.  1.
         21   -1    0    0  501  503 -0.00000000000E+00 -0.00000000000E+00 -0.60727074805E+02  0.60727074805E+02  0.00000000000E+00 0.  1.
          6    1    1    2  501    0 -0.10552754285E+02 -0.81195573264E+02  0.32578640870E+03  0.37784899872E+03  0.17300000000E+03 0.  1.
         -6    1    1    2    0  502  0.10552754285E+02  0.81195573264E+02  0.22926342473E+03  0.29865498432E+03  0.17300000000E+03 0.  1.
<mgrwt>
<rscale>  2 0.19139771E+03</rscale>
<asrwt>0</asrwt>
<pdfrwt beam="1">  1       21 0.94734905E-01 0.19139771E+03</pdfrwt>
<pdfrwt beam="2">  1       21 0.93426273E-02 0.19139771E+03</pdfrwt>
<totfact> 0.85344616E+04</totfact>
</mgrwt>
</event>
<event>
 4    1  0.3945627E+000  0.2114822E+03  0.7546771E-02  0.1140398E+00
         21   -1    0    0  503  502  0.00000000000E+00  0.00000000000E+00  0.19611186386E+03  0.19611186386E+03  0.00000000000E+00 0.  1.
         21   -1    0    0  501  503 -0.00000000000E+00 -0.00000000000E+00 -0.32742662272E+03  0.32742662272E+03  0.00000000000E+00 0. -1.
          6    1    1    2  501    0 -0.56150907520E+02 -0.10790174536E+03 -0.20986497467E+03  0.29793962251E+03  0.17300000000E+03 0. -1.
         -6    1    1    2    0  502  0.56150907520E+02  0.10790174536E+03  0.78550215816E+02  0.22559886407E+03  0.17300000000E+03 0.  1.
<mgrwt>
<rscale>  2 0.21148218E+03</rscale>
<asrwt>0</asrwt>
<pdfrwt beam="1">  1       21 0.30171056E-01 0.21148218E+03</pdfrwt>
<pdfrwt beam="2">  1       21 0.50373326E-01 0.21148218E+03</pdfrwt>
<totfact> 0.39159425E+04</totfact>
</mgrwt>
</event>
<event>
 4    1  0.3945627E+000  0.2043391E+03  0.7546771E-02  0.1146129E+00
         21   -1    0    0  503  502  0.00000000000E+00  0.00000000000E+00  0.50766623391E+03  0.50766623391E+03  0.00000000000E+00 0.  1.
         21   -1    0    0  501  503 -0.00000000000E+00 -0.00000000000E+00 -0.16237367826E+03  0.16237367826E+03  0.00000000000E+00 0.  1.
          6    1    1    2  501    0  0.90349948545E+02  0.60517371390E+02 -0.62695527047E+02  0.21374095198E+03  0.17300000000E+03 0.  1.
         -6    1    1    2    0  502 -0.90349948545E+02 -0.60517371390E+02  0.40798808270E+03  0.45629896018E+03  0.17300000000E+03 0.  1.
<mgrwt>
<rscale>  2 0.20433909E+03</rscale>
<asrwt>0</asrwt>
<pdfrwt beam="1">  1       21 0.78102497E-01 0.20433909E+03</pdfrwt>
<pdfrwt beam="2">  1       21 0.24980566E-01 0.20433909E+03</pdfrwt>
<totfact> 0.21870491E+04</totfact>
</mgrwt>
</event>
<event>
 4    1  0.3945627E+000  0.2599282E+03  0.7546771E-02  0.1107186E+00
         21   -1    0    0  503  502  0.00000000000E+00  0.00000000000E+00  0.13218612079E+04  0.13218612079E+04  0.00000000000E+00 0.  1.
         21   -1    0    0  501  503 -0.00000000000E+00 -0.00000000000E+00 -0.52387564984E+02  0.52387564984E+02  0.00000000000E+00 0. -1.
          6    1    1    2  501    0 -0.19312457903E+03  0.18345832011E+02  0.52750816659E+03  0.58807103176E+03  0.17300000000E+03 0. -1.
         -6    1    1    2    0  502  0.19312457903E+03 -0.18345832011E+02  0.74196547634E+03  0.78617774114E+03  0.17300000000E+03 0.  1.
<mgrwt>
<rscale>  2 0.25992821E+03</rscale>
<asrwt>0</asrwt>
<pdfrwt beam="1">  1       21 0.20336324E+00 0.25992821E+03</pdfrwt>
<pdfrwt beam="2">  1       21 0.80596264E-02 0.25992821E+03</pdfrwt>
<totfact> 0.14432087E+04</totfact>
</mgrwt>
</event>
<event>
 4    1  0.3945627E+000  0.2457344E+03  0.7546771E-02  0.1116031E+00
         21   -1    0    0  503  502  0.00000000000E+00  0.00000000000E+00  0.21138235133E+03  0.21138235133E+03  0.00000000000E+00 0. -1.
         21   -1    0    0  501  503 -0.00000000000E+00 -0.00000000000E+00 -0.28763819050E+03  0.28763819050E+03  0.00000000000E+00 0.  1.
          6    1    1    2  501    0  0.25145460366E+01 -0.17449954094E+03 -0.58771951075E+02  0.25266490647E+03  0.17300000000E+03 0.  1.
         -6    1    1    2    0  502 -0.25145460366E+01  0.17449954094E+03 -0.17483888089E+02  0.24635563536E+03  0.17300000000E+03 0.  1.
<mgrwt>
<rscale>  2 0.24573444E+03</rscale>
<asrwt>0</asrwt>
<pdfrwt beam="1">  1       21 0.32520362E-01 0.24573444E+03</pdfrwt>
<pdfrwt beam="2">  1       21 0.44252029E-01 0.24573444E+03</pdfrwt>
<totfact> 0.43541941E+04</totfact>
</mgrwt>
</event>
<event>
 4    1  0.3945627E+000  0.1799173E+03  0.7546771E-02  0.1167883E+00
         21   -1    0    0  503  502  0.00000000000E+00  0.00000000000E+00  0.14794942220E+03  0.14794942220E+03  0.00000000000E+00 0.  1.
         21   -1    0    0  501  503 -0.00000000000E+00 -0.00000000000E+00 -0.25519554892E+03  0.25519554892E+03  0.00000000000E+00 0.  1.
          6    1    1    2  501    0 -0.26644184921E+02  0.41609135284E+02  0.22508233782E+02  0.18131975435E+03  0.17300000000E+03 0.  1.
         -6    1    1    2    0  502  0.26644184921E+02 -0.41609135284E+02 -0.12975436050E+03  0.22182521678E+03  0.17300000000E+03 0.  1.
<mgrwt>
<rscale>  2 0.17991729E+03</rscale>
<asrwt>0</asrwt>
<pdfrwt beam="1">  1       21 0.22761450E-01 0.17991729E+03</pdfrwt>
<pdfrwt beam="2">  1       21 0.39260853E-01 0.17991729E+03</pdfrwt>
<totfact> 0.11373854E+05</totfact>
</mgrwt>
</event>
<event>
 4    1  0.3945627E+000  0.1920832E+03  0.7546771E-02  0.1156596E+00
         21   -1    0    0  503  502  0.00000000000E+00  0.00000000000E+00  0.60626088186E+03  0.60626088186E+03  0.00000000000E+00 0. -1.
         21   -1    0    0  501  503 -0.00000000000E+00 -0.00000000000E+00 -0.12409445400E+03  0.12409445400E+03  0.00000000000E+00 0.  1.
          6    1    1    2  501    0  0.71996923787E+02  0.42230326818E+02 -0.19598775568E+02  0.19308047426E+03  0.17300000000E+03 0.  1.
         -6    1    1    2    0  502 -0.71996923787E+02 -0.42230326818E+02  0.50176520343E+03  0.53727486160E+03  0.17300000000E+03 0. -1.
<mgrwt>
<rscale>  2 0.19208320E+03</rscale>
<asrwt>0</asrwt>
<pdfrwt beam="1">  1       21 0.93270903E-01 0.19208320E+03</pdfrwt>
<pdfrwt beam="2">  1       21 0.19091455E-01 0.19208320E+03</pdfrwt>
<totfact> 0.24350420E+04</totfact>
</mgrwt>
</event>
<event>
 4    1  0.3945627E+000  0.1902818E+03  0.7546771E-02  0.1158207E+00
         21   -1    0    0  501  502  0.00000000000E+00  0.00000000000E+00  0.14384768256E+03  0.14384768256E+03  0.00000000000E+00 0. -1.
         21   -1    0    0  502  503 -0.00000000000E+00 -0.00000000000E+00 -0.45065744597E+03  0.45065744597E+03  0.00000000000E+00 0.  1.
          6    1    1    2  501    0  0.28092221778E+02 -0.74087744344E+02  0.44099658257E+02  0.19532523300E+03  0.17300000000E+03 0. -1.
         -6    1    1    2    0  503 -0.28092221778E+02  0.74087744344E+02 -0.35090942167E+03  0.39917989554E+03  0.17300000000E+03 0.  1.
<mgrwt>
<rscale>  2 0.19028181E+03</rscale>
<asrwt>0</asrwt>
<pdfrwt beam="1">  1       21 0.22130413E-01 0.19028181E+03</pdfrwt>
<pdfrwt beam="2">  1       21 0.69331913E-01 0.19028181E+03</pdfrwt>
<totfact> 0.36171152E+04</totfact>
</mgrwt>
</event>
<event>
 4    1  0.3945627E+000  0.1982389E+03  0.7546771E-02  0.1151233E+00
         21   -1    0    0  503  502  0.00000000000E+00  0.00000000000E+00  0.88065263887E+02  0.88065263887E+02  0.00000000000E+00 0.  1.
         21   -1    0    0  501  503 -0.00000000000E+00 -0.00000000000E+00 -0.98414925474E+03  0.98414925474E+03  0.00000000000E+00 0.  1.
          6    1    1    2  501    0  0.40946425628E+02  0.87710089518E+02 -0.84438733728E+03  0.86734574706E+03  0.17300000000E+03 0.  1.
         -6    1    1    2    0  502 -0.40946425628E+02 -0.87710089518E+02 -0.51696653574E+02  0.20486877157E+03  0.17300000000E+03 0.  1.
<mgrwt>
<rscale>  2 0.19823892E+03</rscale>
<asrwt>0</asrwt>
<pdfrwt beam="1">  1       21 0.13548503E-01 0.19823892E+03</pdfrwt>
<pdfrwt beam="2">  1       21 0.15140757E+00 0.19823892E+03</pdfrwt>
<totfact> 0.13703895E+04</totfact>
</mgrwt>
</event>
<event>
 4    1  0.3945627E+000  0.1762229E+03  0.7546771E-02  0.1171509E+00
         21   -1    0    0  503  502  0.00000000000E+00  0.00000000000E+00  0.19440610817E+04  0.19440610817E+04  0.00000000000E+00 0. -1.
         21   -1    0    0  501  503 -0.00000000000E+00 -0.00000000000E+00 -0.17522336590E+02  0.17522336590E+02  0.00000000000E+00 0. -1.
          6    1    1    2  501    0 -0.25526151793E+02  0.21769643292E+02  0.67172248461E+03  0.69445345281E+03  0.17300000000E+03 0. -1.
         -6    1    1    2    0  502  0.25526151793E+02 -0.21769643292E+02  0.12548162605E+04  0.12671299655E+04  0.17300000000E+03 0. -1.
<mgrwt>
<rscale>  2 0.17622288E+03</rscale>
<asrwt>0</asrwt>
<pdfrwt beam="1">  1       21 0.29908615E+00 0.17622288E+03</pdfrwt>
<pdfrwt beam="2">  1       21 0.26957456E-02 0.17622288E+03</pdfrwt>
<totfact> 0.26516883E+04</totfact>
</mgrwt>
</event>
<event>
 4    1  0.3945627E+000  0.1986842E+03  0.7546771E-02  0.1150854E+00
         21   -1    0    0  503  502  0.00000000000E+00  0.00000000000E+00  0.43695889703E+03  0.43695889703E+03  0.00000000000E+00 0. -1.
         21   -1    0    0  501  503 -0.00000000000E+00 -0.00000000000E+00 -0.11220698508E+03  0.11220698508E+03  0.00000000000E+00 0. -1.
          6    1    1    2  501    0 -0.12787778538E+02  0.96865314373E+02  0.41163969626E+02  0.20290364414E+03  0.17300000000E+03 0.  1.
         -6    1    1    2    0  502  0.12787778538E+02 -0.96865314373E+02  0.28358794233E+03  0.34626223797E+03  0.17300000000E+03 0.  1.
<mgrwt>
<rscale>  2 0.19868421E+03</rscale>
<asrwt>0</asrwt>
<pdfrwt beam="1">  1       21 0.67224445E-01 0.19868421E+03</pdfrwt>
<pdfrwt beam="2">  1       21 0.17262613E-01 0.19868421E+03</pdfrwt>
<totfact> 0.61247024E+04</totfact>
</mgrwt>
</event>
<event>
 4    1  0.3945627E+000  0.2088892E+03  0.7546771E-02  0.1142449E+00
         21   -1    0    0  503  502  0.00000000000E+00  0.00000000000E+00  0.11994608355E+04  0.11994608355E+04  0.00000000000E+00 0.  1.
         21   -1    0    0  501  503 -0.00000000000E+00 -0.00000000000E+00 -0.36428316369E+02  0.36428316369E+02  0.00000000000E+00 0.  1.
          6    1    1    2  501    0  0.11432952777E+03 -0.25188499321E+02  0.55868677156E+03  0.59646090412E+03  0.17300000000E+03 0.  1.
         -6    1    1    2    0  502 -0.11432952777E+03  0.25188499321E+02  0.60434574753E+03  0.63942824771E+03  0.17300000000E+03 0.  1.
<mgrwt>
<rscale>  2 0.20888921E+03</rscale>
<asrwt>0</asrwt>
<pdfrwt beam="1">  1       21 0.18453241E+00 0.20888921E+03</pdfrwt>
<pdfrwt beam="2">  1       21 0.56043573E-02 0.20888921E+03</pdfrwt>
<totfact> 0.37174637E+04</totfact>
</mgrwt>
</event>
<event>
 4    1  0.3945627E+000  0.1808900E+03  0.7546771E-02  0.1166944E+00
         21   -1    0    0  501  502  0.00000000000E+00  0.00000000000E+00  0.50451306330E+03  0.50451306330E+03  0.00000000000E+00 0.  1.
         21   -1    0    0  502  503 -0.00000000000E+00 -0.00000000000E+00 -0.10190591557E+03  0.10190591557E+03  0.00000000000E+00 0.  1.
          6    1    1    2  501    0  0.36429724766E+02 -0.38276205730E+02  0.38412663204E+03  0.42458740233E+03  0.17300000000E+03 0.  1.
         -6    1    1    2    0  503 -0.36429724766E+02  0.38276205730E+02  0.18480515691E+02  0.18183157655E+03  0.17300000000E+03 0.  1.
<mgrwt>
<rscale>  2 0.18089000E+03</rscale>
<asrwt>0</asrwt>
<pdfrwt beam="1">  1       21 0.77617393E-01 0.18089000E+03</pdfrwt>
<pdfrwt beam="2">  1       21 0.15677833E-01 0.18089000E+03</pdfrwt>
<totfact> 0.53580637E+04</totfact>
</mgrwt>
</event>
<event>
 4    1  0.3945627E+000  0.2476782E+03  0.7546771E-02  0.1114781E+00
         21   -1    0    0  501  502  0.00000000000E+00  0.00000000000E+00  0.22506458271E+03  0.22506458271E+03  0.00000000000E+00 0.  1.
         21   -1    0    0  502  503 -0.00000000000E+00 -0.00000000000E+00 -0.36677029824E+03  0.36677029824E+03  0.00000000000E+00 0. -1.
          6    1    1    2  501    0  0.15891652536E+03  0.78492146771E+02  0.79120355202E+02  0.26000867244E+03  0.17300000000E+03 0.  1.
         -6    1    1    2    0  503 -0.15891652536E+03 -0.78492146771E+02 -0.22082607074E+03  0.33182620851E+03  0.17300000000E+03 0. -1.
<mgrwt>
<rscale>  2 0.24767818E+03</rscale>
<asrwt>0</asrwt>
<pdfrwt beam="1">  1       21 0.34625321E-01 0.24767818E+03</pdfrwt>
<pdfrwt beam="2">  1       21 0.56426199E-01 0.24767818E+03</pdfrwt>
<totfact> 0.23065078E+04</totfact>
</mgrwt>
</event>
<event>
 4    1  0.3945627E+000  0.2240728E+03  0.7546771E-02  0.1130883E+00
         21   -1    0    0  501  502  0.00000000000E+00  0.00000000000E+00  0.13676302334E+03  0.13676302334E+03  0.00000000000E+00 0.  1.
         21   -1    0    0  502  503 -0.00000000000E+00 -0.00000000000E+00 -0.39287547602E+03  0.39287547602E+03  0.00000000000E+00 0. -1.
          6    1    1    2  501    0 -0.72587588561E+01  0.14222135426E+03 -0.60253541659E+02  0.23203252460E+03  0.17300000000E+03 0.  1.
         -6    1    1    2    0  503  0.72587588561E+01 -0.14222135426E+03 -0.19585891102E+03  0.29760597476E+03  0.17300000000E+03 0. -1.
<mgrwt>
<rscale>  2 0.22407276E+03</rscale>
<asrwt>0</asrwt>
<pdfrwt beam="1">  1       21 0.21040466E-01 0.22407276E+03</pdfrwt>
<pdfrwt beam="2">  1       21 0.60442380E-01 0.22407276E+03</pdfrwt>
<totfact> 0.52762938E+04</totfact>
</mgrwt>
</event>
<event>
 4    1  0.3945627E+000  0.1866254E+03  0.7546771E-02  0.1161541E+00
         21   -1    0    0  503  502  0.00000000000E+00  0.00000000000E+00  0.10674096726E+03  0.10674096726E+03  0.00000000000E+00 0.  1.
         21   -1    0    0  501  503 -0.00000000000E+00 -0.00000000000E+00 -0.59945961367E+03  0.59945961367E+03  0.00000000000E+00 0. -1.
          6    1    1    2  501    0  0.29752393830E+02  0.63362699912E+02 -0.48471768042E+03  0.51940376047E+03  0.17300000000E+03 0. -1.
         -6    1    1    2    0  502 -0.29752393830E+02 -0.63362699912E+02 -0.80009659871E+01  0.18679682046E+03  0.17300000000E+03 0.  1.
<mgrwt>
<rscale>  2 0.18662539E+03</rscale>
<asrwt>0</asrwt>
<pdfrwt beam="1">  1       21 0.16421687E-01 0.18662539E+03</pdfrwt>
<pdfrwt beam="2">  1       21 0.92224557E-01 0.18662539E+03</pdfrwt>
<totfact> 0.33110976E+04</totfact>
</mgrwt>
</event>
<event>
 4    1  0.3945627E+000  0.2799987E+03  0.7546771E-02  0.1095690E+00
         21   -1    0    0  501  502  0.00000000000E+00  0.00000000000E+00  0.14417973018E+03  0.14417973018E+03  0.00000000000E+00 0.  1.
         21   -1    0    0  502  503 -0.00000000000E+00 -0.00000000000E+00 -0.54927797045E+03  0.54927797045E+03  0.00000000000E+00 0.  1.
          6    1    1    2  501    0 -0.21612831174E+03  0.41938322579E+02 -0.23729923867E+03  0.36702887994E+03  0.17300000000E+03 0.  1.
         -6    1    1    2    0  503  0.21612831174E+03 -0.41938322579E+02 -0.16779900160E+03  0.32642882068E+03  0.17300000000E+03 0.  1.
<mgrwt>
<rscale>  2 0.27999870E+03</rscale>
<asrwt>0</asrwt>
<pdfrwt beam="1">  1       21 0.22181497E-01 0.27999870E+03</pdfrwt>
<pdfrwt beam="2">  1       21 0.84504301E-01 0.27999870E+03</pdfrwt>
<totfact> 0.22071580E+04</totfact>
</mgrwt>
</event>
<event>
 4    1  0.3945627E+000  0.2357217E+03  0.7546771E-02  0.1122676E+00
         21   -1    0    0  501  502  0.00000000000E+00  0.00000000000E+00  0.99272076309E+03  0.99272076309E+03  0.00000000000E+00 0. -1.
         21   -1    0    0  502  503 -0.00000000000E+00 -0.00000000000E+00 -0.11178014882E+03  0.11178014882E+03  0.00000000000E+00 0.  1.
          6    1    1    2  501    0 -0.45839888149E+02 -0.15340940130E+03  0.83068343035E+03  0.86348115279E+03  0.17300000000E+03 0. -1.
         -6    1    1    2    0  503  0.45839888149E+02  0.15340940130E+03  0.50257183921E+02  0.24101975912E+03  0.17300000000E+03 0.  1.
<mgrwt>
<rscale>  2 0.23572174E+03</rscale>
<asrwt>0</asrwt>
<pdfrwt beam="1">  1       21 0.15272627E+00 0.23572174E+03</pdfrwt>
<pdfrwt beam="2">  1       21 0.17196947E-01 0.23572174E+03</pdfrwt>
<totfact> 0.84362989E+03</totfact>
</mgrwt>
</event>
<event>
 4    1  0.3945627E+000  0.2233682E+03  0.7546771E-02  0.1131397E+00
         21   -1    0    0  501  502  0.00000000000E+00  0.00000000000E+00  0.20189272270E+03  0.20189272270E+03  0.00000000000E+00 0. -1.
         21   -1    0    0  502  503 -0.00000000000E+00 -0.00000000000E+00 -0.25835520294E+03  0.25835520294E+03  0.00000000000E+00 0. -1.
          6    1    1    2  501    0  0.12927632706E+03  0.57026089024E+02  0.19740905155E+02  0.22423881668E+03  0.17300000000E+03 0. -1.
         -6    1    1    2    0  503 -0.12927632706E+03 -0.57026089024E+02 -0.76203385394E+02  0.23600910896E+03  0.17300000000E+03 0. -1.
<mgrwt>
<rscale>  2 0.22336818E+03</rscale>
<asrwt>0</asrwt>
<pdfrwt beam="1">  1       21 0.31060419E-01 0.22336818E+03</pdfrwt>
<pdfrwt beam="2">  1       21 0.39746954E-01 0.22336818E+03</pdfrwt>
<totfact> 0.59920385E+04</totfact>
</mgrwt>
</event>
<event>
 4    1  0.3945627E+000  0.2557605E+03  0.7546771E-02  0.1109717E+00
         21   -1    0    0  501  502  0.00000000000E+00  0.00000000000E+00  0.16802890305E+03  0.16802890305E+03  0.00000000000E+00 0. -1.
         21   -1    0    0  502  503 -0.00000000000E+00 -0.00000000000E+00 -0.48202091655E+03  0.48202091655E+03  0.00000000000E+00 0.  1.
          6    1    1    2  501    0  0.17997588195E+03 -0.55615707547E+02 -0.29954879802E+03  0.39388184447E+03  0.17300000000E+03 0.  1.
         -6    1    1    2    0  503 -0.17997588195E+03  0.55615707547E+02 -0.14443215474E+02  0.25616797513E+03  0.17300000000E+03 0. -1.
<mgrwt>
<rscale>  2 0.25576048E+03</rscale>
<asrwt>0</asrwt>
<pdfrwt beam="1">  1       21 0.25850601E-01 0.25576048E+03</pdfrwt>
<pdfrwt beam="2">  1       21 0.74157063E-01 0.25576048E+03</pdfrwt>
<totfact> 0.22402124E+04</totfact>
</mgrwt>
</event>
<event>
 4    1  0.3945627E+000  0.2156549E+03  0.7546771E-02  0.1137165E+00
         21   -1    0    0  501  502  0.00000000000E+00  0.00000000000E+00  0.33819129688E+03  0.33819129688E+03  0.00000000000E+00 0. -1.
         21   -1    0    0  502  503 -0.00000000000E+00 -0.00000000000E+00 -0.18684479104E+03  0.18684479104E+03  0.00000000000E+00 0.  1.
          6    1    1    2  501    0  0.11741877281E+03 -0.52828856589E+02  0.21055849867E+03  0.30139996294E+03  0.17300000000E+03 0. -1.
         -6    1    1    2    0  503 -0.11741877281E+03  0.52828856589E+02 -0.59211992835E+02  0.22363612497E+03  0.17300000000E+03 0.  1.
<mgrwt>
<rscale>  2 0.21565495E+03</rscale>
<asrwt>0</asrwt>
<pdfrwt beam="1">  1       21 0.52029430E-01 0.21565495E+03</pdfrwt>
<pdfrwt beam="2">  1       21 0.28745353E-01 0.21565495E+03</pdfrwt>
<totfact> 0.40129881E+04</totfact>
</mgrwt>
</event>
<event>
 4    1  0.3945627E+000  0.2871178E+03  0.7546771E-02  0.1091864E+00
         21   -1    0    0  503  502  0.00000000000E+00  0.00000000000E+00  0.44514582201E+03  0.44514582201E+03  0.00000000000E+00 0.  1.
         21   -1    0    0  501  503 -0.00000000000E+00 -0.00000000000E+00 -0.18747159233E+03  0.18747159233E+03  0.00000000000E+00 0. -1.
          6    1    1    2  501    0 -0.15592556174E+03  0.16791320509E+03  0.16373084265E+03  0.33052142757E+03  0.17300000000E+03 0. -1.
         -6    1    1    2    0  502  0.15592556174E+03 -0.16791320509E+03  0.93943387028E+02  0.30209598676E+03  0.17300000000E+03 0.  1.
<mgrwt>
<rscale>  2 0.28711779E+03</rscale>
<asrwt>0</asrwt>
<pdfrwt beam="1">  1       21 0.68483972E-01 0.28711779E+03</pdfrwt>
<pdfrwt beam="2">  1       21 0.28841784E-01 0.28711779E+03</pdfrwt>
<totfact> 0.21332163E+04</totfact>
</mgrwt>
</event>
<event>
 4    1  0.3945627E+000  0.3056985E+03  0.7546771E-02  0.1082426E+00
         21   -1    0    0  503  502  0.00000000000E+00  0.00000000000E+00  0.12327254822E+04  0.12327254822E+04  0.00000000000E+00 0. -1.
         21   -1    0    0  501  503 -0.00000000000E+00 -0.00000000000E+00 -0.14504800110E+03  0.14504800110E+03  0.00000000000E+00 0. -1.
          6    1    1    2  501    0 -0.16203648501E+01 -0.25203164816E+03  0.67881841851E+02  0.31314456998E+03  0.17300000000E+03 0. -1.
         -6    1    1    2    0  502  0.16203648501E+01  0.25203164816E+03  0.10197956393E+04  0.10646289133E+04  0.17300000000E+03 0. -1.
<mgrwt>
<rscale>  2 0.30569851E+03</rscale>
<asrwt>0</asrwt>
<pdfrwt beam="1">  1       21 0.18965007E+00 0.30569851E+03</pdfrwt>
<pdfrwt beam="2">  1       21 0.22315078E-01 0.30569851E+03</pdfrwt>
<totfact> 0.26974853E+03</totfact>
</mgrwt>
</event>
<event>
 4    1  0.3945627E+000  0.2601577E+03  0.7546771E-02  0.1107048E+00
         21   -1    0    0  503  502  0.00000000000E+00  0.00000000000E+00  0.38595673133E+03  0.38595673133E+03  0.00000000000E+00 0. -1.
         21   -1    0    0  501  503 -0.00000000000E+00 -0.00000000000E+00 -0.21064250435E+03  0.21064250435E+03  0.00000000000E+00 0.  1.
          6    1    1    2  501    0 -0.19056947733E+03 -0.37898919466E+02 -0.34424013114E+02  0.26242535408E+03  0.17300000000E+03 0.  1.
         -6    1    1    2    0  502  0.19056947733E+03  0.37898919466E+02  0.20973824009E+03  0.33417388160E+03  0.17300000000E+03 0. -1.
<mgrwt>
<rscale>  2 0.26015775E+03</rscale>
<asrwt>0</asrwt>
<pdfrwt beam="1">  1       21 0.59377958E-01 0.26015775E+03</pdfrwt>
<pdfrwt beam="2">  1       21 0.32406539E-01 0.26015775E+03</pdfrwt>
<totfact> 0.23444224E+04</totfact>
</mgrwt>
</event>
<event>
 4    1  0.3945627E+000  0.1938050E+03  0.7546771E-02  0.1155074E+00
         21   -1    0    0  501  502  0.00000000000E+00  0.00000000000E+00  0.92289039446E+03  0.92289039446E+03  0.00000000000E+00 0. -1.
         21   -1    0    0  502  503 -0.00000000000E+00 -0.00000000000E+00 -0.10796379385E+03  0.10796379385E+03  0.00000000000E+00 0.  1.
          6    1    1    2  501    0 -0.54914202475E+02 -0.67939806111E+02  0.81430291567E+03  0.83704816191E+03  0.17300000000E+03 0. -1.
         -6    1    1    2    0  503  0.54914202475E+02  0.67939806111E+02  0.62368494158E+00  0.19380602640E+03  0.17300000000E+03 0.  1.
<mgrwt>
<rscale>  2 0.19380502E+03</rscale>
<asrwt>0</asrwt>
<pdfrwt beam="1">  1       21 0.14198313E+00 0.19380502E+03</pdfrwt>
<pdfrwt beam="2">  1       21 0.16609815E-01 0.19380502E+03</pdfrwt>
<totfact> 0.11224273E+04</totfact>
</mgrwt>
</event>
<event>
 4    1  0.3945627E+000  0.2002190E+03  0.7546771E-02  0.1149554E+00
         21   -1    0    0  501  502  0.00000000000E+00  0.00000000000E+00  0.12726095562E+03  0.12726095562E+03  0.00000000000E+00 0. -1.
         21   -1    0    0  502  503 -0.00000000000E+00 -0.00000000000E+00 -0.38202907731E+03  0.38202907731E+03  0.00000000000E+00 0. -1.
          6    1    1    2  501    0  0.52650719759E+02 -0.85945000647E+02 -0.20722636093E+02  0.20128852196E+03  0.17300000000E+03 0. -1.
         -6    1    1    2    0  503 -0.52650719759E+02  0.85945000647E+02 -0.23404548560E+03  0.30800151096E+03  0.17300000000E+03 0. -1.
<mgrwt>
<rscale>  2 0.20021898E+03</rscale>
<asrwt>0</asrwt>
<pdfrwt beam="1">  1       21 0.19578609E-01 0.20021898E+03</pdfrwt>
<pdfrwt beam="2">  1       21 0.58773703E-01 0.20021898E+03</pdfrwt>
<totfact> 0.64828389E+04</totfact>
</mgrwt>
</event>
<event>
 4    1  0.3945627E+000  0.2900471E+03  0.7546771E-02  0.1090325E+00
         21   -1    0    0  503  502  0.00000000000E+00  0.00000000000E+00  0.10978893441E+04  0.10978893441E+04  0.00000000000E+00 0.  1.
         21   -1    0    0  501  503 -0.00000000000E+00 -0.00000000000E+00 -0.58012699240E+03  0.58012699240E+03  0.00000000000E+00 0. -1.
          6    1    1    2  501    0  0.14296101788E+03 -0.18374026493E+03 -0.52275496854E+03  0.59782948632E+03  0.17300000000E+03 0. -1.
         -6    1    1    2    0  502 -0.14296101788E+03  0.18374026493E+03  0.10405173203E+04  0.10801868502E+04  0.17300000000E+03 0.  1.
<mgrwt>
<rscale>  2 0.29004713E+03</rscale>
<asrwt>0</asrwt>
<pdfrwt beam="1">  1       21 0.16890605E+00 0.29004713E+03</pdfrwt>
<pdfrwt beam="2">  1       21 0.89250307E-01 0.29004713E+03</pdfrwt>
<totfact> 0.21014155E+02</totfact>
</mgrwt>
</event>
<event>
 4    1  0.3945627E+000  0.1731292E+03  0.7546771E-02  0.1174623E+00
         21   -1    0    0  503  502  0.00000000000E+00  0.00000000000E+00  0.64739842273E+03  0.64739842273E+03  0.00000000000E+00 0. -1.
         21   -1    0    0  501  503 -0.00000000000E+00 -0.00000000000E+00 -0.79603586090E+02  0.79603586090E+02  0.00000000000E+00 0. -1.
          6    1    1    2  501    0  0.56743046207E+01  0.35391608319E+01  0.48775512441E+02  0.17986876885E+03  0.17300000000E+03 0. -1.
         -6    1    1    2    0  502 -0.56743046207E+01 -0.35391608319E+01  0.51901932420E+03  0.54713323997E+03  0.17300000000E+03 0. -1.
<mgrwt>
<rscale>  2 0.17312921E+03</rscale>
<asrwt>0</asrwt>
<pdfrwt beam="1">  1       21 0.99599754E-01 0.17312921E+03</pdfrwt>
<pdfrwt beam="2">  1       21 0.12246706E-01 0.17312921E+03</pdfrwt>
<totfact> 0.47368210E+04</totfact>
</mgrwt>
</event>
<event>
 4    1  0.3945627E+000  0.1909427E+03  0.7546771E-02  0.1157614E+00
         21   -1    0    0  501  502  0.00000000000E+00  0.00000000000E+00  0.29393312111E+03  0.29393312111E+03  0.00000000000E+00 0.  1.
         21   -1    0    0  502  503 -0.00000000000E+00 -0.00000000000E+00 -0.28138904535E+03  0.28138904535E+03  0.00000000000E+00 0.  1.
          6    1    1    2  501    0 -0.38574368690E+02  0.71008056408E+02  0.22138231672E+03  0.29235125474E+03  0.17300000000E+03 0.  1.
         -6    1    1    2    0  503  0.38574368690E+02 -0.71008056408E+02 -0.20883824096E+03  0.28297091172E+03  0.17300000000E+03 0.  1.
<mgrwt>
<rscale>  2 0.19094273E+03</rscale>
<asrwt>0</asrwt>
<pdfrwt beam="1">  1       21 0.45220480E-01 0.19094273E+03</pdfrwt>
<pdfrwt beam="2">  1       21 0.43290623E-01 0.19094273E+03</pdfrwt>
<totfact> 0.24089659E+04</totfact>
</mgrwt>
</event>
<event>
 4    1  0.3945627E+000  0.1769680E+03  0.7546771E-02  0.1170770E+00
         21   -1    0    0  501  502  0.00000000000E+00  0.00000000000E+00  0.41920927146E+02  0.41920927146E+02  0.00000000000E+00 0. -1.
         21   -1    0    0  502  503 -0.00000000000E+00 -0.00000000000E+00 -0.10438607565E+04  0.10438607565E+04  0.00000000000E+00 0. -1.
          6    1    1    2  501    0 -0.37249948190E+02  0.10516456312E+01 -0.21148899164E+03  0.27576304717E+03  0.17300000000E+03 0. -1.
         -6    1    1    2    0  503  0.37249948190E+02 -0.10516456312E+01 -0.79045083771E+03  0.81001863647E+03  0.17300000000E+03 0. -1.
<mgrwt>
<rscale>  2 0.17696798E+03</rscale>
<asrwt>0</asrwt>
<pdfrwt beam="1">  1       21 0.64493731E-02 0.17696798E+03</pdfrwt>
<pdfrwt beam="2">  1       21 0.16059397E+00 0.17696798E+03</pdfrwt>
<totfact> 0.43819915E+04</totfact>
</mgrwt>
</event>
<event>
 4    1  0.3945627E+000  0.2516140E+03  0.7546771E-02  0.1112289E+00
         21   -1    0    0  501  502  0.00000000000E+00  0.00000000000E+00  0.10655095075E+04  0.10655095075E+04  0.00000000000E+00 0.  1.
         21   -1    0    0  502  503 -0.00000000000E+00 -0.00000000000E+00 -0.16152427780E+03  0.16152427780E+03  0.00000000000E+00 0.  1.
          6    1    1    2  501    0  0.14272514592E+03  0.11406204908E+03  0.93978553354E+03  0.97288563941E+03  0.17300000000E+03 0.  1.
         -6    1    1    2    0  503 -0.14272514592E+03 -0.11406204908E+03 -0.35800303814E+02  0.25414814592E+03  0.17300000000E+03 0.  1.
<mgrwt>
<rscale>  2 0.25161403E+03</rscale>
<asrwt>0</asrwt>
<pdfrwt beam="1">  1       21 0.16392454E+00 0.25161403E+03</pdfrwt>
<pdfrwt beam="2">  1       21 0.24849890E-01 0.25161403E+03</pdfrwt>
<totfact> 0.34428091E+03</totfact>
</mgrwt>
</event>
<event>
 4    1  0.3945627E+000  0.2867587E+03  0.7546771E-02  0.1092054E+00
         21   -1    0    0  503  502  0.00000000000E+00  0.00000000000E+00  0.58851739314E+03  0.58851739314E+03  0.00000000000E+00 0.  1.
         21   -1    0    0  501  503 -0.00000000000E+00 -0.00000000000E+00 -0.16829059989E+03  0.16829059989E+03  0.00000000000E+00 0. -1.
          6    1    1    2  501    0 -0.21107339152E+03 -0.88031556815E+02  0.54212630407E+02  0.29183821014E+03  0.17300000000E+03 0. -1.
         -6    1    1    2    0  502  0.21107339152E+03  0.88031556815E+02  0.36601416284E+03  0.46496978289E+03  0.17300000000E+03 0.  1.
<mgrwt>
<rscale>  2 0.28675866E+03</rscale>
<asrwt>0</asrwt>
<pdfrwt beam="1">  1       21 0.90541137E-01 0.28675866E+03</pdfrwt>
<pdfrwt beam="2">  1       21 0.25890862E-01 0.28675866E+03</pdfrwt>
<totfact> 0.13932209E+04</totfact>
</mgrwt>
</event>
<event>
 4    1  0.3945627E+000  0.2617578E+03  0.7546771E-02  0.1106092E+00
         21   -1    0    0  503  502  0.00000000000E+00  0.00000000000E+00  0.98025854180E+02  0.98025854180E+02  0.00000000000E+00 0. -1.
         21   -1    0    0  501  503 -0.00000000000E+00 -0.00000000000E+00 -0.94719818244E+03  0.94719818244E+03  0.00000000000E+00 0.  1.
          6    1    1    2  501    0  0.17193829512E+03  0.95001899697E+02 -0.69212352964E+03  0.73996764697E+03  0.17300000000E+03 0.  1.
         -6    1    1    2    0  502 -0.17193829512E+03 -0.95001899697E+02 -0.15704879862E+03  0.30525638965E+03  0.17300000000E+03 0. -1.
<mgrwt>
<rscale>  2 0.26175779E+03</rscale>
<asrwt>0</asrwt>
<pdfrwt beam="1">  1       21 0.15080901E-01 0.26175779E+03</pdfrwt>
<pdfrwt beam="2">  1       21 0.14572280E+00 0.26175779E+03</pdfrwt>
<totfact> 0.11981662E+04</totfact>
</mgrwt>
</event>
<event>
 4    1  0.3945627E+000  0.1991406E+03  0.7546771E-02  0.1150466E+00
         21   -1    0    0  501  502  0.00000000000E+00  0.00000000000E+00  0.77826442716E+03  0.77826442716E+03  0.00000000000E+00 0.  1.
         21   -1    0    0  502  503 -0.00000000000E+00 -0.00000000000E+00 -0.54519714546E+02  0.54519714546E+02  0.00000000000E+00 0. -1.
          6    1    1    2  501    0 -0.50620622538E+00  0.98629140088E+02  0.46833541342E+03  0.50891553620E+03  0.17300000000E+03 0.  1.
         -6    1    1    2    0  503  0.50620622538E+00 -0.98629140088E+02  0.25540929919E+03  0.32386860551E+03  0.17300000000E+03 0. -1.
<mgrwt>
<rscale>  2 0.19914056E+03</rscale>
<asrwt>0</asrwt>
<pdfrwt beam="1">  1       21 0.11973298E+00 0.19914056E+03</pdfrwt>
<pdfrwt beam="2">  1       21 0.83876489E-02 0.19914056E+03</pdfrwt>
<totfact> 0.58483378E+04</totfact>
</mgrwt>
</event>
<event>
 4    1  0.3945627E+000  0.1959696E+03  0.7546771E-02  0.1153185E+00
         21   -1    0    0  501  502  0.00000000000E+00  0.00000000000E+00  0.93137001386E+02  0.93137001386E+02  0.00000000000E+00 0.  1.
         21   -1    0    0  502  503 -0.00000000000E+00 -0.00000000000E+00 -0.41852901826E+03  0.41852901826E+03  0.00000000000E+00 0. -1.
          6    1    1    2  501    0 -0.59948803823E+02  0.69865831912E+02 -0.13158519933E+03  0.23604821166E+03  0.17300000000E+03 0.  1.
         -6    1    1    2    0  503  0.59948803823E+02 -0.69865831912E+02 -0.19380681755E+03  0.27561780798E+03  0.17300000000E+03 0. -1.
<mgrwt>
<rscale>  2 0.19596962E+03</rscale>
<asrwt>0</asrwt>
<pdfrwt beam="1">  1       21 0.14328769E-01 0.19596962E+03</pdfrwt>
<pdfrwt beam="2">  1       21 0.64389080E-01 0.19596962E+03</pdfrwt>
<totfact> 0.94716433E+04</totfact>
</mgrwt>
</event>
<event>
 4    1  0.3945627E+000  0.1956374E+03  0.7546771E-02  0.1153473E+00
         21   -1    0    0  503  502  0.00000000000E+00  0.00000000000E+00  0.94763308199E+02  0.94763308199E+02  0.00000000000E+00 0. -1.
         21   -1    0    0  501  503 -0.00000000000E+00 -0.00000000000E+00 -0.40758229314E+03  0.40758229314E+03  0.00000000000E+00 0. -1.
          6    1    1    2  501    0  0.59945254668E+02  0.68931533857E+02 -0.18031455304E+03  0.26605888062E+03  0.17300000000E+03 0. -1.
         -6    1    1    2    0  502 -0.59945254668E+02 -0.68931533857E+02 -0.13250443190E+03  0.23628672072E+03  0.17300000000E+03 0. -1.
<mgrwt>
<rscale>  2 0.19563739E+03</rscale>
<asrwt>0</asrwt>
<pdfrwt beam="1">  1       21 0.14578970E-01 0.19563739E+03</pdfrwt>
<pdfrwt beam="2">  1       21 0.62704968E-01 0.19563739E+03</pdfrwt>
<totfact> 0.97229438E+04</totfact>
</mgrwt>
</event>
<event>
 4    1  0.3945627E+000  0.2736944E+03  0.7546771E-02  0.1099184E+00
         21   -1    0    0  501  502  0.00000000000E+00  0.00000000000E+00  0.79743505866E+03  0.79743505866E+03  0.00000000000E+00 0.  1.
         21   -1    0    0  502  503 -0.00000000000E+00 -0.00000000000E+00 -0.14365637902E+03  0.14365637902E+03  0.00000000000E+00 0. -1.
          6    1    1    2  501    0 -0.14948541318E+03 -0.15044512526E+03  0.60371248289E+03  0.66285547932E+03  0.17300000000E+03 0.  1.
         -6    1    1    2    0  503  0.14948541318E+03  0.15044512526E+03  0.50066196746E+02  0.27823595836E+03  0.17300000000E+03 0.  1.
<mgrwt>
<rscale>  2 0.27369440E+03</rscale>
<asrwt>0</asrwt>
<pdfrwt beam="1">  1       21 0.12268231E+00 0.27369440E+03</pdfrwt>
<pdfrwt beam="2">  1       21 0.22100982E-01 0.27369440E+03</pdfrwt>
<totfact> 0.90874815E+03</totfact>
</mgrwt>
</event>
<event>
 4    1  0.3945627E+000  0.1880423E+03  0.7546771E-02  0.1160239E+00
         21   -1    0    0  501  502  0.00000000000E+00  0.00000000000E+00  0.46382316469E+03  0.46382316469E+03  0.00000000000E+00 0. -1.
         21   -1    0    0  502  503 -0.00000000000E+00 -0.00000000000E+00 -0.16076845410E+03  0.16076845410E+03  0.00000000000E+00 0. -1.
          6    1    1    2  501    0 -0.51934824861E+02 -0.52284774574E+02  0.37798032805E+03  0.42217182767E+03  0.17300000000E+03 0. -1.
         -6    1    1    2    0  503  0.51934824861E+02  0.52284774574E+02 -0.74925617459E+02  0.20241979112E+03  0.17300000000E+03 0. -1.
<mgrwt>
<rscale>  2 0.18804235E+03</rscale>
<asrwt>0</asrwt>
<pdfrwt beam="1">  1       21 0.71357409E-01 0.18804235E+03</pdfrwt>
<pdfrwt beam="2">  1       21 0.24733609E-01 0.18804235E+03</pdfrwt>
<totfact> 0.27525905E+04</totfact>
</mgrwt>
</event>
<event>
 4    1  0.3945627E+000  0.2488262E+03  0.7546771E-02  0.1114049E+00
         21   -1    0    0  501  502  0.00000000000E+00  0.00000000000E+00  0.13214224512E+03  0.13214224512E+03  0.00000000000E+00 0.  1.
         21   -1    0    0  502  503 -0.00000000000E+00 -0.00000000000E+00 -0.10829329463E+04  0.10829329463E+04  0.00000000000E+00 0.  1.
          6    1    1    2  501    0 -0.12452234400E+03 -0.12837322230E+03 -0.17786981440E+02  0.24946116946E+03  0.17300000000E+03 0.  1.
         -6    1    1    2    0  503  0.12452234400E+03  0.12837322230E+03 -0.93300371979E+03  0.96561402201E+03  0.17300000000E+03 0.  1.
<mgrwt>
<rscale>  2 0.24882624E+03</rscale>
<asrwt>0</asrwt>
<pdfrwt beam="1">  1       21 0.20329576E-01 0.24882624E+03</pdfrwt>
<pdfrwt beam="2">  1       21 0.16660507E+00 0.24882624E+03</pdfrwt>
<totfact> 0.48314856E+03</totfact>
</mgrwt>
</event>
<event>
 4    1  0.3945627E+000  0.1753825E+03  0.7546771E-02  0.1172348E+00
         21   -1    0    0  503  502  0.00000000000E+00  0.00000000000E+00  0.34701902538E+03  0.34701902538E+03  0.00000000000E+00 0.  1.
         21   -1    0    0  501  503 -0.00000000000E+00 -0.00000000000E+00 -0.88932563769E+02  0.88932563769E+02  0.00000000000E+00 0.  1.
          6    1    1    2  501    0 -0.25543012113E+02  0.13325862850E+02  0.11649535904E+03  0.21054736466E+03  0.17300000000E+03 0.  1.
         -6    1    1    2    0  502  0.25543012113E+02 -0.13325862850E+02  0.14159110256E+03  0.22540422448E+03  0.17300000000E+03 0.  1.
<mgrwt>
<rscale>  2 0.17538251E+03</rscale>
<asrwt>0</asrwt>
<pdfrwt beam="1">  1       21 0.53387542E-01 0.17538251E+03</pdfrwt>
<pdfrwt beam="2">  1       21 0.13681933E-01 0.17538251E+03</pdfrwt>
<totfact> 0.15482001E+05</totfact>
</mgrwt>
</event>
<event>
 4    1  0.3945627E+000  0.1740453E+03  0.7546771E-02  0.1173694E+00
         21   -1    0    0  501  502  0.00000000000E+00  0.00000000000E+00  0.27476243336E+03  0.27476243336E+03  0.00000000000E+00 0. -1.
         21   -1    0    0  502  503 -0.00000000000E+00 -0.00000000000E+00 -0.12389116093E+03  0.12389116093E+03  0.00000000000E+00 0.  1.
          6    1    1    2  501    0  0.23866972057E+00  0.19044719151E+02  0.14158376088E+03  0.22436069094E+03  0.17300000000E+03 0. -1.
         -6    1    1    2    0  503 -0.23866972057E+00 -0.19044719151E+02  0.92875115406E+01  0.17429290336E+03  0.17300000000E+03 0.  1.
<mgrwt>
<rscale>  2 0.17404528E+03</rscale>
<asrwt>0</asrwt>
<pdfrwt beam="1">  1       21 0.42271143E-01 0.17404528E+03</pdfrwt>
<pdfrwt beam="2">  1       21 0.19060179E-01 0.17404528E+03</pdfrwt>
<totfact> 0.13683457E+05</totfact>
</mgrwt>
</event>
<event>
 4    1  0.3945627E+000  0.2179821E+03  0.7546771E-02  0.1135396E+00
         21   -1    0    0  501  502  0.00000000000E+00  0.00000000000E+00  0.15607485588E+04  0.15607485588E+04  0.00000000000E+00 0. -1.
         21   -1    0    0  502  503 -0.00000000000E+00 -0.00000000000E+00 -0.42442519649E+02  0.42442519649E+02  0.00000000000E+00 0. -1.
          6    1    1    2  501    0  0.54270471658E+02  0.12100381408E+03  0.11853491719E+04  0.12052256496E+04  0.17300000000E+03 0. -1.
         -6    1    1    2    0  503 -0.54270471658E+02 -0.12100381408E+03  0.33295686726E+03  0.39796542887E+03  0.17300000000E+03 0. -1.
<mgrwt>
<rscale>  2 0.21798213E+03</rscale>
<asrwt>0</asrwt>
<pdfrwt beam="1">  1       21 0.24011512E+00 0.21798213E+03</pdfrwt>
<pdfrwt beam="2">  1       21 0.65296196E-02 0.21798213E+03</pdfrwt>
<totfact> 0.12690495E+04</totfact>
</mgrwt>
</event>
<event>
 4    1  0.3945627E+000  0.2268252E+03  0.7546771E-02  0.1128894E+00
         21   -1    0    0  503  502  0.00000000000E+00  0.00000000000E+00  0.41308528941E+03  0.41308528941E+03  0.00000000000E+00 0.  1.
         21   -1    0    0  501  503 -0.00000000000E+00 -0.00000000000E+00 -0.14982773858E+03  0.14982773858E+03  0.00000000000E+00 0. -1.
          6    1    1    2  501    0  0.98580687178E+02 -0.10863944050E+03  0.16021216066E+02  0.22739032363E+03  0.17300000000E+03 0. -1.
         -6    1    1    2    0  502 -0.98580687178E+02  0.10863944050E+03  0.24723633476E+03  0.33552270436E+03  0.17300000000E+03 0. -1.
<mgrwt>
<rscale>  2 0.22682522E+03</rscale>
<asrwt>0</asrwt>
<pdfrwt beam="1">  1       21 0.63551582E-01 0.22682522E+03</pdfrwt>
<pdfrwt beam="2">  1       21 0.23050422E-01 0.22682522E+03</pdfrwt>
<totfact> 0.39773395E+04</totfact>
</mgrwt>
</event>
<event>
 4    1  0.3945627E+000  0.2607769E+03  0.7546771E-02  0.1106677E+00
         21   -1    0    0  501  502  0.00000000000E+00  0.00000000000E+00  0.59276112702E+02  0.59276112702E+02  0.00000000000E+00 0.  1.
         21   -1    0    0  502  503 -0.00000000000E+00 -0.00000000000E+00 -0.11692303121E+04  0.11692303121E+04  0.00000000000E+00 0. -1.
          6    1    1    2  501    0 -0.16007104362E+03 -0.11159236044E+03 -0.63919454480E+03  0.69034358113E+03  0.17300000000E+03 0. -1.
         -6    1    1    2    0  503  0.16007104362E+03  0.11159236044E+03 -0.47075965464E+03  0.53816284371E+03  0.17300000000E+03 0. -1.
<mgrwt>
<rscale>  2 0.26077690E+03</rscale>
<asrwt>0</asrwt>
<pdfrwt beam="1">  1       21 0.91194017E-02 0.26077690E+03</pdfrwt>
<pdfrwt beam="2">  1       21 0.17988159E+00 0.26077690E+03</pdfrwt>
<totfact> 0.16639105E+04</totfact>
</mgrwt>
</event>
<event>
 4    1  0.3945627E+000  0.2058642E+03  0.7546771E-02  0.1144884E+00
         21   -1    0    0  503  502  0.00000000000E+00  0.00000000000E+00  0.86115136640E+02  0.86115136640E+02  0.00000000000E+00 0. -1.
         21   -1    0    0  501  503 -0.00000000000E+00 -0.00000000000E+00 -0.10047221468E+04  0.10047221468E+04  0.00000000000E+00 0. -1.
          6    1    1    2  501    0  0.10553431596E+03 -0.36243525972E+02 -0.84887912404E+03  0.87348488954E+03  0.17300000000E+03 0. -1.
         -6    1    1    2    0  502 -0.10553431596E+03  0.36243525972E+02 -0.69727886075E+02  0.21735239386E+03  0.17300000000E+03 0. -1.
<mgrwt>
<rscale>  2 0.20586424E+03</rscale>
<asrwt>0</asrwt>
<pdfrwt beam="1">  1       21 0.13248482E-01 0.20586424E+03</pdfrwt>
<pdfrwt beam="2">  1       21 0.15457264E+00 0.20586424E+03</pdfrwt>
<totfact> 0.13434394E+04</totfact>
</mgrwt>
</event>
<event>
 4    1  0.3945627E+000  0.3450260E+03  0.7546771E-02  0.1064675E+00
         21   -1    0    0  501  502  0.00000000000E+00  0.00000000000E+00  0.58056799383E+03  0.58056799383E+03  0.00000000000E+00 0.  1.
         21   -1    0    0  502  503 -0.00000000000E+00 -0.00000000000E+00 -0.41944333198E+03  0.41944333198E+03  0.00000000000E+00 0. -1.
          6    1    1    2  501    0 -0.29331824275E+03 -0.55482587403E+02  0.43803955382E+03  0.55760340723E+03  0.17300000000E+03 0.  1.
         -6    1    1    2    0  503  0.29331824275E+03  0.55482587403E+02 -0.27691489197E+03  0.44240791859E+03  0.17300000000E+03 0. -1.
<mgrwt>
<rscale>  2 0.34502595E+03</rscale>
<asrwt>0</asrwt>
<pdfrwt beam="1">  1       21 0.89318153E-01 0.34502595E+03</pdfrwt>
<pdfrwt beam="2">  1       21 0.64529743E-01 0.34502595E+03</pdfrwt>
<totfact> 0.21387039E+03</totfact>
</mgrwt>
</event>
<event>
 4    1  0.3945627E+000  0.2564433E+03  0.7546771E-02  0.1109299E+00
         21   -1    0    0  503  502  0.00000000000E+00  0.00000000000E+00  0.10639152631E+03  0.10639152631E+03  0.00000000000E+00 0.  1.
         21   -1    0    0  501  503 -0.00000000000E+00 -0.00000000000E+00 -0.70928474807E+03  0.70928474807E+03  0.00000000000E+00 0. -1.
          6    1    1    2  501    0  0.17065342692E+02  0.18852835845E+03 -0.44765799696E+03  0.51590779225E+03  0.17300000000E+03 0. -1.
         -6    1    1    2    0  502 -0.17065342692E+02 -0.18852835845E+03 -0.15523522480E+03  0.29976848214E+03  0.17300000000E+03 0.  1.
<mgrwt>
<rscale>  2 0.25644330E+03</rscale>
<asrwt>0</asrwt>
<pdfrwt beam="1">  1       21 0.16367927E-01 0.25644330E+03</pdfrwt>
<pdfrwt beam="2">  1       21 0.10912073E+00 0.25644330E+03</pdfrwt>
<totfact> 0.21496647E+04</totfact>
</mgrwt>
</event>
<event>
 4    1  0.3945627E+000  0.2473950E+03  0.7546771E-02  0.1114962E+00
         21   -1    0    0  503  502  0.00000000000E+00  0.00000000000E+00  0.97880010434E+02  0.97880010434E+02  0.00000000000E+00 0. -1.
         21   -1    0    0  501  503 -0.00000000000E+00 -0.00000000000E+00 -0.63001871264E+03  0.63001871264E+03  0.00000000000E+00 0. -1.
          6    1    1    2  501    0 -0.13325568525E+03  0.11626791883E+03 -0.23456967743E+03  0.34092116416E+03  0.17300000000E+03 0. -1.
         -6    1    1    2    0  502  0.13325568525E+03 -0.11626791883E+03 -0.29756902477E+03  0.38697755892E+03  0.17300000000E+03 0. -1.
<mgrwt>
<rscale>  2 0.24739504E+03</rscale>
<asrwt>0</asrwt>
<pdfrwt beam="1">  1       21 0.15058463E-01 0.24739504E+03</pdfrwt>
<pdfrwt beam="2">  1       21 0.96925958E-01 0.24739504E+03</pdfrwt>
<totfact> 0.33474485E+04</totfact>
</mgrwt>
</event>
<event>
 4    1  0.3945627E+000  0.1796477E+03  0.7546771E-02  0.1168144E+00
         21   -1    0    0  501  502  0.00000000000E+00  0.00000000000E+00  0.15795275421E+04  0.15795275421E+04  0.00000000000E+00 0.  1.
         21   -1    0    0  502  503 -0.00000000000E+00 -0.00000000000E+00 -0.23010591602E+02  0.23010591602E+02  0.00000000000E+00 0.  1.
          6    1    1    2  501    0 -0.37976195586E+01 -0.48268764031E+02  0.10464746964E+04  0.10617827394E+04  0.17300000000E+03 0. -1.
         -6    1    1    2    0  503  0.37976195586E+01  0.48268764031E+02  0.51004225409E+03  0.54075539429E+03  0.17300000000E+03 0. -1.
<mgrwt>
<rscale>  2 0.17964770E+03</rscale>
<asrwt>0</asrwt>
<pdfrwt beam="1">  1       21 0.24300415E+00 0.17964770E+03</pdfrwt>
<pdfrwt beam="2">  1       21 0.35400922E-02 0.17964770E+03</pdfrwt>
<totfact> 0.35516206E+04</totfact>
</mgrwt>
</event>
<event>
 4    1  0.3945627E+000  0.2078052E+03  0.7546771E-02  0.1143316E+00
         21   -1    0    0  503  502  0.00000000000E+00  0.00000000000E+00  0.75090510073E+02  0.75090510073E+02  0.00000000000E+00 0.  1.
         21   -1    0    0  501  503 -0.00000000000E+00 -0.00000000000E+00 -0.57515121524E+03  0.57515121524E+03  0.00000000000E+00 0.  1.
          6    1    1    2  501    0  0.37914674790E+01 -0.11506350264E+03 -0.25367026185E+03  0.32792009181E+03  0.17300000000E+03 0.  1.
         -6    1    1    2    0  502 -0.37914674790E+01  0.11506350264E+03 -0.24639044332E+03  0.32232163350E+03  0.17300000000E+03 0.  1.
<mgrwt>
<rscale>  2 0.20780516E+03</rscale>
<asrwt>0</asrwt>
<pdfrwt beam="1">  1       21 0.11552386E-01 0.20780516E+03</pdfrwt>
<pdfrwt beam="2">  1       21 0.88484801E-01 0.20780516E+03</pdfrwt>
<totfact> 0.68139981E+04</totfact>
</mgrwt>
</event>
<event>
 4    1  0.3945627E+000  0.1995924E+03  0.7546771E-02  0.1150083E+00
         21   -1    0    0  503  502  0.00000000000E+00  0.00000000000E+00  0.45223960066E+02  0.45223960066E+02  0.00000000000E+00 0. -1.
         21   -1    0    0  501  503 -0.00000000000E+00 -0.00000000000E+00 -0.98825318576E+03  0.98825318576E+03  0.00000000000E+00 0. -1.
          6    1    1    2  501    0 -0.42467298847E+02 -0.90025914371E+02 -0.64183761181E+03  0.67215523256E+03  0.17300000000E+03 0. -1.
         -6    1    1    2    0  502  0.42467298847E+02  0.90025914371E+02 -0.30119161389E+03  0.36132191326E+03  0.17300000000E+03 0. -1.
<mgrwt>
<rscale>  2 0.19959243E+03</rscale>
<asrwt>0</asrwt>
<pdfrwt beam="1">  1       21 0.69575325E-02 0.19959243E+03</pdfrwt>
<pdfrwt beam="2">  1       21 0.15203895E+00 0.19959243E+03</pdfrwt>
<totfact> 0.43913662E+04</totfact>
</mgrwt>
</event>
<event>
 4    1  0.3945627E+000  0.1934815E+03  0.7546771E-02  0.1155358E+00
         21   -1    0    0  503  502  0.00000000000E+00  0.00000000000E+00  0.46139037549E+03  0.46139037549E+03  0.00000000000E+00 0.  1.
         21   -1    0    0  501  503 -0.00000000000E+00 -0.00000000000E+00 -0.94972371992E+02  0.94972371992E+02  0.00000000000E+00 0. -1.
          6    1    1    2  501    0  0.26254395814E+02  0.82563873418E+02  0.77027186387E+02  0.20825050765E+03  0.17300000000E+03 0. -1.
         -6    1    1    2    0  502 -0.26254395814E+02 -0.82563873418E+02  0.28939081711E+03  0.34811223984E+03  0.17300000000E+03 0.  1.
<mgrwt>
<rscale>  2 0.19348149E+03</rscale>
<asrwt>0</asrwt>
<pdfrwt beam="1">  1       21 0.70983133E-01 0.19348149E+03</pdfrwt>
<pdfrwt beam="2">  1       21 0.14611134E-01 0.19348149E+03</pdfrwt>
<totfact> 0.73909542E+04</totfact>
</mgrwt>
</event>
<event>
 4    1  0.3945627E+000  0.3035539E+03  0.7546771E-02  0.1083477E+00
         21   -1    0    0  501  502  0.00000000000E+00  0.00000000000E+00  0.12666311642E+04  0.12666311642E+04  0.00000000000E+00 0.  1.
         21   -1    0    0  502  503 -0.00000000000E+00 -0.00000000000E+00 -0.91278446463E+02  0.91278446463E+02  0.00000000000E+00 0. -1.
          6    1    1    2  501    0 -0.26576852169E+02  0.24801133442E+03  0.89359015746E+03  0.94374165987E+03  0.17300000000E+03 0.  1.
         -6    1    1    2    0  503  0.26576852169E+02 -0.24801133442E+03  0.28176256023E+03  0.41416795074E+03  0.17300000000E+03 0. -1.
<mgrwt>
<rscale>  2 0.30355387E+03</rscale>
<asrwt>0</asrwt>
<pdfrwt beam="1">  1       21 0.19486632E+00 0.30355387E+03</pdfrwt>
<pdfrwt beam="2">  1       21 0.14042839E-01 0.30355387E+03</pdfrwt>
<totfact> 0.59177684E+03</totfact>
</mgrwt>
</event>
<event>
 4    1  0.3945627E+000  0.1976432E+03  0.7546771E-02  0.1151743E+00
         21   -1    0    0  503  502  0.00000000000E+00  0.00000000000E+00  0.48647970425E+02  0.48647970425E+02  0.00000000000E+00 0. -1.
         21   -1    0    0  501  503 -0.00000000000E+00 -0.00000000000E+00 -0.10000443884E+04  0.10000443884E+04  0.00000000000E+00 0. -1.
          6    1    1    2  501    0 -0.80614849952E+01  0.95230534711E+02 -0.70846658826E+03  0.73551869382E+03  0.17300000000E+03 0. -1.
         -6    1    1    2    0  502  0.80614849952E+01 -0.95230534711E+02 -0.24292982968E+03  0.31317366497E+03  0.17300000000E+03 0. -1.
<mgrwt>
<rscale>  2 0.19764322E+03</rscale>
<asrwt>0</asrwt>
<pdfrwt beam="1">  1       21 0.74843041E-02 0.19764322E+03</pdfrwt>
<pdfrwt beam="2">  1       21 0.15385296E+00 0.19764322E+03</pdfrwt>
<totfact> 0.37547474E+04</totfact>
</mgrwt>
</event>
<event>
 4    1  0.3945627E+000  0.1943249E+03  0.7546771E-02  0.1154617E+00
         21   -1    0    0  501  502  0.00000000000E+00  0.00000000000E+00  0.59237939817E+03  0.59237939817E+03  0.00000000000E+00 0. -1.
         21   -1    0    0  502  503 -0.00000000000E+00 -0.00000000000E+00 -0.29994678037E+03  0.29994678037E+03  0.00000000000E+00 0. -1.
          6    1    1    2  501    0 -0.68160806468E+02  0.56456061533E+02  0.54214013107E+03  0.57591501469E+03  0.17300000000E+03 0. -1.
         -6    1    1    2    0  503  0.68160806468E+02 -0.56456061533E+02 -0.24970751328E+03  0.31641116385E+03  0.17300000000E+03 0. -1.
<mgrwt>
<rscale>  2 0.19432494E+03</rscale>
<asrwt>0</asrwt>
<pdfrwt beam="1">  1       21 0.91135292E-01 0.19432494E+03</pdfrwt>
<pdfrwt beam="2">  1       21 0.46145658E-01 0.19432494E+03</pdfrwt>
<totfact> 0.45861224E+03</totfact>
</mgrwt>
</event>
<event>
 4    1  0.3945627E+000  0.2383416E+03  0.7546771E-02  0.1120903E+00
         21   -1    0    0  501  502  0.00000000000E+00  0.00000000000E+00  0.52339637256E+03  0.52339637256E+03  0.00000000000E+00 0. -1.
         21   -1    0    0  502  503 -0.00000000000E+00 -0.00000000000E+00 -0.37701723821E+03  0.37701723821E+03  0.00000000000E+00 0. -1.
          6    1    1    2  501    0  0.15712577269E+03 -0.46789117192E+02  0.45310713728E+03  0.51196953794E+03  0.17300000000E+03 0. -1.
         -6    1    1    2    0  503 -0.15712577269E+03  0.46789117192E+02 -0.30672800293E+03  0.38844407282E+03  0.17300000000E+03 0. -1.
<mgrwt>
<rscale>  2 0.23834162E+03</rscale>
<asrwt>0</asrwt>
<pdfrwt beam="1">  1       21 0.80522520E-01 0.23834162E+03</pdfrwt>
<pdfrwt beam="2">  1       21 0.58002652E-01 0.23834162E+03</pdfrwt>
<totfact> 0.36467386E+03</totfact>
</mgrwt>
</event>
<event>
 4    1  0.3945627E+000  0.1842634E+03  0.7546771E-02  0.1163740E+00
         21   -1    0    0  501  502  0.00000000000E+00  0.00000000000E+00  0.50755133859E+03  0.50755133859E+03  0.00000000000E+00 0.  1.
         21   -1    0    0  502  503 -0.00000000000E+00 -0.00000000000E+00 -0.75971192527E+02  0.75971192527E+02  0.00000000000E+00 0. -1.
          6    1    1    2  501    0  0.65177423086E+01  0.63099313881E+02  0.31663130803E+03  0.36634463228E+03  0.17300000000E+03 0.  1.
         -6    1    1    2    0  503 -0.65177423086E+01 -0.63099313881E+02  0.11494883803E+03  0.21717789883E+03  0.17300000000E+03 0. -1.
<mgrwt>
<rscale>  2 0.18426341E+03</rscale>
<asrwt>0</asrwt>
<pdfrwt beam="1">  1       21 0.78084819E-01 0.18426341E+03</pdfrwt>
<pdfrwt beam="2">  1       21 0.11687876E-01 0.18426341E+03</pdfrwt>
<totfact> 0.89656435E+04</totfact>
</mgrwt>
</event>
<event>
 4    1  0.3945627E+000  0.1931995E+03  0.7546771E-02  0.1155607E+00
         21   -1    0    0  501  502  0.00000000000E+00  0.00000000000E+00  0.53014313187E+02  0.53014313187E+02  0.00000000000E+00 0. -1.
         21   -1    0    0  502  503 -0.00000000000E+00 -0.00000000000E+00 -0.11564559961E+04  0.11564559961E+04  0.00000000000E+00 0. -1.
          6    1    1    2  501    0  0.84267003421E+02 -0.17208529138E+02 -0.92994804047E+03  0.94980493751E+03  0.17300000000E+03 0. -1.
         -6    1    1    2    0  503 -0.84267003421E+02  0.17208529138E+02 -0.17349364249E+03  0.25966537182E+03  0.17300000000E+03 0. -1.
<mgrwt>
<rscale>  2 0.19319954E+03</rscale>
<asrwt>0</asrwt>
<pdfrwt beam="1">  1       21 0.81560483E-02 0.19319954E+03</pdfrwt>
<pdfrwt beam="2">  1       21 0.17791630E+00 0.19319954E+03</pdfrwt>
<totfact> 0.21808847E+04</totfact>
</mgrwt>
</event>
<event>
 4    1  0.3945627E+000  0.2145656E+03  0.7546771E-02  0.1138001E+00
         21   -1    0    0  501  502  0.00000000000E+00  0.00000000000E+00  0.11740155679E+04  0.11740155679E+04  0.00000000000E+00 0. -1.
         21   -1    0    0  502  503 -0.00000000000E+00 -0.00000000000E+00 -0.61951750720E+02  0.61951750720E+02  0.00000000000E+00 0. -1.
          6    1    1    2  501    0 -0.13861432156E+02  0.12616356080E+03  0.93041789365E+03  0.95483812251E+03  0.17300000000E+03 0. -1.
         -6    1    1    2    0  503  0.13861432156E+02 -0.12616356080E+03  0.18164592356E+03  0.28112919614E+03  0.17300000000E+03 0. -1.
<mgrwt>
<rscale>  2 0.21456557E+03</rscale>
<asrwt>0</asrwt>
<pdfrwt beam="1">  1       21 0.18061776E+00 0.21456557E+03</pdfrwt>
<pdfrwt beam="2">  1       21 0.95310395E-02 0.21456557E+03</pdfrwt>
<totfact> 0.15662032E+04</totfact>
</mgrwt>
</event>
<event>
 4    1  0.3945627E+000  0.2039050E+03  0.7546771E-02  0.1146486E+00
         21   -1    0    0  501  502  0.00000000000E+00  0.00000000000E+00  0.17877706407E+03  0.17877706407E+03  0.00000000000E+00 0.  1.
         21   -1    0    0  502  503 -0.00000000000E+00 -0.00000000000E+00 -0.34393475056E+03  0.34393475056E+03  0.00000000000E+00 0.  1.
          6    1    1    2  501    0  0.10602808904E+03 -0.20157184131E+02  0.66144155950E+02  0.21436491575E+03  0.17300000000E+03 0.  1.
         -6    1    1    2    0  503 -0.10602808904E+03  0.20157184131E+02 -0.23130184244E+03  0.30834689888E+03  0.17300000000E+03 0.  1.
<mgrwt>
<rscale>  2 0.20390505E+03</rscale>
<asrwt>0</asrwt>
<pdfrwt beam="1">  1       21 0.27504164E-01 0.20390505E+03</pdfrwt>
<pdfrwt beam="2">  1       21 0.52913037E-01 0.20390505E+03</pdfrwt>
<totfact> 0.42437876E+04</totfact>
</mgrwt>
</event>
<event>
 4    1  0.3945627E+000  0.2816696E+03  0.7546771E-02  0.1094781E+00
         21   -1    0    0  501  502  0.00000000000E+00  0.00000000000E+00  0.90751872940E+02  0.90751872940E+02  0.00000000000E+00 0. -1.
         21   -1    0    0  502  503 -0.00000000000E+00 -0.00000000000E+00 -0.17086672984E+04  0.17086672984E+04  0.00000000000E+00 0.  1.
          6    1    1    2  501    0 -0.17036685422E+03 -0.14277226640E+03 -0.18021771016E+03  0.33438930624E+03  0.17300000000E+03 0. -1.
         -6    1    1    2    0  503  0.17036685422E+03  0.14277226640E+03 -0.14376977153E+04  0.14650298652E+04  0.17300000000E+03 0. -1.
<mgrwt>
<rscale>  2 0.28166964E+03</rscale>
<asrwt>0</asrwt>
<pdfrwt beam="1">  1       21 0.13961827E-01 0.28166964E+03</pdfrwt>
<pdfrwt beam="2">  1       21 0.26287188E+00 0.28166964E+03</pdfrwt>
<totfact> 0.22933851E+03</totfact>
</mgrwt>
</event>
<event>
 4    1  0.3945627E+000  0.4246666E+03  0.7546771E-02  0.1035558E+00
         21   -1    0    0  501  502  0.00000000000E+00  0.00000000000E+00  0.22202296174E+03  0.22202296174E+03  0.00000000000E+00 0. -1.
         21   -1    0    0  502  503 -0.00000000000E+00 -0.00000000000E+00 -0.12295765343E+04  0.12295765343E+04  0.00000000000E+00 0. -1.
          6    1    1    2  501    0 -0.30020241242E+03 -0.24554269396E+03 -0.92660962029E+03  0.10192875411E+04  0.17300000000E+03 0. -1.
         -6    1    1    2    0  503  0.30020241242E+03  0.24554269396E+03 -0.80943952254E+02  0.43231195494E+03  0.17300000000E+03 0. -1.
<mgrwt>
<rscale>  2 0.42466658E+03</rscale>
<asrwt>0</asrwt>
<pdfrwt beam="1">  1       21 0.34157378E-01 0.42466658E+03</pdfrwt>
<pdfrwt beam="2">  1       21 0.18916562E+00 0.42466658E+03</pdfrwt>
<totfact> 0.11065920E+03</totfact>
</mgrwt>
</event>
<event>
 4    1  0.3945627E+000  0.2031959E+03  0.7546771E-02  0.1147070E+00
         21   -1    0    0  501  502  0.00000000000E+00  0.00000000000E+00  0.70124519087E+02  0.70124519087E+02  0.00000000000E+00 0. -1.
         21   -1    0    0  502  503 -0.00000000000E+00 -0.00000000000E+00 -0.59010152966E+03  0.59010152966E+03  0.00000000000E+00 0. -1.
          6    1    1    2  501    0 -0.53168601586E+02 -0.92372539229E+02 -0.24442319651E+03  0.31785418857E+03  0.17300000000E+03 0. -1.
         -6    1    1    2    0  503  0.53168601586E+02  0.92372539229E+02 -0.27555381407E+03  0.34237186018E+03  0.17300000000E+03 0. -1.
<mgrwt>
<rscale>  2 0.20319593E+03</rscale>
<asrwt>0</asrwt>
<pdfrwt beam="1">  1       21 0.10788387E-01 0.20319593E+03</pdfrwt>
<pdfrwt beam="2">  1       21 0.90784852E-01 0.20319593E+03</pdfrwt>
<totfact> 0.72688825E+04</totfact>
</mgrwt>
</event>
<event>
 4    1  0.3945627E+000  0.1903168E+03  0.7546771E-02  0.1158176E+00
         21   -1    0    0  501  502  0.00000000000E+00  0.00000000000E+00  0.42081066896E+03  0.42081066896E+03  0.00000000000E+00 0. -1.
         21   -1    0    0  502  503 -0.00000000000E+00 -0.00000000000E+00 -0.19762863806E+03  0.19762863806E+03  0.00000000000E+00 0. -1.
          6    1    1    2  501    0 -0.64197196095E+02 -0.46585297839E+02  0.34391163586E+03  0.39305938895E+03  0.17300000000E+03 0. -1.
         -6    1    1    2    0  503  0.64197196095E+02  0.46585297839E+02 -0.12072960495E+03  0.22537991808E+03  0.17300000000E+03 0. -1.
<mgrwt>
<rscale>  2 0.19031676E+03</rscale>
<asrwt>0</asrwt>
<pdfrwt beam="1">  1       21 0.64740103E-01 0.19031676E+03</pdfrwt>
<pdfrwt beam="2">  1       21 0.30404406E-01 0.19031676E+03</pdfrwt>
<totfact> 0.22855859E+04</totfact>
</mgrwt>
</event>
<event>
 4    1  0.3945627E+000  0.1948175E+03  0.7546771E-02  0.1154187E+00
         21   -1    0    0  503  502  0.00000000000E+00  0.00000000000E+00  0.10787741076E+03  0.10787741076E+03  0.00000000000E+00 0.  1.
         21   -1    0    0  501  503 -0.00000000000E+00 -0.00000000000E+00 -0.40284258109E+03  0.40284258109E+03  0.00000000000E+00 0. -1.
          6    1    1    2  501    0  0.48599227722E+02 -0.75252647921E+02 -0.23835875306E+03  0.30784532011E+03  0.17300000000E+03 0. -1.
         -6    1    1    2    0  502 -0.48599227722E+02  0.75252647921E+02 -0.56606417269E+02  0.20287467173E+03  0.17300000000E+03 0.  1.
<mgrwt>
<rscale>  2 0.19481747E+03</rscale>
<asrwt>0</asrwt>
<pdfrwt beam="1">  1       21 0.16596525E-01 0.19481747E+03</pdfrwt>
<pdfrwt beam="2">  1       21 0.61975782E-01 0.19481747E+03</pdfrwt>
<totfact> 0.78722977E+04</totfact>
</mgrwt>
</event>
<event>
 4    1  0.3945627E+000  0.2118924E+03  0.7546771E-02  0.1140076E+00
         21   -1    0    0  501  502  0.00000000000E+00  0.00000000000E+00  0.16830844547E+03  0.16830844547E+03  0.00000000000E+00 0. -1.
         21   -1    0    0  502  503 -0.00000000000E+00 -0.00000000000E+00 -0.28522230195E+03  0.28522230195E+03  0.00000000000E+00 0.  1.
          6    1    1    2  501    0  0.89276559995E+02 -0.83660601044E+02 -0.76736975103E+00  0.21189381583E+03  0.17300000000E+03 0.  1.
         -6    1    1    2    0  503 -0.89276559995E+02  0.83660601044E+02 -0.11614648673E+03  0.24163693160E+03  0.17300000000E+03 0. -1.
<mgrwt>
<rscale>  2 0.21189243E+03</rscale>
<asrwt>0</asrwt>
<pdfrwt beam="1">  1       21 0.25893607E-01 0.21189243E+03</pdfrwt>
<pdfrwt beam="2">  1       21 0.43880354E-01 0.21189243E+03</pdfrwt>
<totfact> 0.70072588E+04</totfact>
</mgrwt>
</event>
<event>
 4    1  0.3945627E+000  0.1899751E+03  0.7546771E-02  0.1158484E+00
         21   -1    0    0  503  502  0.00000000000E+00  0.00000000000E+00  0.76888876935E+03  0.76888876935E+03  0.00000000000E+00 0. -1.
         21   -1    0    0  501  503 -0.00000000000E+00 -0.00000000000E+00 -0.53904241233E+03  0.53904241233E+03  0.00000000000E+00 0. -1.
          6    1    1    2  501    0  0.71933843184E+02  0.31417718832E+02 -0.50992110476E+03  0.54415998009E+03  0.17300000000E+03 0. -1.
         -6    1    1    2    0  502 -0.71933843184E+02 -0.31417718832E+02  0.73976746179E+03  0.76377120159E+03  0.17300000000E+03 0. -1.
<mgrwt>
<rscale>  2 0.18997513E+03</rscale>
<asrwt>0</asrwt>
<pdfrwt beam="1">  1       21 0.11829058E+00 0.18997513E+03</pdfrwt>
<pdfrwt beam="2">  1       21 0.82929602E-01 0.18997513E+03</pdfrwt>
<totfact> 0.69566008E+02</totfact>
</mgrwt>
</event>
<event>
 4    1  0.3945627E+000  0.2238710E+03  0.7546771E-02  0.1131030E+00
         21   -1    0    0  501  502  0.00000000000E+00  0.00000000000E+00  0.28995061414E+03  0.28995061414E+03  0.00000000000E+00 0.  1.
         21   -1    0    0  502  503 -0.00000000000E+00 -0.00000000000E+00 -0.31047840046E+03  0.31047840046E+03  0.00000000000E+00 0.  1.
          6    1    1    2  501    0 -0.50459078715E+02  0.13282741001E+03  0.18961572406E+03  0.29338091670E+03  0.17300000000E+03 0.  1.
         -6    1    1    2    0  503  0.50459078715E+02 -0.13282741001E+03 -0.21014351037E+03  0.30704809790E+03  0.17300000000E+03 0.  1.
<mgrwt>
<rscale>  2 0.22387103E+03</rscale>
<asrwt>0</asrwt>
<pdfrwt beam="1">  1       21 0.44607787E-01 0.22387103E+03</pdfrwt>
<pdfrwt beam="2">  1       21 0.47765908E-01 0.22387103E+03</pdfrwt>
<totfact> 0.19853822E+04</totfact>
</mgrwt>
</event>
<event>
 4    1  0.3945627E+000  0.1888299E+03  0.7546771E-02  0.1159521E+00
         21   -1    0    0  501  502  0.00000000000E+00  0.00000000000E+00  0.87837106509E+02  0.87837106509E+02  0.00000000000E+00 0.  1.
         21   -1    0    0  502  503 -0.00000000000E+00 -0.00000000000E+00 -0.58678278129E+03  0.58678278129E+03  0.00000000000E+00 0.  1.
          6    1    1    2  501    0 -0.35156538337E+01 -0.75600198220E+02 -0.62215459957E+02  0.19881527419E+03  0.17300000000E+03 0.  1.
         -6    1    1    2    0  503  0.35156538337E+01  0.75600198220E+02 -0.43673021482E+03  0.47580461361E+03  0.17300000000E+03 0.  1.
<mgrwt>
<rscale>  2 0.18882995E+03</rscale>
<asrwt>0</asrwt>
<pdfrwt beam="1">  1       21 0.13513402E-01 0.18882995E+03</pdfrwt>
<pdfrwt beam="2">  1       21 0.90274270E-01 0.18882995E+03</pdfrwt>
<totfact> 0.49543048E+04</totfact>
</mgrwt>
</event>
<event>
 4    1  0.3945627E+000  0.5158007E+03  0.7546771E-02  0.1009735E+00
         21   -1    0    0  501  502  0.00000000000E+00  0.00000000000E+00  0.15920435891E+03  0.15920435891E+03  0.00000000000E+00 0. -1.
         21   -1    0    0  502  503 -0.00000000000E+00 -0.00000000000E+00 -0.17127175411E+04  0.17127175411E+04  0.00000000000E+00 0.  1.
          6    1    1    2  501    0 -0.46222019937E+03 -0.14991283988E+03 -0.63090103471E+03  0.81491501880E+03  0.17300000000E+03 0.  1.
         -6    1    1    2    0  503  0.46222019937E+03  0.14991283988E+03 -0.92261214746E+03  0.10570068812E+04  0.17300000000E+03 0. -1.
<mgrwt>
<rscale>  2 0.51580071E+03</rscale>
<asrwt>0</asrwt>
<pdfrwt beam="1">  1       21 0.24492978E-01 0.51580071E+03</pdfrwt>
<pdfrwt beam="2">  1       21 0.26349501E+00 0.51580071E+03</pdfrwt>
<totfact> 0.68705933E+02</totfact>
</mgrwt>
</event>
<event>
 4    1  0.3945627E+000  0.2302967E+03  0.7546771E-02  0.1126431E+00
         21   -1    0    0  503  502  0.00000000000E+00  0.00000000000E+00  0.42673811976E+02  0.42673811976E+02  0.00000000000E+00 0. -1.
         21   -1    0    0  501  503 -0.00000000000E+00 -0.00000000000E+00 -0.14769346383E+04  0.14769346383E+04  0.00000000000E+00 0.  1.
          6    1    1    2  501    0  0.15003214657E+03  0.24452435013E+02 -0.41463405893E+03  0.47429734282E+03  0.17300000000E+03 0. -1.
         -6    1    1    2    0  502 -0.15003214657E+03 -0.24452435013E+02 -0.10196267673E+04  0.10453111074E+04  0.17300000000E+03 0.  1.
<mgrwt>
<rscale>  2 0.23029669E+03</rscale>
<asrwt>0</asrwt>
<pdfrwt beam="1">  1       21 0.65652003E-02 0.23029669E+03</pdfrwt>
<pdfrwt beam="2">  1       21 0.22722077E+00 0.23029669E+03</pdfrwt>
<totfact> 0.14900440E+04</totfact>
</mgrwt>
</event>
<event>
 4    1  0.3945627E+000  0.2120649E+03  0.7546771E-02  0.1139941E+00
         21   -1    0    0  503  502  0.00000000000E+00  0.00000000000E+00  0.26796710014E+03  0.26796710014E+03  0.00000000000E+00 0. -1.
         21   -1    0    0  501  503 -0.00000000000E+00 -0.00000000000E+00 -0.18325231959E+03  0.18325231959E+03  0.00000000000E+00 0. -1.
          6    1    1    2  501    0  0.11984775501E+02 -0.12206093797E+03 -0.23103517377E+02  0.21331966608E+03  0.17300000000E+03 0. -1.
         -6    1    1    2    0  502 -0.11984775501E+02  0.12206093797E+03  0.10781829792E+03  0.23789975365E+03  0.17300000000E+03 0. -1.
<mgrwt>
<rscale>  2 0.21206487E+03</rscale>
<asrwt>0</asrwt>
<pdfrwt beam="1">  1       21 0.41225708E-01 0.21206487E+03</pdfrwt>
<pdfrwt beam="2">  1       21 0.28192665E-01 0.21206487E+03</pdfrwt>
<totfact> 0.67541416E+04</totfact>
</mgrwt>
</event>
<event>
 4    1  0.3945627E+000  0.1739945E+03  0.7546771E-02  0.1173745E+00
         21   -1    0    0  503  502  0.00000000000E+00  0.00000000000E+00  0.14540001232E+03  0.14540001232E+03  0.00000000000E+00 0. -1.
         21   -1    0    0  501  503 -0.00000000000E+00 -0.00000000000E+00 -0.20923801946E+03  0.20923801946E+03  0.00000000000E+00 0. -1.
          6    1    1    2  501    0 -0.39421470009E+01  0.18153391829E+02 -0.44333445950E+02  0.17955372619E+03  0.17300000000E+03 0.  1.
         -6    1    1    2    0  502  0.39421470009E+01 -0.18153391829E+02 -0.19504561188E+02  0.17508430559E+03  0.17300000000E+03 0.  1.
<mgrwt>
<rscale>  2 0.17399450E+03</rscale>
<asrwt>0</asrwt>
<pdfrwt beam="1">  1       21 0.22369233E-01 0.17399450E+03</pdfrwt>
<pdfrwt beam="2">  1       21 0.32190464E-01 0.17399450E+03</pdfrwt>
<totfact> 0.17464768E+05</totfact>
</mgrwt>
</event>
<event>
 4    1  0.3945627E+000  0.1914024E+03  0.7546771E-02  0.1157203E+00
         21   -1    0    0  501  502  0.00000000000E+00  0.00000000000E+00  0.12880454186E+03  0.12880454186E+03  0.00000000000E+00 0. -1.
         21   -1    0    0  502  503 -0.00000000000E+00 -0.00000000000E+00 -0.48959945723E+03  0.48959945723E+03  0.00000000000E+00 0. -1.
          6    1    1    2  501    0 -0.69898782768E+02  0.42661886094E+02  0.19766738656E+02  0.19242037396E+03  0.17300000000E+03 0. -1.
         -6    1    1    2    0  503  0.69898782768E+02 -0.42661886094E+02 -0.38056165403E+03  0.42598362512E+03  0.17300000000E+03 0. -1.
<mgrwt>
<rscale>  2 0.19140239E+03</rscale>
<asrwt>0</asrwt>
<pdfrwt beam="1">  1       21 0.19816083E-01 0.19140239E+03</pdfrwt>
<pdfrwt beam="2">  1       21 0.75322993E-01 0.19140239E+03</pdfrwt>
<totfact> 0.37007636E+04</totfact>
</mgrwt>
</event>
<event>
 4    1  0.3945627E+000  0.2417766E+03  0.7546771E-02  0.1118615E+00
         21   -1    0    0  503  502  0.00000000000E+00  0.00000000000E+00  0.18786031205E+04  0.18786031205E+04  0.00000000000E+00 0. -1.
         21   -1    0    0  501  503 -0.00000000000E+00 -0.00000000000E+00 -0.31262471451E+02  0.31262471451E+02  0.00000000000E+00 0. -1.
          6    1    1    2  501    0  0.16868298699E+03  0.85414655787E+01  0.98888053773E+03  0.10180081653E+04  0.17300000000E+03 0. -1.
         -6    1    1    2    0  502 -0.16868298699E+03 -0.85414655787E+01  0.85846011134E+03  0.89185742667E+03  0.17300000000E+03 0. -1.
<mgrwt>
<rscale>  2 0.24177656E+03</rscale>
<asrwt>0</asrwt>
<pdfrwt beam="1">  1       21 0.28901578E+00 0.24177656E+03</pdfrwt>
<pdfrwt beam="2">  1       21 0.48096124E-02 0.24177656E+03</pdfrwt>
<totfact> 0.10829773E+04</totfact>
</mgrwt>
</event>
<event>
 4    1  0.3945627E+000  0.2154000E+03  0.7546771E-02  0.1137360E+00
         21   -1    0    0  501  502  0.00000000000E+00  0.00000000000E+00  0.28998254650E+02  0.28998254650E+02  0.00000000000E+00 0. -1.
         21   -1    0    0  502  503 -0.00000000000E+00 -0.00000000000E+00 -0.20241783063E+04  0.20241783063E+04  0.00000000000E+00 0. -1.
          6    1    1    2  501    0  0.12736225132E+03  0.15716968805E+02 -0.52764519772E+03  0.56991808257E+03  0.17300000000E+03 0. -1.
         -6    1    1    2    0  503 -0.12736225132E+03 -0.15716968805E+02 -0.14675348539E+04  0.14832584783E+04  0.17300000000E+03 0. -1.
<mgrwt>
<rscale>  2 0.21540001E+03</rscale>
<asrwt>0</asrwt>
<pdfrwt beam="1">  1       21 0.44612697E-02 0.21540001E+03</pdfrwt>
<pdfrwt beam="2">  1       21 0.31141206E+00 0.21540001E+03</pdfrwt>
<totfact> 0.93412490E+03</totfact>
</mgrwt>
</event>
<event>
 4    1  0.3945627E+000  0.1985150E+03  0.7546771E-02  0.1150998E+00
         21   -1    0    0  503  502  0.00000000000E+00  0.00000000000E+00  0.30681642925E+03  0.30681642925E+03  0.00000000000E+00 0. -1.
         21   -1    0    0  501  503 -0.00000000000E+00 -0.00000000000E+00 -0.19013931771E+03  0.19013931771E+03  0.00000000000E+00 0. -1.
          6    1    1    2  501    0  0.67701393441E+02 -0.69969599334E+02 -0.83202901404E+02  0.21524624574E+03  0.17300000000E+03 0. -1.
         -6    1    1    2    0  502 -0.67701393441E+02  0.69969599334E+02  0.19988001294E+03  0.28170950122E+03  0.17300000000E+03 0. -1.
<mgrwt>
<rscale>  2 0.19851505E+03</rscale>
<asrwt>0</asrwt>
<pdfrwt beam="1">  1       21 0.47202528E-01 0.19851505E+03</pdfrwt>
<pdfrwt beam="2">  1       21 0.29252203E-01 0.19851505E+03</pdfrwt>
<totfact> 0.47926474E+04</totfact>
</mgrwt>
</event>
<event>
 4    1  0.3945627E+000  0.1941830E+03  0.7546771E-02  0.1154742E+00
         21   -1    0    0  503  502  0.00000000000E+00  0.00000000000E+00  0.10063092466E+03  0.10063092466E+03  0.00000000000E+00 0. -1.
         21   -1    0    0  501  503 -0.00000000000E+00 -0.00000000000E+00 -0.42957474192E+03  0.42957474192E+03  0.00000000000E+00 0. -1.
          6    1    1    2  501    0 -0.67969229620E+02  0.56197995511E+02 -0.25921700243E+03  0.32388344388E+03  0.17300000000E+03 0. -1.
         -6    1    1    2    0  502  0.67969229620E+02 -0.56197995511E+02 -0.69726814833E+02  0.20632222270E+03  0.17300000000E+03 0. -1.
<mgrwt>
<rscale>  2 0.19418298E+03</rscale>
<asrwt>0</asrwt>
<pdfrwt beam="1">  1       21 0.15481681E-01 0.19418298E+03</pdfrwt>
<pdfrwt beam="2">  1       21 0.66088421E-01 0.19418298E+03</pdfrwt>
<totfact> 0.77793231E+04</totfact>
</mgrwt>
</event>
<event>
 4    1  0.3945627E+000  0.2132755E+03  0.7546771E-02  0.1138998E+00
         21   -1    0    0  503  502  0.00000000000E+00  0.00000000000E+00  0.31710837587E+03  0.31710837587E+03  0.00000000000E+00 0.  1.
         21   -1    0    0  501  503 -0.00000000000E+00 -0.00000000000E+00 -0.19590461006E+03  0.19590461006E+03  0.00000000000E+00 0. -1.
          6    1    1    2  501    0  0.10833371744E+03  0.61816324147E+02 -0.72138690227E+02  0.22514538168E+03  0.17300000000E+03 0.  1.
         -6    1    1    2    0  502 -0.10833371744E+03 -0.61816324147E+02  0.19334245603E+03  0.28786760424E+03  0.17300000000E+03 0.  1.
<mgrwt>
<rscale>  2 0.21327553E+03</rscale>
<asrwt>0</asrwt>
<pdfrwt beam="1">  1       21 0.48785904E-01 0.21327553E+03</pdfrwt>
<pdfrwt beam="2">  1       21 0.30139171E-01 0.21327553E+03</pdfrwt>
<totfact> 0.41916373E+04</totfact>
</mgrwt>
</event>
<event>
 4    1  0.3945627E+000  0.2227250E+03  0.7546771E-02  0.1131868E+00
         21   -1    0    0  501  502  0.00000000000E+00  0.00000000000E+00  0.87922944105E+02  0.87922944105E+02  0.00000000000E+00 0.  1.
         21   -1    0    0  502  503 -0.00000000000E+00 -0.00000000000E+00 -0.57779002709E+03  0.57779002709E+03  0.00000000000E+00 0. -1.
          6    1    1    2  501    0  0.69270139504E+02 -0.12197975946E+03 -0.29597577369E+03  0.37041608032E+03  0.17300000000E+03 0.  1.
         -6    1    1    2    0  503 -0.69270139504E+02  0.12197975946E+03 -0.19389130930E+03  0.29529689088E+03  0.17300000000E+03 0.  1.
<mgrwt>
<rscale>  2 0.22272497E+03</rscale>
<asrwt>0</asrwt>
<pdfrwt beam="1">  1       21 0.13526607E-01 0.22272497E+03</pdfrwt>
<pdfrwt beam="2">  1       21 0.88890773E-01 0.22272497E+03</pdfrwt>
<totfact> 0.50413644E+04</totfact>
</mgrwt>
</event>
<event>
 4    1  0.3945627E+000  0.2537519E+03  0.7546771E-02  0.1110956E+00
         21   -1    0    0  501  502  0.00000000000E+00  0.00000000000E+00  0.76470717379E+02  0.76470717379E+02  0.00000000000E+00 0.  1.
         21   -1    0    0  502  503 -0.00000000000E+00 -0.00000000000E+00 -0.89117939381E+03  0.89117939381E+03  0.00000000000E+00 0. -1.
          6    1    1    2  501    0 -0.11616549328E+03  0.14479852463E+03 -0.29372257653E+03  0.38815330287E+03  0.17300000000E+03 0. -1.
         -6    1    1    2    0  503  0.11616549328E+03 -0.14479852463E+03 -0.52098609990E+03  0.57949680832E+03  0.17300000000E+03 0.  1.
<mgrwt>
<rscale>  2 0.25375192E+03</rscale>
<asrwt>0</asrwt>
<pdfrwt beam="1">  1       21 0.11764725E-01 0.25375192E+03</pdfrwt>
<pdfrwt beam="2">  1       21 0.13710453E+00 0.25375192E+03</pdfrwt>
<totfact> 0.22158515E+04</totfact>
</mgrwt>
</event>
<event>
 4    1  0.3945627E+000  0.2067311E+03  0.7546771E-02  0.1144181E+00
         21   -1    0    0  501  502  0.00000000000E+00  0.00000000000E+00  0.22200880441E+03  0.22200880441E+03  0.00000000000E+00 0.  1.
         21   -1    0    0  502  503 -0.00000000000E+00 -0.00000000000E+00 -0.19250504543E+03  0.19250504543E+03  0.00000000000E+00 0. -1.
          6    1    1    2  501    0  0.11309527558E+03 -0.42653155394E+01  0.14467075569E+02  0.20723665349E+03  0.17300000000E+03 0. -1.
         -6    1    1    2    0  503 -0.11309527558E+03  0.42653155394E+01  0.15036683407E+02  0.20727719634E+03  0.17300000000E+03 0.  1.
<mgrwt>
<rscale>  2 0.20673107E+03</rscale>
<asrwt>0</asrwt>
<pdfrwt beam="1">  1       21 0.34155201E-01 0.20673107E+03</pdfrwt>
<pdfrwt beam="2">  1       21 0.29616161E-01 0.20673107E+03</pdfrwt>
<totfact> 0.89729012E+04</totfact>
</mgrwt>
</event>
<event>
 4    1  0.3945627E+000  0.1734341E+03  0.7546771E-02  0.1174313E+00
         21   -1    0    0  503  502  0.00000000000E+00  0.00000000000E+00  0.30801564945E+03  0.30801564945E+03  0.00000000000E+00 0. -1.
         21   -1    0    0  501  503 -0.00000000000E+00 -0.00000000000E+00 -0.12788228772E+03  0.12788228772E+03  0.00000000000E+00 0. -1.
          6    1    1    2  501    0 -0.30205562836E+01  0.11884861050E+02 -0.15894490475E+02  0.17416086963E+03  0.17300000000E+03 0. -1.
         -6    1    1    2    0  502  0.30205562836E+01 -0.11884861050E+02  0.19602785221E+03  0.26173706754E+03  0.17300000000E+03 0. -1.
<mgrwt>
<rscale>  2 0.17343406E+03</rscale>
<asrwt>0</asrwt>
<pdfrwt beam="1">  1       21 0.47387023E-01 0.17343406E+03</pdfrwt>
<pdfrwt beam="2">  1       21 0.19674198E-01 0.17343406E+03</pdfrwt>
<totfact> 0.10213382E+05</totfact>
</mgrwt>
</event>
<event>
 4    1  0.3945627E+000  0.2153196E+03  0.7546771E-02  0.1137421E+00
         21   -1    0    0  503  502  0.00000000000E+00  0.00000000000E+00  0.49465191725E+03  0.49465191725E+03  0.00000000000E+00 0. -1.
         21   -1    0    0  501  503 -0.00000000000E+00 -0.00000000000E+00 -0.52243404623E+03  0.52243404623E+03  0.00000000000E+00 0. -1.
          6    1    1    2  501    0  0.12312711137E+03 -0.35682525732E+02 -0.47456320136E+03  0.52112643406E+03  0.17300000000E+03 0. -1.
         -6    1    1    2    0  502 -0.12312711137E+03  0.35682525732E+02  0.44678107237E+03  0.49595952942E+03  0.17300000000E+03 0. -1.
<mgrwt>
<rscale>  2 0.21531960E+03</rscale>
<asrwt>0</asrwt>
<pdfrwt beam="1">  1       21 0.76100295E-01 0.21531960E+03</pdfrwt>
<pdfrwt beam="2">  1       21 0.80374468E-01 0.21531960E+03</pdfrwt>
<totfact> 0.20533206E+03</totfact>
</mgrwt>
</event>
<event>
 4    1  0.3945627E+000  0.2748818E+03  0.7546771E-02  0.1098518E+00
         21   -1    0    0  501  502  0.00000000000E+00  0.00000000000E+00  0.25855213734E+04  0.25855213734E+04  0.00000000000E+00 0.  1.
         21   -1    0    0  502  503 -0.00000000000E+00 -0.00000000000E+00 -0.29891216085E+02  0.29891216085E+02  0.00000000000E+00 0.  1.
          6    1    1    2  501    0 -0.20737604976E+03  0.51246009890E+02  0.14731514777E+04  0.14985777443E+04  0.17300000000E+03 0.  1.
         -6    1    1    2    0  503  0.20737604976E+03 -0.51246009890E+02  0.10824786797E+04  0.11168348452E+04  0.17300000000E+03 0.  1.
<mgrwt>
<rscale>  2 0.27488176E+03</rscale>
<asrwt>0</asrwt>
<pdfrwt beam="1">  1       21 0.39777234E+00 0.27488176E+03</pdfrwt>
<pdfrwt beam="2">  1       21 0.45986507E-02 0.27488176E+03</pdfrwt>
<totfact> 0.25275238E+03</totfact>
</mgrwt>
</event>
<event>
 4    1  0.3945627E+000  0.3278872E+03  0.7546771E-02  0.1072076E+00
         21   -1    0    0  501  502  0.00000000000E+00  0.00000000000E+00  0.68884182050E+03  0.68884182050E+03  0.00000000000E+00 0.  1.
         21   -1    0    0  502  503 -0.00000000000E+00 -0.00000000000E+00 -0.17624004290E+03  0.17624004290E+03  0.00000000000E+00 0. -1.
          6    1    1    2  501    0  0.20489541875E+02  0.27777907909E+03  0.40261604896E+03  0.51923956030E+03  0.17300000000E+03 0.  1.
         -6    1    1    2    0  503 -0.20489541875E+02 -0.27777907909E+03  0.10998572864E+03  0.34584230310E+03  0.17300000000E+03 0.  1.
<mgrwt>
<rscale>  2 0.32788723E+03</rscale>
<asrwt>0</asrwt>
<pdfrwt beam="1">  1       21 0.10597566E+00 0.32788723E+03</pdfrwt>
<pdfrwt beam="2">  1       21 0.27113853E-01 0.32788723E+03</pdfrwt>
<totfact> 0.85822019E+03</totfact>
</mgrwt>
</event>
<event>
 4    1  0.3945627E+000  0.2200432E+03  0.7546771E-02  0.1133851E+00
         21   -1    0    0  501  502  0.00000000000E+00  0.00000000000E+00  0.13412373533E+04  0.13412373533E+04  0.00000000000E+00 0. -1.
         21   -1    0    0  502  503 -0.00000000000E+00 -0.00000000000E+00 -0.39269898374E+02  0.39269898374E+02  0.00000000000E+00 0.  1.
          6    1    1    2  501    0  0.13323282979E+02 -0.13532366568E+03  0.84708676488E+03  0.87519997235E+03  0.17300000000E+03 0. -1.
         -6    1    1    2    0  503 -0.13323282979E+02  0.13532366568E+03  0.45488069002E+03  0.50530727930E+03  0.17300000000E+03 0.  1.
<mgrwt>
<rscale>  2 0.22004319E+03</rscale>
<asrwt>0</asrwt>
<pdfrwt beam="1">  1       21 0.20634417E+00 0.22004319E+03</pdfrwt>
<pdfrwt beam="2">  1       21 0.60415239E-02 0.22004319E+03</pdfrwt>
<totfact> 0.23370110E+04</totfact>
</mgrwt>
</event>
<event>
 4    1  0.3945627E+000  0.2126216E+03  0.7546771E-02  0.1139507E+00
         21   -1    0    0  501  502  0.00000000000E+00  0.00000000000E+00  0.15890975236E+04  0.15890975236E+04  0.00000000000E+00 0.  1.
         21   -1    0    0  502  503 -0.00000000000E+00 -0.00000000000E+00 -0.28671401123E+02  0.28671401123E+02  0.00000000000E+00 0. -1.
          6    1    1    2  501    0  0.23089760179E+01  0.12358647434E+03  0.85148311080E+03  0.87762830173E+03  0.17300000000E+03 0.  1.
         -6    1    1    2    0  503 -0.23089760179E+01 -0.12358647434E+03  0.70894301170E+03  0.74014062302E+03  0.17300000000E+03 0. -1.
<mgrwt>
<rscale>  2 0.21262161E+03</rscale>
<asrwt>0</asrwt>
<pdfrwt beam="1">  1       21 0.24447647E+00 0.21262161E+03</pdfrwt>
<pdfrwt beam="2">  1       21 0.44109860E-02 0.21262161E+03</pdfrwt>
<totfact> 0.23441745E+04</totfact>
</mgrwt>
</event>
<event>
 4    1  0.3945627E+000  0.2174844E+03  0.7546771E-02  0.1135773E+00
         21   -1    0    0  501  502  0.00000000000E+00  0.00000000000E+00  0.19829118025E+03  0.19829118025E+03  0.00000000000E+00 0.  1.
         21   -1    0    0  502  503 -0.00000000000E+00 -0.00000000000E+00 -0.64854887622E+03  0.64854887622E+03  0.00000000000E+00 0.  1.
          6    1    1    2  501    0  0.12436402026E+03 -0.43635385348E+02  0.11153705389E+03  0.24441761553E+03  0.17300000000E+03 0.  1.
         -6    1    1    2    0  503 -0.12436402026E+03  0.43635385348E+02 -0.56179474985E+03  0.60242244094E+03  0.17300000000E+03 0.  1.
<mgrwt>
<rscale>  2 0.21748438E+03</rscale>
<asrwt>0</asrwt>
<pdfrwt beam="1">  1       21 0.30506335E-01 0.21748438E+03</pdfrwt>
<pdfrwt beam="2">  1       21 0.99776752E-01 0.21748438E+03</pdfrwt>
<totfact> 0.83642213E+03</totfact>
</mgrwt>
</event>
<event>
 4    1  0.3945627E+000  0.2304216E+03  0.7546771E-02  0.1126343E+00
         21   -1    0    0  501  502  0.00000000000E+00  0.00000000000E+00  0.67675340039E+03  0.67675340039E+03  0.00000000000E+00 0. -1.
         21   -1    0    0  502  503 -0.00000000000E+00 -0.00000000000E+00 -0.12098705618E+03  0.12098705618E+03  0.00000000000E+00 0. -1.
          6    1    1    2  501    0 -0.15135812449E+03  0.15994650212E+02  0.51437966881E+03  0.56363157680E+03  0.17300000000E+03 0. -1.
         -6    1    1    2    0  503  0.15135812449E+03 -0.15994650212E+02  0.41386675396E+02  0.23410887976E+03  0.17300000000E+03 0. -1.
<mgrwt>
<rscale>  2 0.23042159E+03</rscale>
<asrwt>0</asrwt>
<pdfrwt beam="1">  1       21 0.10411590E+00 0.23042159E+03</pdfrwt>
<pdfrwt beam="2">  1       21 0.18613394E-01 0.23042159E+03</pdfrwt>
<totfact> 0.19234855E+04</totfact>
</mgrwt>
</event>
<event>
 4    1  0.3945627E+000  0.2335407E+03  0.7546771E-02  0.1124172E+00
         21   -1    0    0  503  502  0.00000000000E+00  0.00000000000E+00  0.73861581578E+03  0.73861581578E+03  0.00000000000E+00 0.  1.
         21   -1    0    0  501  503 -0.00000000000E+00 -0.00000000000E+00 -0.28809384270E+03  0.28809384270E+03  0.00000000000E+00 0.  1.
          6    1    1    2  501    0  0.10536331201E+03 -0.11623619345E+03 -0.21744192932E+03  0.31909602443E+03  0.17300000000E+03 0.  1.
         -6    1    1    2    0  502 -0.10536331201E+03  0.11623619345E+03  0.66796390240E+03  0.70761363405E+03  0.17300000000E+03 0.  1.
<mgrwt>
<rscale>  2 0.23354075E+03</rscale>
<asrwt>0</asrwt>
<pdfrwt beam="1">  1       21 0.11363320E+00 0.23354075E+03</pdfrwt>
<pdfrwt beam="2">  1       21 0.44322130E-01 0.23354075E+03</pdfrwt>
<totfact> 0.28537756E+03</totfact>
</mgrwt>
</event>
<event>
 4    1  0.3945627E+000  0.1828419E+03  0.7546771E-02  0.1165081E+00
         21   -1    0    0  501  502  0.00000000000E+00  0.00000000000E+00  0.21108953679E+03  0.21108953679E+03  0.00000000000E+00 0. -1.
         21   -1    0    0  502  503 -0.00000000000E+00 -0.00000000000E+00 -0.27896679015E+03  0.27896679015E+03  0.00000000000E+00 0. -1.
          6    1    1    2  501    0  0.19735887557E+02 -0.55791187881E+02 -0.19504022432E+03  0.26734219833E+03  0.17300000000E+03 0. -1.
         -6    1    1    2    0  503 -0.19735887557E+02  0.55791187881E+02  0.12716297095E+03  0.22271412861E+03  0.17300000000E+03 0. -1.
<mgrwt>
<rscale>  2 0.18284190E+03</rscale>
<asrwt>0</asrwt>
<pdfrwt beam="1">  1       21 0.32475313E-01 0.18284190E+03</pdfrwt>
<pdfrwt beam="2">  1       21 0.42917968E-01 0.18284190E+03</pdfrwt>
<totfact> 0.47859714E+04</totfact>
</mgrwt>
</event>
<event>
 4    1  0.3945627E+000  0.1921175E+03  0.7546771E-02  0.1156565E+00
         21   -1    0    0  503  502  0.00000000000E+00  0.00000000000E+00  0.15581552456E+03  0.15581552456E+03  0.00000000000E+00 0.  1.
         21   -1    0    0  501  503 -0.00000000000E+00 -0.00000000000E+00 -0.24206944723E+03  0.24206944723E+03  0.00000000000E+00 0.  1.
          6    1    1    2  501    0 -0.42068023138E+02  0.72183138234E+02 -0.72263698186E+02  0.20525877835E+03  0.17300000000E+03 0.  1.
         -6    1    1    2    0  502  0.42068023138E+02 -0.72183138234E+02 -0.13990224484E+02  0.19262619343E+03  0.17300000000E+03 0.  1.
<mgrwt>
<rscale>  2 0.19211747E+03</rscale>
<asrwt>0</asrwt>
<pdfrwt beam="1">  1       21 0.23971619E-01 0.19211747E+03</pdfrwt>
<pdfrwt beam="2">  1       21 0.37241453E-01 0.19211747E+03</pdfrwt>
<totfact> 0.11413121E+05</totfact>
</mgrwt>
</event>
<event>
 4    1  0.3945627E+000  0.1934337E+03  0.7546771E-02  0.1155400E+00
         21   -1    0    0  501  502  0.00000000000E+00  0.00000000000E+00  0.16831401222E+03  0.16831401222E+03  0.00000000000E+00 0.  1.
         21   -1    0    0  502  503 -0.00000000000E+00 -0.00000000000E+00 -0.27512459355E+03  0.27512459355E+03  0.00000000000E+00 0.  1.
          6    1    1    2  501    0 -0.85793102281E+02  0.11274795065E+02 -0.15055640404E+03  0.24511998736E+03  0.17300000000E+03 0.  1.
         -6    1    1    2    0  503  0.85793102281E+02 -0.11274795065E+02  0.43745822719E+02  0.19831861841E+03  0.17300000000E+03 0.  1.
<mgrwt>
<rscale>  2 0.19343365E+03</rscale>
<asrwt>0</asrwt>
<pdfrwt beam="1">  1       21 0.25894464E-01 0.19343365E+03</pdfrwt>
<pdfrwt beam="2">  1       21 0.42326860E-01 0.19343365E+03</pdfrwt>
<totfact> 0.76040632E+04</totfact>
</mgrwt>
</event>
<event>
 4    1  0.3945627E+000  0.2807016E+03  0.7546771E-02  0.1095306E+00
         21   -1    0    0  503  502  0.00000000000E+00  0.00000000000E+00  0.74025090979E+03  0.74025090979E+03  0.00000000000E+00 0.  1.
         21   -1    0    0  501  503 -0.00000000000E+00 -0.00000000000E+00 -0.20667817461E+03  0.20667817461E+03  0.00000000000E+00 0. -1.
          6    1    1    2  501    0  0.76245643718E+02 -0.20748735839E+03 -0.62939880683E+02  0.28767139353E+03  0.17300000000E+03 0. -1.
         -6    1    1    2    0  502 -0.76245643718E+02  0.20748735839E+03  0.59651261586E+03  0.65925769086E+03  0.17300000000E+03 0.  1.
<mgrwt>
<rscale>  2 0.28070162E+03</rscale>
<asrwt>0</asrwt>
<pdfrwt beam="1">  1       21 0.11388475E+00 0.28070162E+03</pdfrwt>
<pdfrwt beam="2">  1       21 0.31796643E-01 0.28070162E+03</pdfrwt>
<totfact> 0.53823218E+03</totfact>
</mgrwt>
</event>
<event>
 4    1  0.3945627E+000  0.2170570E+03  0.7546771E-02  0.1136096E+00
         21   -1    0    0  503  502  0.00000000000E+00  0.00000000000E+00  0.17465999174E+04  0.17465999174E+04  0.00000000000E+00 0. -1.
         21   -1    0    0  501  503 -0.00000000000E+00 -0.00000000000E+00 -0.28535377956E+02  0.28535377956E+02  0.00000000000E+00 0. -1.
          6    1    1    2  501    0 -0.11152786089E+03 -0.68893146484E+02  0.65145081381E+03  0.68665995384E+03  0.17300000000E+03 0. -1.
         -6    1    1    2    0  502  0.11152786089E+03  0.68893146484E+02  0.10666137256E+04  0.10884753415E+04  0.17300000000E+03 0. -1.
<mgrwt>
<rscale>  2 0.21705697E+03</rscale>
<asrwt>0</asrwt>
<pdfrwt beam="1">  1       21 0.26870760E+00 0.21705697E+03</pdfrwt>
<pdfrwt beam="2">  1       21 0.43900595E-02 0.21705697E+03</pdfrwt>
<totfact> 0.16955857E+04</totfact>
</mgrwt>
</event>
<event>
 4    1  0.3945627E+000  0.1750991E+03  0.7546771E-02  0.1172632E+00
         21   -1    0    0  501  502  0.00000000000E+00  0.00000000000E+00  0.62033933654E+02  0.62033933654E+02  0.00000000000E+00 0.  1.
         21   -1    0    0  502  503 -0.00000000000E+00 -0.00000000000E+00 -0.49987996177E+03  0.49987996177E+03  0.00000000000E+00 0.  1.
          6    1    1    2  501    0  0.25936640837E+02  0.76140085367E+01 -0.18908116753E+03  0.25770403640E+03  0.17300000000E+03 0.  1.
         -6    1    1    2    0  503 -0.25936640837E+02 -0.76140085367E+01 -0.24876486059E+03  0.30420985903E+03  0.17300000000E+03 0.  1.
<mgrwt>
<rscale>  2 0.17509906E+03</rscale>
<asrwt>0</asrwt>
<pdfrwt beam="1">  1       21 0.95436826E-02 0.17509906E+03</pdfrwt>
<pdfrwt beam="2">  1       21 0.76904606E-01 0.17509906E+03</pdfrwt>
<totfact> 0.13328355E+05</totfact>
</mgrwt>
</event>
<event>
 4    1  0.3945627E+000  0.1756887E+03  0.7546771E-02  0.1172042E+00
         21   -1    0    0  501  502  0.00000000000E+00  0.00000000000E+00  0.31652174511E+03  0.31652174511E+03  0.00000000000E+00 0.  1.
         21   -1    0    0  502  503 -0.00000000000E+00 -0.00000000000E+00 -0.14809366554E+03  0.14809366554E+03  0.00000000000E+00 0.  1.
          6    1    1    2  501    0  0.18391422649E+02  0.24479789370E+02  0.21997254010E+03  0.28152162068E+03  0.17300000000E+03 0. -1.
         -6    1    1    2    0  503 -0.18391422649E+02 -0.24479789370E+02 -0.51544460528E+02  0.18309378997E+03  0.17300000000E+03 0. -1.
<mgrwt>
<rscale>  2 0.17568866E+03</rscale>
<asrwt>0</asrwt>
<pdfrwt beam="1">  1       21 0.48695653E-01 0.17568866E+03</pdfrwt>
<pdfrwt beam="2">  1       21 0.22783641E-01 0.17568866E+03</pdfrwt>
<totfact> 0.73267535E+04</totfact>
</mgrwt>
</event>
<event>
 4    1  0.3945627E+000  0.1817164E+03  0.7546771E-02  0.1166152E+00
         21   -1    0    0  503  502  0.00000000000E+00  0.00000000000E+00  0.69738801837E+02  0.69738801837E+02  0.00000000000E+00 0.  1.
         21   -1    0    0  501  503 -0.00000000000E+00 -0.00000000000E+00 -0.47437281354E+03  0.47437281354E+03  0.00000000000E+00 0.  1.
          6    1    1    2  501    0 -0.50500468451E+02  0.23271214085E+02 -0.19060179329E+03  0.26334367341E+03  0.17300000000E+03 0. -1.
         -6    1    1    2    0  502  0.50500468451E+02 -0.23271214085E+02 -0.21403221841E+03  0.28076794197E+03  0.17300000000E+03 0. -1.
<mgrwt>
<rscale>  2 0.18171639E+03</rscale>
<asrwt>0</asrwt>
<pdfrwt beam="1">  1       21 0.10729046E-01 0.18171639E+03</pdfrwt>
<pdfrwt beam="2">  1       21 0.72980434E-01 0.18171639E+03</pdfrwt>
<totfact> 0.12152065E+05</totfact>
</mgrwt>
</event>
<event>
 4    1  0.3945627E+000  0.2047756E+03  0.7546771E-02  0.1145771E+00
         21   -1    0    0  503  502  0.00000000000E+00  0.00000000000E+00  0.14158338981E+03  0.14158338981E+03  0.00000000000E+00 0. -1.
         21   -1    0    0  501  503 -0.00000000000E+00 -0.00000000000E+00 -0.31016668634E+03  0.31016668634E+03  0.00000000000E+00 0.  1.
          6    1    1    2  501    0  0.35564764191E+02 -0.10363002141E+03 -0.13227078843E+03  0.24377980897E+03  0.17300000000E+03 0.  1.
         -6    1    1    2    0  502 -0.35564764191E+02  0.10363002141E+03 -0.36312508107E+02  0.20797026719E+03  0.17300000000E+03 0. -1.
<mgrwt>
<rscale>  2 0.20477557E+03</rscale>
<asrwt>0</asrwt>
<pdfrwt beam="1">  1       21 0.21782060E-01 0.20477557E+03</pdfrwt>
<pdfrwt beam="2">  1       21 0.47717952E-01 0.20477557E+03</pdfrwt>
<totfact> 0.82158482E+04</totfact>
</mgrwt>
</event>
<event>
 4    1  0.3945627E+000  0.1766135E+03  0.7546771E-02  0.1171121E+00
         21   -1    0    0  501  502  0.00000000000E+00  0.00000000000E+00  0.21631331089E+02  0.21631331089E+02  0.00000000000E+00 0. -1.
         21   -1    0    0  502  503 -0.00000000000E+00 -0.00000000000E+00 -0.16715582707E+04  0.16715582707E+04  0.00000000000E+00 0. -1.
          6    1    1    2  501    0 -0.35085381516E+02  0.56864383747E+01 -0.51122777965E+03  0.54087536666E+03  0.17300000000E+03 0. -1.
         -6    1    1    2    0  503  0.35085381516E+02 -0.56864383747E+01 -0.11386991600E+04  0.11523142352E+04  0.17300000000E+03 0. -1.
<mgrwt>
<rscale>  2 0.17661348E+03</rscale>
<asrwt>0</asrwt>
<pdfrwt beam="1">  1       21 0.33278961E-02 0.17661348E+03</pdfrwt>
<pdfrwt beam="2">  1       21 0.25716289E+00 0.17661348E+03</pdfrwt>
<totfact> 0.32605373E+04</totfact>
</mgrwt>
</event>
<event>
 4    1  0.3945627E+000  0.1985336E+03  0.7546771E-02  0.1150982E+00
         21   -1    0    0  501  502  0.00000000000E+00  0.00000000000E+00  0.62436735222E+03  0.62436735222E+03  0.00000000000E+00 0. -1.
         21   -1    0    0  502  503 -0.00000000000E+00 -0.00000000000E+00 -0.14659756204E+03  0.14659756204E+03  0.00000000000E+00 0. -1.
          6    1    1    2  501    0  0.61446286893E+02  0.75570828770E+02  0.52975767832E+03  0.56573738967E+03  0.17300000000E+03 0. -1.
         -6    1    1    2    0  503 -0.61446286893E+02 -0.75570828770E+02 -0.51987888139E+02  0.20522752458E+03  0.17300000000E+03 0. -1.
<mgrwt>
<rscale>  2 0.19853362E+03</rscale>
<asrwt>0</asrwt>
<pdfrwt beam="1">  1       21 0.96056514E-01 0.19853362E+03</pdfrwt>
<pdfrwt beam="2">  1       21 0.22553472E-01 0.19853362E+03</pdfrwt>
<totfact> 0.16562974E+04</totfact>
</mgrwt>
</event>
<event>
 4    1  0.3945627E+000  0.1971569E+03  0.7546771E-02  0.1152160E+00
         21   -1    0    0  503  502  0.00000000000E+00  0.00000000000E+00  0.15216586354E+03  0.15216586354E+03  0.00000000000E+00 0.  1.
         21   -1    0    0  501  503 -0.00000000000E+00 -0.00000000000E+00 -0.58999887689E+03  0.58999887689E+03  0.00000000000E+00 0.  1.
          6    1    1    2  501    0 -0.79049458345E+02 -0.51894305194E+02 -0.49834728236E+03  0.53592989244E+03  0.17300000000E+03 0.  1.
         -6    1    1    2    0  502  0.79049458345E+02  0.51894305194E+02  0.60514269007E+02  0.20623484800E+03  0.17300000000E+03 0.  1.
<mgrwt>
<rscale>  2 0.19715688E+03</rscale>
<asrwt>0</asrwt>
<pdfrwt beam="1">  1       21 0.23410132E-01 0.19715688E+03</pdfrwt>
<pdfrwt beam="2">  1       21 0.90769060E-01 0.19715688E+03</pdfrwt>
<totfact> 0.17630142E+04</totfact>
</mgrwt>
</event>
<event>
 4    1  0.3945627E+000  0.2223318E+03  0.7546771E-02  0.1132156E+00
         21   -1    0    0  501  502  0.00000000000E+00  0.00000000000E+00  0.15911715724E+03  0.15911715724E+03  0.00000000000E+00 0. -1.
         21   -1    0    0  502  503 -0.00000000000E+00 -0.00000000000E+00 -0.32014494943E+03  0.32014494943E+03  0.00000000000E+00 0.  1.
          6    1    1    2  501    0 -0.13102334255E+03 -0.48324888077E+02 -0.39268404561E+02  0.22577293615E+03  0.17300000000E+03 0. -1.
         -6    1    1    2    0  503  0.13102334255E+03  0.48324888077E+02 -0.12175938763E+03  0.25348917053E+03  0.17300000000E+03 0.  1.
<mgrwt>
<rscale>  2 0.22233176E+03</rscale>
<asrwt>0</asrwt>
<pdfrwt beam="1">  1       21 0.24479563E-01 0.22233176E+03</pdfrwt>
<pdfrwt beam="2">  1       21 0.49253068E-01 0.22233176E+03</pdfrwt>
<totfact> 0.61171180E+04</totfact>
</mgrwt>
</event>
<event>
 4    1  0.3945627E+000  0.2846373E+03  0.7546771E-02  0.1093183E+00
         21   -1    0    0  503  502  0.00000000000E+00  0.00000000000E+00  0.16190449286E+03  0.16190449286E+03  0.00000000000E+00 0. -1.
         21   -1    0    0  501  503 -0.00000000000E+00 -0.00000000000E+00 -0.60782568102E+03  0.60782568102E+03  0.00000000000E+00 0.  1.
          6    1    1    2  501    0  0.21293122417E+03  0.75826562910E+02 -0.38475220540E+03  0.47859443523E+03  0.17300000000E+03 0.  1.
         -6    1    1    2    0  502 -0.21293122417E+03 -0.75826562910E+02 -0.61168982760E+02  0.29113573865E+03  0.17300000000E+03 0. -1.
<mgrwt>
<rscale>  2 0.28463727E+03</rscale>
<asrwt>0</asrwt>
<pdfrwt beam="1">  1       21 0.24908384E-01 0.28463727E+03</pdfrwt>
<pdfrwt beam="2">  1       21 0.93511642E-01 0.28463727E+03</pdfrwt>
<totfact> 0.13928244E+04</totfact>
</mgrwt>
</event>
<event>
 4    1  0.3945627E+000  0.2165576E+03  0.7546771E-02  0.1136476E+00
         21   -1    0    0  501  502  0.00000000000E+00  0.00000000000E+00  0.12469237219E+03  0.12469237219E+03  0.00000000000E+00 0. -1.
         21   -1    0    0  502  503 -0.00000000000E+00 -0.00000000000E+00 -0.37695888569E+03  0.37695888569E+03  0.00000000000E+00 0. -1.
          6    1    1    2  501    0 -0.12533149542E+03  0.35499274143E+02 -0.11418186029E+03  0.24481560291E+03  0.17300000000E+03 0. -1.
         -6    1    1    2    0  503  0.12533149542E+03 -0.35499274143E+02 -0.13808465322E+03  0.25683565497E+03  0.17300000000E+03 0. -1.
<mgrwt>
<rscale>  2 0.21655757E+03</rscale>
<asrwt>0</asrwt>
<pdfrwt beam="1">  1       21 0.19183442E-01 0.21655757E+03</pdfrwt>
<pdfrwt beam="2">  1       21 0.57993674E-01 0.21655757E+03</pdfrwt>
<totfact> 0.68798166E+04</totfact>
</mgrwt>
</event>
<event>
 4    1  0.3945627E+000  0.1751256E+03  0.7546771E-02  0.1172606E+00
         21   -1    0    0  503  502  0.00000000000E+00  0.00000000000E+00  0.41253772433E+03  0.41253772433E+03  0.00000000000E+00 0.  1.
         21   -1    0    0  501  503 -0.00000000000E+00 -0.00000000000E+00 -0.17554103919E+03  0.17554103919E+03  0.00000000000E+00 0.  1.
          6    1    1    2  501    0 -0.23816593369E+02  0.13143878960E+02 -0.10475798655E+03  0.20406672296E+03  0.17300000000E+03 0.  1.
         -6    1    1    2    0  502  0.23816593369E+02 -0.13143878960E+02  0.34175467169E+03  0.38401204056E+03  0.17300000000E+03 0.  1.
<mgrwt>
<rscale>  2 0.17512565E+03</rscale>
<asrwt>0</asrwt>
<pdfrwt beam="1">  1       21 0.63467342E-01 0.17512565E+03</pdfrwt>
<pdfrwt beam="2">  1       21 0.27006314E-01 0.17512565E+03</pdfrwt>
<totfact> 0.30275748E+04</totfact>
</mgrwt>
</event>
<event>
 4    1  0.3945627E+000  0.3462312E+03  0.7546771E-02  0.1064173E+00
         21   -1    0    0  503  502  0.00000000000E+00  0.00000000000E+00  0.45212117125E+03  0.45212117125E+03  0.00000000000E+00 0. -1.
         21   -1    0    0  501  503 -0.00000000000E+00 -0.00000000000E+00 -0.30652477595E+03  0.30652477595E+03  0.00000000000E+00 0.  1.
          6    1    1    2  501    0 -0.27231310745E+03  0.12566854079E+03 -0.66578335379E+02  0.35257436857E+03  0.17300000000E+03 0.  1.
         -6    1    1    2    0  502  0.27231310745E+03 -0.12566854079E+03  0.21217473068E+03  0.40607157863E+03  0.17300000000E+03 0. -1.
<mgrwt>
<rscale>  2 0.34623115E+03</rscale>
<asrwt>0</asrwt>
<pdfrwt beam="1">  1       21 0.69557103E-01 0.34623115E+03</pdfrwt>
<pdfrwt beam="2">  1       21 0.47157658E-01 0.34623115E+03</pdfrwt>
<totfact> 0.74348352E+03</totfact>
</mgrwt>
</event>
<event>
 4    1  0.3945627E+000  0.2103929E+03  0.7546771E-02  0.1141255E+00
         21   -1    0    0  503  502  0.00000000000E+00  0.00000000000E+00  0.96071976734E+02  0.96071976734E+02  0.00000000000E+00 0.  1.
         21   -1    0    0  501  503 -0.00000000000E+00 -0.00000000000E+00 -0.15933688875E+04  0.15933688875E+04  0.00000000000E+00 0. -1.
          6    1    1    2  501    0 -0.11116273041E+03  0.44486338315E+02 -0.14608397901E+04  0.14759126259E+04  0.17300000000E+03 0. -1.
         -6    1    1    2    0  502  0.11116273041E+03 -0.44486338315E+02 -0.36457120686E+02  0.21352823836E+03  0.17300000000E+03 0.  1.
<mgrwt>
<rscale>  2 0.21039293E+03</rscale>
<asrwt>0</asrwt>
<pdfrwt beam="1">  1       21 0.14780304E-01 0.21039293E+03</pdfrwt>
<pdfrwt beam="2">  1       21 0.24513368E+00 0.21039293E+03</pdfrwt>
<totfact> 0.28089772E+03</totfact>
</mgrwt>
</event>
<event>
 4    1  0.3945627E+000  0.4168246E+03  0.7546771E-02  0.1038105E+00
         21   -1    0    0  503  502  0.00000000000E+00  0.00000000000E+00  0.32956441995E+03  0.32956441995E+03  0.00000000000E+00 0.  1.
         21   -1    0    0  501  503 -0.00000000000E+00 -0.00000000000E+00 -0.53427070088E+03  0.53427070088E+03  0.00000000000E+00 0.  1.
          6    1    1    2  501    0 -0.16432802748E+03 -0.34177487440E+03 -0.52626819389E+02  0.42013372574E+03  0.17300000000E+03 0.  1.
         -6    1    1    2    0  502  0.16432802748E+03  0.34177487440E+03 -0.15207946154E+03  0.44370139509E+03  0.17300000000E+03 0.  1.
<mgrwt>
<rscale>  2 0.41682462E+03</rscale>
<asrwt>0</asrwt>
<pdfrwt beam="1">  1       21 0.50702219E-01 0.41682462E+03</pdfrwt>
<pdfrwt beam="2">  1       21 0.82195491E-01 0.41682462E+03</pdfrwt>
<totfact> 0.42453110E+03</totfact>
</mgrwt>
</event>
<event>
 4    1  0.3945627E+000  0.1956436E+03  0.7546771E-02  0.1153467E+00
         21   -1    0    0  503  502  0.00000000000E+00  0.00000000000E+00  0.62383076881E+03  0.62383076881E+03  0.00000000000E+00 0. -1.
         21   -1    0    0  501  503 -0.00000000000E+00 -0.00000000000E+00 -0.62797312544E+02  0.62797312544E+02  0.00000000000E+00 0. -1.
          6    1    1    2  501    0  0.14107752829E+02 -0.90268437856E+02  0.22852420074E+03  0.30083173019E+03  0.17300000000E+03 0. -1.
         -6    1    1    2    0  502 -0.14107752829E+02  0.90268437856E+02  0.33250925552E+03  0.38579635116E+03  0.17300000000E+03 0. -1.
<mgrwt>
<rscale>  2 0.19564360E+03</rscale>
<asrwt>0</asrwt>
<pdfrwt beam="1">  1       21 0.95973960E-01 0.19564360E+03</pdfrwt>
<pdfrwt beam="2">  1       21 0.96611255E-02 0.19564360E+03</pdfrwt>
<totfact> 0.77891740E+04</totfact>
</mgrwt>
</event>
<event>
 4    1  0.3945627E+000  0.2418596E+03  0.7546771E-02  0.1118560E+00
         21   -1    0    0  503  502  0.00000000000E+00  0.00000000000E+00  0.17312920869E+04  0.17312920869E+04  0.00000000000E+00 0.  1.
         21   -1    0    0  501  503 -0.00000000000E+00 -0.00000000000E+00 -0.33792192529E+02  0.33792192529E+02  0.00000000000E+00 0.  1.
          6    1    1    2  501    0 -0.14804972557E+03  0.81537453298E+02  0.85912030806E+03  0.89251542354E+03  0.17300000000E+03 0.  1.
         -6    1    1    2    0  502  0.14804972557E+03 -0.81537453298E+02  0.83837958635E+03  0.87256885593E+03  0.17300000000E+03 0.  1.
<mgrwt>
<rscale>  2 0.24185962E+03</rscale>
<asrwt>0</asrwt>
<pdfrwt beam="1">  1       21 0.26635256E+00 0.24185962E+03</pdfrwt>
<pdfrwt beam="2">  1       21 0.51988002E-02 0.24185962E+03</pdfrwt>
<totfact> 0.12869905E+04</totfact>
</mgrwt>
</event>
<event>
 4    1  0.3945627E+000  0.1809572E+03  0.7546771E-02  0.1166880E+00
         21   -1    0    0  503  502  0.00000000000E+00  0.00000000000E+00  0.10199741480E+04  0.10199741480E+04  0.00000000000E+00 0.  1.
         21   -1    0    0  501  503 -0.00000000000E+00 -0.00000000000E+00 -0.19072884312E+03  0.19072884312E+03  0.00000000000E+00 0.  1.
          6    1    1    2  501    0  0.51259585321E+02  0.13745927320E+02 -0.13743534493E+03  0.22723109304E+03  0.17300000000E+03 0.  1.
         -6    1    1    2    0  502 -0.51259585321E+02 -0.13745927320E+02  0.96668064986E+03  0.98347189813E+03  0.17300000000E+03 0.  1.
<mgrwt>
<rscale>  2 0.18095717E+03</rscale>
<asrwt>0</asrwt>
<pdfrwt beam="1">  1       21 0.15691910E+00 0.18095717E+03</pdfrwt>
<pdfrwt beam="2">  1       21 0.29342900E-01 0.18095717E+03</pdfrwt>
<totfact> 0.29830967E+03</totfact>
</mgrwt>
</event>
<event>
 4    1  0.3945627E+000  0.2402058E+03  0.7546771E-02  0.1119656E+00
         21   -1    0    0  501  502  0.00000000000E+00  0.00000000000E+00  0.36821177436E+03  0.36821177436E+03  0.00000000000E+00 0. -1.
         21   -1    0    0  502  503 -0.00000000000E+00 -0.00000000000E+00 -0.19381849667E+03  0.19381849667E+03  0.00000000000E+00 0.  1.
          6    1    1    2  501    0 -0.16550880457E+03 -0.19408116865E+02  0.21017435606E+03  0.31917408939E+03  0.17300000000E+03 0. -1.
         -6    1    1    2    0  503  0.16550880457E+03  0.19408116865E+02 -0.35781078367E+02  0.24285618164E+03  0.17300000000E+03 0.  1.
<mgrwt>
<rscale>  2 0.24020583E+03</rscale>
<asrwt>0</asrwt>
<pdfrwt beam="1">  1       21 0.56647965E-01 0.24020583E+03</pdfrwt>
<pdfrwt beam="2">  1       21 0.29818230E-01 0.24020583E+03</pdfrwt>
<totfact> 0.30837472E+04</totfact>
</mgrwt>
</event>
<event>
 4    1  0.3945627E+000  0.1898287E+03  0.7546771E-02  0.1158616E+00
         21   -1    0    0  501  502  0.00000000000E+00  0.00000000000E+00  0.48162717354E+02  0.48162717354E+02  0.00000000000E+00 0.  1.
         21   -1    0    0  502  503 -0.00000000000E+00 -0.00000000000E+00 -0.87630727122E+03  0.87630727122E+03  0.00000000000E+00 0. -1.
          6    1    1    2  501    0 -0.75023487684E+02 -0.21850144202E+02 -0.23733208536E+03  0.30391030132E+03  0.17300000000E+03 0.  1.
         -6    1    1    2    0  503  0.75023487684E+02  0.21850144202E+02 -0.59081246850E+03  0.62055968725E+03  0.17300000000E+03 0.  1.
<mgrwt>
<rscale>  2 0.18982875E+03</rscale>
<asrwt>0</asrwt>
<pdfrwt beam="1">  1       21 0.74096490E-02 0.18982875E+03</pdfrwt>
<pdfrwt beam="2">  1       21 0.13481650E+00 0.18982875E+03</pdfrwt>
<totfact> 0.54122255E+04</totfact>
</mgrwt>
</event>
<event>
 4    1  0.3945627E+000  0.1967642E+03  0.7546771E-02  0.1152498E+00
         21   -1    0    0  501  502  0.00000000000E+00  0.00000000000E+00  0.10874751100E+04  0.10874751100E+04  0.00000000000E+00 0. -1.
         21   -1    0    0  502  503 -0.00000000000E+00 -0.00000000000E+00 -0.41684914857E+02  0.41684914857E+02  0.00000000000E+00 0.  1.
          6    1    1    2  501    0 -0.86983558774E+02 -0.34942702211E+02  0.73856873341E+03  0.76432971021E+03  0.17300000000E+03 0. -1.
         -6    1    1    2    0  503  0.86983558774E+02  0.34942702211E+02  0.30722146170E+03  0.36483031462E+03  0.17300000000E+03 0.  1.
<mgrwt>
<rscale>  2 0.19676415E+03</rscale>
<asrwt>0</asrwt>
<pdfrwt beam="1">  1       21 0.16730384E+00 0.19676415E+03</pdfrwt>
<pdfrwt beam="2">  1       21 0.64130646E-02 0.19676415E+03</pdfrwt>
<totfact> 0.39116490E+04</totfact>
</mgrwt>
</event>
<event>
 4    1  0.3945627E+000  0.1777901E+03  0.7546771E-02  0.1169959E+00
         21   -1    0    0  503  502  0.00000000000E+00  0.00000000000E+00  0.43676889074E+03  0.43676889074E+03  0.00000000000E+00 0. -1.
         21   -1    0    0  501  503 -0.00000000000E+00 -0.00000000000E+00 -0.76192727756E+02  0.76192727756E+02  0.00000000000E+00 0. -1.
          6    1    1    2  501    0 -0.34126334873E+02 -0.22709394773E+02  0.12284494558E+03  0.21610229984E+03  0.17300000000E+03 0. -1.
         -6    1    1    2    0  502  0.34126334873E+02  0.22709394773E+02  0.23773121740E+03  0.29685931865E+03  0.17300000000E+03 0. -1.
<mgrwt>
<rscale>  2 0.17779011E+03</rscale>
<asrwt>0</asrwt>
<pdfrwt beam="1">  1       21 0.67195212E-01 0.17779011E+03</pdfrwt>
<pdfrwt beam="2">  1       21 0.11721958E-01 0.17779011E+03</pdfrwt>
<totfact> 0.12470761E+05</totfact>
</mgrwt>
</event>
<event>
 4    1  0.3945627E+000  0.1796141E+03  0.7546771E-02  0.1168177E+00
         21   -1    0    0  503  502  0.00000000000E+00  0.00000000000E+00  0.36666536619E+03  0.36666536619E+03  0.00000000000E+00 0. -1.
         21   -1    0    0  501  503 -0.00000000000E+00 -0.00000000000E+00 -0.11188380332E+03  0.11188380332E+03  0.00000000000E+00 0. -1.
          6    1    1    2  501    0 -0.38571975762E+02  0.29058814371E+02  0.16805563239E+02  0.18039855588E+03  0.17300000000E+03 0. -1.
         -6    1    1    2    0  502  0.38571975762E+02 -0.29058814371E+02  0.23797599964E+03  0.29815061363E+03  0.17300000000E+03 0. -1.
<mgrwt>
<rscale>  2 0.17961406E+03</rscale>
<asrwt>0</asrwt>
<pdfrwt beam="1">  1       21 0.56410056E-01 0.17961406E+03</pdfrwt>
<pdfrwt beam="2">  1       21 0.17212893E-01 0.17961406E+03</pdfrwt>
<totfact> 0.90600934E+04</totfact>
</mgrwt>
</event>
<event>
 4    1  0.3945627E+000  0.2031088E+03  0.7546771E-02  0.1147142E+00
         21   -1    0    0  501  502  0.00000000000E+00  0.00000000000E+00  0.29587476074E+03  0.29587476074E+03  0.00000000000E+00 0.  1.
         21   -1    0    0  502  503 -0.00000000000E+00 -0.00000000000E+00 -0.14470470893E+03  0.14470470893E+03  0.00000000000E+00 0.  1.
          6    1    1    2  501    0 -0.67535416398E+02  0.82238337796E+02  0.11765201004E+03  0.23472360797E+03  0.17300000000E+03 0.  1.
         -6    1    1    2    0  503  0.67535416398E+02 -0.82238337796E+02  0.33518041771E+02  0.20585586170E+03  0.17300000000E+03 0.  1.
<mgrwt>
<rscale>  2 0.20310878E+03</rscale>
<asrwt>0</asrwt>
<pdfrwt beam="1">  1       21 0.45519194E-01 0.20310878E+03</pdfrwt>
<pdfrwt beam="2">  1       21 0.22262263E-01 0.20310878E+03</pdfrwt>
<totfact> 0.86980939E+04</totfact>
</mgrwt>
</event>
<event>
 4    1  0.3945627E+000  0.1884769E+03  0.7546771E-02  0.1159842E+00
         21   -1    0    0  501  502  0.00000000000E+00  0.00000000000E+00  0.21053543477E+03  0.21053543477E+03  0.00000000000E+00 0.  1.
         21   -1    0    0  502  503 -0.00000000000E+00 -0.00000000000E+00 -0.21642056974E+03  0.21642056974E+03  0.00000000000E+00 0. -1.
          6    1    1    2  501    0 -0.18457707764E+02 -0.72483573145E+02  0.97269963892E+02  0.21209667896E+03  0.17300000000E+03 0.  1.
         -6    1    1    2    0  503  0.18457707764E+02  0.72483573145E+02 -0.10315509887E+03  0.21485932555E+03  0.17300000000E+03 0. -1.
<mgrwt>
<rscale>  2 0.18847694E+03</rscale>
<asrwt>0</asrwt>
<pdfrwt beam="1">  1       21 0.32390067E-01 0.18847694E+03</pdfrwt>
<pdfrwt beam="2">  1       21 0.33295472E-01 0.18847694E+03</pdfrwt>
<totfact> 0.79802760E+04</totfact>
</mgrwt>
</event>
<event>
 4    1  0.3945627E+000  0.1886397E+03  0.7546771E-02  0.1159694E+00
         21   -1    0    0  501  502  0.00000000000E+00  0.00000000000E+00  0.56078926679E+02  0.56078926679E+02  0.00000000000E+00 0. -1.
         21   -1    0    0  502  503 -0.00000000000E+00 -0.00000000000E+00 -0.67909906058E+03  0.67909906058E+03  0.00000000000E+00 0. -1.
          6    1    1    2  501    0  0.69322873041E+02  0.29159719093E+02 -0.21736243863E+03  0.28780441218E+03  0.17300000000E+03 0. -1.
         -6    1    1    2    0  503 -0.69322873041E+02 -0.29159719093E+02 -0.40565769527E+03  0.44737357508E+03  0.17300000000E+03 0. -1.
<mgrwt>
<rscale>  2 0.18863974E+03</rscale>
<asrwt>0</asrwt>
<pdfrwt beam="1">  1       21 0.86275266E-02 0.18863974E+03</pdfrwt>
<pdfrwt beam="2">  1       21 0.10447679E+00 0.18863974E+03</pdfrwt>
<totfact> 0.77918311E+04</totfact>
</mgrwt>
</event>
<event>
 4    1  0.3945627E+000  0.3344430E+03  0.7546771E-02  0.1069188E+00
         21   -1    0    0  503  502  0.00000000000E+00  0.00000000000E+00  0.53045802249E+03  0.53045802249E+03  0.00000000000E+00 0. -1.
         21   -1    0    0  501  503 -0.00000000000E+00 -0.00000000000E+00 -0.38282356878E+03  0.38282356878E+03  0.00000000000E+00 0.  1.
          6    1    1    2  501    0  0.15452967522E+03  0.24092253351E+03 -0.23223411764E+03  0.40716676322E+03  0.17300000000E+03 0.  1.
         -6    1    1    2    0  502 -0.15452967522E+03 -0.24092253351E+03  0.37986857135E+03  0.50611482805E+03  0.17300000000E+03 0. -1.
<mgrwt>
<rscale>  2 0.33444295E+03</rscale>
<asrwt>0</asrwt>
<pdfrwt beam="1">  1       21 0.81608927E-01 0.33444295E+03</pdfrwt>
<pdfrwt beam="2">  1       21 0.58895934E-01 0.33444295E+03</pdfrwt>
<totfact> 0.32386423E+03</totfact>
</mgrwt>
</event>
<event>
 4    1  0.3945627E+000  0.2350618E+03  0.7546771E-02  0.1123127E+00
         21   -1    0    0  503  502  0.00000000000E+00  0.00000000000E+00  0.80192969943E+02  0.80192969943E+02  0.00000000000E+00 0.  1.
         21   -1    0    0  501  503 -0.00000000000E+00 -0.00000000000E+00 -0.17025426120E+04  0.17025426120E+04  0.00000000000E+00 0.  1.
          6    1    1    2  501    0 -0.12606556606E+03  0.97121244404E+02 -0.14989175239E+04  0.15172368986E+04  0.17300000000E+03 0.  1.
         -6    1    1    2    0  502  0.12606556606E+03 -0.97121244404E+02 -0.12343211817E+03  0.26549868334E+03  0.17300000000E+03 0.  1.
<mgrwt>
<rscale>  2 0.23506183E+03</rscale>
<asrwt>0</asrwt>
<pdfrwt beam="1">  1       21 0.12337380E-01 0.23506183E+03</pdfrwt>
<pdfrwt beam="2">  1       21 0.26192963E+00 0.23506183E+03</pdfrwt>
<totfact> 0.30258823E+03</totfact>
</mgrwt>
</event>
<event>
 4    1  0.3945627E+000  0.2230568E+03  0.7546771E-02  0.1131624E+00
         21   -1    0    0  503  502  0.00000000000E+00  0.00000000000E+00  0.36502710434E+03  0.36502710434E+03  0.00000000000E+00 0.  1.
         21   -1    0    0  501  503 -0.00000000000E+00 -0.00000000000E+00 -0.14533397745E+03  0.14533397745E+03  0.00000000000E+00 0.  1.
          6    1    1    2  501    0  0.13164032013E+03 -0.49961622382E+02  0.46236155871E+02  0.22779841902E+03  0.17300000000E+03 0.  1.
         -6    1    1    2    0  502 -0.13164032013E+03  0.49961622382E+02  0.17345697102E+03  0.28256266277E+03  0.17300000000E+03 0.  1.
<mgrwt>
<rscale>  2 0.22305680E+03</rscale>
<asrwt>0</asrwt>
<pdfrwt beam="1">  1       21 0.56158016E-01 0.22305680E+03</pdfrwt>
<pdfrwt beam="2">  1       21 0.22359073E-01 0.22305680E+03</pdfrwt>
<totfact> 0.55097560E+04</totfact>
</mgrwt>
</event>
<event>
 4    1  0.3945627E+000  0.1994188E+03  0.7546771E-02  0.1150230E+00
         21   -1    0    0  503  502  0.00000000000E+00  0.00000000000E+00  0.50257553200E+03  0.50257553200E+03  0.00000000000E+00 0.  1.
         21   -1    0    0  501  503 -0.00000000000E+00 -0.00000000000E+00 -0.26165641531E+03  0.26165641531E+03  0.00000000000E+00 0.  1.
          6    1    1    2  501    0  0.14087355226E+02 -0.98185503286E+02 -0.19869027558E+03  0.28150607852E+03  0.17300000000E+03 0.  1.
         -6    1    1    2    0  502 -0.14087355226E+02  0.98185503286E+02  0.43960939227E+03  0.48272586879E+03  0.17300000000E+03 0.  1.
<mgrwt>
<rscale>  2 0.19941877E+03</rscale>
<asrwt>0</asrwt>
<pdfrwt beam="1">  1       21 0.77319313E-01 0.19941877E+03</pdfrwt>
<pdfrwt beam="2">  1       21 0.40254833E-01 0.19941877E+03</pdfrwt>
<totfact> 0.87891586E+03</totfact>
</mgrwt>
</event>
<event>
 4    1  0.3945627E+000  0.1919956E+03  0.7546771E-02  0.1156674E+00
         21   -1    0    0  503  502  0.00000000000E+00  0.00000000000E+00  0.96487820097E+03  0.96487820097E+03  0.00000000000E+00 0. -1.
         21   -1    0    0  501  503 -0.00000000000E+00 -0.00000000000E+00 -0.38497099754E+02  0.38497099754E+02  0.00000000000E+00 0.  1.
          6    1    1    2  501    0  0.64279177472E+02  0.52929124421E+02  0.41942304354E+03  0.46127865149E+03  0.17300000000E+03 0.  1.
         -6    1    1    2    0  502 -0.64279177472E+02 -0.52929124421E+02  0.50695805768E+03  0.54209664924E+03  0.17300000000E+03 0. -1.
<mgrwt>
<rscale>  2 0.19199559E+03</rscale>
<asrwt>0</asrwt>
<pdfrwt beam="1">  1       21 0.14844278E+00 0.19199559E+03</pdfrwt>
<pdfrwt beam="2">  1       21 0.59226315E-02 0.19199559E+03</pdfrwt>
<totfact> 0.61959834E+04</totfact>
</mgrwt>
</event>
<event>
 4    1  0.3945627E+000  0.3589188E+03  0.7546771E-02  0.1059013E+00
         21   -1    0    0  501  502  0.00000000000E+00  0.00000000000E+00  0.31392975563E+03  0.31392975563E+03  0.00000000000E+00 0. -1.
         21   -1    0    0  502  503 -0.00000000000E+00 -0.00000000000E+00 -0.41837450364E+03  0.41837450364E+03  0.00000000000E+00 0. -1.
          6    1    1    2  501    0  0.28566740030E+03  0.13148331110E+03 -0.15296278286E+01  0.35892208688E+03  0.17300000000E+03 0. -1.
         -6    1    1    2    0  503 -0.28566740030E+03 -0.13148331110E+03 -0.10291512018E+03  0.37338217238E+03  0.17300000000E+03 0. -1.
<mgrwt>
<rscale>  2 0.35891883E+03</rscale>
<asrwt>0</asrwt>
<pdfrwt beam="1">  1       21 0.48296886E-01 0.35891883E+03</pdfrwt>
<pdfrwt beam="2">  1       21 0.64365308E-01 0.35891883E+03</pdfrwt>
<totfact> 0.83587636E+03</totfact>
</mgrwt>
</event>
<event>
 4    1  0.3945627E+000  0.1830496E+03  0.7546771E-02  0.1164884E+00
         21   -1    0    0  503  502  0.00000000000E+00  0.00000000000E+00  0.19919652994E+03  0.19919652994E+03  0.00000000000E+00 0. -1.
         21   -1    0    0  501  503 -0.00000000000E+00 -0.00000000000E+00 -0.16821981732E+03  0.16821981732E+03  0.00000000000E+00 0. -1.
          6    1    1    2  501    0 -0.56806560997E+02  0.18739983801E+02  0.14206485637E+02  0.18360009967E+03  0.17300000000E+03 0. -1.
         -6    1    1    2    0  502  0.56806560997E+02 -0.18739983801E+02  0.16770226981E+02  0.18381624759E+03  0.17300000000E+03 0. -1.
<mgrwt>
<rscale>  2 0.18304964E+03</rscale>
<asrwt>0</asrwt>
<pdfrwt beam="1">  1       21 0.30645620E-01 0.18304964E+03</pdfrwt>
<pdfrwt beam="2">  1       21 0.25879972E-01 0.18304964E+03</pdfrwt>
<totfact> 0.14537623E+05</totfact>
</mgrwt>
</event>
<event>
 4    1  0.3945627E+000  0.2365566E+03  0.7546771E-02  0.1122108E+00
         21   -1    0    0  501  502  0.00000000000E+00  0.00000000000E+00  0.21560200551E+03  0.21560200551E+03  0.00000000000E+00 0.  1.
         21   -1    0    0  502  503 -0.00000000000E+00 -0.00000000000E+00 -0.31724638620E+03  0.31724638620E+03  0.00000000000E+00 0. -1.
          6    1    1    2  501    0  0.12502761273E+03 -0.10197124885E+03  0.62798565738E+02  0.24475027966E+03  0.17300000000E+03 0.  1.
         -6    1    1    2    0  503 -0.12502761273E+03  0.10197124885E+03 -0.16444294643E+03  0.28809811205E+03  0.17300000000E+03 0. -1.
<mgrwt>
<rscale>  2 0.23655663E+03</rscale>
<asrwt>0</asrwt>
<pdfrwt beam="1">  1       21 0.33169539E-01 0.23655663E+03</pdfrwt>
<pdfrwt beam="2">  1       21 0.48807136E-01 0.23655663E+03</pdfrwt>
<totfact> 0.34304925E+04</totfact>
</mgrwt>
</event>
<event>
 4    1  0.3945627E+000  0.2234391E+03  0.7546771E-02  0.1131345E+00
         21   -1    0    0  501  502  0.00000000000E+00  0.00000000000E+00  0.28963009462E+02  0.28963009462E+02  0.00000000000E+00 0. -1.
         21   -1    0    0  502  503 -0.00000000000E+00 -0.00000000000E+00 -0.18028148609E+04  0.18028148609E+04  0.00000000000E+00 0. -1.
          6    1    1    2  501    0 -0.99537779513E+02 -0.10044027366E+03 -0.10787292390E+04  0.11016268829E+04  0.17300000000E+03 0. -1.
         -6    1    1    2    0  503  0.99537779513E+02  0.10044027366E+03 -0.69512261246E+03  0.73015098745E+03  0.17300000000E+03 0. -1.
<mgrwt>
<rscale>  2 0.22343907E+03</rscale>
<asrwt>0</asrwt>
<pdfrwt beam="1">  1       21 0.44558468E-02 0.22343907E+03</pdfrwt>
<pdfrwt beam="2">  1       21 0.27735618E+00 0.22343907E+03</pdfrwt>
<totfact> 0.14641581E+04</totfact>
</mgrwt>
</event>
<event>
 4    1  0.3945627E+000  0.2133635E+03  0.7546771E-02  0.1138930E+00
         21   -1    0    0  503  502  0.00000000000E+00  0.00000000000E+00  0.10530480550E+03  0.10530480550E+03  0.00000000000E+00 0.  1.
         21   -1    0    0  501  503 -0.00000000000E+00 -0.00000000000E+00 -0.51791799917E+03  0.51791799917E+03  0.00000000000E+00 0. -1.
          6    1    1    2  501    0 -0.72546407994E+02 -0.10164639760E+03 -0.33299837121E+03  0.39548942677E+03  0.17300000000E+03 0. -1.
         -6    1    1    2    0  502  0.72546407994E+02  0.10164639760E+03 -0.79614822460E+02  0.22773337791E+03  0.17300000000E+03 0.  1.
<mgrwt>
<rscale>  2 0.21336347E+03</rscale>
<asrwt>0</asrwt>
<pdfrwt beam="1">  1       21 0.16200739E-01 0.21336347E+03</pdfrwt>
<pdfrwt beam="2">  1       21 0.79679692E-01 0.21336347E+03</pdfrwt>
<totfact> 0.46813764E+04</totfact>
</mgrwt>
</event>
<event>
 4    1  0.3945627E+000  0.2181100E+03  0.7546771E-02  0.1135300E+00
         21   -1    0    0  501  502  0.00000000000E+00  0.00000000000E+00  0.86158557262E+02  0.86158557262E+02  0.00000000000E+00 0. -1.
         21   -1    0    0  502  503 -0.00000000000E+00 -0.00000000000E+00 -0.55221396847E+03  0.55221396847E+03  0.00000000000E+00 0.  1.
          6    1    1    2  501    0  0.12880184551E+03 -0.32450644037E+02 -0.22944356549E+03  0.31656959654E+03  0.17300000000E+03 0.  1.
         -6    1    1    2    0  503 -0.12880184551E+03  0.32450644037E+02 -0.23661184571E+03  0.32180292919E+03  0.17300000000E+03 0.  1.
<mgrwt>
<rscale>  2 0.21810997E+03</rscale>
<asrwt>0</asrwt>
<pdfrwt beam="1">  1       21 0.13255162E-01 0.21810997E+03</pdfrwt>
<pdfrwt beam="2">  1       21 0.84955997E-01 0.21810997E+03</pdfrwt>
<totfact> 0.58177261E+04</totfact>
</mgrwt>
</event>
<event>
 4    1  0.3945627E+000  0.1736289E+03  0.7546771E-02  0.1174115E+00
         21   -1    0    0  503  502  0.00000000000E+00  0.00000000000E+00  0.31410192751E+03  0.31410192751E+03  0.00000000000E+00 0.  1.
         21   -1    0    0  501  503 -0.00000000000E+00 -0.00000000000E+00 -0.97535790556E+02  0.97535790556E+02  0.00000000000E+00 0.  1.
          6    1    1    2  501    0 -0.90571340327E+01  0.11660430005E+02  0.13429085081E+03  0.21950177657E+03  0.17300000000E+03 0. -1.
         -6    1    1    2    0  502  0.90571340327E+01 -0.11660430005E+02  0.82275286143E+02  0.19213594150E+03  0.17300000000E+03 0. -1.
<mgrwt>
<rscale>  2 0.17362891E+03</rscale>
<asrwt>0</asrwt>
<pdfrwt beam="1">  1       21 0.48323373E-01 0.17362891E+03</pdfrwt>
<pdfrwt beam="2">  1       21 0.15005506E-01 0.17362891E+03</pdfrwt>
<totfact> 0.16133548E+05</totfact>
</mgrwt>
</event>
<event>
 4    1  0.3945627E+000  0.1910447E+03  0.7546771E-02  0.1157522E+00
         21   -1    0    0  501  502  0.00000000000E+00  0.00000000000E+00  0.41469138796E+03  0.41469138796E+03  0.00000000000E+00 0.  1.
         21   -1    0    0  502  503 -0.00000000000E+00 -0.00000000000E+00 -0.88012650764E+02  0.88012650764E+02  0.00000000000E+00 0.  1.
          6    1    1    2  501    0  0.74108584438E+02 -0.32817684919E+02  0.16324115442E+03  0.25128819556E+03  0.17300000000E+03 0.  1.
         -6    1    1    2    0  503 -0.74108584438E+02  0.32817684919E+02  0.16343758278E+03  0.25141584317E+03  0.17300000000E+03 0.  1.
<mgrwt>
<rscale>  2 0.19104471E+03</rscale>
<asrwt>0</asrwt>
<pdfrwt beam="1">  1       21 0.63798674E-01 0.19104471E+03</pdfrwt>
<pdfrwt beam="2">  1       21 0.13540408E-01 0.19104471E+03</pdfrwt>
<totfact> 0.10726700E+05</totfact>
</mgrwt>
</event>
<event>
 4    1  0.3945627E+000  0.1843696E+03  0.7546771E-02  0.1163640E+00
         21   -1    0    0  503  502  0.00000000000E+00  0.00000000000E+00  0.31443109984E+03  0.31443109984E+03  0.00000000000E+00 0. -1.
         21   -1    0    0  501  503 -0.00000000000E+00 -0.00000000000E+00 -0.10819246232E+03  0.10819246232E+03  0.00000000000E+00 0.  1.
          6    1    1    2  501    0 -0.41208103120E+02 -0.48631733094E+02  0.10906379600E+03  0.21421266262E+03  0.17300000000E+03 0. -1.
         -6    1    1    2    0  502  0.41208103120E+02  0.48631733094E+02  0.97174841509E+02  0.20841089954E+03  0.17300000000E+03 0.  1.
<mgrwt>
<rscale>  2 0.18436961E+03</rscale>
<asrwt>0</asrwt>
<pdfrwt beam="1">  1       21 0.48374015E-01 0.18436961E+03</pdfrwt>
<pdfrwt beam="2">  1       21 0.16644994E-01 0.18436961E+03</pdfrwt>
<totfact> 0.13274564E+05</totfact>
</mgrwt>
</event>
<event>
 4    1  0.3945627E+000  0.2402138E+03  0.7546771E-02  0.1119650E+00
         21   -1    0    0  501  502  0.00000000000E+00  0.00000000000E+00  0.13070409423E+03  0.13070409423E+03  0.00000000000E+00 0.  1.
         21   -1    0    0  502  503 -0.00000000000E+00 -0.00000000000E+00 -0.92198078795E+03  0.92198078795E+03  0.00000000000E+00 0.  1.
          6    1    1    2  501    0 -0.15982576935E+03  0.47216418507E+02 -0.15662054299E+02  0.24072383901E+03  0.17300000000E+03 0.  1.
         -6    1    1    2    0  503  0.15982576935E+03 -0.47216418507E+02 -0.77561463942E+03  0.81196104316E+03  0.17300000000E+03 0.  1.
<mgrwt>
<rscale>  2 0.24021379E+03</rscale>
<asrwt>0</asrwt>
<pdfrwt beam="1">  1       21 0.20108322E-01 0.24021379E+03</pdfrwt>
<pdfrwt beam="2">  1       21 0.14184320E+00 0.24021379E+03</pdfrwt>
<totfact> 0.76389813E+03</totfact>
</mgrwt>
</event>
<event>
 4    1  0.3945627E+000  0.1855317E+03  0.7546771E-02  0.1162554E+00
         21   -1    0    0  503  502  0.00000000000E+00  0.00000000000E+00  0.35436149630E+03  0.35436149630E+03  0.00000000000E+00 0.  1.
         21   -1    0    0  501  503 -0.00000000000E+00 -0.00000000000E+00 -0.11816366525E+03  0.11816366525E+03  0.00000000000E+00 0.  1.
          6    1    1    2  501    0  0.28064790203E+02 -0.60871824591E+02  0.18437616395E+02  0.18644558771E+03  0.17300000000E+03 0.  1.
         -6    1    1    2    0  502 -0.28064790203E+02  0.60871824591E+02  0.21776021465E+03  0.28607957383E+03  0.17300000000E+03 0.  1.
<mgrwt>
<rscale>  2 0.18553170E+03</rscale>
<asrwt>0</asrwt>
<pdfrwt beam="1">  1       21 0.54517153E-01 0.18553170E+03</pdfrwt>
<pdfrwt beam="2">  1       21 0.18179026E-01 0.18553170E+03</pdfrwt>
<totfact> 0.87849750E+04</totfact>
</mgrwt>
</event>
<event>
 4    1  0.3945627E+000  0.1892157E+03  0.7546771E-02  0.1159171E+00
         21   -1    0    0  503  502  0.00000000000E+00  0.00000000000E+00  0.45532414186E+03  0.45532414186E+03  0.00000000000E+00 0.  1.
         21   -1    0    0  501  503 -0.00000000000E+00 -0.00000000000E+00 -0.20084758170E+03  0.20084758170E+03  0.00000000000E+00 0.  1.
          6    1    1    2  501    0 -0.10680627832E+02  0.75891503034E+02 -0.12869058166E+03  0.22883151412E+03  0.17300000000E+03 0.  1.
         -6    1    1    2    0  502  0.10680627832E+02 -0.75891503034E+02  0.38316714182E+03  0.42734020945E+03  0.17300000000E+03 0.  1.
<mgrwt>
<rscale>  2 0.18921574E+03</rscale>
<asrwt>0</asrwt>
<pdfrwt beam="1">  1       21 0.70049868E-01 0.18921574E+03</pdfrwt>
<pdfrwt beam="2">  1       21 0.30899628E-01 0.18921574E+03</pdfrwt>
<totfact> 0.18648027E+04</totfact>
</mgrwt>
</event>
<event>
 4    1  0.3945627E+000  0.2319020E+03  0.7546771E-02  0.1125308E+00
         21   -1    0    0  503  502  0.00000000000E+00  0.00000000000E+00  0.11389222250E+03  0.11389222250E+03  0.00000000000E+00 0.  1.
         21   -1    0    0  501  503 -0.00000000000E+00 -0.00000000000E+00 -0.50327804876E+03  0.50327804876E+03  0.00000000000E+00 0.  1.
          6    1    1    2  501    0  0.88808129136E+02 -0.12634342501E+03 -0.11799536873E+03  0.26019502663E+03  0.17300000000E+03 0.  1.
         -6    1    1    2    0  502 -0.88808129136E+02  0.12634342501E+03 -0.27139045753E+03  0.35697524464E+03  0.17300000000E+03 0.  1.
<mgrwt>
<rscale>  2 0.23190202E+03</rscale>
<asrwt>0</asrwt>
<pdfrwt beam="1">  1       21 0.17521880E-01 0.23190202E+03</pdfrwt>
<pdfrwt beam="2">  1       21 0.77427393E-01 0.23190202E+03</pdfrwt>
<totfact> 0.42852608E+04</totfact>
</mgrwt>
</event>
<event>
 4    1  0.3945627E+000  0.2508447E+03  0.7546771E-02  0.1112772E+00
         21   -1    0    0  503  502  0.00000000000E+00  0.00000000000E+00  0.23912614267E+03  0.23912614267E+03  0.00000000000E+00 0. -1.
         21   -1    0    0  501  503 -0.00000000000E+00 -0.00000000000E+00 -0.29449911457E+03  0.29449911457E+03  0.00000000000E+00 0. -1.
          6    1    1    2  501    0  0.56995042155E+02  0.17246922220E+03 -0.11475542285E+03  0.27584755665E+03  0.17300000000E+03 0. -1.
         -6    1    1    2    0  502 -0.56995042155E+02 -0.17246922220E+03  0.59382450961E+02  0.25777770059E+03  0.17300000000E+03 0. -1.
<mgrwt>
<rscale>  2 0.25084471E+03</rscale>
<asrwt>0</asrwt>
<pdfrwt beam="1">  1       21 0.36788637E-01 0.25084471E+03</pdfrwt>
<pdfrwt beam="2">  1       21 0.45307556E-01 0.25084471E+03</pdfrwt>
<totfact> 0.32360909E+04</totfact>
</mgrwt>
</event>
<event>
 4    1  0.3945627E+000  0.1826295E+03  0.7546771E-02  0.1165282E+00
         21   -1    0    0  503  502  0.00000000000E+00  0.00000000000E+00  0.13152844398E+03  0.13152844398E+03  0.00000000000E+00 0.  1.
         21   -1    0    0  501  503 -0.00000000000E+00 -0.00000000000E+00 -0.31653651290E+03  0.31653651290E+03  0.00000000000E+00 0.  1.
          6    1    1    2  501    0  0.29634473167E+02 -0.50461290563E+02  0.74049849587E+01  0.18277958761E+03  0.17300000000E+03 0.  1.
         -6    1    1    2    0  502 -0.29634473167E+02  0.50461290563E+02 -0.19241305388E+03  0.26528536927E+03  0.17300000000E+03 0.  1.
<mgrwt>
<rscale>  2 0.18262953E+03</rscale>
<asrwt>0</asrwt>
<pdfrwt beam="1">  1       21 0.20235145E-01 0.18262953E+03</pdfrwt>
<pdfrwt beam="2">  1       21 0.48697925E-01 0.18262953E+03</pdfrwt>
<totfact> 0.91268683E+04</totfact>
</mgrwt>
</event>
<event>
 4    1  0.3945627E+000  0.2003649E+03  0.7546771E-02  0.1149431E+00
         21   -1    0    0  503  502  0.00000000000E+00  0.00000000000E+00  0.15630762577E+03  0.15630762577E+03  0.00000000000E+00 0. -1.
         21   -1    0    0  501  503 -0.00000000000E+00 -0.00000000000E+00 -0.58934181904E+03  0.58934181904E+03  0.00000000000E+00 0. -1.
          6    1    1    2  501    0 -0.27115224147E+02  0.97374915047E+02 -0.49655565962E+03  0.53545647121E+03  0.17300000000E+03 0. -1.
         -6    1    1    2    0  502  0.27115224147E+02 -0.97374915047E+02  0.63521466349E+02  0.21019297359E+03  0.17300000000E+03 0. -1.
<mgrwt>
<rscale>  2 0.20036494E+03</rscale>
<asrwt>0</asrwt>
<pdfrwt beam="1">  1       21 0.24047327E-01 0.20036494E+03</pdfrwt>
<pdfrwt beam="2">  1       21 0.90667973E-01 0.20036494E+03</pdfrwt>
<totfact> 0.16761939E+04</totfact>
</mgrwt>
</event>
<event>
 4    1  0.3945627E+000  0.1932154E+03  0.7546771E-02  0.1155593E+00
         21   -1    0    0  503  502  0.00000000000E+00  0.00000000000E+00  0.53515521025E+03  0.53515521025E+03  0.00000000000E+00 0.  1.
         21   -1    0    0  501  503 -0.00000000000E+00 -0.00000000000E+00 -0.76911892446E+02  0.76911892446E+02  0.00000000000E+00 0. -1.
          6    1    1    2  501    0 -0.40171801566E+02  0.76088116627E+02  0.13579685277E+03  0.23616299531E+03  0.17300000000E+03 0. -1.
         -6    1    1    2    0  502  0.40171801566E+02 -0.76088116627E+02  0.32244646503E+03  0.37590410738E+03  0.17300000000E+03 0. -1.
<mgrwt>
<rscale>  2 0.19321536E+03</rscale>
<asrwt>0</asrwt>
<pdfrwt beam="1">  1       21 0.82331568E-01 0.19321536E+03</pdfrwt>
<pdfrwt beam="2">  1       21 0.11832599E-01 0.19321536E+03</pdfrwt>
<totfact> 0.77530614E+04</totfact>
</mgrwt>
</event>
<event>
 4    1  0.3945627E+000  0.2091419E+03  0.7546771E-02  0.1142247E+00
         21   -1    0    0  501  502  0.00000000000E+00  0.00000000000E+00  0.49770139571E+03  0.49770139571E+03  0.00000000000E+00 0.  1.
         21   -1    0    0  502  503 -0.00000000000E+00 -0.00000000000E+00 -0.12814577458E+03  0.12814577458E+03  0.00000000000E+00 0.  1.
          6    1    1    2  501    0 -0.22394431781E+02  0.11536819745E+03  0.36017753281E+03  0.41649512206E+03  0.17300000000E+03 0.  1.
         -6    1    1    2    0  503  0.22394431781E+02 -0.11536819745E+03  0.93780883243E+01  0.20935204823E+03  0.17300000000E+03 0.  1.
<mgrwt>
<rscale>  2 0.20914189E+03</rscale>
<asrwt>0</asrwt>
<pdfrwt beam="1">  1       21 0.76569445E-01 0.20914189E+03</pdfrwt>
<pdfrwt beam="2">  1       21 0.19714735E-01 0.20914189E+03</pdfrwt>
<totfact> 0.35675987E+04</totfact>
</mgrwt>
</event>
<event>
 4    1  0.3945627E+000  0.1769762E+03  0.7546771E-02  0.1170762E+00
         21   -1    0    0  501  502  0.00000000000E+00  0.00000000000E+00  0.53262409525E+03  0.53262409525E+03  0.00000000000E+00 0. -1.
         21   -1    0    0  502  503 -0.00000000000E+00 -0.00000000000E+00 -0.12062704744E+03  0.12062704744E+03  0.00000000000E+00 0. -1.
          6    1    1    2  501    0  0.32725268160E+02 -0.17906540702E+02  0.43982946756E+03  0.47409972359E+03  0.17300000000E+03 0. -1.
         -6    1    1    2    0  503 -0.32725268160E+02  0.17906540702E+02 -0.27832419745E+02  0.17915141910E+03  0.17300000000E+03 0. -1.
<mgrwt>
<rscale>  2 0.17697623E+03</rscale>
<asrwt>0</asrwt>
<pdfrwt beam="1">  1       21 0.81942167E-01 0.17697623E+03</pdfrwt>
<pdfrwt beam="2">  1       21 0.18558008E-01 0.17697623E+03</pdfrwt>
<totfact> 0.34853569E+04</totfact>
</mgrwt>
</event>
<event>
 4    1  0.3945627E+000  0.2213866E+03  0.7546771E-02  0.1132854E+00
         21   -1    0    0  503  502  0.00000000000E+00  0.00000000000E+00  0.21579728546E+03  0.21579728546E+03  0.00000000000E+00 0. -1.
         21   -1    0    0  501  503 -0.00000000000E+00 -0.00000000000E+00 -0.22761311349E+03  0.22761311349E+03  0.00000000000E+00 0.  1.
          6    1    1    2  501    0  0.10240993746E+03 -0.92710415622E+02  0.44047524706E+01  0.22143039155E+03  0.17300000000E+03 0.  1.
         -6    1    1    2    0  502 -0.10240993746E+03  0.92710415622E+02 -0.16220580504E+02  0.22198000741E+03  0.17300000000E+03 0. -1.
<mgrwt>
<rscale>  2 0.22138658E+03</rscale>
<asrwt>0</asrwt>
<pdfrwt beam="1">  1       21 0.33199582E-01 0.22138658E+03</pdfrwt>
<pdfrwt beam="2">  1       21 0.35017402E-01 0.22138658E+03</pdfrwt>
<totfact> 0.67825488E+04</totfact>
</mgrwt>
</event>
<event>
 4    1  0.3945627E+000  0.1856993E+03  0.7546771E-02  0.1162398E+00
         21   -1    0    0  501  502  0.00000000000E+00  0.00000000000E+00  0.40572244961E+03  0.40572244961E+03  0.00000000000E+00 0. -1.
         21   -1    0    0  502  503 -0.00000000000E+00 -0.00000000000E+00 -0.88652739707E+02  0.88652739707E+02  0.00000000000E+00 0. -1.
          6    1    1    2  501    0  0.23093978286E+02 -0.63418492528E+02  0.20874689314E+03  0.27939130700E+03  0.17300000000E+03 0. -1.
         -6    1    1    2    0  503 -0.23093978286E+02  0.63418492528E+02  0.10832281676E+03  0.21498388232E+03  0.17300000000E+03 0. -1.
<mgrwt>
<rscale>  2 0.18569932E+03</rscale>
<asrwt>0</asrwt>
<pdfrwt beam="1">  1       21 0.62418837E-01 0.18569932E+03</pdfrwt>
<pdfrwt beam="2">  1       21 0.13638883E-01 0.18569932E+03</pdfrwt>
<totfact> 0.11121884E+05</totfact>
</mgrwt>
</event>
<event>
 4    1  0.3945627E+000  0.1758728E+03  0.7546771E-02  0.1171858E+00
         21   -1    0    0  503  502  0.00000000000E+00  0.00000000000E+00  0.57090833981E+02  0.57090833981E+02  0.00000000000E+00 0.  1.
         21   -1    0    0  501  503 -0.00000000000E+00 -0.00000000000E+00 -0.71266409705E+03  0.71266409705E+03  0.00000000000E+00 0.  1.
          6    1    1    2  501    0  0.26587867289E+02 -0.17185530435E+02 -0.51624604889E+03  0.54538173799E+03  0.17300000000E+03 0.  1.
         -6    1    1    2    0  502 -0.26587867289E+02  0.17185530435E+02 -0.13932721418E+03  0.22437319304E+03  0.17300000000E+03 0.  1.
<mgrwt>
<rscale>  2 0.17587284E+03</rscale>
<asrwt>0</asrwt>
<pdfrwt beam="1">  1       21 0.87832046E-02 0.17587284E+03</pdfrwt>
<pdfrwt beam="2">  1       21 0.10964064E+00 0.17587284E+03</pdfrwt>
<totfact> 0.67647728E+04</totfact>
</mgrwt>
</event>
<event>
 4    1  0.3945627E+000  0.1809734E+03  0.7546771E-02  0.1166864E+00
         21   -1    0    0  501  502  0.00000000000E+00  0.00000000000E+00  0.43993111561E+02  0.43993111561E+02  0.00000000000E+00 0.  1.
         21   -1    0    0  502  503 -0.00000000000E+00 -0.00000000000E+00 -0.10225708750E+04  0.10225708750E+04  0.00000000000E+00 0.  1.
          6    1    1    2  501    0 -0.38173016720E+01 -0.52988706762E+02 -0.21118021180E+03  0.27811590514E+03  0.17300000000E+03 0.  1.
         -6    1    1    2    0  503  0.38173016720E+01  0.52988706762E+02 -0.76739755167E+03  0.78844808145E+03  0.17300000000E+03 0.  1.
<mgrwt>
<rscale>  2 0.18097341E+03</rscale>
<asrwt>0</asrwt>
<pdfrwt beam="1">  1       21 0.67681698E-02 0.18097341E+03</pdfrwt>
<pdfrwt beam="2">  1       21 0.15731862E+00 0.18097341E+03</pdfrwt>
<totfact> 0.42521521E+04</totfact>
</mgrwt>
</event>
<event>
 4    1  0.3945627E+000  0.3142643E+03  0.7546771E-02  0.1078320E+00
         21   -1    0    0  501  502  0.00000000000E+00  0.00000000000E+00  0.70645269508E+03  0.70645269508E+03  0.00000000000E+00 0.  1.
         21   -1    0    0  502  503 -0.00000000000E+00 -0.00000000000E+00 -0.26548665030E+03  0.26548665030E+03  0.00000000000E+00 0.  1.
          6    1    1    2  501    0 -0.24715394889E+03  0.88022631385E+02  0.55485699870E+03  0.63767417001E+03  0.17300000000E+03 0.  1.
         -6    1    1    2    0  503  0.24715394889E+03 -0.88022631385E+02 -0.11389095391E+03  0.33426517538E+03  0.17300000000E+03 0.  1.
<mgrwt>
<rscale>  2 0.31426431E+03</rscale>
<asrwt>0</asrwt>
<pdfrwt beam="1">  1       21 0.10868503E+00 0.31426431E+03</pdfrwt>
<pdfrwt beam="2">  1       21 0.40844100E-01 0.31426431E+03</pdfrwt>
<totfact> 0.35818802E+03</totfact>
</mgrwt>
</event>
<event>
 4    1  0.3945627E+000  0.2248202E+03  0.7546771E-02  0.1130340E+00
         21   -1    0    0  503  502  0.00000000000E+00  0.00000000000E+00  0.41499917795E+03  0.41499917795E+03  0.00000000000E+00 0. -1.
         21   -1    0    0  501  503 -0.00000000000E+00 -0.00000000000E+00 -0.14030867189E+03  0.14030867189E+03  0.00000000000E+00 0.  1.
          6    1    1    2  501    0 -0.57912855232E+01 -0.14346280332E+03  0.23820732973E+03  0.32754670944E+03  0.17300000000E+03 0. -1.
         -6    1    1    2    0  502  0.57912855232E+01  0.14346280332E+03  0.36483176325E+02  0.22776114040E+03  0.17300000000E+03 0.  1.
<mgrwt>
<rscale>  2 0.22482018E+03</rscale>
<asrwt>0</asrwt>
<pdfrwt beam="1">  1       21 0.63846027E-01 0.22482018E+03</pdfrwt>
<pdfrwt beam="2">  1       21 0.21585950E-01 0.22482018E+03</pdfrwt>
<totfact> 0.44630469E+04</totfact>
</mgrwt>
</event>
<event>
 4    1  0.3945627E+000  0.2024515E+03  0.7546771E-02  0.1147687E+00
         21   -1    0    0  503  502  0.00000000000E+00  0.00000000000E+00  0.94187713948E+02  0.94187713948E+02  0.00000000000E+00 0.  1.
         21   -1    0    0  501  503 -0.00000000000E+00 -0.00000000000E+00 -0.49577338227E+03  0.49577338227E+03  0.00000000000E+00 0.  1.
          6    1    1    2  501    0  0.82485860398E+02 -0.65220265338E+02 -0.97649585729E+02  0.22477108749E+03  0.17300000000E+03 0.  1.
         -6    1    1    2    0  502 -0.82485860398E+02  0.65220265338E+02 -0.30393608259E+03  0.36519000873E+03  0.17300000000E+03 0.  1.
<mgrwt>
<rscale>  2 0.20245148E+03</rscale>
<asrwt>0</asrwt>
<pdfrwt beam="1">  1       21 0.14490418E-01 0.20245148E+03</pdfrwt>
<pdfrwt beam="2">  1       21 0.76272826E-01 0.20245148E+03</pdfrwt>
<totfact> 0.63669032E+04</totfact>
</mgrwt>
</event>
<event>
 4    1  0.3945627E+000  0.1926523E+03  0.7546771E-02  0.1156091E+00
         21   -1    0    0  503  502  0.00000000000E+00  0.00000000000E+00  0.10676888741E+04  0.10676888741E+04  0.00000000000E+00 0. -1.
         21   -1    0    0  501  503 -0.00000000000E+00 -0.00000000000E+00 -0.21122588364E+03  0.21122588364E+03  0.00000000000E+00 0. -1.
          6    1    1    2  501    0  0.51635648617E+02 -0.67228383120E+02 -0.15624368400E+03  0.24804633538E+03  0.17300000000E+03 0. -1.
         -6    1    1    2    0  502 -0.51635648617E+02  0.67228383120E+02  0.10127066745E+04  0.10308684224E+04  0.17300000000E+03 0. -1.
<mgrwt>
<rscale>  2 0.19265227E+03</rscale>
<asrwt>0</asrwt>
<pdfrwt beam="1">  1       21 0.16425982E+00 0.19265227E+03</pdfrwt>
<pdfrwt beam="2">  1       21 0.32496290E-01 0.19265227E+03</pdfrwt>
<totfact> 0.21360906E+03</totfact>
</mgrwt>
</event>
<event>
 4    1  0.3945627E+000  0.1820567E+03  0.7546771E-02  0.1165827E+00
         21   -1    0    0  501  502  0.00000000000E+00  0.00000000000E+00  0.32897386603E+03  0.32897386603E+03  0.00000000000E+00 0.  1.
         21   -1    0    0  502  503 -0.00000000000E+00 -0.00000000000E+00 -0.36812409215E+03  0.36812409215E+03  0.00000000000E+00 0.  1.
          6    1    1    2  501    0  0.50569047762E+02  0.25659294388E+02  0.27747183487E+03  0.33186630911E+03  0.17300000000E+03 0.  1.
         -6    1    1    2    0  503 -0.50569047762E+02 -0.25659294388E+02 -0.31662206098E+03  0.36523164907E+03  0.17300000000E+03 0.  1.
<mgrwt>
<rscale>  2 0.18205666E+03</rscale>
<asrwt>0</asrwt>
<pdfrwt beam="1">  1       21 0.50611364E-01 0.18205666E+03</pdfrwt>
<pdfrwt beam="2">  1       21 0.56634476E-01 0.18205666E+03</pdfrwt>
<totfact> 0.10968510E+04</totfact>
</mgrwt>
</event>
<event>
 4    1  0.3945627E+000  0.1782723E+03  0.7546771E-02  0.1169486E+00
         21   -1    0    0  501  502  0.00000000000E+00  0.00000000000E+00  0.18728390028E+03  0.18728390028E+03  0.00000000000E+00 0.  1.
         21   -1    0    0  502  503 -0.00000000000E+00 -0.00000000000E+00 -0.17831732272E+03  0.17831732272E+03  0.00000000000E+00 0.  1.
          6    1    1    2  501    0  0.31583606385E+02  0.29231648817E+02  0.44681823388E+02  0.18378650338E+03  0.17300000000E+03 0. -1.
         -6    1    1    2    0  503 -0.31583606385E+02 -0.29231648817E+02 -0.35715245819E+02  0.18181471962E+03  0.17300000000E+03 0. -1.
<mgrwt>
<rscale>  2 0.17827230E+03</rscale>
<asrwt>0</asrwt>
<pdfrwt beam="1">  1       21 0.28812908E-01 0.17827230E+03</pdfrwt>
<pdfrwt beam="2">  1       21 0.27433434E-01 0.17827230E+03</pdfrwt>
<totfact> 0.14677260E+05</totfact>
</mgrwt>
</event>
<event>
 4    1  0.3945627E+000  0.1848290E+03  0.7546771E-02  0.1163210E+00
         21   -1    0    0  501  502  0.00000000000E+00  0.00000000000E+00  0.24819832833E+03  0.24819832833E+03  0.00000000000E+00 0.  1.
         21   -1    0    0  502  503 -0.00000000000E+00 -0.00000000000E+00 -0.18933554663E+03  0.18933554663E+03  0.00000000000E+00 0. -1.
          6    1    1    2  501    0  0.45608968308E+02 -0.46395875133E+02  0.14374465342E+03  0.23414585328E+03  0.17300000000E+03 0.  1.
         -6    1    1    2    0  503 -0.45608968308E+02  0.46395875133E+02 -0.84881871719E+02  0.20338802169E+03  0.17300000000E+03 0. -1.
<mgrwt>
<rscale>  2 0.18482899E+03</rscale>
<asrwt>0</asrwt>
<pdfrwt beam="1">  1       21 0.38184358E-01 0.18482899E+03</pdfrwt>
<pdfrwt beam="2">  1       21 0.29128546E-01 0.18482899E+03</pdfrwt>
<totfact> 0.74882897E+04</totfact>
</mgrwt>
</event>
<event>
 4    1  0.3945627E+000  0.1792003E+03  0.7546771E-02  0.1168579E+00
         21   -1    0    0  501  502  0.00000000000E+00  0.00000000000E+00  0.95854586674E+03  0.95854586674E+03  0.00000000000E+00 0. -1.
         21   -1    0    0  502  503 -0.00000000000E+00 -0.00000000000E+00 -0.33520527131E+02  0.33520527131E+02  0.00000000000E+00 0.  1.
          6    1    1    2  501    0  0.15883602151E+02  0.43948501402E+02  0.47431919310E+03  0.50704186862E+03  0.17300000000E+03 0. -1.
         -6    1    1    2    0  503 -0.15883602151E+02 -0.43948501402E+02  0.45070614651E+03  0.48502452526E+03  0.17300000000E+03 0. -1.
<mgrwt>
<rscale>  2 0.17920033E+03</rscale>
<asrwt>0</asrwt>
<pdfrwt beam="1">  1       21 0.14746857E+00 0.17920033E+03</pdfrwt>
<pdfrwt beam="2">  1       21 0.51570049E-02 0.17920033E+03</pdfrwt>
<totfact> 0.80318370E+04</totfact>
</mgrwt>
</event>
<event>
 4    1  0.3945627E+000  0.2018749E+03  0.7546771E-02  0.1148167E+00
         21   -1    0    0  503  502  0.00000000000E+00  0.00000000000E+00  0.22643853615E+03  0.22643853615E+03  0.00000000000E+00 0.  1.
         21   -1    0    0  501  503 -0.00000000000E+00 -0.00000000000E+00 -0.18015342283E+03  0.18015342283E+03  0.00000000000E+00 0.  1.
          6    1    1    2  501    0 -0.93105412040E+02  0.46431347090E+02  0.29523563619E+02  0.20402237268E+03  0.17300000000E+03 0.  1.
         -6    1    1    2    0  502  0.93105412040E+02 -0.46431347090E+02  0.16761549703E+02  0.20256958630E+03  0.17300000000E+03 0.  1.
<mgrwt>
<rscale>  2 0.20187493E+03</rscale>
<asrwt>0</asrwt>
<pdfrwt beam="1">  1       21 0.34836698E-01 0.20187493E+03</pdfrwt>
<pdfrwt beam="2">  1       21 0.27715911E-01 0.20187493E+03</pdfrwt>
<totfact> 0.98329319E+04</totfact>
</mgrwt>
</event>
<event>
 4    1  0.3945627E+000  0.1978925E+03  0.7546771E-02  0.1151529E+00
         21   -1    0    0  501  502  0.00000000000E+00  0.00000000000E+00  0.13690404707E+03  0.13690404707E+03  0.00000000000E+00 0. -1.
         21   -1    0    0  502  503 -0.00000000000E+00 -0.00000000000E+00 -0.31136670188E+03  0.31136670188E+03  0.00000000000E+00 0. -1.
          6    1    1    2  501    0  0.33743726964E+02  0.89965554061E+02 -0.23320337435E+02  0.19926183319E+03  0.17300000000E+03 0.  1.
         -6    1    1    2    0  503 -0.33743726964E+02 -0.89965554061E+02 -0.15114231737E+03  0.24900891576E+03  0.17300000000E+03 0.  1.
<mgrwt>
<rscale>  2 0.19789250E+03</rscale>
<asrwt>0</asrwt>
<pdfrwt beam="1">  1       21 0.21062161E-01 0.19789250E+03</pdfrwt>
<pdfrwt beam="2">  1       21 0.47902569E-01 0.19789250E+03</pdfrwt>
<totfact> 0.87080268E+04</totfact>
</mgrwt>
</event>
<event>
 4    1  0.3945627E+000  0.2647893E+03  0.7546771E-02  0.1104299E+00
         21   -1    0    0  501  502  0.00000000000E+00  0.00000000000E+00  0.36399858315E+03  0.36399858315E+03  0.00000000000E+00 0. -1.
         21   -1    0    0  502  503 -0.00000000000E+00 -0.00000000000E+00 -0.29329567625E+03  0.29329567625E+03  0.00000000000E+00 0. -1.
          6    1    1    2  501    0  0.93819195713E+02  0.17715062926E+03  0.22789963014E+03  0.34935888188E+03  0.17300000000E+03 0. -1.
         -6    1    1    2    0  503 -0.93819195713E+02 -0.17715062926E+03 -0.15719672324E+03  0.30793537752E+03  0.17300000000E+03 0. -1.
<mgrwt>
<rscale>  2 0.26478933E+03</rscale>
<asrwt>0</asrwt>
<pdfrwt beam="1">  1       21 0.55999782E-01 0.26478933E+03</pdfrwt>
<pdfrwt beam="2">  1       21 0.45122412E-01 0.26478933E+03</pdfrwt>
<totfact> 0.13578093E+04</totfact>
</mgrwt>
</event>
<event>
 4    1  0.3945627E+000  0.2205095E+03  0.7546771E-02  0.1133504E+00
         21   -1    0    0  503  502  0.00000000000E+00  0.00000000000E+00  0.19892371346E+04  0.19892371346E+04  0.00000000000E+00 0. -1.
         21   -1    0    0  501  503 -0.00000000000E+00 -0.00000000000E+00 -0.24646270137E+02  0.24646270137E+02  0.00000000000E+00 0. -1.
          6    1    1    2  501    0  0.13284531494E+02  0.13608431806E+03  0.10735721539E+04  0.10959843019E+04  0.17300000000E+03 0. -1.
         -6    1    1    2    0  502 -0.13284531494E+02 -0.13608431806E+03  0.89101871049E+03  0.91789910276E+03  0.17300000000E+03 0. -1.
<mgrwt>
<rscale>  2 0.22050946E+03</rscale>
<asrwt>0</asrwt>
<pdfrwt beam="1">  1       21 0.30603636E+00 0.22050946E+03</pdfrwt>
<pdfrwt beam="2">  1       21 0.37917354E-02 0.22050946E+03</pdfrwt>
<totfact> 0.13131015E+04</totfact>
</mgrwt>
</event>
<event>
 4    1  0.3945627E+000  0.1748572E+03  0.7546771E-02  0.1172875E+00
         21   -1    0    0  501  502  0.00000000000E+00  0.00000000000E+00  0.15219794055E+03  0.15219794055E+03  0.00000000000E+00 0. -1.
         21   -1    0    0  502  503 -0.00000000000E+00 -0.00000000000E+00 -0.58073289042E+03  0.58073289042E+03  0.00000000000E+00 0. -1.
          6    1    1    2  501    0 -0.13398023944E+01 -0.25381982447E+02  0.82111096336E+02  0.19317679013E+03  0.17300000000E+03 0. -1.
         -6    1    1    2    0  503  0.13398023944E+01  0.25381982447E+02 -0.51064604620E+03  0.53975404084E+03  0.17300000000E+03 0. -1.
<mgrwt>
<rscale>  2 0.17485720E+03</rscale>
<asrwt>0</asrwt>
<pdfrwt beam="1">  1       21 0.23415068E-01 0.17485720E+03</pdfrwt>
<pdfrwt beam="2">  1       21 0.89343522E-01 0.17485720E+03</pdfrwt>
<totfact> 0.18538938E+04</totfact>
</mgrwt>
</event>
<event>
 4    1  0.3945627E+000  0.1771813E+03  0.7546771E-02  0.1170559E+00
         21   -1    0    0  503  502  0.00000000000E+00  0.00000000000E+00  0.21873032467E+03  0.21873032467E+03  0.00000000000E+00 0.  1.
         21   -1    0    0  501  503 -0.00000000000E+00 -0.00000000000E+00 -0.25455449443E+03  0.25455449443E+03  0.00000000000E+00 0.  1.
          6    1    1    2  501    0 -0.37941882270E+02  0.49616746772E+01 -0.17419876225E+03  0.24847215823E+03  0.17300000000E+03 0.  1.
         -6    1    1    2    0  502  0.37941882270E+02 -0.49616746772E+01  0.13837459249E+03  0.22481266088E+03  0.17300000000E+03 0.  1.
<mgrwt>
<rscale>  2 0.17718128E+03</rscale>
<asrwt>0</asrwt>
<pdfrwt beam="1">  1       21 0.33650819E-01 0.17718128E+03</pdfrwt>
<pdfrwt beam="2">  1       21 0.39162230E-01 0.17718128E+03</pdfrwt>
<totfact> 0.53857480E+04</totfact>
</mgrwt>
</event>
<event>
 4    1  0.3945627E+000  0.1736546E+03  0.7546771E-02  0.1174089E+00
         21   -1    0    0  501  502  0.00000000000E+00  0.00000000000E+00  0.11565540973E+03  0.11565540973E+03  0.00000000000E+00 0. -1.
         21   -1    0    0  502  503 -0.00000000000E+00 -0.00000000000E+00 -0.26125942070E+03  0.26125942070E+03  0.00000000000E+00 0. -1.
          6    1    1    2  501    0  0.12718346978E+02  0.80732298658E+01 -0.64394891337E+02  0.18520970660E+03  0.17300000000E+03 0. -1.
         -6    1    1    2    0  503 -0.12718346978E+02 -0.80732298658E+01 -0.81209119635E+02  0.19170512383E+03  0.17300000000E+03 0. -1.
<mgrwt>
<rscale>  2 0.17365464E+03</rscale>
<asrwt>0</asrwt>
<pdfrwt beam="1">  1       21 0.17793140E-01 0.17365464E+03</pdfrwt>
<pdfrwt beam="2">  1       21 0.40193757E-01 0.17365464E+03</pdfrwt>
<totfact> 0.17208981E+05</totfact>
</mgrwt>
</event>
<event>
 4    1  0.3945627E+000  0.3030653E+03  0.7546771E-02  0.1083718E+00
         21   -1    0    0  503  502  0.00000000000E+00  0.00000000000E+00  0.21729430116E+03  0.21729430116E+03  0.00000000000E+00 0. -1.
         21   -1    0    0  501  503 -0.00000000000E+00 -0.00000000000E+00 -0.46229342321E+03  0.46229342321E+03  0.00000000000E+00 0.  1.
          6    1    1    2  501    0  0.24757230527E+03 -0.25050873237E+02 -0.22195105609E+03  0.37564725992E+03  0.17300000000E+03 0.  1.
         -6    1    1    2    0  502 -0.24757230527E+03  0.25050873237E+02 -0.23048065949E+02  0.30394046445E+03  0.17300000000E+03 0. -1.
<mgrwt>
<rscale>  2 0.30306533E+03</rscale>
<asrwt>0</asrwt>
<pdfrwt beam="1">  1       21 0.33429893E-01 0.30306533E+03</pdfrwt>
<pdfrwt beam="2">  1       21 0.71122064E-01 0.30306533E+03</pdfrwt>
<totfact> 0.14549728E+04</totfact>
</mgrwt>
</event>
<event>
 4    1  0.3945627E+000  0.3789181E+03  0.7546771E-02  0.1051334E+00
         21   -1    0    0  503  502  0.00000000000E+00  0.00000000000E+00  0.35323006381E+03  0.35323006381E+03  0.00000000000E+00 0. -1.
         21   -1    0    0  501  503 -0.00000000000E+00 -0.00000000000E+00 -0.47761964470E+03  0.47761964470E+03  0.00000000000E+00 0. -1.
          6    1    1    2  501    0 -0.24295381719E+03 -0.23371637770E+03  0.98138970119E+02  0.39142069433E+03  0.17300000000E+03 0. -1.
         -6    1    1    2    0  502  0.24295381719E+03  0.23371637770E+03 -0.22252855101E+03  0.43942901419E+03  0.17300000000E+03 0. -1.
<mgrwt>
<rscale>  2 0.37891807E+03</rscale>
<asrwt>0</asrwt>
<pdfrwt beam="1">  1       21 0.54343087E-01 0.37891807E+03</pdfrwt>
<pdfrwt beam="2">  1       21 0.73479945E-01 0.37891807E+03</pdfrwt>
<totfact> 0.48010632E+03</totfact>
</mgrwt>
</event>
<event>
 4    1  0.3945627E+000  0.2088987E+03  0.7546771E-02  0.1142441E+00
         21   -1    0    0  503  502  0.00000000000E+00  0.00000000000E+00  0.74474083523E+03  0.74474083523E+03  0.00000000000E+00 0. -1.
         21   -1    0    0  501  503 -0.00000000000E+00 -0.00000000000E+00 -0.29160405154E+03  0.29160405154E+03  0.00000000000E+00 0. -1.
          6    1    1    2  501    0 -0.56117879427E+02 -0.10276399808E+03 -0.23662592656E+03  0.31564297048E+03  0.17300000000E+03 0. -1.
         -6    1    1    2    0  502  0.56117879427E+02  0.10276399808E+03  0.68976271025E+03  0.72070191629E+03  0.17300000000E+03 0. -1.
<mgrwt>
<rscale>  2 0.20889867E+03</rscale>
<asrwt>0</asrwt>
<pdfrwt beam="1">  1       21 0.11457551E+00 0.20889867E+03</pdfrwt>
<pdfrwt beam="2">  1       21 0.44862162E-01 0.20889867E+03</pdfrwt>
<totfact> 0.27816564E+03</totfact>
</mgrwt>
</event>
<event>
 4    1  0.3945627E+000  0.1913885E+03  0.7546771E-02  0.1157215E+00
         21   -1    0    0  503  502  0.00000000000E+00  0.00000000000E+00  0.37441379313E+03  0.37441379313E+03  0.00000000000E+00 0. -1.
         21   -1    0    0  501  503 -0.00000000000E+00 -0.00000000000E+00 -0.12500042696E+03  0.12500042696E+03  0.00000000000E+00 0. -1.
          6    1    1    2  501    0  0.56753435717E+01  0.81659933787E+02  0.82915459153E+01  0.19156801415E+03  0.17300000000E+03 0. -1.
         -6    1    1    2    0  502 -0.56753435717E+01 -0.81659933787E+02  0.24112182025E+03  0.30784620594E+03  0.17300000000E+03 0. -1.
<mgrwt>
<rscale>  2 0.19138849E+03</rscale>
<asrwt>0</asrwt>
<pdfrwt beam="1">  1       21 0.57602122E-01 0.19138849E+03</pdfrwt>
<pdfrwt beam="2">  1       21 0.19230835E-01 0.19138849E+03</pdfrwt>
<totfact> 0.70260309E+04</totfact>
</mgrwt>
</event>
<event>
 4    1  0.3945627E+000  0.3123081E+03  0.7546771E-02  0.1079245E+00
         21   -1    0    0  501  502  0.00000000000E+00  0.00000000000E+00  0.10441588476E+04  0.10441588476E+04  0.00000000000E+00 0.  1.
         21   -1    0    0  502  503 -0.00000000000E+00 -0.00000000000E+00 -0.12459496471E+03  0.12459496471E+03  0.00000000000E+00 0.  1.
          6    1    1    2  501    0  0.14277414494E+03  0.21730832093E+03  0.75213357529E+03  0.81439626588E+03  0.17300000000E+03 0.  1.
         -6    1    1    2    0  503 -0.14277414494E+03 -0.21730832093E+03  0.16743030761E+03  0.35435754643E+03  0.17300000000E+03 0.  1.
<mgrwt>
<rscale>  2 0.31230812E+03</rscale>
<asrwt>0</asrwt>
<pdfrwt beam="1">  1       21 0.16063982E+00 0.31230812E+03</pdfrwt>
<pdfrwt beam="2">  1       21 0.19168457E-01 0.31230812E+03</pdfrwt>
<totfact> 0.57449148E+03</totfact>
</mgrwt>
</event>
<event>
 4    1  0.3945627E+000  0.2319228E+03  0.7546771E-02  0.1125294E+00
         21   -1    0    0  503  502  0.00000000000E+00  0.00000000000E+00  0.22710306453E+04  0.22710306453E+04  0.00000000000E+00 0.  1.
         21   -1    0    0  501  503 -0.00000000000E+00 -0.00000000000E+00 -0.66811491660E+02  0.66811491660E+02  0.00000000000E+00 0. -1.
          6    1    1    2  501    0  0.13100613330E+03 -0.81832525704E+02  0.16296099052E+03  0.28345097223E+03  0.17300000000E+03 0. -1.
         -6    1    1    2    0  502 -0.13100613330E+03  0.81832525704E+02  0.20412581631E+04  0.20543911647E+04  0.17300000000E+03 0.  1.
<mgrwt>
<rscale>  2 0.23192277E+03</rscale>
<asrwt>0</asrwt>
<pdfrwt beam="1">  1       21 0.34938927E+00 0.23192277E+03</pdfrwt>
<pdfrwt beam="2">  1       21 0.10278693E-01 0.23192277E+03</pdfrwt>
<totfact> 0.12942652E+03</totfact>
</mgrwt>
</event>
<event>
 4    1  0.3945627E+000  0.1745459E+03  0.7546771E-02  0.1173188E+00
         21   -1    0    0  501  502  0.00000000000E+00  0.00000000000E+00  0.13841751282E+04  0.13841751282E+04  0.00000000000E+00 0.  1.
         21   -1    0    0  502  503 -0.00000000000E+00 -0.00000000000E+00 -0.24769416333E+02  0.24769416333E+02  0.00000000000E+00 0.  1.
          6    1    1    2  501    0 -0.13327101834E+02  0.18964511491E+02  0.91481888492E+03  0.93132156452E+03  0.17300000000E+03 0. -1.
         -6    1    1    2    0  503  0.13327101834E+02 -0.18964511491E+02  0.44458682696E+03  0.47762298002E+03  0.17300000000E+03 0. -1.
<mgrwt>
<rscale>  2 0.17454588E+03</rscale>
<asrwt>0</asrwt>
<pdfrwt beam="1">  1       21 0.21294996E+00 0.17454588E+03</pdfrwt>
<pdfrwt beam="2">  1       21 0.38106805E-02 0.17454588E+03</pdfrwt>
<totfact> 0.47872643E+04</totfact>
</mgrwt>
</event>
<event>
 4    1  0.3945627E+000  0.2530193E+03  0.7546771E-02  0.1111411E+00
         21   -1    0    0  503  502  0.00000000000E+00  0.00000000000E+00  0.65771810346E+03  0.65771810346E+03  0.00000000000E+00 0.  1.
         21   -1    0    0  501  503 -0.00000000000E+00 -0.00000000000E+00 -0.10412556476E+03  0.10412556476E+03  0.00000000000E+00 0. -1.
          6    1    1    2  501    0 -0.13062493491E+03  0.13048711848E+03  0.17951677462E+03  0.31023383774E+03  0.17300000000E+03 0. -1.
         -6    1    1    2    0  502  0.13062493491E+03 -0.13048711848E+03  0.37407576408E+03  0.45160983048E+03  0.17300000000E+03 0.  1.
<mgrwt>
<rscale>  2 0.25301929E+03</rscale>
<asrwt>0</asrwt>
<pdfrwt beam="1">  1       21 0.10118740E+00 0.25301929E+03</pdfrwt>
<pdfrwt beam="2">  1       21 0.16019318E-01 0.25301929E+03</pdfrwt>
<totfact> 0.26896657E+04</totfact>
</mgrwt>
</event>
<event>
 4    1  0.3945627E+000  0.3117902E+03  0.7546771E-02  0.1079491E+00
         21   -1    0    0  501  502  0.00000000000E+00  0.00000000000E+00  0.11658829136E+04  0.11658829136E+04  0.00000000000E+00 0. -1.
         21   -1    0    0  502  503 -0.00000000000E+00 -0.00000000000E+00 -0.99646096608E+02  0.99646096608E+02  0.00000000000E+00 0.  1.
          6    1    1    2  501    0  0.25204097026E+03 -0.61314635832E+02  0.27747604685E+03  0.41738003286E+03  0.17300000000E+03 0.  1.
         -6    1    1    2    0  503 -0.25204097026E+03  0.61314635832E+02  0.78876077019E+03  0.84814897740E+03  0.17300000000E+03 0. -1.
<mgrwt>
<rscale>  2 0.31179021E+03</rscale>
<asrwt>0</asrwt>
<pdfrwt beam="1">  1       21 0.17936659E+00 0.31179021E+03</pdfrwt>
<pdfrwt beam="2">  1       21 0.15330170E-01 0.31179021E+03</pdfrwt>
<totfact> 0.63900539E+03</totfact>
</mgrwt>
</event>
<event>
 4    1  0.3945627E+000  0.1749880E+03  0.7546771E-02  0.1172744E+00
         21   -1    0    0  501  502  0.00000000000E+00  0.00000000000E+00  0.20294077127E+03  0.20294077127E+03  0.00000000000E+00 0.  1.
         21   -1    0    0  502  503 -0.00000000000E+00 -0.00000000000E+00 -0.16726794349E+03  0.16726794349E+03  0.00000000000E+00 0.  1.
          6    1    1    2  501    0  0.23399451857E+02  0.12011676769E+02  0.75765936631E+02  0.19068637046E+03  0.17300000000E+03 0.  1.
         -6    1    1    2    0  503 -0.23399451857E+02 -0.12011676769E+02 -0.40093108848E+02  0.17952234430E+03  0.17300000000E+03 0.  1.
<mgrwt>
<rscale>  2 0.17498804E+03</rscale>
<asrwt>0</asrwt>
<pdfrwt beam="1">  1       21 0.31221657E-01 0.17498804E+03</pdfrwt>
<pdfrwt beam="2">  1       21 0.25733530E-01 0.17498804E+03</pdfrwt>
<totfact> 0.14209721E+05</totfact>
</mgrwt>
</event>
<event>
 4    1  0.3945627E+000  0.1872159E+03  0.7546771E-02  0.1160997E+00
         21   -1    0    0  501  502  0.00000000000E+00  0.00000000000E+00  0.89507435025E+02  0.89507435025E+02  0.00000000000E+00 0.  1.
         21   -1    0    0  502  503 -0.00000000000E+00 -0.00000000000E+00 -0.10041487978E+04  0.10041487978E+04  0.00000000000E+00 0.  1.
          6    1    1    2  501    0 -0.69262763659E+02  0.17985550342E+02 -0.30222915841E+02  0.18963975082E+03  0.17300000000E+03 0.  1.
         -6    1    1    2    0  503  0.69262763659E+02 -0.17985550342E+02 -0.88441844689E+03  0.90401648196E+03  0.17300000000E+03 0.  1.
<mgrwt>
<rscale>  2 0.18721595E+03</rscale>
<asrwt>0</asrwt>
<pdfrwt beam="1">  1       21 0.13770374E-01 0.18721595E+03</pdfrwt>
<pdfrwt beam="2">  1       21 0.15448443E+00 0.18721595E+03</pdfrwt>
<totfact> 0.12719184E+04</totfact>
</mgrwt>
</event>
<event>
 4    1  0.3945627E+000  0.2159693E+03  0.7546771E-02  0.1136924E+00
         21   -1    0    0  501  502  0.00000000000E+00  0.00000000000E+00  0.68290410919E+03  0.68290410919E+03  0.00000000000E+00 0.  1.
         21   -1    0    0  502  503 -0.00000000000E+00 -0.00000000000E+00 -0.68307126068E+02  0.68307126068E+02  0.00000000000E+00 0. -1.
          6    1    1    2  501    0 -0.95292586390E+02 -0.87367396797E+02  0.31097861965E+03  0.37861648263E+03  0.17300000000E+03 0.  1.
         -6    1    1    2    0  503  0.95292586390E+02  0.87367396797E+02  0.30361836348E+03  0.37259475263E+03  0.17300000000E+03 0. -1.
<mgrwt>
<rscale>  2 0.21596930E+03</rscale>
<asrwt>0</asrwt>
<pdfrwt beam="1">  1       21 0.10506217E+00 0.21596930E+03</pdfrwt>
<pdfrwt beam="2">  1       21 0.10508789E-01 0.21596930E+03</pdfrwt>
<totfact> 0.53597011E+04</totfact>
</mgrwt>
</event>
<event>
 4    1  0.3945627E+000  0.2375588E+03  0.7546771E-02  0.1121430E+00
         21   -1    0    0  501  502  0.00000000000E+00  0.00000000000E+00  0.83703382765E+02  0.83703382765E+02  0.00000000000E+00 0.  1.
         21   -1    0    0  502  503 -0.00000000000E+00 -0.00000000000E+00 -0.14958640269E+04  0.14958640269E+04  0.00000000000E+00 0. -1.
          6    1    1    2  501    0 -0.27228906557E+02 -0.16051091308E+03 -0.12074464319E+03  0.26648346183E+03  0.17300000000E+03 0.  1.
         -6    1    1    2    0  503  0.27228906557E+02  0.16051091308E+03 -0.12914160010E+04  0.13130839479E+04  0.17300000000E+03 0. -1.
<mgrwt>
<rscale>  2 0.23755876E+03</rscale>
<asrwt>0</asrwt>
<pdfrwt beam="1">  1       21 0.12877443E-01 0.23755876E+03</pdfrwt>
<pdfrwt beam="2">  1       21 0.23013294E+00 0.23755876E+03</pdfrwt>
<totfact> 0.43296623E+03</totfact>
</mgrwt>
</event>
<event>
 4    1  0.3945627E+000  0.1962225E+03  0.7546771E-02  0.1152966E+00
         21   -1    0    0  503  502  0.00000000000E+00  0.00000000000E+00  0.28004776618E+03  0.28004776618E+03  0.00000000000E+00 0. -1.
         21   -1    0    0  501  503 -0.00000000000E+00 -0.00000000000E+00 -0.14323609711E+03  0.14323609711E+03  0.00000000000E+00 0.  1.
          6    1    1    2  501    0 -0.29308658326E+01 -0.92550915902E+02  0.26009321157E+02  0.19793874506E+03  0.17300000000E+03 0.  1.
         -6    1    1    2    0  502  0.29308658326E+01  0.92550915902E+02  0.11080234791E+03  0.22534511823E+03  0.17300000000E+03 0. -1.
<mgrwt>
<rscale>  2 0.19622248E+03</rscale>
<asrwt>0</asrwt>
<pdfrwt beam="1">  1       21 0.43084272E-01 0.19622248E+03</pdfrwt>
<pdfrwt beam="2">  1       21 0.22036323E-01 0.19622248E+03</pdfrwt>
<totfact> 0.99541132E+04</totfact>
</mgrwt>
</event>
<event>
 4    1  0.3945627E+000  0.2112722E+03  0.7546771E-02  0.1140562E+00
         21   -1    0    0  503  502  0.00000000000E+00  0.00000000000E+00  0.13676709761E+03  0.13676709761E+03  0.00000000000E+00 0.  1.
         21   -1    0    0  501  503 -0.00000000000E+00 -0.00000000000E+00 -0.35666782092E+03  0.35666782092E+03  0.00000000000E+00 0. -1.
          6    1    1    2  501    0  0.10754758594E+03 -0.56039757220E+02 -0.18186418733E+03  0.27876606727E+03  0.17300000000E+03 0. -1.
         -6    1    1    2    0  502 -0.10754758594E+03  0.56039757220E+02 -0.38036535983E+02  0.21466885126E+03  0.17300000000E+03 0.  1.
<mgrwt>
<rscale>  2 0.21127219E+03</rscale>
<asrwt>0</asrwt>
<pdfrwt beam="1">  1       21 0.21041092E-01 0.21127219E+03</pdfrwt>
<pdfrwt beam="2">  1       21 0.54871972E-01 0.21127219E+03</pdfrwt>
<totfact> 0.65245753E+04</totfact>
</mgrwt>
</event>
<event>
 4    1  0.3945627E+000  0.1788568E+03  0.7546771E-02  0.1168914E+00
         21   -1    0    0  501  502  0.00000000000E+00  0.00000000000E+00  0.15526060934E+03  0.15526060934E+03  0.00000000000E+00 0.  1.
         21   -1    0    0  502  503 -0.00000000000E+00 -0.00000000000E+00 -0.38505220985E+03  0.38505220985E+03  0.00000000000E+00 0.  1.
          6    1    1    2  501    0 -0.24447302563E+02 -0.38250312463E+02  0.69307699894E+02  0.19181583425E+03  0.17300000000E+03 0.  1.
         -6    1    1    2    0  503  0.24447302563E+02  0.38250312463E+02 -0.29909930040E+03  0.34849698493E+03  0.17300000000E+03 0.  1.
<mgrwt>
<rscale>  2 0.17885681E+03</rscale>
<asrwt>0</asrwt>
<pdfrwt beam="1">  1       21 0.23886248E-01 0.17885681E+03</pdfrwt>
<pdfrwt beam="2">  1       21 0.59238801E-01 0.17885681E+03</pdfrwt>
<totfact> 0.44295098E+04</totfact>
</mgrwt>
</event>
<event>
 4    1  0.3945627E+000  0.1836907E+03  0.7546771E-02  0.1164278E+00
         21   -1    0    0  503  502  0.00000000000E+00  0.00000000000E+00  0.62583463972E+03  0.62583463972E+03  0.00000000000E+00 0.  1.
         21   -1    0    0  501  503 -0.00000000000E+00 -0.00000000000E+00 -0.83269408558E+02  0.83269408558E+02  0.00000000000E+00 0.  1.
          6    1    1    2  501    0  0.42617921922E+02 -0.44687538778E+02  0.60774278387E+02  0.19348327138E+03  0.17300000000E+03 0.  1.
         -6    1    1    2    0  502 -0.42617921922E+02  0.44687538778E+02  0.48179095278E+03  0.51562077690E+03  0.17300000000E+03 0.  1.
<mgrwt>
<rscale>  2 0.18369067E+03</rscale>
<asrwt>0</asrwt>
<pdfrwt beam="1">  1       21 0.96282249E-01 0.18369067E+03</pdfrwt>
<pdfrwt beam="2">  1       21 0.12810679E-01 0.18369067E+03</pdfrwt>
<totfact> 0.47061322E+04</totfact>
</mgrwt>
</event>
<event>
 4    1  0.3945627E+000  0.1879676E+03  0.7546771E-02  0.1160307E+00
         21   -1    0    0  503  502  0.00000000000E+00  0.00000000000E+00  0.28027813994E+03  0.28027813994E+03  0.00000000000E+00 0.  1.
         21   -1    0    0  501  503 -0.00000000000E+00 -0.00000000000E+00 -0.35163814272E+03  0.35163814272E+03  0.00000000000E+00 0.  1.
          6    1    1    2  501    0 -0.18974651046E+01  0.73479395970E+02 -0.28874390817E+03  0.34453572603E+03  0.17300000000E+03 0.  1.
         -6    1    1    2    0  502  0.18974651046E+01 -0.73479395970E+02  0.21738390539E+03  0.28738055663E+03  0.17300000000E+03 0.  1.
<mgrwt>
<rscale>  2 0.18796761E+03</rscale>
<asrwt>0</asrwt>
<pdfrwt beam="1">  1       21 0.43119714E-01 0.18796761E+03</pdfrwt>
<pdfrwt beam="2">  1       21 0.54098175E-01 0.18796761E+03</pdfrwt>
<totfact> 0.16752314E+04</totfact>
</mgrwt>
</event>
<event>
 4    1  0.3945627E+000  0.2110489E+03  0.7546771E-02  0.1140738E+00
         21   -1    0    0  501  502  0.00000000000E+00  0.00000000000E+00  0.12529179869E+03  0.12529179869E+03  0.00000000000E+00 0. -1.
         21   -1    0    0  502  503 -0.00000000000E+00 -0.00000000000E+00 -0.38966991711E+03  0.38966991711E+03  0.00000000000E+00 0.  1.
          6    1    1    2  501    0  0.37482548495E+02 -0.11492466197E+03 -0.20843187817E+03  0.29662344346E+03  0.17300000000E+03 0.  1.
         -6    1    1    2    0  503 -0.37482548495E+02  0.11492466197E+03 -0.55946240261E+02  0.21833827234E+03  0.17300000000E+03 0. -1.
<mgrwt>
<rscale>  2 0.21104886E+03</rscale>
<asrwt>0</asrwt>
<pdfrwt beam="1">  1       21 0.19275661E-01 0.21104886E+03</pdfrwt>
<pdfrwt beam="2">  1       21 0.59949218E-01 0.21104886E+03</pdfrwt>
<totfact> 0.63651124E+04</totfact>
</mgrwt>
</event>
<event>
 4    1  0.3945627E+000  0.2075929E+03  0.7546771E-02  0.1143486E+00
         21   -1    0    0  501  502  0.00000000000E+00  0.00000000000E+00  0.75781688660E+03  0.75781688660E+03  0.00000000000E+00 0. -1.
         21   -1    0    0  502  503 -0.00000000000E+00 -0.00000000000E+00 -0.60907462140E+02  0.60907462140E+02  0.00000000000E+00 0.  1.
          6    1    1    2  501    0 -0.72183918611E+02  0.89192388191E+02  0.24301941137E+03  0.31961419636E+03  0.17300000000E+03 0.  1.
         -6    1    1    2    0  503  0.72183918611E+02 -0.89192388191E+02  0.45389001309E+03  0.49911015237E+03  0.17300000000E+03 0. -1.
<mgrwt>
<rscale>  2 0.20759287E+03</rscale>
<asrwt>0</asrwt>
<pdfrwt beam="1">  1       21 0.11658721E+00 0.20759287E+03</pdfrwt>
<pdfrwt beam="2">  1       21 0.93703793E-02 0.20759287E+03</pdfrwt>
<totfact> 0.51194077E+04</totfact>
</mgrwt>
</event>
<event>
 4    1  0.3945627E+000  0.1875915E+03  0.7546771E-02  0.1160652E+00
         21   -1    0    0  503  502  0.00000000000E+00  0.00000000000E+00  0.11201823962E+04  0.11201823962E+04  0.00000000000E+00 0.  1.
         21   -1    0    0  501  503 -0.00000000000E+00 -0.00000000000E+00 -0.47506868199E+02  0.47506868199E+02  0.00000000000E+00 0.  1.
          6    1    1    2  501    0 -0.50171164077E+02  0.52387422346E+02  0.19653912990E+03  0.27169508149E+03  0.17300000000E+03 0.  1.
         -6    1    1    2    0  502  0.50171164077E+02 -0.52387422346E+02  0.87613639807E+03  0.89599418287E+03  0.17300000000E+03 0.  1.
<mgrwt>
<rscale>  2 0.18759154E+03</rscale>
<asrwt>0</asrwt>
<pdfrwt beam="1">  1       21 0.17233573E+00 0.18759154E+03</pdfrwt>
<pdfrwt beam="2">  1       21 0.73087498E-02 0.18759154E+03</pdfrwt>
<totfact> 0.28946123E+04</totfact>
</mgrwt>
</event>
<event>
 4    1  0.3945627E+000  0.2455045E+03  0.7546771E-02  0.1116179E+00
         21   -1    0    0  501  502  0.00000000000E+00  0.00000000000E+00  0.89765890632E+02  0.89765890632E+02  0.00000000000E+00 0. -1.
         21   -1    0    0  502  503 -0.00000000000E+00 -0.00000000000E+00 -0.25322712794E+04  0.25322712794E+04  0.00000000000E+00 0.  1.
          6    1    1    2  501    0  0.31932892599E+02 -0.17124172138E+03 -0.97405677458E+02  0.26412175748E+03  0.17300000000E+03 0. -1.
         -6    1    1    2    0  503 -0.31932892599E+02  0.17124172138E+03 -0.23450997113E+04  0.23579154125E+04  0.17300000000E+03 0.  1.
<mgrwt>
<rscale>  2 0.24550445E+03</rscale>
<asrwt>0</asrwt>
<pdfrwt beam="1">  1       21 0.13810140E-01 0.24550445E+03</pdfrwt>
<pdfrwt beam="2">  1       21 0.38958012E+00 0.24550445E+03</pdfrwt>
<totfact> 0.42677854E+02</totfact>
</mgrwt>
</event>
<event>
 4    1  0.3945627E+000  0.1914896E+03  0.7546771E-02  0.1157125E+00
         21   -1    0    0  501  502  0.00000000000E+00  0.00000000000E+00  0.15451534219E+04  0.15451534219E+04  0.00000000000E+00 0. -1.
         21   -1    0    0  502  503 -0.00000000000E+00 -0.00000000000E+00 -0.37399344073E+02  0.37399344073E+02  0.00000000000E+00 0. -1.
          6    1    1    2  501    0 -0.81737171945E+02  0.76354173397E+01  0.12322336798E+04  0.12470236993E+04  0.17300000000E+03 0. -1.
         -6    1    1    2    0  503  0.81737171945E+02 -0.76354173397E+01  0.27552039797E+03  0.33552906666E+03  0.17300000000E+03 0. -1.
<mgrwt>
<rscale>  2 0.19148959E+03</rscale>
<asrwt>0</asrwt>
<pdfrwt beam="1">  1       21 0.23771586E+00 0.19148959E+03</pdfrwt>
<pdfrwt beam="2">  1       21 0.57537464E-02 0.19148959E+03</pdfrwt>
<totfact> 0.16668804E+04</totfact>
</mgrwt>
</event>
<event>
 4    1  0.3945627E+000  0.1800120E+03  0.7546771E-02  0.1167791E+00
         21   -1    0    0  503  502  0.00000000000E+00  0.00000000000E+00  0.14259010721E+03  0.14259010721E+03  0.00000000000E+00 0. -1.
         21   -1    0    0  501  503 -0.00000000000E+00 -0.00000000000E+00 -0.52860838085E+03  0.52860838085E+03  0.00000000000E+00 0. -1.
          6    1    1    2  501    0 -0.47756378345E+02  0.13951748838E+02 -0.44640057971E+03  0.48132920183E+03  0.17300000000E+03 0.  1.
         -6    1    1    2    0  502  0.47756378345E+02 -0.13951748838E+02  0.60382306075E+02  0.18986928623E+03  0.17300000000E+03 0.  1.
<mgrwt>
<rscale>  2 0.18001201E+03</rscale>
<asrwt>0</asrwt>
<pdfrwt beam="1">  1       21 0.21936940E-01 0.18001201E+03</pdfrwt>
<pdfrwt beam="2">  1       21 0.81324365E-01 0.18001201E+03</pdfrwt>
<totfact> 0.25905266E+04</totfact>
</mgrwt>
</event>
<event>
 4    1  0.3945627E+000  0.2246953E+03  0.7546771E-02  0.1130430E+00
         21   -1    0    0  501  502  0.00000000000E+00  0.00000000000E+00  0.10606596448E+03  0.10606596448E+03  0.00000000000E+00 0.  1.
         21   -1    0    0  502  503 -0.00000000000E+00 -0.00000000000E+00 -0.60506292698E+03  0.60506292698E+03  0.00000000000E+00 0. -1.
          6    1    1    2  501    0 -0.13482907834E+03 -0.48786312518E+02 -0.85284730052E+02  0.24033616006E+03  0.17300000000E+03 0.  1.
         -6    1    1    2    0  503  0.13482907834E+03  0.48786312518E+02 -0.41371223246E+03  0.47079273140E+03  0.17300000000E+03 0. -1.
<mgrwt>
<rscale>  2 0.22469532E+03</rscale>
<asrwt>0</asrwt>
<pdfrwt beam="1">  1       21 0.16317841E-01 0.22469532E+03</pdfrwt>
<pdfrwt beam="2">  1       21 0.93086605E-01 0.22469532E+03</pdfrwt>
<totfact> 0.32114665E+04</totfact>
</mgrwt>
</event>
<event>
 4    1  0.3945627E+000  0.2933307E+03  0.7546771E-02  0.1088623E+00
         21   -1    0    0  503  502  0.00000000000E+00  0.00000000000E+00  0.10726266394E+04  0.10726266394E+04  0.00000000000E+00 0. -1.
         21   -1    0    0  501  503 -0.00000000000E+00 -0.00000000000E+00 -0.16914324732E+03  0.16914324732E+03  0.00000000000E+00 0.  1.
          6    1    1    2  501    0  0.93359206974E+01  0.23669972220E+03  0.15487167785E+01  0.29333481967E+03  0.17300000000E+03 0.  1.
         -6    1    1    2    0  502 -0.93359206974E+01 -0.23669972220E+03  0.90193467527E+03  0.94843506703E+03  0.17300000000E+03 0. -1.
<mgrwt>
<rscale>  2 0.29333073E+03</rscale>
<asrwt>0</asrwt>
<pdfrwt beam="1">  1       21 0.16501948E+00 0.29333073E+03</pdfrwt>
<pdfrwt beam="2">  1       21 0.26022039E-01 0.29333073E+03</pdfrwt>
<totfact> 0.30087200E+03</totfact>
</mgrwt>
</event>
<event>
 4    1  0.3945627E+000  0.1952497E+03  0.7546771E-02  0.1153810E+00
         21   -1    0    0  501  502  0.00000000000E+00  0.00000000000E+00  0.14140456024E+03  0.14140456024E+03  0.00000000000E+00 0. -1.
         21   -1    0    0  502  503 -0.00000000000E+00 -0.00000000000E+00 -0.27864431523E+03  0.27864431523E+03  0.00000000000E+00 0. -1.
          6    1    1    2  501    0 -0.19405801100E+02  0.88412905820E+02 -0.10646184752E+03  0.22238829108E+03  0.17300000000E+03 0. -1.
         -6    1    1    2    0  503  0.19405801100E+02 -0.88412905820E+02 -0.30777907470E+02  0.19766058439E+03  0.17300000000E+03 0. -1.
<mgrwt>
<rscale>  2 0.19524965E+03</rscale>
<asrwt>0</asrwt>
<pdfrwt beam="1">  1       21 0.21754548E-01 0.19524965E+03</pdfrwt>
<pdfrwt beam="2">  1       21 0.42868356E-01 0.19524965E+03</pdfrwt>
<totfact> 0.10307799E+05</totfact>
</mgrwt>
</event>
<event>
 4    1  0.3945627E+000  0.1884374E+03  0.7546771E-02  0.1159878E+00
         21   -1    0    0  503  502  0.00000000000E+00  0.00000000000E+00  0.10017790107E+04  0.10017790107E+04  0.00000000000E+00 0. -1.
         21   -1    0    0  501  503 -0.00000000000E+00 -0.00000000000E+00 -0.47628643386E+02  0.47628643386E+02  0.00000000000E+00 0. -1.
          6    1    1    2  501    0 -0.70463932653E+02  0.24788949341E+02  0.21170139391E+03  0.28341866205E+03  0.17300000000E+03 0. -1.
         -6    1    1    2    0  502  0.70463932653E+02 -0.24788949341E+02  0.74244897344E+03  0.76598899208E+03  0.17300000000E+03 0. -1.
<mgrwt>
<rscale>  2 0.18843741E+03</rscale>
<asrwt>0</asrwt>
<pdfrwt beam="1">  1       21 0.15411983E+00 0.18843741E+03</pdfrwt>
<pdfrwt beam="2">  1       21 0.73274843E-02 0.18843741E+03</pdfrwt>
<totfact> 0.38987653E+04</totfact>
</mgrwt>
</event>
<event>
 4    1  0.3945627E+000  0.2866017E+03  0.7546771E-02  0.1092137E+00
         21   -1    0    0  501  502  0.00000000000E+00  0.00000000000E+00  0.53367839373E+02  0.53367839373E+02  0.00000000000E+00 0.  1.
         21   -1    0    0  502  503 -0.00000000000E+00 -0.00000000000E+00 -0.15510618924E+04  0.15510618924E+04  0.00000000000E+00 0.  1.
          6    1    1    2  501    0 -0.20171870699E+03 -0.10733637346E+03 -0.67851336346E+03  0.73656019320E+03  0.17300000000E+03 0.  1.
         -6    1    1    2    0  503  0.20171870699E+03  0.10733637346E+03 -0.81918068961E+03  0.86786953861E+03  0.17300000000E+03 0.  1.
<mgrwt>
<rscale>  2 0.28660170E+03</rscale>
<asrwt>0</asrwt>
<pdfrwt beam="1">  1       21 0.82104385E-02 0.28660170E+03</pdfrwt>
<pdfrwt beam="2">  1       21 0.23862486E+00 0.28660170E+03</pdfrwt>
<totfact> 0.82708576E+03</totfact>
</mgrwt>
</event>
<event>
 4    1  0.3945627E+000  0.1842876E+03  0.7546771E-02  0.1163717E+00
         21   -1    0    0  503  502  0.00000000000E+00  0.00000000000E+00  0.21716326073E+03  0.21716326073E+03  0.00000000000E+00 0.  1.
         21   -1    0    0  501  503 -0.00000000000E+00 -0.00000000000E+00 -0.16342352090E+03  0.16342352090E+03  0.00000000000E+00 0. -1.
          6    1    1    2  501    0  0.34620712121E+02 -0.53238417723E+02 -0.12611013590E+02  0.18471859812E+03  0.17300000000E+03 0. -1.
         -6    1    1    2    0  502 -0.34620712121E+02  0.53238417723E+02  0.66350753429E+02  0.19586818351E+03  0.17300000000E+03 0.  1.
<mgrwt>
<rscale>  2 0.18428761E+03</rscale>
<asrwt>0</asrwt>
<pdfrwt beam="1">  1       21 0.33409733E-01 0.18428761E+03</pdfrwt>
<pdfrwt beam="2">  1       21 0.25142080E-01 0.18428761E+03</pdfrwt>
<totfact> 0.12964732E+05</totfact>
</mgrwt>
</event>
<event>
 4    1  0.3945627E+000  0.3023506E+03  0.7546771E-02  0.1084071E+00
         21   -1    0    0  503  502  0.00000000000E+00  0.00000000000E+00  0.11058885785E+03  0.11058885785E+03  0.00000000000E+00 0. -1.
         21   -1    0    0  501  503 -0.00000000000E+00 -0.00000000000E+00 -0.28083278546E+04  0.28083278546E+04  0.00000000000E+00 0.  1.
          6    1    1    2  501    0 -0.37993820763E+02 -0.24503751299E+03 -0.25748587883E+04  0.25925496510E+04  0.17300000000E+03 0.  1.
         -6    1    1    2    0  502  0.37993820763E+02  0.24503751299E+03 -0.12288020848E+03  0.32636706149E+03  0.17300000000E+03 0. -1.
<mgrwt>
<rscale>  2 0.30235065E+03</rscale>
<asrwt>0</asrwt>
<pdfrwt beam="1">  1       21 0.17013672E-01 0.30235065E+03</pdfrwt>
<pdfrwt beam="2">  1       21 0.43205041E+00 0.30235065E+03</pdfrwt>
<totfact> 0.14563942E+02</totfact>
</mgrwt>
</event>
<event>
 4    1  0.3945627E+000  0.3128238E+03  0.7546771E-02  0.1079000E+00
         21   -1    0    0  503  502  0.00000000000E+00  0.00000000000E+00  0.39873788015E+03  0.39873788015E+03  0.00000000000E+00 0. -1.
         21   -1    0    0  501  503 -0.00000000000E+00 -0.00000000000E+00 -0.27763285603E+03  0.27763285603E+03  0.00000000000E+00 0.  1.
          6    1    1    2  501    0  0.55358075502E+02  0.25468647264E+03 -0.54640499394E+02  0.31755991568E+03  0.17300000000E+03 0.  1.
         -6    1    1    2    0  502 -0.55358075502E+02 -0.25468647264E+03  0.17574552352E+03  0.35881082050E+03  0.17300000000E+03 0. -1.
<mgrwt>
<rscale>  2 0.31282378E+03</rscale>
<asrwt>0</asrwt>
<pdfrwt beam="1">  1       21 0.61344289E-01 0.31282378E+03</pdfrwt>
<pdfrwt beam="2">  1       21 0.42712747E-01 0.31282378E+03</pdfrwt>
<totfact> 0.12223008E+04</totfact>
</mgrwt>
</event>
<event>
 4    1  0.3945627E+000  0.1941104E+03  0.7546771E-02  0.1154805E+00
         21   -1    0    0  503  502  0.00000000000E+00  0.00000000000E+00  0.12411647689E+03  0.12411647689E+03  0.00000000000E+00 0. -1.
         21   -1    0    0  501  503 -0.00000000000E+00 -0.00000000000E+00 -0.35570747390E+03  0.35570747390E+03  0.00000000000E+00 0.  1.
          6    1    1    2  501    0 -0.33830455433E+02  0.81273218636E+02 -0.20764011006E+03  0.28424153653E+03  0.17300000000E+03 0.  1.
         -6    1    1    2    0  502  0.33830455433E+02 -0.81273218636E+02 -0.23950886958E+02  0.19558241426E+03  0.17300000000E+03 0. -1.
<mgrwt>
<rscale>  2 0.19411037E+03</rscale>
<asrwt>0</asrwt>
<pdfrwt beam="1">  1       21 0.19094843E-01 0.19411037E+03</pdfrwt>
<pdfrwt beam="2">  1       21 0.54724227E-01 0.19411037E+03</pdfrwt>
<totfact> 0.79285337E+04</totfact>
</mgrwt>
</event>
<event>
 4    1  0.3945627E+000  0.2474250E+03  0.7546771E-02  0.1114943E+00
         21   -1    0    0  501  502  0.00000000000E+00  0.00000000000E+00  0.30873259508E+03  0.30873259508E+03  0.00000000000E+00 0. -1.
         21   -1    0    0  502  503 -0.00000000000E+00 -0.00000000000E+00 -0.25623811608E+03  0.25623811608E+03  0.00000000000E+00 0. -1.
          6    1    1    2  501    0  0.17688930863E+03 -0.55359905341E+00 -0.10808711255E+03  0.27000362567E+03  0.17300000000E+03 0. -1.
         -6    1    1    2    0  503 -0.17688930863E+03  0.55359905341E+00  0.16058159155E+03  0.29496708549E+03  0.17300000000E+03 0. -1.
<mgrwt>
<rscale>  2 0.24742501E+03</rscale>
<asrwt>0</asrwt>
<pdfrwt beam="1">  1       21 0.47497322E-01 0.24742501E+03</pdfrwt>
<pdfrwt beam="2">  1       21 0.39421249E-01 0.24742501E+03</pdfrwt>
<totfact> 0.25559087E+04</totfact>
</mgrwt>
</event>
<event>
 4    1  0.3945627E+000  0.2079907E+03  0.7546771E-02  0.1143167E+00
         21   -1    0    0  501  502  0.00000000000E+00  0.00000000000E+00  0.88672719369E+03  0.88672719369E+03  0.00000000000E+00 0. -1.
         21   -1    0    0  502  503 -0.00000000000E+00 -0.00000000000E+00 -0.11938218522E+03  0.11938218522E+03  0.00000000000E+00 0.  1.
          6    1    1    2  501    0 -0.32453714618E+01  0.11541491101E+03  0.77051586753E+03  0.79809450332E+03  0.17300000000E+03 0. -1.
         -6    1    1    2    0  503  0.32453714618E+01 -0.11541491101E+03 -0.31708590586E+01  0.20801487559E+03  0.17300000000E+03 0.  1.
<mgrwt>
<rscale>  2 0.20799071E+03</rscale>
<asrwt>0</asrwt>
<pdfrwt beam="1">  1       21 0.13641956E+00 0.20799071E+03</pdfrwt>
<pdfrwt beam="2">  1       21 0.18366491E-01 0.20799071E+03</pdfrwt>
<totfact> 0.10230913E+04</totfact>
</mgrwt>
</event>
<event>
 4    1  0.3945627E+000  0.2208620E+03  0.7546771E-02  0.1133242E+00
         21   -1    0    0  503  502  0.00000000000E+00  0.00000000000E+00  0.12924118232E+03  0.12924118232E+03  0.00000000000E+00 0. -1.
         21   -1    0    0  501  503 -0.00000000000E+00 -0.00000000000E+00 -0.47953089562E+03  0.47953089562E+03  0.00000000000E+00 0.  1.
          6    1    1    2  501    0 -0.50960851294E+02  0.12749120518E+03 -0.31559516969E+03  0.38520167042E+03  0.17300000000E+03 0. -1.
         -6    1    1    2    0  502  0.50960851294E+02 -0.12749120518E+03 -0.34694543607E+02  0.22357040752E+03  0.17300000000E+03 0.  1.
<mgrwt>
<rscale>  2 0.22086198E+03</rscale>
<asrwt>0</asrwt>
<pdfrwt beam="1">  1       21 0.19883259E-01 0.22086198E+03</pdfrwt>
<pdfrwt beam="2">  1       21 0.73773984E-01 0.22086198E+03</pdfrwt>
<totfact> 0.37939462E+04</totfact>
</mgrwt>
</event>
<event>
 4    1  0.3945627E+000  0.2793922E+03  0.7546771E-02  0.1096021E+00
         21   -1    0    0  503  502  0.00000000000E+00  0.00000000000E+00  0.20986153539E+03  0.20986153539E+03  0.00000000000E+00 0. -1.
         21   -1    0    0  501  503 -0.00000000000E+00 -0.00000000000E+00 -0.80584930991E+03  0.80584930991E+03  0.00000000000E+00 0. -1.
          6    1    1    2  501    0 -0.39886013493E+02 -0.21573152914E+03 -0.67064542028E+03  0.72651584049E+03  0.17300000000E+03 0. -1.
         -6    1    1    2    0  502  0.39886013493E+02  0.21573152914E+03  0.74657645769E+02  0.28919500481E+03  0.17300000000E+03 0. -1.
<mgrwt>
<rscale>  2 0.27939217E+03</rscale>
<asrwt>0</asrwt>
<pdfrwt beam="1">  1       21 0.32286390E-01 0.27939217E+03</pdfrwt>
<pdfrwt beam="2">  1       21 0.12397682E+00 0.27939217E+03</pdfrwt>
<totfact> 0.42277575E+03</totfact>
</mgrwt>
</event>
<event>
 4    1  0.3945627E+000  0.1817055E+03  0.7546771E-02  0.1166163E+00
         21   -1    0    0  501  502  0.00000000000E+00  0.00000000000E+00  0.18249663149E+04  0.18249663149E+04  0.00000000000E+00 0. -1.
         21   -1    0    0  502  503 -0.00000000000E+00 -0.00000000000E+00 -0.18501682953E+02  0.18501682953E+02  0.00000000000E+00 0.  1.
          6    1    1    2  501    0  0.28357481626E+02  0.47788494304E+02  0.10404282150E+04  0.10561760069E+04  0.17300000000E+03 0. -1.
         -6    1    1    2    0  503 -0.28357481626E+02 -0.47788494304E+02  0.76603641693E+03  0.78729199095E+03  0.17300000000E+03 0.  1.
<mgrwt>
<rscale>  2 0.18170550E+03</rscale>
<asrwt>0</asrwt>
<pdfrwt beam="1">  1       21 0.28076391E+00 0.18170550E+03</pdfrwt>
<pdfrwt beam="2">  1       21 0.28464142E-02 0.18170550E+03</pdfrwt>
<totfact> 0.30712632E+04</totfact>
</mgrwt>
</event>
<event>
 4    1  0.3945627E+000  0.2051483E+03  0.7546771E-02  0.1145467E+00
         21   -1    0    0  501  502  0.00000000000E+00  0.00000000000E+00  0.56529153425E+02  0.56529153425E+02  0.00000000000E+00 0.  1.
         21   -1    0    0  502  503 -0.00000000000E+00 -0.00000000000E+00 -0.76479264200E+03  0.76479264200E+03  0.00000000000E+00 0. -1.
          6    1    1    2  501    0  0.46773119560E+02 -0.99845480601E+02 -0.28723551742E+03  0.35297321028E+03  0.17300000000E+03 0. -1.
         -6    1    1    2    0  503 -0.46773119560E+02  0.99845480601E+02 -0.42102797115E+03  0.46834858514E+03  0.17300000000E+03 0.  1.
<mgrwt>
<rscale>  2 0.20514835E+03</rscale>
<asrwt>0</asrwt>
<pdfrwt beam="1">  1       21 0.86967934E-02 0.20514835E+03</pdfrwt>
<pdfrwt beam="2">  1       21 0.11766040E+00 0.20514835E+03</pdfrwt>
<totfact> 0.57139236E+04</totfact>
</mgrwt>
</event>
<event>
 4    1  0.3945627E+000  0.2280056E+03  0.7546771E-02  0.1128051E+00
         21   -1    0    0  501  502  0.00000000000E+00  0.00000000000E+00  0.13561177089E+03  0.13561177089E+03  0.00000000000E+00 0.  1.
         21   -1    0    0  502  503 -0.00000000000E+00 -0.00000000000E+00 -0.41109863275E+03  0.41109863275E+03  0.00000000000E+00 0.  1.
          6    1    1    2  501    0  0.41071737178E+02  0.14272587376E+03 -0.20876450299E+03  0.30914265371E+03  0.17300000000E+03 0.  1.
         -6    1    1    2    0  503 -0.41071737178E+02 -0.14272587376E+03 -0.66722358875E+02  0.23756774993E+03  0.17300000000E+03 0.  1.
<mgrwt>
<rscale>  2 0.22800562E+03</rscale>
<asrwt>0</asrwt>
<pdfrwt beam="1">  1       21 0.20863349E-01 0.22800562E+03</pdfrwt>
<pdfrwt beam="2">  1       21 0.63245944E-01 0.22800562E+03</pdfrwt>
<totfact> 0.48509075E+04</totfact>
</mgrwt>
</event>
<event>
 4    1  0.3945627E+000  0.1899183E+03  0.7546771E-02  0.1158535E+00
         21   -1    0    0  503  502  0.00000000000E+00  0.00000000000E+00  0.14347648288E+04  0.14347648288E+04  0.00000000000E+00 0.  1.
         21   -1    0    0  501  503 -0.00000000000E+00 -0.00000000000E+00 -0.46840935733E+02  0.46840935733E+02  0.00000000000E+00 0.  1.
          6    1    1    2  501    0 -0.23390683828E+02  0.74785244508E+02  0.18972309807E+03  0.26844703542E+03  0.17300000000E+03 0.  1.
         -6    1    1    2    0  502  0.23390683828E+02 -0.74785244508E+02  0.11982007950E+04  0.12131587291E+04  0.17300000000E+03 0.  1.
<mgrwt>
<rscale>  2 0.18991829E+03</rscale>
<asrwt>0</asrwt>
<pdfrwt beam="1">  1       21 0.22073302E+00 0.18991829E+03</pdfrwt>
<pdfrwt beam="2">  1       21 0.72062989E-02 0.18991829E+03</pdfrwt>
<totfact> 0.14356079E+04</totfact>
</mgrwt>
</event>
<event>
 4    1  0.3945627E+000  0.1954543E+03  0.7546771E-02  0.1153632E+00
         21   -1    0    0  501  502  0.00000000000E+00  0.00000000000E+00  0.32552132012E+03  0.32552132012E+03  0.00000000000E+00 0.  1.
         21   -1    0    0  502  503 -0.00000000000E+00 -0.00000000000E+00 -0.15348340211E+03  0.15348340211E+03  0.00000000000E+00 0.  1.
          6    1    1    2  501    0  0.83699846954E+02  0.35605101509E+02  0.20221413136E+03  0.28123467524E+03  0.17300000000E+03 0.  1.
         -6    1    1    2    0  503 -0.83699846954E+02 -0.35605101509E+02 -0.30176213354E+02  0.19777004699E+03  0.17300000000E+03 0.  1.
<mgrwt>
<rscale>  2 0.19545431E+03</rscale>
<asrwt>0</asrwt>
<pdfrwt beam="1">  1       21 0.50080203E-01 0.19545431E+03</pdfrwt>
<pdfrwt beam="2">  1       21 0.23612831E-01 0.19545431E+03</pdfrwt>
<totfact> 0.64046214E+04</totfact>
</mgrwt>
</event>
<event>
 4    1  0.3945627E+000  0.1760779E+03  0.7546771E-02  0.1171654E+00
         21   -1    0    0  503  502  0.00000000000E+00  0.00000000000E+00  0.27191739608E+03  0.27191739608E+03  0.00000000000E+00 0. -1.
         21   -1    0    0  501  503 -0.00000000000E+00 -0.00000000000E+00 -0.15872773708E+03  0.15872773708E+03  0.00000000000E+00 0. -1.
          6    1    1    2  501    0  0.89021948275E+01 -0.31546654162E+02 -0.57683756464E+02  0.18528587702E+03  0.17300000000E+03 0. -1.
         -6    1    1    2    0  502 -0.89021948275E+01  0.31546654162E+02  0.17087341547E+03  0.24535925614E+03  0.17300000000E+03 0. -1.
<mgrwt>
<rscale>  2 0.17607794E+03</rscale>
<asrwt>0</asrwt>
<pdfrwt beam="1">  1       21 0.41833446E-01 0.17607794E+03</pdfrwt>
<pdfrwt beam="2">  1       21 0.24419652E-01 0.17607794E+03</pdfrwt>
<totfact> 0.87706363E+04</totfact>
</mgrwt>
</event>
<event>
 4    1  0.3945627E+000  0.1784219E+03  0.7546771E-02  0.1169339E+00
         21   -1    0    0  503  502  0.00000000000E+00  0.00000000000E+00  0.10004193732E+03  0.10004193732E+03  0.00000000000E+00 0. -1.
         21   -1    0    0  501  503 -0.00000000000E+00 -0.00000000000E+00 -0.34272176912E+03  0.34272176912E+03  0.00000000000E+00 0. -1.
          6    1    1    2  501    0 -0.43246569113E+02  0.59266519720E+01 -0.18054437561E+03  0.25383195722E+03  0.17300000000E+03 0. -1.
         -6    1    1    2    0  502  0.43246569113E+02 -0.59266519720E+01 -0.62135456188E+02  0.18893174921E+03  0.17300000000E+03 0. -1.
<mgrwt>
<rscale>  2 0.17842195E+03</rscale>
<asrwt>0</asrwt>
<pdfrwt beam="1">  1       21 0.15391067E-01 0.17842195E+03</pdfrwt>
<pdfrwt beam="2">  1       21 0.52726426E-01 0.17842195E+03</pdfrwt>
<totfact> 0.12825640E+05</totfact>
</mgrwt>
</event>
<event>
 4    1  0.3945627E+000  0.2040315E+03  0.7546771E-02  0.1146381E+00
         21   -1    0    0  503  502  0.00000000000E+00  0.00000000000E+00  0.55269546003E+02  0.55269546003E+02  0.00000000000E+00 0. -1.
         21   -1    0    0  501  503 -0.00000000000E+00 -0.00000000000E+00 -0.18715092901E+04  0.18715092901E+04  0.00000000000E+00 0.  1.
          6    1    1    2  501    0  0.10717339563E+03 -0.14619518905E+02 -0.16528302207E+04  0.16653758151E+04  0.17300000000E+03 0.  1.
         -6    1    1    2    0  502 -0.10717339563E+03  0.14619518905E+02 -0.16340952346E+03  0.26140302107E+03  0.17300000000E+03 0. -1.
<mgrwt>
<rscale>  2 0.20403153E+03</rscale>
<asrwt>0</asrwt>
<pdfrwt beam="1">  1       21 0.85030070E-02 0.20403153E+03</pdfrwt>
<pdfrwt beam="2">  1       21 0.28792451E+00 0.20403153E+03</pdfrwt>
<totfact> 0.42674899E+03</totfact>
</mgrwt>
</event>
<event>
 4    1  0.3945627E+000  0.1871282E+03  0.7546771E-02  0.1161077E+00
         21   -1    0    0  503  502  0.00000000000E+00  0.00000000000E+00  0.16442566387E+03  0.16442566387E+03  0.00000000000E+00 0. -1.
         21   -1    0    0  501  503 -0.00000000000E+00 -0.00000000000E+00 -0.39436979008E+03  0.39436979008E+03  0.00000000000E+00 0. -1.
          6    1    1    2  501    0  0.70215503496E+02 -0.12559098559E+02 -0.30446593050E+03  0.35737438454E+03  0.17300000000E+03 0. -1.
         -6    1    1    2    0  502 -0.70215503496E+02  0.12559098559E+02  0.74521804297E+02  0.20142106941E+03  0.17300000000E+03 0. -1.
<mgrwt>
<rscale>  2 0.18712816E+03</rscale>
<asrwt>0</asrwt>
<pdfrwt beam="1">  1       21 0.25296256E-01 0.18712816E+03</pdfrwt>
<pdfrwt beam="2">  1       21 0.60672274E-01 0.18712816E+03</pdfrwt>
<totfact> 0.37572483E+04</totfact>
</mgrwt>
</event>
<event>
 4    1  0.3945627E+000  0.2056885E+03  0.7546771E-02  0.1145026E+00
         21   -1    0    0  503  502  0.00000000000E+00  0.00000000000E+00  0.28413433690E+02  0.28413433690E+02  0.00000000000E+00 0.  1.
         21   -1    0    0  501  503 -0.00000000000E+00 -0.00000000000E+00 -0.14980035423E+04  0.14980035423E+04  0.00000000000E+00 0. -1.
          6    1    1    2  501    0  0.82474808594E+02  0.74677112482E+02 -0.67564494250E+03  0.70626047143E+03  0.17300000000E+03 0. -1.
         -6    1    1    2    0  502 -0.82474808594E+02 -0.74677112482E+02 -0.79394516616E+03  0.82015650461E+03  0.17300000000E+03 0. -1.
<mgrwt>
<rscale>  2 0.20568851E+03</rscale>
<asrwt>0</asrwt>
<pdfrwt beam="1">  1       21 0.43712979E-02 0.20568851E+03</pdfrwt>
<pdfrwt beam="2">  1       21 0.23046206E+00 0.20568851E+03</pdfrwt>
<totfact> 0.29037599E+04</totfact>
</mgrwt>
</event>
<event>
 4    1  0.3945627E+000  0.1947685E+03  0.7546771E-02  0.1154229E+00
         21   -1    0    0  503  502  0.00000000000E+00  0.00000000000E+00  0.15274230984E+03  0.15274230984E+03  0.00000000000E+00 0. -1.
         21   -1    0    0  501  503 -0.00000000000E+00 -0.00000000000E+00 -0.26356246232E+03  0.26356246232E+03  0.00000000000E+00 0.  1.
          6    1    1    2  501    0 -0.73507410855E+02 -0.51014000647E+02 -0.10540498633E+03  0.22146100979E+03  0.17300000000E+03 0.  1.
         -6    1    1    2    0  502  0.73507410855E+02  0.51014000647E+02 -0.54151661474E+01  0.19484376238E+03  0.17300000000E+03 0. -1.
<mgrwt>
<rscale>  2 0.19476850E+03</rscale>
<asrwt>0</asrwt>
<pdfrwt beam="1">  1       21 0.23498817E-01 0.19476850E+03</pdfrwt>
<pdfrwt beam="2">  1       21 0.40548071E-01 0.19476850E+03</pdfrwt>
<totfact> 0.99781832E+04</totfact>
</mgrwt>
</event>
<event>
 4    1  0.3945627E+000  0.2339469E+03  0.7546771E-02  0.1123892E+00
         21   -1    0    0  501  502  0.00000000000E+00  0.00000000000E+00  0.85495757168E+03  0.85495757168E+03  0.00000000000E+00 0.  1.
         21   -1    0    0  502  503 -0.00000000000E+00 -0.00000000000E+00 -0.83149142799E+02  0.83149142799E+02  0.00000000000E+00 0.  1.
          6    1    1    2  501    0 -0.40841224563E+02  0.15209909761E+03  0.61090506745E+03  0.65416828306E+03  0.17300000000E+03 0.  1.
         -6    1    1    2    0  503  0.40841224563E+02 -0.15209909761E+03  0.16090336143E+03  0.28393843142E+03  0.17300000000E+03 0.  1.
<mgrwt>
<rscale>  2 0.23394688E+03</rscale>
<asrwt>0</asrwt>
<pdfrwt beam="1">  1       21 0.13153193E+00 0.23394688E+03</pdfrwt>
<pdfrwt beam="2">  1       21 0.12792176E-01 0.23394688E+03</pdfrwt>
<totfact> 0.21416432E+04</totfact>
</mgrwt>
</event>
<event>
 4    1  0.3945627E+000  0.2027497E+03  0.7546771E-02  0.1147440E+00
         21   -1    0    0  501  502  0.00000000000E+00  0.00000000000E+00  0.26593946047E+03  0.26593946047E+03  0.00000000000E+00 0. -1.
         21   -1    0    0  502  503 -0.00000000000E+00 -0.00000000000E+00 -0.18989202700E+03  0.18989202700E+03  0.00000000000E+00 0. -1.
          6    1    1    2  501    0  0.78043723127E+02 -0.71327667603E+02  0.13631524992E+03  0.24431395017E+03  0.17300000000E+03 0. -1.
         -6    1    1    2    0  503 -0.78043723127E+02  0.71327667603E+02 -0.60267816458E+02  0.21151753730E+03  0.17300000000E+03 0. -1.
<mgrwt>
<rscale>  2 0.20274974E+03</rscale>
<asrwt>0</asrwt>
<pdfrwt beam="1">  1       21 0.40913763E-01 0.20274974E+03</pdfrwt>
<pdfrwt beam="2">  1       21 0.29214158E-01 0.20274974E+03</pdfrwt>
<totfact> 0.64273422E+04</totfact>
</mgrwt>
</event>
<event>
 4    1  0.3945627E+000  0.2460549E+03  0.7546771E-02  0.1115824E+00
         21   -1    0    0  501  502  0.00000000000E+00  0.00000000000E+00  0.25104791915E+03  0.25104791915E+03  0.00000000000E+00 0.  1.
         21   -1    0    0  502  503 -0.00000000000E+00 -0.00000000000E+00 -0.24117251708E+03  0.24117251708E+03  0.00000000000E+00 0.  1.
          6    1    1    2  501    0 -0.10267578744E+03  0.14167459648E+03  0.66262218642E+01  0.24614409485E+03  0.17300000000E+03 0.  1.
         -6    1    1    2    0  503  0.10267578744E+03 -0.14167459648E+03  0.32491802054E+01  0.24607634138E+03  0.17300000000E+03 0.  1.
<mgrwt>
<rscale>  2 0.24605489E+03</rscale>
<asrwt>0</asrwt>
<pdfrwt beam="1">  1       21 0.38622757E-01 0.24605489E+03</pdfrwt>
<pdfrwt beam="2">  1       21 0.37103464E-01 0.24605489E+03</pdfrwt>
<totfact> 0.44184708E+04</totfact>
</mgrwt>
</event>
<event>
 4    1  0.3945627E+000  0.1804533E+03  0.7546771E-02  0.1167365E+00
         21   -1    0    0  503  502  0.00000000000E+00  0.00000000000E+00  0.72124140434E+02  0.72124140434E+02  0.00000000000E+00 0.  1.
         21   -1    0    0  501  503 -0.00000000000E+00 -0.00000000000E+00 -0.71102272843E+03  0.71102272843E+03  0.00000000000E+00 0.  1.
          6    1    1    2  501    0 -0.43329293811E+02  0.27513061496E+02 -0.55602315334E+03  0.58457261594E+03  0.17300000000E+03 0.  1.
         -6    1    1    2    0  502  0.43329293811E+02 -0.27513061496E+02 -0.82875434655E+02  0.19857425292E+03  0.17300000000E+03 0.  1.
<mgrwt>
<rscale>  2 0.18045331E+03</rscale>
<asrwt>0</asrwt>
<pdfrwt beam="1">  1       21 0.11096022E-01 0.18045331E+03</pdfrwt>
<pdfrwt beam="2">  1       21 0.10938811E+00 0.18045331E+03</pdfrwt>
<totfact> 0.44956860E+04</totfact>
</mgrwt>
</event>
<event>
 4    1  0.3945627E+000  0.1996012E+03  0.7546771E-02  0.1150076E+00
         21   -1    0    0  503  502  0.00000000000E+00  0.00000000000E+00  0.10888762892E+03  0.10888762892E+03  0.00000000000E+00 0.  1.
         21   -1    0    0  501  503 -0.00000000000E+00 -0.00000000000E+00 -0.57940806365E+03  0.57940806365E+03  0.00000000000E+00 0.  1.
          6    1    1    2  501    0 -0.87221522310E+02  0.48000579126E+02 -0.44417654729E+03  0.48696350449E+03  0.17300000000E+03 0.  1.
         -6    1    1    2    0  502  0.87221522310E+02 -0.48000579126E+02 -0.26343887448E+02  0.20133218808E+03  0.17300000000E+03 0.  1.
<mgrwt>
<rscale>  2 0.19960123E+03</rscale>
<asrwt>0</asrwt>
<pdfrwt beam="1">  1       21 0.16751943E-01 0.19960123E+03</pdfrwt>
<pdfrwt beam="2">  1       21 0.89139702E-01 0.19960123E+03</pdfrwt>
<totfact> 0.34297645E+04</totfact>
</mgrwt>
</event>
<event>
 4    1  0.3945627E+000  0.2218598E+03  0.7546771E-02  0.1132504E+00
         21   -1    0    0  503  502  0.00000000000E+00  0.00000000000E+00  0.20617792614E+03  0.20617792614E+03  0.00000000000E+00 0. -1.
         21   -1    0    0  501  503 -0.00000000000E+00 -0.00000000000E+00 -0.25535781998E+03  0.25535781998E+03  0.00000000000E+00 0. -1.
          6    1    1    2  501    0 -0.22709737879E+02  0.13702931558E+03  0.34289107414E+02  0.22449389392E+03  0.17300000000E+03 0. -1.
         -6    1    1    2    0  502  0.22709737879E+02 -0.13702931558E+03 -0.83469001258E+02  0.23704185220E+03  0.17300000000E+03 0. -1.
<mgrwt>
<rscale>  2 0.22185979E+03</rscale>
<asrwt>0</asrwt>
<pdfrwt beam="1">  1       21 0.31719681E-01 0.22185979E+03</pdfrwt>
<pdfrwt beam="2">  1       21 0.39285819E-01 0.22185979E+03</pdfrwt>
<totfact> 0.58908281E+04</totfact>
</mgrwt>
</event>
<event>
 4    1  0.3945627E+000  0.1807472E+03  0.7546771E-02  0.1167082E+00
         21   -1    0    0  501  502  0.00000000000E+00  0.00000000000E+00  0.16041670229E+03  0.16041670229E+03  0.00000000000E+00 0. -1.
         21   -1    0    0  502  503 -0.00000000000E+00 -0.00000000000E+00 -0.57204353311E+03  0.57204353311E+03  0.00000000000E+00 0. -1.
          6    1    1    2  501    0  0.50773537202E+01 -0.52103507513E+02  0.88082105108E+02  0.20106718344E+03  0.17300000000E+03 0. -1.
         -6    1    1    2    0  503 -0.50773537202E+01  0.52103507513E+02 -0.49970893594E+03  0.53139305196E+03  0.17300000000E+03 0. -1.
<mgrwt>
<rscale>  2 0.18074721E+03</rscale>
<asrwt>0</asrwt>
<pdfrwt beam="1">  1       21 0.24679493E-01 0.18074721E+03</pdfrwt>
<pdfrwt beam="2">  1       21 0.88006696E-01 0.18074721E+03</pdfrwt>
<totfact> 0.17304269E+04</totfact>
</mgrwt>
</event>
<event>
 4    1  0.3945627E+000  0.2641271E+03  0.7546771E-02  0.1104689E+00
         21   -1    0    0  503  502  0.00000000000E+00  0.00000000000E+00  0.21955206383E+03  0.21955206383E+03  0.00000000000E+00 0. -1.
         21   -1    0    0  501  503 -0.00000000000E+00 -0.00000000000E+00 -0.35890822222E+03  0.35890822222E+03  0.00000000000E+00 0.  1.
          6    1    1    2  501    0  0.16349366914E+03 -0.11447237455E+03 -0.16762023802E+03  0.31282526844E+03  0.17300000000E+03 0.  1.
         -6    1    1    2    0  502 -0.16349366914E+03  0.11447237455E+03  0.28264079627E+02  0.26563501761E+03  0.17300000000E+03 0. -1.
<mgrwt>
<rscale>  2 0.26412706E+03</rscale>
<asrwt>0</asrwt>
<pdfrwt beam="1">  1       21 0.33777241E-01 0.26412706E+03</pdfrwt>
<pdfrwt beam="2">  1       21 0.55216649E-01 0.26412706E+03</pdfrwt>
<totfact> 0.25193064E+04</totfact>
</mgrwt>
</event>
<event>
 4    1  0.3945627E+000  0.2718677E+03  0.7546771E-02  0.1100215E+00
         21   -1    0    0  501  502  0.00000000000E+00  0.00000000000E+00  0.10459224786E+04  0.10459224786E+04  0.00000000000E+00 0. -1.
         21   -1    0    0  502  503 -0.00000000000E+00 -0.00000000000E+00 -0.78072219459E+02  0.78072219459E+02  0.00000000000E+00 0.  1.
          6    1    1    2  501    0 -0.12775005174E+03 -0.16632190653E+03  0.31084021510E+03  0.41295725158E+03  0.17300000000E+03 0.  1.
         -6    1    1    2    0  503  0.12775005174E+03  0.16632190653E+03  0.65701004399E+03  0.71103744643E+03  0.17300000000E+03 0. -1.
<mgrwt>
<rscale>  2 0.27186771E+03</rscale>
<asrwt>0</asrwt>
<pdfrwt beam="1">  1       21 0.16091114E+00 0.27186771E+03</pdfrwt>
<pdfrwt beam="2">  1       21 0.12011111E-01 0.27186771E+03</pdfrwt>
<totfact> 0.13809594E+04</totfact>
</mgrwt>
</event>
<event>
 4    1  0.3945627E+000  0.2752935E+03  0.7546771E-02  0.1098288E+00
         21   -1    0    0  501  502  0.00000000000E+00  0.00000000000E+00  0.74309837590E+03  0.74309837590E+03  0.00000000000E+00 0.  1.
         21   -1    0    0  502  503 -0.00000000000E+00 -0.00000000000E+00 -0.10202006208E+03  0.10202006208E+03  0.00000000000E+00 0. -1.
          6    1    1    2  501    0  0.36584660316E+02 -0.21099540980E+03  0.31295179124E+03  0.41680369956E+03  0.17300000000E+03 0. -1.
         -6    1    1    2    0  503 -0.36584660316E+02  0.21099540980E+03  0.32812652258E+03  0.42831473842E+03  0.17300000000E+03 0.  1.
<mgrwt>
<rscale>  2 0.27529348E+03</rscale>
<asrwt>0</asrwt>
<pdfrwt beam="1">  1       21 0.11432282E+00 0.27529348E+03</pdfrwt>
<pdfrwt beam="2">  1       21 0.15695395E-01 0.27529348E+03</pdfrwt>
<totfact> 0.20537763E+04</totfact>
</mgrwt>
</event>
<event>
 4    1  0.3945627E+000  0.4238565E+03  0.7546771E-02  0.1035818E+00
         21   -1    0    0  503  502  0.00000000000E+00  0.00000000000E+00  0.16009999544E+04  0.16009999544E+04  0.00000000000E+00 0.  1.
         21   -1    0    0  501  503 -0.00000000000E+00 -0.00000000000E+00 -0.20511623692E+03  0.20511623692E+03  0.00000000000E+00 0.  1.
          6    1    1    2  501    0 -0.37020270286E+03  0.11258462647E+03  0.90186006764E+02  0.43334496090E+03  0.17300000000E+03 0.  1.
         -6    1    1    2    0  502  0.37020270286E+03 -0.11258462647E+03  0.13056977107E+04  0.13727712304E+04  0.17300000000E+03 0.  1.
<mgrwt>
<rscale>  2 0.42385651E+03</rscale>
<asrwt>0</asrwt>
<pdfrwt beam="1">  1       21 0.24630768E+00 0.42385651E+03</pdfrwt>
<pdfrwt beam="2">  1       21 0.31556345E-01 0.42385651E+03</pdfrwt>
<totfact> 0.55645879E+02</totfact>
</mgrwt>
</event>
<event>
 4    1  0.3945627E+000  0.1740732E+03  0.7546771E-02  0.1173666E+00
         21   -1    0    0  501  502  0.00000000000E+00  0.00000000000E+00  0.13308926595E+04  0.13308926595E+04  0.00000000000E+00 0. -1.
         21   -1    0    0  502  503 -0.00000000000E+00 -0.00000000000E+00 -0.54061274331E+02  0.54061274331E+02  0.00000000000E+00 0. -1.
          6    1    1    2  501    0 -0.11160387661E+02 -0.15745347384E+02  0.11652684156E+04  0.11781986040E+04  0.17300000000E+03 0. -1.
         -6    1    1    2    0  503  0.11160387661E+02  0.15745347384E+02  0.11156296961E+03  0.20675532981E+03  0.17300000000E+03 0. -1.
<mgrwt>
<rscale>  2 0.17407317E+03</rscale>
<asrwt>0</asrwt>
<pdfrwt beam="1">  1       21 0.20475269E+00 0.17407317E+03</pdfrwt>
<pdfrwt beam="2">  1       21 0.83171201E-02 0.17407317E+03</pdfrwt>
<totfact> 0.14261691E+04</totfact>
</mgrwt>
</event>
<event>
 4    1  0.3945627E+000  0.1804016E+03  0.7546771E-02  0.1167415E+00
         21   -1    0    0  501  502  0.00000000000E+00  0.00000000000E+00  0.87958054466E+02  0.87958054466E+02  0.00000000000E+00 0.  1.
         21   -1    0    0  502  503 -0.00000000000E+00 -0.00000000000E+00 -0.39489763887E+03  0.39489763887E+03  0.00000000000E+00 0.  1.
          6    1    1    2  501    0  0.12162894542E+02 -0.49676891595E+02 -0.92852093875E+02  0.20289465468E+03  0.17300000000E+03 0.  1.
         -6    1    1    2    0  503 -0.12162894542E+02  0.49676891595E+02 -0.21408749053E+03  0.27996103865E+03  0.17300000000E+03 0.  1.
<mgrwt>
<rscale>  2 0.18040158E+03</rscale>
<asrwt>0</asrwt>
<pdfrwt beam="1">  1       21 0.13532008E-01 0.18040158E+03</pdfrwt>
<pdfrwt beam="2">  1       21 0.60753484E-01 0.18040158E+03</pdfrwt>
<totfact> 0.11980583E+05</totfact>
</mgrwt>
</event>
<event>
 4    1  0.3945627E+000  0.1731719E+03  0.7546771E-02  0.1174580E+00
         21   -1    0    0  503  502  0.00000000000E+00  0.00000000000E+00  0.10749875441E+03  0.10749875441E+03  0.00000000000E+00 0. -1.
         21   -1    0    0  501  503 -0.00000000000E+00 -0.00000000000E+00 -0.28455708898E+03  0.28455708898E+03  0.00000000000E+00 0. -1.
          6    1    1    2  501    0  0.16276073803E+01  0.75413787265E+01 -0.61051948567E+02  0.18361879512E+03  0.17300000000E+03 0.  1.
         -6    1    1    2    0  502 -0.16276073803E+01 -0.75413787265E+01 -0.11600638600E+03  0.20843704827E+03  0.17300000000E+03 0.  1.
<mgrwt>
<rscale>  2 0.17317194E+03</rscale>
<asrwt>0</asrwt>
<pdfrwt beam="1">  1       21 0.16538270E-01 0.17317194E+03</pdfrwt>
<pdfrwt beam="2">  1       21 0.43778013E-01 0.17317194E+03</pdfrwt>
<totfact> 0.16554327E+05</totfact>
</mgrwt>
</event>
<event>
 4    1  0.3945627E+000  0.2738028E+03  0.7546771E-02  0.1099123E+00
         21   -1    0    0  503  502  0.00000000000E+00  0.00000000000E+00  0.61613626129E+03  0.61613626129E+03  0.00000000000E+00 0. -1.
         21   -1    0    0  501  503 -0.00000000000E+00 -0.00000000000E+00 -0.19910571944E+03  0.19910571944E+03  0.00000000000E+00 0.  1.
          6    1    1    2  501    0 -0.20712816997E+03  0.46226311691E+02 -0.45683397620E+02  0.27758768615E+03  0.17300000000E+03 0.  1.
         -6    1    1    2    0  502  0.20712816997E+03 -0.46226311691E+02  0.46271393948E+03  0.53765429457E+03  0.17300000000E+03 0. -1.
<mgrwt>
<rscale>  2 0.27380276E+03</rscale>
<asrwt>0</asrwt>
<pdfrwt beam="1">  1       21 0.94790193E-01 0.27380276E+03</pdfrwt>
<pdfrwt beam="2">  1       21 0.30631649E-01 0.27380276E+03</pdfrwt>
<totfact> 0.90640797E+03</totfact>
</mgrwt>
</event>
<event>
 4    1  0.3945627E+000  0.2045479E+03  0.7546771E-02  0.1145958E+00
         21   -1    0    0  501  502  0.00000000000E+00  0.00000000000E+00  0.41989400058E+03  0.41989400058E+03  0.00000000000E+00 0.  1.
         21   -1    0    0  502  503 -0.00000000000E+00 -0.00000000000E+00 -0.12311852026E+03  0.12311852026E+03  0.00000000000E+00 0. -1.
          6    1    1    2  501    0 -0.96579584355E+02 -0.50825440318E+02  0.29833197895E+02  0.20671202479E+03  0.17300000000E+03 0. -1.
         -6    1    1    2    0  503  0.96579584355E+02  0.50825440318E+02  0.26694228242E+03  0.33630049605E+03  0.17300000000E+03 0.  1.
<mgrwt>
<rscale>  2 0.20454790E+03</rscale>
<asrwt>0</asrwt>
<pdfrwt beam="1">  1       21 0.64599076E-01 0.20454790E+03</pdfrwt>
<pdfrwt beam="2">  1       21 0.18941311E-01 0.20454790E+03</pdfrwt>
<totfact> 0.56108857E+04</totfact>
</mgrwt>
</event>
<event>
 4    1  0.3945627E+000  0.1769059E+03  0.7546771E-02  0.1170832E+00
         21   -1    0    0  501  502  0.00000000000E+00  0.00000000000E+00  0.68014755728E+02  0.68014755728E+02  0.00000000000E+00 0. -1.
         21   -1    0    0  502  503 -0.00000000000E+00 -0.00000000000E+00 -0.46583995552E+03  0.46583995552E+03  0.00000000000E+00 0. -1.
          6    1    1    2  501    0  0.65569685084E+01  0.36382566999E+02 -0.16936242441E+03  0.24490674923E+03  0.17300000000E+03 0. -1.
         -6    1    1    2    0  503 -0.65569685084E+01 -0.36382566999E+02 -0.22846277538E+03  0.28894796202E+03  0.17300000000E+03 0. -1.
<mgrwt>
<rscale>  2 0.17690586E+03</rscale>
<asrwt>0</asrwt>
<pdfrwt beam="1">  1       21 0.10463809E-01 0.17690586E+03</pdfrwt>
<pdfrwt beam="2">  1       21 0.71667684E-01 0.17690586E+03</pdfrwt>
<totfact> 0.13246829E+05</totfact>
</mgrwt>
</event>
<event>
 4    1  0.3945627E+000  0.2493506E+03  0.7546771E-02  0.1113716E+00
         21   -1    0    0  503  502  0.00000000000E+00  0.00000000000E+00  0.16268028845E+03  0.16268028845E+03  0.00000000000E+00 0.  1.
         21   -1    0    0  501  503 -0.00000000000E+00 -0.00000000000E+00 -0.96444321307E+03  0.96444321307E+03  0.00000000000E+00 0.  1.
          6    1    1    2  501    0  0.17911006636E+03  0.12896759167E+02 -0.83876328647E+03  0.87504262354E+03  0.17300000000E+03 0.  1.
         -6    1    1    2    0  502 -0.17911006636E+03 -0.12896759167E+02  0.37000361852E+02  0.25208087799E+03  0.17300000000E+03 0.  1.
<mgrwt>
<rscale>  2 0.24935064E+03</rscale>
<asrwt>0</asrwt>
<pdfrwt beam="1">  1       21 0.25027736E-01 0.24935064E+03</pdfrwt>
<pdfrwt beam="2">  1       21 0.14837588E+00 0.24935064E+03</pdfrwt>
<totfact> 0.44506817E+03</totfact>
</mgrwt>
</event>
<event>
 4    1  0.3945627E+000  0.1754308E+03  0.7546771E-02  0.1172300E+00
         21   -1    0    0  503  502  0.00000000000E+00  0.00000000000E+00  0.15349522391E+03  0.15349522391E+03  0.00000000000E+00 0. -1.
         21   -1    0    0  501  503 -0.00000000000E+00 -0.00000000000E+00 -0.48153040988E+03  0.48153040988E+03  0.00000000000E+00 0. -1.
          6    1    1    2  501    0  0.25592427609E+02 -0.13856223716E+02 -0.40658094154E+03  0.44281376369E+03  0.17300000000E+03 0. -1.
         -6    1    1    2    0  502 -0.25592427609E+02  0.13856223716E+02  0.78545755572E+02  0.19221187009E+03  0.17300000000E+03 0. -1.
<mgrwt>
<rscale>  2 0.17543080E+03</rscale>
<asrwt>0</asrwt>
<pdfrwt beam="1">  1       21 0.23614650E-01 0.17543080E+03</pdfrwt>
<pdfrwt beam="2">  1       21 0.74081600E-01 0.17543080E+03</pdfrwt>
<totfact> 0.27859668E+04</totfact>
</mgrwt>
</event>
<event>
 4    1  0.3945627E+000  0.1772979E+03  0.7546771E-02  0.1170444E+00
         21   -1    0    0  503  502  0.00000000000E+00  0.00000000000E+00  0.16875769841E+03  0.16875769841E+03  0.00000000000E+00 0. -1.
         21   -1    0    0  501  503 -0.00000000000E+00 -0.00000000000E+00 -0.19473075995E+03  0.19473075995E+03  0.00000000000E+00 0. -1.
          6    1    1    2  501    0  0.10683168131E+02 -0.37301894516E+02 -0.50868989755E+02  0.18445111963E+03  0.17300000000E+03 0. -1.
         -6    1    1    2    0  502 -0.10683168131E+02  0.37301894516E+02  0.24895928217E+02  0.17903733872E+03  0.17300000000E+03 0. -1.
<mgrwt>
<rscale>  2 0.17729795E+03</rscale>
<asrwt>0</asrwt>
<pdfrwt beam="1">  1       21 0.25962723E-01 0.17729795E+03</pdfrwt>
<pdfrwt beam="2">  1       21 0.29958578E-01 0.17729795E+03</pdfrwt>
<totfact> 0.15130040E+05</totfact>
</mgrwt>
</event>
<event>
 4    1  0.3945627E+000  0.2169561E+03  0.7546771E-02  0.1136173E+00
         21   -1    0    0  501  502  0.00000000000E+00  0.00000000000E+00  0.34162592265E+03  0.34162592265E+03  0.00000000000E+00 0.  1.
         21   -1    0    0  502  503 -0.00000000000E+00 -0.00000000000E+00 -0.18705709388E+03  0.18705709388E+03  0.00000000000E+00 0.  1.
          6    1    1    2  501    0  0.11831146521E+03 -0.56065643381E+02  0.21295674212E+03  0.30400745580E+03  0.17300000000E+03 0.  1.
         -6    1    1    2    0  503 -0.11831146521E+03  0.56065643381E+02 -0.58387913349E+02  0.22467556074E+03  0.17300000000E+03 0.  1.
<mgrwt>
<rscale>  2 0.21695612E+03</rscale>
<asrwt>0</asrwt>
<pdfrwt beam="1">  1       21 0.52557834E-01 0.21695612E+03</pdfrwt>
<pdfrwt beam="2">  1       21 0.28778015E-01 0.21695612E+03</pdfrwt>
<totfact> 0.39173905E+04</totfact>
</mgrwt>
</event>
<event>
 4    1  0.3945627E+000  0.2506938E+03  0.7546771E-02  0.1112867E+00
         21   -1    0    0  501  502  0.00000000000E+00  0.00000000000E+00  0.52223336852E+03  0.52223336852E+03  0.00000000000E+00 0. -1.
         21   -1    0    0  502  503 -0.00000000000E+00 -0.00000000000E+00 -0.13939278892E+03  0.13939278892E+03  0.00000000000E+00 0. -1.
          6    1    1    2  501    0 -0.95661928741E+02  0.15416606309E+03  0.31371344740E+03  0.40157627756E+03  0.17300000000E+03 0.  1.
         -6    1    1    2    0  503  0.95661928741E+02 -0.15416606309E+03  0.69127132202E+02  0.26004987988E+03  0.17300000000E+03 0.  1.
<mgrwt>
<rscale>  2 0.25069380E+03</rscale>
<asrwt>0</asrwt>
<pdfrwt beam="1">  1       21 0.80343594E-01 0.25069380E+03</pdfrwt>
<pdfrwt beam="2">  1       21 0.21445045E-01 0.25069380E+03</pdfrwt>
<totfact> 0.26766734E+04</totfact>
</mgrwt>
</event>
<event>
 4    1  0.3945627E+000  0.1778127E+03  0.7546771E-02  0.1169937E+00
         21   -1    0    0  503  502  0.00000000000E+00  0.00000000000E+00  0.17292905892E+03  0.17292905892E+03  0.00000000000E+00 0. -1.
         21   -1    0    0  501  503 -0.00000000000E+00 -0.00000000000E+00 -0.18838105509E+03  0.18838105509E+03  0.00000000000E+00 0. -1.
          6    1    1    2  501    0  0.39357249724E+02 -0.11805239758E+02  0.23273346427E+02  0.17932932121E+03  0.17300000000E+03 0. -1.
         -6    1    1    2    0  502 -0.39357249724E+02  0.11805239758E+02 -0.38725342598E+02  0.18198079281E+03  0.17300000000E+03 0. -1.
<mgrwt>
<rscale>  2 0.17781270E+03</rscale>
<asrwt>0</asrwt>
<pdfrwt beam="1">  1       21 0.26604471E-01 0.17781270E+03</pdfrwt>
<pdfrwt beam="2">  1       21 0.28981701E-01 0.17781270E+03</pdfrwt>
<totfact> 0.15395792E+05</totfact>
</mgrwt>
</event>
<event>
 4    1  0.3945627E+000  0.1894669E+03  0.7546771E-02  0.1158943E+00
         21   -1    0    0  503  502  0.00000000000E+00  0.00000000000E+00  0.19145426753E+04  0.19145426753E+04  0.00000000000E+00 0.  1.
         21   -1    0    0  501  503 -0.00000000000E+00 -0.00000000000E+00 -0.84458381596E+02  0.84458381596E+02  0.00000000000E+00 0.  1.
          6    1    1    2  501    0  0.50671818529E+02  0.58318562437E+02  0.33441269357E+02  0.19239544281E+03  0.17300000000E+03 0.  1.
         -6    1    1    2    0  502 -0.50671818529E+02 -0.58318562437E+02  0.17966430244E+04  0.18066056141E+04  0.17300000000E+03 0.  1.
<mgrwt>
<rscale>  2 0.18946685E+03</rscale>
<asrwt>0</asrwt>
<pdfrwt beam="1">  1       21 0.29454499E+00 0.18946685E+03</pdfrwt>
<pdfrwt beam="2">  1       21 0.12993599E-01 0.18946685E+03</pdfrwt>
<totfact> 0.18744850E+03</totfact>
</mgrwt>
</event>
<event>
 4    1  0.3945627E+000  0.1825529E+03  0.7546771E-02  0.1165355E+00
         21   -1    0    0  503  502  0.00000000000E+00  0.00000000000E+00  0.64873945193E+02  0.64873945193E+02  0.00000000000E+00 0.  1.
         21   -1    0    0  501  503 -0.00000000000E+00 -0.00000000000E+00 -0.76640151733E+03  0.76640151733E+03  0.00000000000E+00 0.  1.
          6    1    1    2  501    0  0.36404027762E+02  0.45511797883E+02 -0.58943110060E+03  0.61705315763E+03  0.17300000000E+03 0.  1.
         -6    1    1    2    0  502 -0.36404027762E+02 -0.45511797883E+02 -0.11209647154E+03  0.21422230490E+03  0.17300000000E+03 0.  1.
<mgrwt>
<rscale>  2 0.18255294E+03</rscale>
<asrwt>0</asrwt>
<pdfrwt beam="1">  1       21 0.99806064E-02 0.18255294E+03</pdfrwt>
<pdfrwt beam="2">  1       21 0.11790793E+00 0.18255294E+03</pdfrwt>
<totfact> 0.45149859E+04</totfact>
</mgrwt>
</event>
<event>
 4    1  0.3945627E+000  0.1808905E+03  0.7546771E-02  0.1166944E+00
         21   -1    0    0  503  502  0.00000000000E+00  0.00000000000E+00  0.44679279543E+03  0.44679279543E+03  0.00000000000E+00 0. -1.
         21   -1    0    0  501  503 -0.00000000000E+00 -0.00000000000E+00 -0.11162414657E+03  0.11162414657E+03  0.00000000000E+00 0.  1.
          6    1    1    2  501    0 -0.32577049308E+02 -0.41606411238E+02  0.38470432042E+01  0.18093136085E+03  0.17300000000E+03 0.  1.
         -6    1    1    2    0  502  0.32577049308E+02  0.41606411238E+02  0.33132160565E+03  0.37748558114E+03  0.17300000000E+03 0. -1.
<mgrwt>
<rscale>  2 0.18089046E+03</rscale>
<asrwt>0</asrwt>
<pdfrwt beam="1">  1       21 0.68737352E-01 0.18089046E+03</pdfrwt>
<pdfrwt beam="2">  1       21 0.17172946E-01 0.18089046E+03</pdfrwt>
<totfact> 0.59374551E+04</totfact>
</mgrwt>
</event>
<event>
 4    1  0.3945627E+000  0.1907833E+03  0.7546771E-02  0.1157757E+00
         21   -1    0    0  501  502  0.00000000000E+00  0.00000000000E+00  0.50416865969E+03  0.50416865969E+03  0.00000000000E+00 0.  1.
         21   -1    0    0  502  503 -0.00000000000E+00 -0.00000000000E+00 -0.78917097884E+02  0.78917097884E+02  0.00000000000E+00 0. -1.
          6    1    1    2  501    0  0.43932978322E+02 -0.67373411150E+02  0.29771614905E+03  0.35360032313E+03  0.17300000000E+03 0.  1.
         -6    1    1    2    0  503 -0.43932978322E+02  0.67373411150E+02  0.12753541276E+03  0.22948543444E+03  0.17300000000E+03 0. -1.
<mgrwt>
<rscale>  2 0.19078334E+03</rscale>
<asrwt>0</asrwt>
<pdfrwt beam="1">  1       21 0.77564407E-01 0.19078334E+03</pdfrwt>
<pdfrwt beam="2">  1       21 0.12141092E-01 0.19078334E+03</pdfrwt>
<totfact> 0.84808775E+04</totfact>
</mgrwt>
</event>
<event>
 4    1  0.3945627E+000  0.1759740E+03  0.7546771E-02  0.1171757E+00
         21   -1    0    0  503  502  0.00000000000E+00  0.00000000000E+00  0.18011007036E+04  0.18011007036E+04  0.00000000000E+00 0.  1.
         21   -1    0    0  501  503 -0.00000000000E+00 -0.00000000000E+00 -0.22401779700E+02  0.22401779700E+02  0.00000000000E+00 0. -1.
          6    1    1    2  501    0  0.13263466483E+02  0.29358453413E+02  0.44971553357E+03  0.48291914381E+03  0.17300000000E+03 0. -1.
         -6    1    1    2    0  502 -0.13263466483E+02 -0.29358453413E+02  0.13289833904E+04  0.13405833395E+04  0.17300000000E+03 0.  1.
<mgrwt>
<rscale>  2 0.17597397E+03</rscale>
<asrwt>0</asrwt>
<pdfrwt beam="1">  1       21 0.27709230E+00 0.17597397E+03</pdfrwt>
<pdfrwt beam="2">  1       21 0.34464291E-02 0.17597397E+03</pdfrwt>
<totfact> 0.23619740E+04</totfact>
</mgrwt>
</event>
<event>
 4    1  0.3945627E+000  0.3271832E+03  0.7546771E-02  0.1072390E+00
         21   -1    0    0  503  502  0.00000000000E+00  0.00000000000E+00  0.93446147755E+03  0.93446147755E+03  0.00000000000E+00 0. -1.
         21   -1    0    0  501  503 -0.00000000000E+00 -0.00000000000E+00 -0.20494721878E+03  0.20494721878E+03  0.00000000000E+00 0. -1.
          6    1    1    2  501    0  0.27770179161E+03 -0.12514154168E+01 -0.13589515582E+02  0.32746530509E+03  0.17300000000E+03 0. -1.
         -6    1    1    2    0  502 -0.27770179161E+03  0.12514154168E+01  0.74310377436E+03  0.81194339124E+03  0.17300000000E+03 0. -1.
<mgrwt>
<rscale>  2 0.32718321E+03</rscale>
<asrwt>0</asrwt>
<pdfrwt beam="1">  1       21 0.14376330E+00 0.32718321E+03</pdfrwt>
<pdfrwt beam="2">  1       21 0.31530342E-01 0.32718321E+03</pdfrwt>
<totfact> 0.29428505E+03</totfact>
</mgrwt>
</event>
<event>
 4    1  0.3945627E+000  0.1838164E+03  0.7546771E-02  0.1164160E+00
         21   -1    0    0  501  502  0.00000000000E+00  0.00000000000E+00  0.61694089455E+02  0.61694089455E+02  0.00000000000E+00 0.  1.
         21   -1    0    0  502  503 -0.00000000000E+00 -0.00000000000E+00 -0.56013810264E+03  0.56013810264E+03  0.00000000000E+00 0.  1.
          6    1    1    2  501    0 -0.61560247525E+02  0.83556147202E+01 -0.20284948224E+03  0.27374512383E+03  0.17300000000E+03 0.  1.
         -6    1    1    2    0  503  0.61560247525E+02 -0.83556147202E+01 -0.29559453095E+03  0.34808706827E+03  0.17300000000E+03 0.  1.
<mgrwt>
<rscale>  2 0.18381643E+03</rscale>
<asrwt>0</asrwt>
<pdfrwt beam="1">  1       21 0.94913980E-02 0.18381643E+03</pdfrwt>
<pdfrwt beam="2">  1       21 0.86175096E-01 0.18381643E+03</pdfrwt>
<totfact> 0.10366607E+05</totfact>
</mgrwt>
</event>
<event>
 4    1  0.3945627E+000  0.2589920E+03  0.7546771E-02  0.1107750E+00
         21   -1    0    0  501  502  0.00000000000E+00  0.00000000000E+00  0.33799708900E+03  0.33799708900E+03  0.00000000000E+00 0. -1.
         21   -1    0    0  502  503 -0.00000000000E+00 -0.00000000000E+00 -0.23432359447E+03  0.23432359447E+03  0.00000000000E+00 0.  1.
          6    1    1    2  501    0 -0.18162881875E+03  0.64488837837E+02  0.16379737347E+03  0.30644154020E+03  0.17300000000E+03 0. -1.
         -6    1    1    2    0  503  0.18162881875E+03 -0.64488837837E+02 -0.60123878948E+02  0.26587914327E+03  0.17300000000E+03 0.  1.
<mgrwt>
<rscale>  2 0.25899197E+03</rscale>
<asrwt>0</asrwt>
<pdfrwt beam="1">  1       21 0.51999553E-01 0.25899197E+03</pdfrwt>
<pdfrwt beam="2">  1       21 0.36049783E-01 0.25899197E+03</pdfrwt>
<totfact> 0.25181898E+04</totfact>
</mgrwt>
</event>
<event>
 4    1  0.3945627E+000  0.1957479E+03  0.7546771E-02  0.1153377E+00
         21   -1    0    0  503  502  0.00000000000E+00  0.00000000000E+00  0.38520030697E+03  0.38520030697E+03  0.00000000000E+00 0.  1.
         21   -1    0    0  501  503 -0.00000000000E+00 -0.00000000000E+00 -0.10618719116E+03  0.10618719116E+03  0.00000000000E+00 0.  1.
          6    1    1    2  501    0  0.32608755796E+02 -0.85585792445E+02  0.77728295322E+02  0.21061563740E+03  0.17300000000E+03 0.  1.
         -6    1    1    2    0  502 -0.32608755796E+02  0.85585792445E+02  0.20128482048E+03  0.28077186073E+03  0.17300000000E+03 0.  1.
<mgrwt>
<rscale>  2 0.19574795E+03</rscale>
<asrwt>0</asrwt>
<pdfrwt beam="1">  1       21 0.59261585E-01 0.19574795E+03</pdfrwt>
<pdfrwt beam="2">  1       21 0.16336491E-01 0.19574795E+03</pdfrwt>
<totfact> 0.89198109E+04</totfact>
</mgrwt>
</event>
<event>
 4    1  0.3945627E+000  0.2043889E+03  0.7546771E-02  0.1146088E+00
         21   -1    0    0  501  502  0.00000000000E+00  0.00000000000E+00  0.79214574838E+02  0.79214574838E+02  0.00000000000E+00 0.  1.
         21   -1    0    0  502  503 -0.00000000000E+00 -0.00000000000E+00 -0.55874926408E+03  0.55874926408E+03  0.00000000000E+00 0.  1.
          6    1    1    2  501    0 -0.90028154040E+02  0.61161714203E+02 -0.16416618664E+03  0.26215522242E+03  0.17300000000E+03 0.  1.
         -6    1    1    2    0  503  0.90028154040E+02 -0.61161714203E+02 -0.31536850260E+03  0.37580861650E+03  0.17300000000E+03 0.  1.
<mgrwt>
<rscale>  2 0.20438890E+03</rscale>
<asrwt>0</asrwt>
<pdfrwt beam="1">  1       21 0.12186858E-01 0.20438890E+03</pdfrwt>
<pdfrwt beam="2">  1       21 0.85961424E-01 0.20438890E+03</pdfrwt>
<totfact> 0.66291977E+04</totfact>
</mgrwt>
</event>
<event>
 4    1  0.3945627E+000  0.2278907E+03  0.7546771E-02  0.1128133E+00
         21   -1    0    0  501  502  0.00000000000E+00  0.00000000000E+00  0.52753832920E+03  0.52753832920E+03  0.00000000000E+00 0.  1.
         21   -1    0    0  502  503 -0.00000000000E+00 -0.00000000000E+00 -0.20748808448E+03  0.20748808448E+03  0.00000000000E+00 0. -1.
          6    1    1    2  501    0 -0.11265054146E+03  0.96514357173E+02  0.42644888765E+03  0.48352127090E+03  0.17300000000E+03 0. -1.
         -6    1    1    2    0  503  0.11265054146E+03 -0.96514357173E+02 -0.10639864293E+03  0.25150514279E+03  0.17300000000E+03 0. -1.
<mgrwt>
<rscale>  2 0.22789069E+03</rscale>
<asrwt>0</asrwt>
<pdfrwt beam="1">  1       21 0.81159743E-01 0.22789069E+03</pdfrwt>
<pdfrwt beam="2">  1       21 0.31921244E-01 0.22789069E+03</pdfrwt>
<totfact> 0.12285383E+04</totfact>
</mgrwt>
</event>
<event>
 4    1  0.3945627E+000  0.2087105E+03  0.7546771E-02  0.1142591E+00
         21   -1    0    0  501  502  0.00000000000E+00  0.00000000000E+00  0.31894403774E+03  0.31894403774E+03  0.00000000000E+00 0. -1.
         21   -1    0    0  502  503 -0.00000000000E+00 -0.00000000000E+00 -0.56110035630E+03  0.56110035630E+03  0.00000000000E+00 0. -1.
          6    1    1    2  501    0  0.71164363110E+02 -0.92556432965E+02  0.26166345545E+03  0.33470557776E+03  0.17300000000E+03 0. -1.
         -6    1    1    2    0  503 -0.71164363110E+02  0.92556432965E+02 -0.50381977402E+03  0.54533881629E+03  0.17300000000E+03 0. -1.
<mgrwt>
<rscale>  2 0.20871047E+03</rscale>
<asrwt>0</asrwt>
<pdfrwt beam="1">  1       21 0.49068314E-01 0.20871047E+03</pdfrwt>
<pdfrwt beam="2">  1       21 0.86323131E-01 0.20871047E+03</pdfrwt>
<totfact> 0.45255703E+03</totfact>
</mgrwt>
</event>
<event>
 4    1  0.3945627E+000  0.3481838E+03  0.7546771E-02  0.1063363E+00
         21   -1    0    0  503  502  0.00000000000E+00  0.00000000000E+00  0.30873002575E+03  0.30873002575E+03  0.00000000000E+00 0.  1.
         21   -1    0    0  501  503 -0.00000000000E+00 -0.00000000000E+00 -0.39900964542E+03  0.39900964542E+03  0.00000000000E+00 0. -1.
          6    1    1    2  501    0 -0.26912787372E+03  0.13737967033E+03 -0.89711068996E+02  0.35955536727E+03  0.17300000000E+03 0.  1.
         -6    1    1    2    0  502  0.26912787372E+03 -0.13737967033E+03 -0.56855066707E+00  0.34818430390E+03  0.17300000000E+03 0. -1.
<mgrwt>
<rscale>  2 0.34818384E+03</rscale>
<asrwt>0</asrwt>
<pdfrwt beam="1">  1       21 0.47496927E-01 0.34818384E+03</pdfrwt>
<pdfrwt beam="2">  1       21 0.61386099E-01 0.34818384E+03</pdfrwt>
<totfact> 0.96472246E+03</totfact>
</mgrwt>
</event>
<event>
 4    1  0.3945627E+000  0.2224021E+03  0.7546771E-02  0.1132105E+00
         21   -1    0    0  501  502  0.00000000000E+00  0.00000000000E+00  0.26749886450E+04  0.26749886450E+04  0.00000000000E+00 0. -1.
         21   -1    0    0  502  503 -0.00000000000E+00 -0.00000000000E+00 -0.54426943831E+02  0.54426943831E+02  0.00000000000E+00 0.  1.
          6    1    1    2  501    0 -0.47154044681E+02  0.13156822578E+03  0.24191961735E+04  0.24293976266E+04  0.17300000000E+03 0. -1.
         -6    1    1    2    0  503  0.47154044681E+02 -0.13156822578E+03  0.20136552768E+03  0.30001796230E+03  0.17300000000E+03 0.  1.
<mgrwt>
<rscale>  2 0.22240212E+03</rscale>
<asrwt>0</asrwt>
<pdfrwt beam="1">  1       21 0.41153661E+00 0.22240212E+03</pdfrwt>
<pdfrwt beam="2">  1       21 0.83733781E-02 0.22240212E+03</pdfrwt>
<totfact> 0.78224689E+02</totfact>
</mgrwt>
</event>
<event>
 4    1  0.3945627E+000  0.2350602E+03  0.7546771E-02  0.1123128E+00
         21   -1    0    0  501  502  0.00000000000E+00  0.00000000000E+00  0.29170712453E+04  0.29170712453E+04  0.00000000000E+00 0. -1.
         21   -1    0    0  502  503 -0.00000000000E+00 -0.00000000000E+00 -0.23921884641E+02  0.23921884641E+02  0.00000000000E+00 0.  1.
          6    1    1    2  501    0  0.15758157292E+03 -0.22188366661E+02  0.21175463399E+04  0.21305529276E+04  0.17300000000E+03 0. -1.
         -6    1    1    2    0  503 -0.15758157292E+03  0.22188366661E+02  0.77560302078E+03  0.81044020235E+03  0.17300000000E+03 0.  1.
<mgrwt>
<rscale>  2 0.23506015E+03</rscale>
<asrwt>0</asrwt>
<pdfrwt beam="1">  1       21 0.44877991E+00 0.23506015E+03</pdfrwt>
<pdfrwt beam="2">  1       21 0.36802923E-02 0.23506015E+03</pdfrwt>
<totfact> 0.18000844E+03</totfact>
</mgrwt>
</event>
<event>
 4    1  0.3945627E+000  0.1786518E+03  0.7546771E-02  0.1169114E+00
         21   -1    0    0  503  502  0.00000000000E+00  0.00000000000E+00  0.31754070709E+02  0.31754070709E+02  0.00000000000E+00 0.  1.
         21   -1    0    0  501  503 -0.00000000000E+00 -0.00000000000E+00 -0.27878214400E+04  0.27878214400E+04  0.00000000000E+00 0. -1.
          6    1    1    2  501    0 -0.40988071374E+02  0.17534541208E+02 -0.25053900333E+04  0.25117515206E+04  0.17300000000E+03 0. -1.
         -6    1    1    2    0  502  0.40988071374E+02 -0.17534541208E+02 -0.25067733604E+03  0.30782399019E+03  0.17300000000E+03 0.  1.
<mgrwt>
<rscale>  2 0.17865185E+03</rscale>
<asrwt>0</asrwt>
<pdfrwt beam="1">  1       21 0.48852389E-02 0.17865185E+03</pdfrwt>
<pdfrwt beam="2">  1       21 0.42889585E+00 0.17865185E+03</pdfrwt>
<totfact> 0.16357372E+03</totfact>
</mgrwt>
</event>
<event>
 4    1  0.3945627E+000  0.1814872E+03  0.7546771E-02  0.1166371E+00
         21   -1    0    0  503  502  0.00000000000E+00  0.00000000000E+00  0.18960832707E+03  0.18960832707E+03  0.00000000000E+00 0.  1.
         21   -1    0    0  501  503 -0.00000000000E+00 -0.00000000000E+00 -0.26122157947E+03  0.26122157947E+03  0.00000000000E+00 0.  1.
          6    1    1    2  501    0  0.74545008277E+00  0.54845562177E+02 -0.16627384932E+03  0.24613935962E+03  0.17300000000E+03 0.  1.
         -6    1    1    2    0  502 -0.74545008277E+00 -0.54845562177E+02  0.94660596924E+02  0.20469054691E+03  0.17300000000E+03 0.  1.
<mgrwt>
<rscale>  2 0.18148717E+03</rscale>
<asrwt>0</asrwt>
<pdfrwt beam="1">  1       21 0.29170512E-01 0.18148717E+03</pdfrwt>
<pdfrwt beam="2">  1       21 0.40187935E-01 0.18148717E+03</pdfrwt>
<totfact> 0.67469708E+04</totfact>
</mgrwt>
</event>
<event>
 4    1  0.3945627E+000  0.1983485E+03  0.7546771E-02  0.1151140E+00
         21   -1    0    0  503  502  0.00000000000E+00  0.00000000000E+00  0.45575285669E+03  0.45575285669E+03  0.00000000000E+00 0.  1.
         21   -1    0    0  501  503 -0.00000000000E+00 -0.00000000000E+00 -0.98326757122E+02  0.98326757122E+02  0.00000000000E+00 0.  1.
          6    1    1    2  501    0 -0.21563548820E+02 -0.94594516239E+02  0.81916750528E+02  0.21459837641E+03  0.17300000000E+03 0.  1.
         -6    1    1    2    0  502  0.21563548820E+02  0.94594516239E+02  0.27550934904E+03  0.33948123740E+03  0.17300000000E+03 0.  1.
<mgrwt>
<rscale>  2 0.19834845E+03</rscale>
<asrwt>0</asrwt>
<pdfrwt beam="1">  1       21 0.70115823E-01 0.19834845E+03</pdfrwt>
<pdfrwt beam="2">  1       21 0.15127194E-01 0.19834845E+03</pdfrwt>
<totfact> 0.71133361E+04</totfact>
</mgrwt>
</event>
<event>
 4    1  0.3945627E+000  0.3462462E+03  0.7546771E-02  0.1064166E+00
         21   -1    0    0  501  502  0.00000000000E+00  0.00000000000E+00  0.66147844380E+03  0.66147844380E+03  0.00000000000E+00 0.  1.
         21   -1    0    0  502  503 -0.00000000000E+00 -0.00000000000E+00 -0.24540024825E+03  0.24540024825E+03  0.00000000000E+00 0. -1.
          6    1    1    2  501    0 -0.29925315516E+03  0.20124742766E+02  0.43989288496E+03  0.55981443924E+03  0.17300000000E+03 0.  1.
         -6    1    1    2    0  503  0.29925315516E+03 -0.20124742766E+02 -0.23814689410E+02  0.34706425281E+03  0.17300000000E+03 0. -1.
<mgrwt>
<rscale>  2 0.34624624E+03</rscale>
<asrwt>0</asrwt>
<pdfrwt beam="1">  1       21 0.10176591E+00 0.34624624E+03</pdfrwt>
<pdfrwt beam="2">  1       21 0.37753885E-01 0.34624624E+03</pdfrwt>
<totfact> 0.48625253E+03</totfact>
</mgrwt>
</event>
<event>
 4    1  0.3945627E+000  0.2388795E+03  0.7546771E-02  0.1120542E+00
         21   -1    0    0  501  502  0.00000000000E+00  0.00000000000E+00  0.47584214562E+03  0.47584214562E+03  0.00000000000E+00 0.  1.
         21   -1    0    0  502  503 -0.00000000000E+00 -0.00000000000E+00 -0.12057318597E+03  0.12057318597E+03  0.00000000000E+00 0. -1.
          6    1    1    2  501    0  0.15632368891E+03  0.51935798273E+02  0.19956804907E+03  0.31127291733E+03  0.17300000000E+03 0.  1.
         -6    1    1    2    0  503 -0.15632368891E+03 -0.51935798273E+02  0.15570091058E+03  0.28514241426E+03  0.17300000000E+03 0. -1.
<mgrwt>
<rscale>  2 0.23887952E+03</rscale>
<asrwt>0</asrwt>
<pdfrwt beam="1">  1       21 0.73206483E-01 0.23887952E+03</pdfrwt>
<pdfrwt beam="2">  1       21 0.18549721E-01 0.23887952E+03</pdfrwt>
<totfact> 0.43585192E+04</totfact>
</mgrwt>
</event>
<event>
 4    1  0.3945627E+000  0.2042581E+03  0.7546771E-02  0.1146195E+00
         21   -1    0    0  503  502  0.00000000000E+00  0.00000000000E+00  0.25438966932E+03  0.25438966932E+03  0.00000000000E+00 0.  1.
         21   -1    0    0  501  503 -0.00000000000E+00 -0.00000000000E+00 -0.16433801141E+03  0.16433801141E+03  0.00000000000E+00 0.  1.
          6    1    1    2  501    0  0.77139152044E+02 -0.76432488651E+02  0.35612174515E+02  0.20733933798E+03  0.17300000000E+03 0.  1.
         -6    1    1    2    0  502 -0.77139152044E+02  0.76432488651E+02  0.54439483401E+02  0.21138834275E+03  0.17300000000E+03 0.  1.
<mgrwt>
<rscale>  2 0.20425811E+03</rscale>
<asrwt>0</asrwt>
<pdfrwt beam="1">  1       21 0.39136872E-01 0.20425811E+03</pdfrwt>
<pdfrwt beam="2">  1       21 0.25282771E-01 0.20425811E+03</pdfrwt>
<totfact> 0.92869894E+04</totfact>
</mgrwt>
</event>
<event>
 4    1  0.3945627E+000  0.1904733E+03  0.7546771E-02  0.1158035E+00
         21   -1    0    0  503  502  0.00000000000E+00  0.00000000000E+00  0.45752322187E+02  0.45752322187E+02  0.00000000000E+00 0.  1.
         21   -1    0    0  501  503 -0.00000000000E+00 -0.00000000000E+00 -0.14093169340E+04  0.14093169340E+04  0.00000000000E+00 0.  1.
          6    1    1    2  501    0  0.30439505295E+02 -0.73651385986E+02 -0.11629128689E+04  0.11784084312E+04  0.17300000000E+03 0.  1.
         -6    1    1    2    0  502 -0.30439505295E+02  0.73651385986E+02 -0.20065174297E+03  0.27666082501E+03  0.17300000000E+03 0.  1.
<mgrwt>
<rscale>  2 0.19047333E+03</rscale>
<asrwt>0</asrwt>
<pdfrwt beam="1">  1       21 0.70388197E-02 0.19047333E+03</pdfrwt>
<pdfrwt beam="2">  1       21 0.21681796E+00 0.19047333E+03</pdfrwt>
<totfact> 0.15796364E+04</totfact>
</mgrwt>
</event>
<event>
 4    1  0.3945627E+000  0.2031435E+03  0.7546771E-02  0.1147114E+00
         21   -1    0    0  503  502  0.00000000000E+00  0.00000000000E+00  0.10070321832E+03  0.10070321832E+03  0.00000000000E+00 0.  1.
         21   -1    0    0  501  503 -0.00000000000E+00 -0.00000000000E+00 -0.41284604039E+03  0.41284604039E+03  0.00000000000E+00 0. -1.
          6    1    1    2  501    0 -0.86910903227E+02  0.61520436834E+02 -0.17816004464E+03  0.27020042701E+03  0.17300000000E+03 0. -1.
         -6    1    1    2    0  502  0.86910903227E+02 -0.61520436834E+02 -0.13398277743E+03  0.24334883171E+03  0.17300000000E+03 0.  1.
<mgrwt>
<rscale>  2 0.20314347E+03</rscale>
<asrwt>0</asrwt>
<pdfrwt beam="1">  1       21 0.15492803E-01 0.20314347E+03</pdfrwt>
<pdfrwt beam="2">  1       21 0.63514776E-01 0.20314347E+03</pdfrwt>
<totfact> 0.84372965E+04</totfact>
</mgrwt>
</event>
<event>
 4    1  0.3945627E+000  0.2220604E+03  0.7546771E-02  0.1132356E+00
         21   -1    0    0  501  502  0.00000000000E+00  0.00000000000E+00  0.58880036848E+02  0.58880036848E+02  0.00000000000E+00 0. -1.
         21   -1    0    0  502  503 -0.00000000000E+00 -0.00000000000E+00 -0.88197909235E+03  0.88197909235E+03  0.00000000000E+00 0. -1.
          6    1    1    2  501    0 -0.22265360843E+02  0.13742659478E+03 -0.30588135703E+03  0.37798706304E+03  0.17300000000E+03 0. -1.
         -6    1    1    2    0  503  0.22265360843E+02 -0.13742659478E+03 -0.51721769848E+03  0.56287206617E+03  0.17300000000E+03 0. -1.
<mgrwt>
<rscale>  2 0.22206039E+03</rscale>
<asrwt>0</asrwt>
<pdfrwt beam="1">  1       21 0.90584674E-02 0.22206039E+03</pdfrwt>
<pdfrwt beam="2">  1       21 0.13568909E+00 0.22206039E+03</pdfrwt>
<totfact> 0.36834299E+04</totfact>
</mgrwt>
</event>
<event>
 4    1  0.3945627E+000  0.1898632E+03  0.7546771E-02  0.1158585E+00
         21   -1    0    0  501  502  0.00000000000E+00  0.00000000000E+00  0.80434234159E+02  0.80434234159E+02  0.00000000000E+00 0.  1.
         21   -1    0    0  502  503 -0.00000000000E+00 -0.00000000000E+00 -0.50857867061E+03  0.50857867061E+03  0.00000000000E+00 0.  1.
          6    1    1    2  501    0  0.22835922050E+02 -0.74816798659E+02 -0.11257051304E+03  0.22072642140E+03  0.17300000000E+03 0. -1.
         -6    1    1    2    0  503 -0.22835922050E+02  0.74816798659E+02 -0.31557392341E+03  0.36828648337E+03  0.17300000000E+03 0. -1.
<mgrwt>
<rscale>  2 0.18986319E+03</rscale>
<asrwt>0</asrwt>
<pdfrwt beam="1">  1       21 0.12374497E-01 0.18986319E+03</pdfrwt>
<pdfrwt beam="2">  1       21 0.78242873E-01 0.18986319E+03</pdfrwt>
<totfact> 0.80405636E+04</totfact>
</mgrwt>
</event>
<event>
 4    1  0.3945627E+000  0.1833596E+03  0.7546771E-02  0.1164591E+00
         21   -1    0    0  501  502  0.00000000000E+00  0.00000000000E+00  0.17124068812E+03  0.17124068812E+03  0.00000000000E+00 0. -1.
         21   -1    0    0  502  503 -0.00000000000E+00 -0.00000000000E+00 -0.19633878404E+03  0.19633878404E+03  0.00000000000E+00 0. -1.
          6    1    1    2  501    0  0.57336883967E+02  0.20105338874E+02 -0.11879976141E+02  0.18374405228E+03  0.17300000000E+03 0. -1.
         -6    1    1    2    0  503 -0.57336883967E+02 -0.20105338874E+02 -0.13218119780E+02  0.18383541989E+03  0.17300000000E+03 0. -1.
<mgrwt>
<rscale>  2 0.18335960E+03</rscale>
<asrwt>0</asrwt>
<pdfrwt beam="1">  1       21 0.26344721E-01 0.18335960E+03</pdfrwt>
<pdfrwt beam="2">  1       21 0.30205967E-01 0.18335960E+03</pdfrwt>
<totfact> 0.14450376E+05</totfact>
</mgrwt>
</event>
<event>
 4    1  0.3945627E+000  0.1881803E+03  0.7546771E-02  0.1160113E+00
         21   -1    0    0  503  502  0.00000000000E+00  0.00000000000E+00  0.14521741883E+03  0.14521741883E+03  0.00000000000E+00 0.  1.
         21   -1    0    0  501  503 -0.00000000000E+00 -0.00000000000E+00 -0.24623628253E+03  0.24623628253E+03  0.00000000000E+00 0. -1.
          6    1    1    2  501    0  0.42505642051E+02 -0.60630718748E+02 -0.69762185498E+02  0.20069523210E+03  0.17300000000E+03 0. -1.
         -6    1    1    2    0  502 -0.42505642051E+02  0.60630718748E+02 -0.31256678205E+02  0.19075846926E+03  0.17300000000E+03 0.  1.
<mgrwt>
<rscale>  2 0.18818027E+03</rscale>
<asrwt>0</asrwt>
<pdfrwt beam="1">  1       21 0.22341141E-01 0.18818027E+03</pdfrwt>
<pdfrwt beam="2">  1       21 0.37882505E-01 0.18818027E+03</pdfrwt>
<totfact> 0.12620518E+05</totfact>
</mgrwt>
</event>
<event>
 4    1  0.3945627E+000  0.2133477E+03  0.7546771E-02  0.1138942E+00
         21   -1    0    0  503  502  0.00000000000E+00  0.00000000000E+00  0.28546443662E+03  0.28546443662E+03  0.00000000000E+00 0. -1.
         21   -1    0    0  501  503 -0.00000000000E+00 -0.00000000000E+00 -0.16224540750E+03  0.16224540750E+03  0.00000000000E+00 0.  1.
          6    1    1    2  501    0  0.10562430004E+03 -0.66571533038E+02  0.32225264604E+02  0.21576776740E+03  0.17300000000E+03 0.  1.
         -6    1    1    2    0  502 -0.10562430004E+03  0.66571533038E+02  0.90993764525E+02  0.23194207672E+03  0.17300000000E+03 0.  1.
<mgrwt>
<rscale>  2 0.21334775E+03</rscale>
<asrwt>0</asrwt>
<pdfrwt beam="1">  1       21 0.43917606E-01 0.21334775E+03</pdfrwt>
<pdfrwt beam="2">  1       21 0.24960832E-01 0.21334775E+03</pdfrwt>
<totfact> 0.75001501E+04</totfact>
</mgrwt>
</event>
<event>
 4    1  0.3945627E+000  0.2264024E+03  0.7546771E-02  0.1129198E+00
         21   -1    0    0  501  502  0.00000000000E+00  0.00000000000E+00  0.16740961282E+02  0.16740961282E+02  0.00000000000E+00 0.  1.
         21   -1    0    0  502  503 -0.00000000000E+00 -0.00000000000E+00 -0.32685840664E+04  0.32685840664E+04  0.00000000000E+00 0.  1.
          6    1    1    2  501    0  0.65745121972E+02 -0.13040950900E+03 -0.12127881587E+04  0.12337395102E+04  0.17300000000E+03 0.  1.
         -6    1    1    2    0  503 -0.65745121972E+02  0.13040950900E+03 -0.20390549464E+04  0.20515855175E+04  0.17300000000E+03 0.  1.
<mgrwt>
<rscale>  2 0.22640243E+03</rscale>
<asrwt>0</asrwt>
<pdfrwt beam="1">  1       21 0.25755334E-02 0.22640243E+03</pdfrwt>
<pdfrwt beam="2">  1       21 0.50285891E+00 0.22640243E+03</pdfrwt>
<totfact> 0.14007669E+03</totfact>
</mgrwt>
</event>
<event>
 4    1  0.3945627E+000  0.1986234E+03  0.7546771E-02  0.1150906E+00
         21   -1    0    0  501  502  0.00000000000E+00  0.00000000000E+00  0.11931611629E+03  0.11931611629E+03  0.00000000000E+00 0.  1.
         21   -1    0    0  502  503 -0.00000000000E+00 -0.00000000000E+00 -0.41023058104E+03  0.41023058104E+03  0.00000000000E+00 0. -1.
          6    1    1    2  501    0  0.91656454892E+02  0.33486327824E+02 -0.26207864639E+03  0.32884108132E+03  0.17300000000E+03 0. -1.
         -6    1    1    2    0  503 -0.91656454892E+02 -0.33486327824E+02 -0.28835818372E+02  0.20070561600E+03  0.17300000000E+03 0.  1.
<mgrwt>
<rscale>  2 0.19862336E+03</rscale>
<asrwt>0</asrwt>
<pdfrwt beam="1">  1       21 0.18356325E-01 0.19862336E+03</pdfrwt>
<pdfrwt beam="2">  1       21 0.63112398E-01 0.19862336E+03</pdfrwt>
<totfact> 0.62735600E+04</totfact>
</mgrwt>
</event>
<event>
 4    1  0.3945627E+000  0.2067971E+03  0.7546771E-02  0.1144128E+00
         21   -1    0    0  503  502  0.00000000000E+00  0.00000000000E+00  0.28930021729E+03  0.28930021729E+03  0.00000000000E+00 0.  1.
         21   -1    0    0  501  503 -0.00000000000E+00 -0.00000000000E+00 -0.34301811077E+03  0.34301811077E+03  0.00000000000E+00 0. -1.
          6    1    1    2  501    0 -0.31226025583E+02 -0.10890807159E+03 -0.26535569393E+03  0.33642038736E+03  0.17300000000E+03 0. -1.
         -6    1    1    2    0  502  0.31226025583E+02  0.10890807159E+03  0.21163780045E+03  0.29589794070E+03  0.17300000000E+03 0.  1.
<mgrwt>
<rscale>  2 0.20679708E+03</rscale>
<asrwt>0</asrwt>
<pdfrwt beam="1">  1       21 0.44507726E-01 0.20679708E+03</pdfrwt>
<pdfrwt beam="2">  1       21 0.52772017E-01 0.20679708E+03</pdfrwt>
<totfact> 0.16350999E+04</totfact>
</mgrwt>
</event>
<event>
 4    1  0.3945627E+000  0.1851859E+03  0.7546771E-02  0.1162876E+00
         21   -1    0    0  501  502  0.00000000000E+00  0.00000000000E+00  0.40082854540E+03  0.40082854540E+03  0.00000000000E+00 0.  1.
         21   -1    0    0  502  503 -0.00000000000E+00 -0.00000000000E+00 -0.85737730767E+02  0.85737730767E+02  0.00000000000E+00 0.  1.
          6    1    1    2  501    0  0.28522829896E+02  0.59592649291E+02  0.14638709465E+03  0.23605723280E+03  0.17300000000E+03 0. -1.
         -6    1    1    2    0  503 -0.28522829896E+02 -0.59592649291E+02  0.16870371998E+03  0.25050904337E+03  0.17300000000E+03 0. -1.
<mgrwt>
<rscale>  2 0.18518595E+03</rscale>
<asrwt>0</asrwt>
<pdfrwt beam="1">  1       21 0.61665929E-01 0.18518595E+03</pdfrwt>
<pdfrwt beam="2">  1       21 0.13190420E-01 0.18518595E+03</pdfrwt>
<totfact> 0.12128623E+05</totfact>
</mgrwt>
</event>
<event>
 4    1  0.3945627E+000  0.1983152E+03  0.7546771E-02  0.1151168E+00
         21   -1    0    0  501  502  0.00000000000E+00  0.00000000000E+00  0.13519606589E+04  0.13519606589E+04  0.00000000000E+00 0.  1.
         21   -1    0    0  502  503 -0.00000000000E+00 -0.00000000000E+00 -0.30680581291E+02  0.30680581291E+02  0.00000000000E+00 0. -1.
          6    1    1    2  501    0 -0.27137399069E+02  0.93077808303E+02  0.81803366846E+03  0.84172917233E+03  0.17300000000E+03 0.  1.
         -6    1    1    2    0  503  0.27137399069E+02 -0.93077808303E+02  0.50324640910E+03  0.54091206781E+03  0.17300000000E+03 0. -1.
<mgrwt>
<rscale>  2 0.19831520E+03</rscale>
<asrwt>0</asrwt>
<pdfrwt beam="1">  1       21 0.20799390E+00 0.19831520E+03</pdfrwt>
<pdfrwt beam="2">  1       21 0.47200905E-02 0.19831520E+03</pdfrwt>
<totfact> 0.35280718E+04</totfact>
</mgrwt>
</event>
<event>
 4    1  0.3945627E+000  0.1949719E+03  0.7546771E-02  0.1154052E+00
         21   -1    0    0  501  502  0.00000000000E+00  0.00000000000E+00  0.13538090580E+04  0.13538090580E+04  0.00000000000E+00 0.  1.
         21   -1    0    0  502  503 -0.00000000000E+00 -0.00000000000E+00 -0.29194059036E+02  0.29194059036E+02  0.00000000000E+00 0.  1.
          6    1    1    2  501    0 -0.76119419749E+02  0.47863243017E+02  0.79743068930E+03  0.82092006939E+03  0.17300000000E+03 0.  1.
         -6    1    1    2    0  503  0.76119419749E+02 -0.47863243017E+02  0.52718430971E+03  0.56208304769E+03  0.17300000000E+03 0.  1.
<mgrwt>
<rscale>  2 0.19497194E+03</rscale>
<asrwt>0</asrwt>
<pdfrwt beam="1">  1       21 0.20827827E+00 0.19497194E+03</pdfrwt>
<pdfrwt beam="2">  1       21 0.44913948E-02 0.19497194E+03</pdfrwt>
<totfact> 0.38301518E+04</totfact>
</mgrwt>
</event>
<event>
 4    1  0.3945627E+000  0.1889321E+03  0.7546771E-02  0.1159428E+00
         21   -1    0    0  501  502  0.00000000000E+00  0.00000000000E+00  0.46351375148E+02  0.46351375148E+02  0.00000000000E+00 0.  1.
         21   -1    0    0  502  503 -0.00000000000E+00 -0.00000000000E+00 -0.77649955493E+03  0.77649955493E+03  0.00000000000E+00 0.  1.
          6    1    1    2  501    0  0.72311692992E+02 -0.23180665716E+02 -0.32773187181E+03  0.37829023779E+03  0.17300000000E+03 0.  1.
         -6    1    1    2    0  503 -0.72311692992E+02  0.23180665716E+02 -0.40241630797E+03  0.44456069229E+03  0.17300000000E+03 0.  1.
<mgrwt>
<rscale>  2 0.18893206E+03</rscale>
<asrwt>0</asrwt>
<pdfrwt beam="1">  1       21 0.71309805E-02 0.18893206E+03</pdfrwt>
<pdfrwt beam="2">  1       21 0.11946147E+00 0.18893206E+03</pdfrwt>
<totfact> 0.78367226E+04</totfact>
</mgrwt>
</event>
<event>
 4    1  0.3945627E+000  0.2143745E+03  0.7546771E-02  0.1138148E+00
         21   -1    0    0  501  502  0.00000000000E+00  0.00000000000E+00  0.13838180435E+04  0.13838180435E+04  0.00000000000E+00 0. -1.
         21   -1    0    0  502  503 -0.00000000000E+00 -0.00000000000E+00 -0.41770252673E+02  0.41770252673E+02  0.00000000000E+00 0. -1.
          6    1    1    2  501    0  0.34151790666E+02 -0.12190606653E+03  0.99370747127E+03  0.10165682330E+04  0.17300000000E+03 0. -1.
         -6    1    1    2    0  503 -0.34151790666E+02  0.12190606653E+03  0.34834031960E+03  0.40902006322E+03  0.17300000000E+03 0. -1.
<mgrwt>
<rscale>  2 0.21437452E+03</rscale>
<asrwt>0</asrwt>
<pdfrwt beam="1">  1       21 0.21289505E+00 0.21437452E+03</pdfrwt>
<pdfrwt beam="2">  1       21 0.64261938E-02 0.21437452E+03</pdfrwt>
<totfact> 0.19186172E+04</totfact>
</mgrwt>
</event>
<event>
 4    1  0.3945627E+000  0.2929705E+03  0.7546771E-02  0.1088808E+00
         21   -1    0    0  501  502  0.00000000000E+00  0.00000000000E+00  0.31327126970E+03  0.31327126970E+03  0.00000000000E+00 0. -1.
         21   -1    0    0  502  503 -0.00000000000E+00 -0.00000000000E+00 -0.43353412812E+03  0.43353412812E+03  0.00000000000E+00 0.  1.
          6    1    1    2  501    0 -0.13093463287E+03  0.19687266667E+03  0.16639172851E+03  0.33692422336E+03  0.17300000000E+03 0. -1.
         -6    1    1    2    0  503  0.13093463287E+03 -0.19687266667E+03 -0.28665458694E+03  0.40988117446E+03  0.17300000000E+03 0.  1.
<mgrwt>
<rscale>  2 0.29297052E+03</rscale>
<asrwt>0</asrwt>
<pdfrwt beam="1">  1       21 0.48195580E-01 0.29297052E+03</pdfrwt>
<pdfrwt beam="2">  1       21 0.66697558E-01 0.29297052E+03</pdfrwt>
<totfact> 0.79842415E+03</totfact>
</mgrwt>
</event>
<event>
 4    1  0.3945627E+000  0.2957803E+03  0.7546771E-02  0.1087369E+00
         21   -1    0    0  501  502  0.00000000000E+00  0.00000000000E+00  0.21560376580E+03  0.21560376580E+03  0.00000000000E+00 0. -1.
         21   -1    0    0  502  503 -0.00000000000E+00 -0.00000000000E+00 -0.40912249126E+03  0.40912249126E+03  0.00000000000E+00 0.  1.
          6    1    1    2  501    0 -0.65748353534E+02 -0.23072524974E+03 -0.12502655288E+03  0.32111933263E+03  0.17300000000E+03 0. -1.
         -6    1    1    2    0  503  0.65748353534E+02  0.23072524974E+03 -0.68492172577E+02  0.30360692443E+03  0.17300000000E+03 0.  1.
<mgrwt>
<rscale>  2 0.29578030E+03</rscale>
<asrwt>0</asrwt>
<pdfrwt beam="1">  1       21 0.33169810E-01 0.29578030E+03</pdfrwt>
<pdfrwt beam="2">  1       21 0.62941922E-01 0.29578030E+03</pdfrwt>
<totfact> 0.19422924E+04</totfact>
</mgrwt>
</event>
<event>
 4    1  0.3945627E+000  0.2421693E+03  0.7546771E-02  0.1118356E+00
         21   -1    0    0  503  502  0.00000000000E+00  0.00000000000E+00  0.10838467293E+04  0.10838467293E+04  0.00000000000E+00 0.  1.
         21   -1    0    0  501  503 -0.00000000000E+00 -0.00000000000E+00 -0.69177922361E+02  0.69177922361E+02  0.00000000000E+00 0. -1.
          6    1    1    2  501    0  0.16145393540E+03 -0.51474162391E+02  0.23826481896E+03  0.33972943147E+03  0.17300000000E+03 0.  1.
         -6    1    1    2    0  502 -0.16145393540E+03  0.51474162391E+02  0.77640398799E+03  0.81329522021E+03  0.17300000000E+03 0.  1.
<mgrwt>
<rscale>  2 0.24216929E+03</rscale>
<asrwt>0</asrwt>
<pdfrwt beam="1">  1       21 0.16674564E+00 0.24216929E+03</pdfrwt>
<pdfrwt beam="2">  1       21 0.10642758E-01 0.24216929E+03</pdfrwt>
<totfact> 0.15817655E+04</totfact>
</mgrwt>
</event>
<event>
 4    1  0.3945627E+000  0.1852218E+03  0.7546771E-02  0.1162843E+00
         21   -1    0    0  501  502  0.00000000000E+00  0.00000000000E+00  0.16286468747E+03  0.16286468747E+03  0.00000000000E+00 0.  1.
         21   -1    0    0  502  503 -0.00000000000E+00 -0.00000000000E+00 -0.22014968427E+03  0.22014968427E+03  0.00000000000E+00 0. -1.
          6    1    1    2  501    0  0.56996089145E+02  0.33608669579E+02  0.11143447124E+02  0.18555665782E+03  0.17300000000E+03 0. -1.
         -6    1    1    2    0  503 -0.56996089145E+02 -0.33608669579E+02 -0.68428443922E+02  0.19745771392E+03  0.17300000000E+03 0.  1.
<mgrwt>
<rscale>  2 0.18522175E+03</rscale>
<asrwt>0</asrwt>
<pdfrwt beam="1">  1       21 0.25056106E-01 0.18522175E+03</pdfrwt>
<pdfrwt beam="2">  1       21 0.33869182E-01 0.18522175E+03</pdfrwt>
<totfact> 0.12698711E+05</totfact>
</mgrwt>
</event>
<event>
 4    1  0.3945627E+000  0.1772470E+03  0.7546771E-02  0.1170494E+00
         21   -1    0    0  503  502  0.00000000000E+00  0.00000000000E+00  0.18757146919E+03  0.18757146919E+03  0.00000000000E+00 0.  1.
         21   -1    0    0  501  503 -0.00000000000E+00 -0.00000000000E+00 -0.21337193809E+03  0.21337193809E+03  0.00000000000E+00 0.  1.
          6    1    1    2  501    0 -0.38549344494E+02  0.12053888404E+01 -0.10586134035E+03  0.20645369530E+03  0.17300000000E+03 0.  1.
         -6    1    1    2    0  502  0.38549344494E+02 -0.12053888404E+01  0.80060871454E+02  0.19448971197E+03  0.17300000000E+03 0.  1.
<mgrwt>
<rscale>  2 0.17724702E+03</rscale>
<asrwt>0</asrwt>
<pdfrwt beam="1">  1       21 0.28857149E-01 0.17724702E+03</pdfrwt>
<pdfrwt beam="2">  1       21 0.32826452E-01 0.17724702E+03</pdfrwt>
<totfact> 0.10325072E+05</totfact>
</mgrwt>
</event>
<event>
 4    1  0.3945627E+000  0.1975267E+03  0.7546771E-02  0.1151843E+00
         21   -1    0    0  501  502  0.00000000000E+00  0.00000000000E+00  0.72279414061E+03  0.72279414061E+03  0.00000000000E+00 0.  1.
         21   -1    0    0  502  503 -0.00000000000E+00 -0.00000000000E+00 -0.35917374975E+03  0.35917374975E+03  0.00000000000E+00 0.  1.
          6    1    1    2  501    0  0.90725653044E+00 -0.95325538824E+02  0.68048744068E+03  0.70857599338E+03  0.17300000000E+03 0.  1.
         -6    1    1    2    0  503 -0.90725653044E+00  0.95325538824E+02 -0.31686704983E+03  0.37339189698E+03  0.17300000000E+03 0.  1.
<mgrwt>
<rscale>  2 0.19752666E+03</rscale>
<asrwt>0</asrwt>
<pdfrwt beam="1">  1       21 0.11119910E+00 0.19752666E+03</pdfrwt>
<pdfrwt beam="2">  1       21 0.55257500E-01 0.19752666E+03</pdfrwt>
<totfact> 0.19560472E+03</totfact>
</mgrwt>
</event>
<event>
 4    1  0.3945627E+000  0.1825007E+03  0.7546771E-02  0.1165405E+00
         21   -1    0    0  501  502  0.00000000000E+00  0.00000000000E+00  0.41414628678E+02  0.41414628678E+02  0.00000000000E+00 0. -1.
         21   -1    0    0  502  503 -0.00000000000E+00 -0.00000000000E+00 -0.87081621607E+03  0.87081621607E+03  0.00000000000E+00 0. -1.
          6    1    1    2  501    0  0.57971989471E+02  0.40929423020E+01 -0.28856630989E+03  0.34143376948E+03  0.17300000000E+03 0.  1.
         -6    1    1    2    0  503 -0.57971989471E+02 -0.40929423020E+01 -0.54083527750E+03  0.57079707526E+03  0.17300000000E+03 0.  1.
<mgrwt>
<rscale>  2 0.18250070E+03</rscale>
<asrwt>0</asrwt>
<pdfrwt beam="1">  1       21 0.63714816E-02 0.18250070E+03</pdfrwt>
<pdfrwt beam="2">  1       21 0.13397172E+00 0.18250070E+03</pdfrwt>
<totfact> 0.71604267E+04</totfact>
</mgrwt>
</event>
<event>
 4    1  0.3945627E+000  0.3393710E+03  0.7546771E-02  0.1067064E+00
         21   -1    0    0  503  502  0.00000000000E+00  0.00000000000E+00  0.13568967096E+03  0.13568967096E+03  0.00000000000E+00 0. -1.
         21   -1    0    0  501  503 -0.00000000000E+00 -0.00000000000E+00 -0.11364645024E+04  0.11364645024E+04  0.00000000000E+00 0. -1.
          6    1    1    2  501    0 -0.15987893599E+03  0.24429988820E+03 -0.82040861698E+03  0.88783050655E+03  0.17300000000E+03 0. -1.
         -6    1    1    2    0  502  0.15987893599E+03 -0.24429988820E+03 -0.18036621446E+03  0.38432366681E+03  0.17300000000E+03 0. -1.
<mgrwt>
<rscale>  2 0.33937105E+03</rscale>
<asrwt>0</asrwt>
<pdfrwt beam="1">  1       21 0.20875334E-01 0.33937105E+03</pdfrwt>
<pdfrwt beam="2">  1       21 0.17484069E+00 0.33937105E+03</pdfrwt>
<totfact> 0.38026771E+03</totfact>
</mgrwt>
</event>
<event>
 4    1  0.3945627E+000  0.1770155E+03  0.7546771E-02  0.1170723E+00
         21   -1    0    0  503  502  0.00000000000E+00  0.00000000000E+00  0.34622506945E+03  0.34622506945E+03  0.00000000000E+00 0.  1.
         21   -1    0    0  501  503 -0.00000000000E+00 -0.00000000000E+00 -0.90532067009E+02  0.90532067009E+02  0.00000000000E+00 0. -1.
          6    1    1    2  501    0  0.13898705394E+02 -0.34818302024E+02  0.12394923096E+03  0.21609696903E+03  0.17300000000E+03 0.  1.
         -6    1    1    2    0  502 -0.13898705394E+02  0.34818302024E+02  0.13174377149E+03  0.22066016744E+03  0.17300000000E+03 0.  1.
<mgrwt>
<rscale>  2 0.17701550E+03</rscale>
<asrwt>0</asrwt>
<pdfrwt beam="1">  1       21 0.53265395E-01 0.17701550E+03</pdfrwt>
<pdfrwt beam="2">  1       21 0.13928010E-01 0.17701550E+03</pdfrwt>
<totfact> 0.15055787E+05</totfact>
</mgrwt>
</event>
<event>
 4    1  0.3945627E+000  0.1777342E+03  0.7546771E-02  0.1170014E+00
         21   -1    0    0  503  502  0.00000000000E+00  0.00000000000E+00  0.72649878334E+03  0.72649878334E+03  0.00000000000E+00 0. -1.
         21   -1    0    0  501  503 -0.00000000000E+00 -0.00000000000E+00 -0.67980525663E+02  0.67980525663E+02  0.00000000000E+00 0. -1.
          6    1    1    2  501    0 -0.12548138332E+02  0.38768301594E+02  0.90789791521E+02  0.19958011732E+03  0.17300000000E+03 0. -1.
         -6    1    1    2    0  502  0.12548138332E+02 -0.38768301594E+02  0.56772846615E+03  0.59489919168E+03  0.17300000000E+03 0. -1.
<mgrwt>
<rscale>  2 0.17773418E+03</rscale>
<asrwt>0</asrwt>
<pdfrwt beam="1">  1       21 0.11176904E+00 0.17773418E+03</pdfrwt>
<pdfrwt beam="2">  1       21 0.10458543E-01 0.17773418E+03</pdfrwt>
<totfact> 0.47465086E+04</totfact>
</mgrwt>
</event>
<event>
 4    1  0.3945627E+000  0.2029640E+03  0.7546771E-02  0.1147262E+00
         21   -1    0    0  501  502  0.00000000000E+00  0.00000000000E+00  0.11114896089E+04  0.11114896089E+04  0.00000000000E+00 0.  1.
         21   -1    0    0  502  503 -0.00000000000E+00 -0.00000000000E+00 -0.12201507313E+03  0.12201507313E+03  0.00000000000E+00 0. -1.
          6    1    1    2  501    0  0.56241674613E+02 -0.90012603946E+02  0.10093645044E+04  0.10295684035E+04  0.17300000000E+03 0.  1.
         -6    1    1    2    0  503 -0.56241674613E+02  0.90012603946E+02 -0.19889968634E+02  0.20393627849E+03  0.17300000000E+03 0. -1.
<mgrwt>
<rscale>  2 0.20296402E+03</rscale>
<asrwt>0</asrwt>
<pdfrwt beam="1">  1       21 0.17099839E+00 0.20296402E+03</pdfrwt>
<pdfrwt beam="2">  1       21 0.18771550E-01 0.20296402E+03</pdfrwt>
<totfact> 0.54059309E+03</totfact>
</mgrwt>
</event>
<event>
 4    1  0.3945627E+000  0.1937849E+03  0.7546771E-02  0.1155091E+00
         21   -1    0    0  503  502  0.00000000000E+00  0.00000000000E+00  0.22974291998E+03  0.22974291998E+03  0.00000000000E+00 0.  1.
         21   -1    0    0  501  503 -0.00000000000E+00 -0.00000000000E+00 -0.21584643363E+03  0.21584643363E+03  0.00000000000E+00 0.  1.
          6    1    1    2  501    0  0.58929255072E+02 -0.64427744505E+02 -0.10281658235E+03  0.21937146800E+03  0.17300000000E+03 0.  1.
         -6    1    1    2    0  502 -0.58929255072E+02  0.64427744505E+02  0.11671306870E+03  0.22621788561E+03  0.17300000000E+03 0.  1.
<mgrwt>
<rscale>  2 0.19378491E+03</rscale>
<asrwt>0</asrwt>
<pdfrwt beam="1">  1       21 0.35345065E-01 0.19378491E+03</pdfrwt>
<pdfrwt beam="2">  1       21 0.33207143E-01 0.19378491E+03</pdfrwt>
<totfact> 0.67361383E+04</totfact>
</mgrwt>
</event>
<event>
 4    1  0.3945627E+000  0.2091095E+03  0.7546771E-02  0.1142273E+00
         21   -1    0    0  501  502  0.00000000000E+00  0.00000000000E+00  0.12949655022E+04  0.12949655022E+04  0.00000000000E+00 0.  1.
         21   -1    0    0  502  503 -0.00000000000E+00 -0.00000000000E+00 -0.90213042178E+02  0.90213042178E+02  0.00000000000E+00 0.  1.
          6    1    1    2  501    0 -0.10648876264E+03  0.49577345744E+02  0.11502226467E+04  0.11690760911E+04  0.17300000000E+03 0.  1.
         -6    1    1    2    0  503  0.10648876264E+03 -0.49577345744E+02  0.54529813335E+02  0.21610245330E+03  0.17300000000E+03 0.  1.
<mgrwt>
<rscale>  2 0.20910947E+03</rscale>
<asrwt>0</asrwt>
<pdfrwt beam="1">  1       21 0.19922545E+00 0.20910947E+03</pdfrwt>
<pdfrwt beam="2">  1       21 0.13878931E-01 0.20910947E+03</pdfrwt>
<totfact> 0.60461405E+03</totfact>
</mgrwt>
</event>
<event>
 4    1  0.3945627E+000  0.2381324E+03  0.7546771E-02  0.1121043E+00
         21   -1    0    0  503  502  0.00000000000E+00  0.00000000000E+00  0.56752264114E+03  0.56752264114E+03  0.00000000000E+00 0. -1.
         21   -1    0    0  501  503 -0.00000000000E+00 -0.00000000000E+00 -0.10021768019E+03  0.10021768019E+03  0.00000000000E+00 0. -1.
          6    1    1    2  501    0 -0.20931433494E+02 -0.16229576191E+03  0.21546582452E+03  0.32114258637E+03  0.17300000000E+03 0. -1.
         -6    1    1    2    0  502  0.20931433494E+02  0.16229576191E+03  0.25183913642E+03  0.34659773496E+03  0.17300000000E+03 0. -1.
<mgrwt>
<rscale>  2 0.23813240E+03</rscale>
<asrwt>0</asrwt>
<pdfrwt beam="1">  1       21 0.87311174E-01 0.23813240E+03</pdfrwt>
<pdfrwt beam="2">  1       21 0.15418105E-01 0.23813240E+03</pdfrwt>
<totfact> 0.41108421E+04</totfact>
</mgrwt>
</event>
<event>
 4    1  0.3945627E+000  0.2003562E+03  0.7546771E-02  0.1149439E+00
         21   -1    0    0  503  502  0.00000000000E+00  0.00000000000E+00  0.11502725646E+03  0.11502725646E+03  0.00000000000E+00 0. -1.
         21   -1    0    0  501  503 -0.00000000000E+00 -0.00000000000E+00 -0.55465997907E+03  0.55465997907E+03  0.00000000000E+00 0. -1.
          6    1    1    2  501    0 -0.99878785667E+02 -0.15421590394E+02 -0.42371817237E+03  0.46869999666E+03  0.17300000000E+03 0. -1.
         -6    1    1    2    0  502  0.99878785667E+02  0.15421590394E+02 -0.15914550246E+02  0.20098723886E+03  0.17300000000E+03 0. -1.
<mgrwt>
<rscale>  2 0.20035618E+03</rscale>
<asrwt>0</asrwt>
<pdfrwt beam="1">  1       21 0.17696501E-01 0.20035618E+03</pdfrwt>
<pdfrwt beam="2">  1       21 0.85332305E-01 0.20035618E+03</pdfrwt>
<totfact> 0.34261849E+04</totfact>
</mgrwt>
</event>
<event>
 4    1  0.3945627E+000  0.1909604E+03  0.7546771E-02  0.1157598E+00
         21   -1    0    0  503  502  0.00000000000E+00  0.00000000000E+00  0.15498893036E+03  0.15498893036E+03  0.00000000000E+00 0. -1.
         21   -1    0    0  501  503 -0.00000000000E+00 -0.00000000000E+00 -0.23859163162E+03  0.23859163162E+03  0.00000000000E+00 0.  1.
          6    1    1    2  501    0  0.70043404415E+01  0.80547035955E+02 -0.64983775798E+02  0.20171459269E+03  0.17300000000E+03 0.  1.
         -6    1    1    2    0  502 -0.70043404415E+01 -0.80547035955E+02 -0.18618925458E+02  0.19186596929E+03  0.17300000000E+03 0. -1.
<mgrwt>
<rscale>  2 0.19096043E+03</rscale>
<asrwt>0</asrwt>
<pdfrwt beam="1">  1       21 0.23844451E-01 0.19096043E+03</pdfrwt>
<pdfrwt beam="2">  1       21 0.36706405E-01 0.19096043E+03</pdfrwt>
<totfact> 0.11871980E+05</totfact>
</mgrwt>
</event>
<event>
 4    1  0.3945627E+000  0.1853046E+03  0.7546771E-02  0.1162766E+00
         21   -1    0    0  503  502  0.00000000000E+00  0.00000000000E+00  0.26492488788E+03  0.26492488788E+03  0.00000000000E+00 0.  1.
         21   -1    0    0  501  503 -0.00000000000E+00 -0.00000000000E+00 -0.13533165567E+03  0.13533165567E+03  0.00000000000E+00 0.  1.
          6    1    1    2  501    0  0.64598338447E+02 -0.15357257646E+02  0.23658530026E+02  0.18680877050E+03  0.17300000000E+03 0. -1.
         -6    1    1    2    0  502 -0.64598338447E+02  0.15357257646E+02  0.10593470218E+03  0.21344777305E+03  0.17300000000E+03 0. -1.
<mgrwt>
<rscale>  2 0.18530459E+03</rscale>
<asrwt>0</asrwt>
<pdfrwt beam="1">  1       21 0.40757675E-01 0.18530459E+03</pdfrwt>
<pdfrwt beam="2">  1       21 0.20820255E-01 0.18530459E+03</pdfrwt>
<totfact> 0.12447794E+05</totfact>
</mgrwt>
</event>
<event>
 4    1  0.3945627E+000  0.1898269E+03  0.7546771E-02  0.1158618E+00
         21   -1    0    0  503  502  0.00000000000E+00  0.00000000000E+00  0.16897707647E+03  0.16897707647E+03  0.00000000000E+00 0. -1.
         21   -1    0    0  501  503 -0.00000000000E+00 -0.00000000000E+00 -0.34508843980E+03  0.34508843980E+03  0.00000000000E+00 0. -1.
          6    1    1    2  501    0 -0.25884855182E+01 -0.78093281446E+02 -0.24692691972E+03  0.31145973182E+03  0.17300000000E+03 0. -1.
         -6    1    1    2    0  502  0.25884855182E+01  0.78093281446E+02  0.70815556392E+02  0.20260578445E+03  0.17300000000E+03 0. -1.
<mgrwt>
<rscale>  2 0.18982692E+03</rscale>
<asrwt>0</asrwt>
<pdfrwt beam="1">  1       21 0.25996473E-01 0.18982692E+03</pdfrwt>
<pdfrwt beam="2">  1       21 0.53090529E-01 0.18982692E+03</pdfrwt>
<totfact> 0.47299809E+04</totfact>
</mgrwt>
</event>
<event>
 4    1  0.3945627E+000  0.2191727E+03  0.7546771E-02  0.1134501E+00
         21   -1    0    0  501  502  0.00000000000E+00  0.00000000000E+00  0.84074562680E+02  0.84074562680E+02  0.00000000000E+00 0. -1.
         21   -1    0    0  502  503 -0.00000000000E+00 -0.00000000000E+00 -0.68774903817E+03  0.68774903817E+03  0.00000000000E+00 0.  1.
          6    1    1    2  501    0  0.11115388751E+03 -0.75845261557E+02 -0.46059408632E+03  0.51008195690E+03  0.17300000000E+03 0. -1.
         -6    1    1    2    0  503 -0.11115388751E+03  0.75845261557E+02 -0.14308038917E+03  0.26174164394E+03  0.17300000000E+03 0. -1.
<mgrwt>
<rscale>  2 0.21917274E+03</rscale>
<asrwt>0</asrwt>
<pdfrwt beam="1">  1       21 0.12934548E-01 0.21917274E+03</pdfrwt>
<pdfrwt beam="2">  1       21 0.10580754E+00 0.21917274E+03</pdfrwt>
<totfact> 0.36269849E+04</totfact>
</mgrwt>
</event>
<event>
 4    1  0.3945627E+000  0.4626534E+03  0.7546771E-02  0.1024014E+00
         21   -1    0    0  501  502  0.00000000000E+00  0.00000000000E+00  0.12378720379E+04  0.12378720379E+04  0.00000000000E+00 0.  1.
         21   -1    0    0  502  503 -0.00000000000E+00 -0.00000000000E+00 -0.56505645881E+03  0.56505645881E+03  0.00000000000E+00 0. -1.
          6    1    1    2  501    0  0.19308679857E+03 -0.38319267279E+03  0.10873790173E+04  0.11817111591E+04  0.17300000000E+03 0.  1.
         -6    1    1    2    0  503 -0.19308679857E+03  0.38319267279E+03 -0.41456343821E+03  0.62121733762E+03  0.17300000000E+03 0. -1.
<mgrwt>
<rscale>  2 0.46265337E+03</rscale>
<asrwt>0</asrwt>
<pdfrwt beam="1">  1       21 0.19044185E+00 0.46265337E+03</pdfrwt>
<pdfrwt beam="2">  1       21 0.86931763E-01 0.46265337E+03</pdfrwt>
<totfact> 0.14081180E+02</totfact>
</mgrwt>
</event>
<event>
 4    1  0.3945627E+000  0.2439113E+03  0.7546771E-02  0.1117214E+00
         21   -1    0    0  501  502  0.00000000000E+00  0.00000000000E+00  0.28939731076E+03  0.28939731076E+03  0.00000000000E+00 0. -1.
         21   -1    0    0  502  503 -0.00000000000E+00 -0.00000000000E+00 -0.20665868481E+03  0.20665868481E+03  0.00000000000E+00 0. -1.
          6    1    1    2  501    0  0.55505376922E+02  0.16273554665E+03  0.23404312495E+02  0.24503156297E+03  0.17300000000E+03 0. -1.
         -6    1    1    2    0  503 -0.55505376922E+02 -0.16273554665E+03  0.59334313456E+02  0.25102443260E+03  0.17300000000E+03 0. -1.
<mgrwt>
<rscale>  2 0.24391126E+03</rscale>
<asrwt>0</asrwt>
<pdfrwt beam="1">  1       21 0.44522663E-01 0.24391126E+03</pdfrwt>
<pdfrwt beam="2">  1       21 0.31793644E-01 0.24391126E+03</pdfrwt>
<totfact> 0.44995657E+04</totfact>
</mgrwt>
</event>
<event>
 4    1  0.3945627E+000  0.1802885E+03  0.7546771E-02  0.1167524E+00
         21   -1    0    0  501  502  0.00000000000E+00  0.00000000000E+00  0.41832327850E+03  0.41832327850E+03  0.00000000000E+00 0.  1.
         21   -1    0    0  502  503 -0.00000000000E+00 -0.00000000000E+00 -0.16780189731E+03  0.16780189731E+03  0.00000000000E+00 0.  1.
          6    1    1    2  501    0  0.20602017265E+02 -0.46373417500E+02  0.34000796365E+03  0.38484977889E+03  0.17300000000E+03 0.  1.
         -6    1    1    2    0  503 -0.20602017265E+02  0.46373417500E+02 -0.89486582453E+02  0.20127539692E+03  0.17300000000E+03 0.  1.
<mgrwt>
<rscale>  2 0.18028848E+03</rscale>
<asrwt>0</asrwt>
<pdfrwt beam="1">  1       21 0.64357427E-01 0.18028848E+03</pdfrwt>
<pdfrwt beam="2">  1       21 0.25815677E-01 0.18028848E+03</pdfrwt>
<totfact> 0.31935162E+04</totfact>
</mgrwt>
</event>
<event>
 4    1  0.3945627E+000  0.1840231E+03  0.7546771E-02  0.1163965E+00
         21   -1    0    0  503  502  0.00000000000E+00  0.00000000000E+00  0.22071120009E+03  0.22071120009E+03  0.00000000000E+00 0. -1.
         21   -1    0    0  501  503 -0.00000000000E+00 -0.00000000000E+00 -0.21937490455E+03  0.21937490455E+03  0.00000000000E+00 0. -1.
          6    1    1    2  501    0 -0.12182425405E+02  0.61539481820E+02 -0.11997228214E+03  0.21967673476E+03  0.17300000000E+03 0. -1.
         -6    1    1    2    0  502  0.12182425405E+02 -0.61539481820E+02  0.12130857768E+03  0.22040936988E+03  0.17300000000E+03 0. -1.
<mgrwt>
<rscale>  2 0.18402315E+03</rscale>
<asrwt>0</asrwt>
<pdfrwt beam="1">  1       21 0.33955569E-01 0.18402315E+03</pdfrwt>
<pdfrwt beam="2">  1       21 0.33749985E-01 0.18402315E+03</pdfrwt>
<totfact> 0.70925493E+04</totfact>
</mgrwt>
</event>
<event>
 4    1  0.3945627E+000  0.1789200E+03  0.7546771E-02  0.1168852E+00
         21   -1    0    0  501  502  0.00000000000E+00  0.00000000000E+00  0.31932712465E+02  0.31932712465E+02  0.00000000000E+00 0. -1.
         21   -1    0    0  502  503 -0.00000000000E+00 -0.00000000000E+00 -0.10630298534E+04  0.10630298534E+04  0.00000000000E+00 0. -1.
          6    1    1    2  501    0  0.37348998840E+02 -0.26237829719E+02 -0.38490117040E+03  0.42445409928E+03  0.17300000000E+03 0.  1.
         -6    1    1    2    0  503 -0.37348998840E+02  0.26237829719E+02 -0.64619597054E+03  0.67050846659E+03  0.17300000000E+03 0.  1.
<mgrwt>
<rscale>  2 0.17892001E+03</rscale>
<asrwt>0</asrwt>
<pdfrwt beam="1">  1       21 0.49127261E-02 0.17892001E+03</pdfrwt>
<pdfrwt beam="2">  1       21 0.16354302E+00 0.17892001E+03</pdfrwt>
<totfact> 0.66239349E+04</totfact>
</mgrwt>
</event>
<event>
 4    1  0.3945627E+000  0.2253869E+03  0.7546771E-02  0.1129929E+00
         21   -1    0    0  501  502  0.00000000000E+00  0.00000000000E+00  0.60763053486E+03  0.60763053486E+03  0.00000000000E+00 0. -1.
         21   -1    0    0  502  503 -0.00000000000E+00 -0.00000000000E+00 -0.13436258323E+03  0.13436258323E+03  0.00000000000E+00 0.  1.
          6    1    1    2  501    0  0.13703855233E+03 -0.45723912777E+02  0.46466462042E+03  0.51644210760E+03  0.17300000000E+03 0. -1.
         -6    1    1    2    0  503 -0.13703855233E+03  0.45723912777E+02  0.86033312120E+01  0.22555101049E+03  0.17300000000E+03 0.  1.
<mgrwt>
<rscale>  2 0.22538687E+03</rscale>
<asrwt>0</asrwt>
<pdfrwt beam="1">  1       21 0.93481619E-01 0.22538687E+03</pdfrwt>
<pdfrwt beam="2">  1       21 0.20671167E-01 0.22538687E+03</pdfrwt>
<totfact> 0.20475514E+04</totfact>
</mgrwt>
</event>
<event>
 4    1  0.3945627E+000  0.2071245E+03  0.7546771E-02  0.1143864E+00
         21   -1    0    0  501  502  0.00000000000E+00  0.00000000000E+00  0.14191595517E+03  0.14191595517E+03  0.00000000000E+00 0.  1.
         21   -1    0    0  502  503 -0.00000000000E+00 -0.00000000000E+00 -0.35001260680E+03  0.35001260680E+03  0.00000000000E+00 0.  1.
          6    1    1    2  501    0 -0.68207122982E+01 -0.11368835300E+03 -0.13231365931E+02  0.20754670021E+03  0.17300000000E+03 0.  1.
         -6    1    1    2    0  503  0.68207122982E+01  0.11368835300E+03 -0.19486528570E+03  0.28438186176E+03  0.17300000000E+03 0.  1.
<mgrwt>
<rscale>  2 0.20712451E+03</rscale>
<asrwt>0</asrwt>
<pdfrwt beam="1">  1       21 0.21833224E-01 0.20712451E+03</pdfrwt>
<pdfrwt beam="2">  1       21 0.53848093E-01 0.20712451E+03</pdfrwt>
<totfact> 0.63449302E+04</totfact>
</mgrwt>
</event>
<event>
 4    1  0.3945627E+000  0.2026665E+03  0.7546771E-02  0.1147509E+00
         21   -1    0    0  501  502  0.00000000000E+00  0.00000000000E+00  0.13962933364E+03  0.13962933364E+03  0.00000000000E+00 0. -1.
         21   -1    0    0  502  503 -0.00000000000E+00 -0.00000000000E+00 -0.29417457324E+03  0.29417457324E+03  0.00000000000E+00 0.  1.
          6    1    1    2  501    0 -0.22308897981E+02  0.10318446670E+03 -0.78659178084E+02  0.21739592313E+03  0.17300000000E+03 0.  1.
         -6    1    1    2    0  503  0.22308897981E+02 -0.10318446670E+03 -0.75886061512E+02  0.21640798375E+03  0.17300000000E+03 0.  1.
<mgrwt>
<rscale>  2 0.20266653E+03</rscale>
<asrwt>0</asrwt>
<pdfrwt beam="1">  1       21 0.21481436E-01 0.20266653E+03</pdfrwt>
<pdfrwt beam="2">  1       21 0.45257626E-01 0.20266653E+03</pdfrwt>
<totfact> 0.94167823E+04</totfact>
</mgrwt>
</event>
<event>
 4    1  0.3945627E+000  0.1818235E+03  0.7546771E-02  0.1166050E+00
         21   -1    0    0  501  502  0.00000000000E+00  0.00000000000E+00  0.87292431452E+02  0.87292431452E+02  0.00000000000E+00 0.  1.
         21   -1    0    0  502  503 -0.00000000000E+00 -0.00000000000E+00 -0.54925889638E+03  0.54925889638E+03  0.00000000000E+00 0.  1.
          6    1    1    2  501    0 -0.41145815643E+01  0.55801969918E+02 -0.53637487767E+02  0.18956995997E+03  0.17300000000E+03 0.  1.
         -6    1    1    2    0  503  0.41145815643E+01 -0.55801969918E+02 -0.40832897716E+03  0.44698136787E+03  0.17300000000E+03 0.  1.
<mgrwt>
<rscale>  2 0.18182351E+03</rscale>
<asrwt>0</asrwt>
<pdfrwt beam="1">  1       21 0.13429605E-01 0.18182351E+03</pdfrwt>
<pdfrwt beam="2">  1       21 0.84501369E-01 0.18182351E+03</pdfrwt>
<totfact> 0.58512701E+04</totfact>
</mgrwt>
</event>
<event>
 4    1  0.3945627E+000  0.1834897E+03  0.7546771E-02  0.1164468E+00
         21   -1    0    0  501  502  0.00000000000E+00  0.00000000000E+00  0.12120230227E+04  0.12120230227E+04  0.00000000000E+00 0. -1.
         21   -1    0    0  502  503 -0.00000000000E+00 -0.00000000000E+00 -0.44044239827E+02  0.44044239827E+02  0.00000000000E+00 0. -1.
          6    1    1    2  501    0  0.35573553364E+02 -0.49739173855E+02  0.96564544097E+03  0.98292399543E+03  0.17300000000E+03 0. -1.
         -6    1    1    2    0  503 -0.35573553364E+02  0.49739173855E+02  0.20233334188E+03  0.27314326708E+03  0.17300000000E+03 0. -1.
<mgrwt>
<rscale>  2 0.18348968E+03</rscale>
<asrwt>0</asrwt>
<pdfrwt beam="1">  1       21 0.18646505E+00 0.18348968E+03</pdfrwt>
<pdfrwt beam="2">  1       21 0.67760378E-02 0.18348968E+03</pdfrwt>
<totfact> 0.26507321E+04</totfact>
</mgrwt>
</event>
<event>
 4    1  0.3945627E+000  0.1793439E+03  0.7546771E-02  0.1168440E+00
         21   -1    0    0  503  502  0.00000000000E+00  0.00000000000E+00  0.65099348002E+03  0.65099348002E+03  0.00000000000E+00 0.  1.
         21   -1    0    0  501  503 -0.00000000000E+00 -0.00000000000E+00 -0.56501545702E+02  0.56501545702E+02  0.00000000000E+00 0.  1.
          6    1    1    2  501    0 -0.35736152586E+02 -0.30954020504E+02  0.17190361922E+03  0.24842519657E+03  0.17300000000E+03 0.  1.
         -6    1    1    2    0  502  0.35736152586E+02  0.30954020504E+02  0.42258831510E+03  0.45906982916E+03  0.17300000000E+03 0.  1.
<mgrwt>
<rscale>  2 0.17934387E+03</rscale>
<asrwt>0</asrwt>
<pdfrwt beam="1">  1       21 0.10015284E+00 0.17934387E+03</pdfrwt>
<pdfrwt beam="2">  1       21 0.86925459E-02 0.17934387E+03</pdfrwt>
<totfact> 0.85410040E+04</totfact>
</mgrwt>
</event>
<event>
 4    1  0.3945627E+000  0.2765565E+03  0.7546771E-02  0.1097585E+00
         21   -1    0    0  503  502  0.00000000000E+00  0.00000000000E+00  0.70584813716E+03  0.70584813716E+03  0.00000000000E+00 0. -1.
         21   -1    0    0  501  503 -0.00000000000E+00 -0.00000000000E+00 -0.14661808384E+03  0.14661808384E+03  0.00000000000E+00 0.  1.
          6    1    1    2  501    0  0.21210201000E+03 -0.39588157247E+02  0.61877710191E+02  0.28339431162E+03  0.17300000000E+03 0.  1.
         -6    1    1    2    0  502 -0.21210201000E+03  0.39588157247E+02  0.49735234312E+03  0.56907190938E+03  0.17300000000E+03 0. -1.
<mgrwt>
<rscale>  2 0.27655648E+03</rscale>
<asrwt>0</asrwt>
<pdfrwt beam="1">  1       21 0.10859202E+00 0.27655648E+03</pdfrwt>
<pdfrwt beam="2">  1       21 0.22556629E-01 0.27655648E+03</pdfrwt>
<totfact> 0.11804857E+04</totfact>
</mgrwt>
</event>
<event>
 4    1  0.3945627E+000  0.2398589E+03  0.7546771E-02  0.1119887E+00
         21   -1    0    0  501  502  0.00000000000E+00  0.00000000000E+00  0.22180506663E+04  0.22180506663E+04  0.00000000000E+00 0.  1.
         21   -1    0    0  502  503 -0.00000000000E+00 -0.00000000000E+00 -0.26672891171E+02  0.26672891171E+02  0.00000000000E+00 0. -1.
          6    1    1    2  501    0  0.10612676270E+03 -0.12782967086E+03  0.90941990513E+03  0.94051947261E+03  0.17300000000E+03 0. -1.
         -6    1    1    2    0  503 -0.10612676270E+03  0.12782967086E+03  0.12819578700E+04  0.13042040849E+04  0.17300000000E+03 0.  1.
<mgrwt>
<rscale>  2 0.23985895E+03</rscale>
<asrwt>0</asrwt>
<pdfrwt beam="1">  1       21 0.34123842E+00 0.23985895E+03</pdfrwt>
<pdfrwt beam="2">  1       21 0.41035235E-02 0.23985895E+03</pdfrwt>
<totfact> 0.70187691E+03</totfact>
</mgrwt>
</event>
<event>
 4    1  0.3945627E+000  0.2105580E+03  0.7546771E-02  0.1141125E+00
         21   -1    0    0  501  502  0.00000000000E+00  0.00000000000E+00  0.81258373862E+03  0.81258373862E+03  0.00000000000E+00 0. -1.
         21   -1    0    0  502  503 -0.00000000000E+00 -0.00000000000E+00 -0.54896009795E+02  0.54896009795E+02  0.00000000000E+00 0.  1.
          6    1    1    2  501    0  0.76720024746E+02  0.92302248939E+02  0.41277172818E+03  0.46337367959E+03  0.17300000000E+03 0. -1.
         -6    1    1    2    0  503 -0.76720024746E+02 -0.92302248939E+02  0.34491600065E+03  0.40410606882E+03  0.17300000000E+03 0. -1.
<mgrwt>
<rscale>  2 0.21055799E+03</rscale>
<asrwt>0</asrwt>
<pdfrwt beam="1">  1       21 0.12501287E+00 0.21055799E+03</pdfrwt>
<pdfrwt beam="2">  1       21 0.84455406E-02 0.21055799E+03</pdfrwt>
<totfact> 0.51579534E+04</totfact>
</mgrwt>
</event>
<event>
 4    1  0.3945627E+000  0.2259958E+03  0.7546771E-02  0.1129490E+00
         21   -1    0    0  501  502  0.00000000000E+00  0.00000000000E+00  0.46154751213E+03  0.46154751213E+03  0.00000000000E+00 0.  1.
         21   -1    0    0  502  503 -0.00000000000E+00 -0.00000000000E+00 -0.14492242786E+03  0.14492242786E+03  0.00000000000E+00 0. -1.
          6    1    1    2  501    0  0.14529561513E+03  0.58539807724E+01  0.30575787324E+03  0.38021304806E+03  0.17300000000E+03 0.  1.
         -6    1    1    2    0  503 -0.14529561513E+03 -0.58539807724E+01  0.10867211031E+02  0.22625689192E+03  0.17300000000E+03 0. -1.
<mgrwt>
<rscale>  2 0.22599576E+03</rscale>
<asrwt>0</asrwt>
<pdfrwt beam="1">  1       21 0.71007309E-01 0.22599576E+03</pdfrwt>
<pdfrwt beam="2">  1       21 0.22295758E-01 0.22599576E+03</pdfrwt>
<totfact> 0.33211841E+04</totfact>
</mgrwt>
</event>
<event>
 4    1  0.3945627E+000  0.2198185E+03  0.7546771E-02  0.1134018E+00
         21   -1    0    0  503  502  0.00000000000E+00  0.00000000000E+00  0.14857393642E+03  0.14857393642E+03  0.00000000000E+00 0. -1.
         21   -1    0    0  501  503 -0.00000000000E+00 -0.00000000000E+00 -0.50395397966E+03  0.50395397966E+03  0.00000000000E+00 0. -1.
          6    1    1    2  501    0 -0.29945705093E+02 -0.13226642594E+03 -0.37198857215E+03  0.43208292086E+03  0.17300000000E+03 0. -1.
         -6    1    1    2    0  502  0.29945705093E+02  0.13226642594E+03  0.16608528916E+02  0.22044499522E+03  0.17300000000E+03 0. -1.
<mgrwt>
<rscale>  2 0.21981845E+03</rscale>
<asrwt>0</asrwt>
<pdfrwt beam="1">  1       21 0.22857529E-01 0.21981845E+03</pdfrwt>
<pdfrwt beam="2">  1       21 0.77531380E-01 0.21981845E+03</pdfrwt>
<totfact> 0.26107457E+04</totfact>
</mgrwt>
</event>
<event>
 4    1  0.3945627E+000  0.1960093E+03  0.7546771E-02  0.1153150E+00
         21   -1    0    0  503  502  0.00000000000E+00  0.00000000000E+00  0.11367391292E+03  0.11367391292E+03  0.00000000000E+00 0.  1.
         21   -1    0    0  501  503 -0.00000000000E+00 -0.00000000000E+00 -0.44013799911E+03  0.44013799911E+03  0.00000000000E+00 0.  1.
          6    1    1    2  501    0 -0.89347093323E+02 -0.22533024935E+02 -0.29663688739E+03  0.35554617599E+03  0.17300000000E+03 0.  1.
         -6    1    1    2    0  502  0.89347093323E+02  0.22533024935E+02 -0.29827198801E+02  0.19826573604E+03  0.17300000000E+03 0.  1.
<mgrwt>
<rscale>  2 0.19600929E+03</rscale>
<asrwt>0</asrwt>
<pdfrwt beam="1">  1       21 0.17488294E-01 0.19600929E+03</pdfrwt>
<pdfrwt beam="2">  1       21 0.67713538E-01 0.19600929E+03</pdfrwt>
<totfact> 0.58930588E+04</totfact>
</mgrwt>
</event>
<event>
 4    1  0.3945627E+000  0.2409048E+03  0.7546771E-02  0.1119192E+00
         21   -1    0    0  501  502  0.00000000000E+00  0.00000000000E+00  0.55129324881E+03  0.55129324881E+03  0.00000000000E+00 0.  1.
         21   -1    0    0  502  503 -0.00000000000E+00 -0.00000000000E+00 -0.11123436586E+03  0.11123436586E+03  0.00000000000E+00 0.  1.
          6    1    1    2  501    0  0.15870988597E+03 -0.54012076130E+02  0.29673099196E+03  0.38220990812E+03  0.17300000000E+03 0.  1.
         -6    1    1    2    0  503 -0.15870988597E+03  0.54012076130E+02  0.14332789099E+03  0.28031770655E+03  0.17300000000E+03 0.  1.
<mgrwt>
<rscale>  2 0.24090482E+03</rscale>
<asrwt>0</asrwt>
<pdfrwt beam="1">  1       21 0.84814344E-01 0.24090482E+03</pdfrwt>
<pdfrwt beam="2">  1       21 0.17112980E-01 0.24090482E+03</pdfrwt>
<totfact> 0.36226752E+04</totfact>
</mgrwt>
</event>
<event>
 4    1  0.3945627E+000  0.2072260E+03  0.7546771E-02  0.1143782E+00
         21   -1    0    0  501  502  0.00000000000E+00  0.00000000000E+00  0.17394781694E+03  0.17394781694E+03  0.00000000000E+00 0. -1.
         21   -1    0    0  502  503 -0.00000000000E+00 -0.00000000000E+00 -0.27149464929E+03  0.27149464929E+03  0.00000000000E+00 0. -1.
          6    1    1    2  501    0 -0.68765738803E+02  0.91021399858E+02  0.18301432332E+02  0.20803260439E+03  0.17300000000E+03 0. -1.
         -6    1    1    2    0  503  0.68765738803E+02 -0.91021399858E+02 -0.11584826468E+03  0.23740986183E+03  0.17300000000E+03 0. -1.
<mgrwt>
<rscale>  2 0.20722602E+03</rscale>
<asrwt>0</asrwt>
<pdfrwt beam="1">  1       21 0.26761203E-01 0.20722602E+03</pdfrwt>
<pdfrwt beam="2">  1       21 0.41768407E-01 0.20722602E+03</pdfrwt>
<totfact> 0.72889878E+04</totfact>
</mgrwt>
</event>
<event>
 4    1  0.3945627E+000  0.2128121E+03  0.7546771E-02  0.1139358E+00
         21   -1    0    0  501  502  0.00000000000E+00  0.00000000000E+00  0.13154718743E+03  0.13154718743E+03  0.00000000000E+00 0. -1.
         21   -1    0    0  502  503 -0.00000000000E+00 -0.00000000000E+00 -0.41885878045E+03  0.41885878045E+03  0.00000000000E+00 0.  1.
          6    1    1    2  501    0  0.70955457002E+02 -0.10161364605E+03 -0.27530135494E+02  0.21458545687E+03  0.17300000000E+03 0. -1.
         -6    1    1    2    0  503 -0.70955457002E+02  0.10161364605E+03 -0.25978145752E+03  0.33582051100E+03  0.17300000000E+03 0. -1.
<mgrwt>
<rscale>  2 0.21281215E+03</rscale>
<asrwt>0</asrwt>
<pdfrwt beam="1">  1       21 0.20238029E-01 0.21281215E+03</pdfrwt>
<pdfrwt beam="2">  1       21 0.64439812E-01 0.21281215E+03</pdfrwt>
<totfact> 0.49655195E+04</totfact>
</mgrwt>
</event>
<event>
 4    1  0.3945627E+000  0.2776311E+03  0.7546771E-02  0.1096990E+00
         21   -1    0    0  503  502  0.00000000000E+00  0.00000000000E+00  0.17959380790E+03  0.17959380790E+03  0.00000000000E+00 0.  1.
         21   -1    0    0  501  503 -0.00000000000E+00 -0.00000000000E+00 -0.58638538401E+03  0.58638538401E+03  0.00000000000E+00 0.  1.
          6    1    1    2  501    0 -0.17138921138E+03 -0.13332583494E+03 -0.50962700314E+01  0.27767789255E+03  0.17300000000E+03 0.  1.
         -6    1    1    2    0  502  0.17138921138E+03  0.13332583494E+03 -0.40169530607E+03  0.48830129937E+03  0.17300000000E+03 0.  1.
<mgrwt>
<rscale>  2 0.27763112E+03</rscale>
<asrwt>0</asrwt>
<pdfrwt beam="1">  1       21 0.27629817E-01 0.27763112E+03</pdfrwt>
<pdfrwt beam="2">  1       21 0.90213135E-01 0.27763112E+03</pdfrwt>
<totfact> 0.12438770E+04</totfact>
</mgrwt>
</event>
<event>
 4    1  0.3945627E+000  0.2919398E+03  0.7546771E-02  0.1089341E+00
         21   -1    0    0  503  502  0.00000000000E+00  0.00000000000E+00  0.94211573823E+03  0.94211573823E+03  0.00000000000E+00 0.  1.
         21   -1    0    0  501  503 -0.00000000000E+00 -0.00000000000E+00 -0.93663184830E+02  0.93663184830E+02  0.00000000000E+00 0. -1.
          6    1    1    2  501    0 -0.35702498028E+02  0.23243322746E+03  0.32853386823E+03  0.43950355649E+03  0.17300000000E+03 0. -1.
         -6    1    1    2    0  502  0.35702498028E+02 -0.23243322746E+03  0.51991868517E+03  0.59627536657E+03  0.17300000000E+03 0.  1.
<mgrwt>
<rscale>  2 0.29193985E+03</rscale>
<asrwt>0</asrwt>
<pdfrwt beam="1">  1       21 0.14494088E+00 0.29193985E+03</pdfrwt>
<pdfrwt beam="2">  1       21 0.14409721E-01 0.29193985E+03</pdfrwt>
<totfact> 0.13005881E+04</totfact>
</mgrwt>
</event>
<event>
 4    1  0.3945627E+000  0.2347386E+03  0.7546771E-02  0.1123348E+00
         21   -1    0    0  503  502  0.00000000000E+00  0.00000000000E+00  0.31935169747E+03  0.31935169747E+03  0.00000000000E+00 0. -1.
         21   -1    0    0  501  503 -0.00000000000E+00 -0.00000000000E+00 -0.20257615283E+03  0.20257615283E+03  0.00000000000E+00 0.  1.
          6    1    1    2  501    0 -0.12148016948E+03 -0.10205772242E+03 -0.42092256970E+02  0.23848263748E+03  0.17300000000E+03 0.  1.
         -6    1    1    2    0  502  0.12148016948E+03  0.10205772242E+03  0.15886780161E+03  0.28344521282E+03  0.17300000000E+03 0. -1.
<mgrwt>
<rscale>  2 0.23473860E+03</rscale>
<asrwt>0</asrwt>
<pdfrwt beam="1">  1       21 0.49131030E-01 0.23473860E+03</pdfrwt>
<pdfrwt beam="2">  1       21 0.31165562E-01 0.23473860E+03</pdfrwt>
<totfact> 0.38295154E+04</totfact>
</mgrwt>
</event>
<event>
 4    1  0.3945627E+000  0.1791296E+03  0.7546771E-02  0.1168648E+00
         21   -1    0    0  503  502  0.00000000000E+00  0.00000000000E+00  0.25307027092E+04  0.25307027092E+04  0.00000000000E+00 0. -1.
         21   -1    0    0  501  503 -0.00000000000E+00 -0.00000000000E+00 -0.17538947767E+02  0.17538947767E+02  0.00000000000E+00 0. -1.
          6    1    1    2  501    0  0.35888600273E+02  0.29502665279E+02  0.58590441358E+03  0.61267559176E+03  0.17300000000E+03 0. -1.
         -6    1    1    2    0  502 -0.35888600273E+02 -0.29502665279E+02  0.19272593479E+04  0.19355660652E+04  0.17300000000E+03 0. -1.
<mgrwt>
<rscale>  2 0.17912956E+03</rscale>
<asrwt>0</asrwt>
<pdfrwt beam="1">  1       21 0.38933859E+00 0.17912956E+03</pdfrwt>
<pdfrwt beam="2">  1       21 0.26983017E-02 0.17912956E+03</pdfrwt>
<totfact> 0.77844239E+03</totfact>
</mgrwt>
</event>
<event>
 4    1  0.3945627E+000  0.2494862E+03  0.7546771E-02  0.1113630E+00
         21   -1    0    0  503  502  0.00000000000E+00  0.00000000000E+00  0.29960415907E+03  0.29960415907E+03  0.00000000000E+00 0. -1.
         21   -1    0    0  501  503 -0.00000000000E+00 -0.00000000000E+00 -0.21068709519E+03  0.21068709519E+03  0.00000000000E+00 0. -1.
          6    1    1    2  501    0 -0.17912093961E+03 -0.15167883574E+02  0.74573137860E+02  0.26039302715E+03  0.17300000000E+03 0. -1.
         -6    1    1    2    0  502  0.17912093961E+03  0.15167883574E+02  0.14343926020E+02  0.24989822711E+03  0.17300000000E+03 0. -1.
<mgrwt>
<rscale>  2 0.24948622E+03</rscale>
<asrwt>0</asrwt>
<pdfrwt beam="1">  1       21 0.46092947E-01 0.24948622E+03</pdfrwt>
<pdfrwt beam="2">  1       21 0.32413399E-01 0.24948622E+03</pdfrwt>
<totfact> 0.40222513E+04</totfact>
</mgrwt>
</event>
<event>
 4    1  0.3945627E+000  0.4121421E+03  0.7546771E-02  0.1039655E+00
         21   -1    0    0  503  502  0.00000000000E+00  0.00000000000E+00  0.94449513465E+03  0.94449513465E+03  0.00000000000E+00 0.  1.
         21   -1    0    0  501  503 -0.00000000000E+00 -0.00000000000E+00 -0.23232208183E+03  0.23232208183E+03  0.00000000000E+00 0. -1.
          6    1    1    2  501    0 -0.24720268585E+03 -0.28075425070E+03  0.63574350773E+03  0.75764828569E+03  0.17300000000E+03 0.  1.
         -6    1    1    2    0  502  0.24720268585E+03  0.28075425070E+03  0.76429545091E+02  0.41916893079E+03  0.17300000000E+03 0. -1.
<mgrwt>
<rscale>  2 0.41214211E+03</rscale>
<asrwt>0</asrwt>
<pdfrwt beam="1">  1       21 0.14530694E+00 0.41214211E+03</pdfrwt>
<pdfrwt beam="2">  1       21 0.35741859E-01 0.41214211E+03</pdfrwt>
<totfact> 0.21361268E+03</totfact>
</mgrwt>
</event>
<event>
 4    1  0.3945627E+000  0.2613918E+03  0.7546771E-02  0.1106310E+00
         21   -1    0    0  501  502  0.00000000000E+00  0.00000000000E+00  0.27836814867E+03  0.27836814867E+03  0.00000000000E+00 0.  1.
         21   -1    0    0  502  503 -0.00000000000E+00 -0.00000000000E+00 -0.26846226220E+03  0.26846226220E+03  0.00000000000E+00 0. -1.
          6    1    1    2  501    0  0.14370986143E+03 -0.13320720997E+03  0.85001432330E+02  0.27486529166E+03  0.17300000000E+03 0.  1.
         -6    1    1    2    0  503 -0.14370986143E+03  0.13320720997E+03 -0.75095545865E+02  0.27196511921E+03  0.17300000000E+03 0.  1.
<mgrwt>
<rscale>  2 0.26139182E+03</rscale>
<asrwt>0</asrwt>
<pdfrwt beam="1">  1       21 0.42825869E-01 0.26139182E+03</pdfrwt>
<pdfrwt beam="2">  1       21 0.41301886E-01 0.26139182E+03</pdfrwt>
<totfact> 0.28617705E+04</totfact>
</mgrwt>
</event>
<event>
 4    1  0.3945627E+000  0.1932398E+03  0.7546771E-02  0.1155571E+00
         21   -1    0    0  501  502  0.00000000000E+00  0.00000000000E+00  0.55265079486E+03  0.55265079486E+03  0.00000000000E+00 0. -1.
         21   -1    0    0  502  503 -0.00000000000E+00 -0.00000000000E+00 -0.10903435162E+03  0.10903435162E+03  0.00000000000E+00 0. -1.
          6    1    1    2  501    0  0.45751302570E+02  0.72934556282E+02  0.17781772256E+02  0.19405623569E+03  0.17300000000E+03 0. -1.
         -6    1    1    2    0  503 -0.45751302570E+02 -0.72934556282E+02  0.42583467098E+03  0.46762891078E+03  0.17300000000E+03 0. -1.
<mgrwt>
<rscale>  2 0.19323983E+03</rscale>
<asrwt>0</asrwt>
<pdfrwt beam="1">  1       21 0.85023198E-01 0.19323983E+03</pdfrwt>
<pdfrwt beam="2">  1       21 0.16774516E-01 0.19323983E+03</pdfrwt>
<totfact> 0.38277904E+04</totfact>
</mgrwt>
</event>
<event>
 4    1  0.3945627E+000  0.1939174E+03  0.7546771E-02  0.1154975E+00
         21   -1    0    0  503  502  0.00000000000E+00  0.00000000000E+00  0.20041101659E+03  0.20041101659E+03  0.00000000000E+00 0.  1.
         21   -1    0    0  501  503 -0.00000000000E+00 -0.00000000000E+00 -0.59679200241E+03  0.59679200241E+03  0.00000000000E+00 0.  1.
          6    1    1    2  501    0  0.48643591304E+02  0.72861363959E+02 -0.52823523358E+03  0.56270457554E+03  0.17300000000E+03 0.  1.
         -6    1    1    2    0  502 -0.48643591304E+02 -0.72861363959E+02  0.13185424776E+03  0.23449844346E+03  0.17300000000E+03 0.  1.
<mgrwt>
<rscale>  2 0.19391745E+03</rscale>
<asrwt>0</asrwt>
<pdfrwt beam="1">  1       21 0.30832465E-01 0.19391745E+03</pdfrwt>
<pdfrwt beam="2">  1       21 0.91814153E-01 0.19391745E+03</pdfrwt>
<totfact> 0.10124332E+04</totfact>
</mgrwt>
</event>
<event>
 4    1  0.3945627E+000  0.2544374E+03  0.7546771E-02  0.1110532E+00
         21   -1    0    0  501  502  0.00000000000E+00  0.00000000000E+00  0.15613753323E+04  0.15613753323E+04  0.00000000000E+00 0. -1.
         21   -1    0    0  502  503 -0.00000000000E+00 -0.00000000000E+00 -0.72431710611E+02  0.72431710611E+02  0.00000000000E+00 0. -1.
          6    1    1    2  501    0 -0.12623404530E+03 -0.13738393721E+03  0.12786327331E+04  0.13037024379E+04  0.17300000000E+03 0. -1.
         -6    1    1    2    0  503  0.12623404530E+03  0.13738393721E+03  0.21031088856E+03  0.33010460500E+03  0.17300000000E+03 0. -1.
<mgrwt>
<rscale>  2 0.25443738E+03</rscale>
<asrwt>0</asrwt>
<pdfrwt beam="1">  1       21 0.24021156E+00 0.25443738E+03</pdfrwt>
<pdfrwt beam="2">  1       21 0.11143341E-01 0.25443738E+03</pdfrwt>
<totfact> 0.48134812E+03</totfact>
</mgrwt>
</event>
<event>
 4    1  0.3945627E+000  0.2120197E+03  0.7546771E-02  0.1139977E+00
         21   -1    0    0  503  502  0.00000000000E+00  0.00000000000E+00  0.11534905059E+03  0.11534905059E+03  0.00000000000E+00 0.  1.
         21   -1    0    0  501  503 -0.00000000000E+00 -0.00000000000E+00 -0.45287134893E+03  0.45287134893E+03  0.00000000000E+00 0.  1.
          6    1    1    2  501    0  0.50491145853E+02  0.11168701342E+03 -0.27486595317E+03  0.34713633776E+03  0.17300000000E+03 0.  1.
         -6    1    1    2    0  502 -0.50491145853E+02 -0.11168701342E+03 -0.62656345158E+02  0.22108406176E+03  0.17300000000E+03 0.  1.
<mgrwt>
<rscale>  2 0.21201968E+03</rscale>
<asrwt>0</asrwt>
<pdfrwt beam="1">  1       21 0.17746008E-01 0.21201968E+03</pdfrwt>
<pdfrwt beam="2">  1       21 0.69672516E-01 0.21201968E+03</pdfrwt>
<totfact> 0.53460998E+04</totfact>
</mgrwt>
</event>
<event>
 4    1  0.3945627E+000  0.1790233E+03  0.7546771E-02  0.1168752E+00
         21   -1    0    0  501  502  0.00000000000E+00  0.00000000000E+00  0.36648603800E+03  0.36648603800E+03  0.00000000000E+00 0. -1.
         21   -1    0    0  502  503 -0.00000000000E+00 -0.00000000000E+00 -0.13575510625E+03  0.13575510625E+03  0.00000000000E+00 0. -1.
          6    1    1    2  501    0 -0.80876939792E+01 -0.45331361666E+02  0.26516105299E+03  0.31993706751E+03  0.17300000000E+03 0. -1.
         -6    1    1    2    0  503  0.80876939792E+01  0.45331361666E+02 -0.34430121245E+02  0.18230407673E+03  0.17300000000E+03 0. -1.
<mgrwt>
<rscale>  2 0.17902330E+03</rscale>
<asrwt>0</asrwt>
<pdfrwt beam="1">  1       21 0.56382467E-01 0.17902330E+03</pdfrwt>
<pdfrwt beam="2">  1       21 0.20885401E-01 0.17902330E+03</pdfrwt>
<totfact> 0.63370377E+04</totfact>
</mgrwt>
</event>
<event>
 4    1  0.3945627E+000  0.1885964E+03  0.7546771E-02  0.1159733E+00
         21   -1    0    0  503  502  0.00000000000E+00  0.00000000000E+00  0.54236146777E+03  0.54236146777E+03  0.00000000000E+00 0. -1.
         21   -1    0    0  501  503 -0.00000000000E+00 -0.00000000000E+00 -0.18221109641E+03  0.18221109641E+03  0.00000000000E+00 0. -1.
          6    1    1    2  501    0  0.65763478578E+02  0.36259551841E+02 -0.10977251233E+03  0.21821685242E+03  0.17300000000E+03 0. -1.
         -6    1    1    2    0  502 -0.65763478578E+02 -0.36259551841E+02  0.46992288370E+03  0.50635571176E+03  0.17300000000E+03 0. -1.
<mgrwt>
<rscale>  2 0.18859637E+03</rscale>
<asrwt>0</asrwt>
<pdfrwt beam="1">  1       21 0.83440225E-01 0.18859637E+03</pdfrwt>
<pdfrwt beam="2">  1       21 0.28032477E-01 0.18859637E+03</pdfrwt>
<totfact> 0.15235010E+04</totfact>
</mgrwt>
</event>
<event>
 4    1  0.3945627E+000  0.1983830E+03  0.7546771E-02  0.1151110E+00
         21   -1    0    0  503  502  0.00000000000E+00  0.00000000000E+00  0.40775278942E+03  0.40775278942E+03  0.00000000000E+00 0.  1.
         21   -1    0    0  501  503 -0.00000000000E+00 -0.00000000000E+00 -0.10086518047E+03  0.10086518047E+03  0.00000000000E+00 0.  1.
          6    1    1    2  501    0  0.41822735997E+02  0.87622402761E+02  0.10065365600E+03  0.22245670405E+03  0.17300000000E+03 0. -1.
         -6    1    1    2    0  502 -0.41822735997E+02 -0.87622402761E+02  0.20623395296E+03  0.28616126584E+03  0.17300000000E+03 0. -1.
<mgrwt>
<rscale>  2 0.19838303E+03</rscale>
<asrwt>0</asrwt>
<pdfrwt beam="1">  1       21 0.62731197E-01 0.19838303E+03</pdfrwt>
<pdfrwt beam="2">  1       21 0.15517720E-01 0.19838303E+03</pdfrwt>
<totfact> 0.86597757E+04</totfact>
</mgrwt>
</event>
<event>
 4    1  0.3945627E+000  0.2030173E+03  0.7546771E-02  0.1147218E+00
         21   -1    0    0  501  502  0.00000000000E+00  0.00000000000E+00  0.53758428349E+03  0.53758428349E+03  0.00000000000E+00 0. -1.
         21   -1    0    0  502  503 -0.00000000000E+00 -0.00000000000E+00 -0.19955541424E+03  0.19955541424E+03  0.00000000000E+00 0.  1.
          6    1    1    2  501    0  0.86776417894E+02  0.61293327249E+02  0.45824226779E+03  0.50120055333E+03  0.17300000000E+03 0. -1.
         -6    1    1    2    0  503 -0.86776417894E+02 -0.61293327249E+02 -0.12021339855E+03  0.23593914440E+03  0.17300000000E+03 0.  1.
<mgrwt>
<rscale>  2 0.20301729E+03</rscale>
<asrwt>0</asrwt>
<pdfrwt beam="1">  1       21 0.82705274E-01 0.20301729E+03</pdfrwt>
<pdfrwt beam="2">  1       21 0.30700833E-01 0.20301729E+03</pdfrwt>
<totfact> 0.12903495E+04</totfact>
</mgrwt>
</event>
<event>
 4    1  0.3945627E+000  0.2021260E+03  0.7546771E-02  0.1147958E+00
         21   -1    0    0  503  502  0.00000000000E+00  0.00000000000E+00  0.13264445127E+03  0.13264445127E+03  0.00000000000E+00 0.  1.
         21   -1    0    0  501  503 -0.00000000000E+00 -0.00000000000E+00 -0.38383406902E+03  0.38383406902E+03  0.00000000000E+00 0.  1.
          6    1    1    2  501    0 -0.37396757191E+02 -0.97608426947E+02 -0.24037669953E+03  0.31406349698E+03  0.17300000000E+03 0.  1.
         -6    1    1    2    0  502  0.37396757191E+02  0.97608426947E+02 -0.10812918223E+02  0.20241502331E+03  0.17300000000E+03 0.  1.
<mgrwt>
<rscale>  2 0.20212601E+03</rscale>
<asrwt>0</asrwt>
<pdfrwt beam="1">  1       21 0.20406839E-01 0.20212601E+03</pdfrwt>
<pdfrwt beam="2">  1       21 0.59051394E-01 0.20212601E+03</pdfrwt>
<totfact> 0.59340091E+04</totfact>
</mgrwt>
</event>
<event>
 4    1  0.3945627E+000  0.2316593E+03  0.7546771E-02  0.1125477E+00
         21   -1    0    0  501  502  0.00000000000E+00  0.00000000000E+00  0.16895082111E+02  0.16895082111E+02  0.00000000000E+00 0.  1.
         21   -1    0    0  502  503 -0.00000000000E+00 -0.00000000000E+00 -0.31908943564E+04  0.31908943564E+04  0.00000000000E+00 0.  1.
          6    1    1    2  501    0  0.66753318556E+02  0.13885609509E+03 -0.16949915924E+04  0.17107491105E+04  0.17300000000E+03 0.  1.
         -6    1    1    2    0  503 -0.66753318556E+02 -0.13885609509E+03 -0.14790076819E+04  0.14970403280E+04  0.17300000000E+03 0.  1.
<mgrwt>
<rscale>  2 0.23165928E+03</rscale>
<asrwt>0</asrwt>
<pdfrwt beam="1">  1       21 0.25992431E-02 0.23165928E+03</pdfrwt>
<pdfrwt beam="2">  1       21 0.49090688E+00 0.23165928E+03</pdfrwt>
<totfact> 0.16629526E+03</totfact>
</mgrwt>
</event>
<event>
 4    1  0.3945627E+000  0.1924525E+03  0.7546771E-02  0.1156268E+00
         21   -1    0    0  501  502  0.00000000000E+00  0.00000000000E+00  0.10875679294E+03  0.10875679294E+03  0.00000000000E+00 0. -1.
         21   -1    0    0  502  503 -0.00000000000E+00 -0.00000000000E+00 -0.70065339649E+03  0.70065339649E+03  0.00000000000E+00 0. -1.
          6    1    1    2  501    0  0.18031676519E+02  0.82364001421E+02 -0.58160667837E+01  0.19254037686E+03  0.17300000000E+03 0. -1.
         -6    1    1    2    0  503 -0.18031676519E+02 -0.82364001421E+02 -0.58608053677E+03  0.61686981258E+03  0.17300000000E+03 0. -1.
<mgrwt>
<rscale>  2 0.19245251E+03</rscale>
<asrwt>0</asrwt>
<pdfrwt beam="1">  1       21 0.16731815E-01 0.19245251E+03</pdfrwt>
<pdfrwt beam="2">  1       21 0.10779283E+00 0.19245251E+03</pdfrwt>
<totfact> 0.22036198E+04</totfact>
</mgrwt>
</event>
<event>
 4    1  0.3945627E+000  0.2159118E+03  0.7546771E-02  0.1136968E+00
         21   -1    0    0  503  502  0.00000000000E+00  0.00000000000E+00  0.17760306461E+03  0.17760306461E+03  0.00000000000E+00 0. -1.
         21   -1    0    0  501  503 -0.00000000000E+00 -0.00000000000E+00 -0.27746686576E+03  0.27746686576E+03  0.00000000000E+00 0. -1.
          6    1    1    2  501    0  0.73096017044E+02 -0.10651697929E+03  0.29425163584E+01  0.21593182486E+03  0.17300000000E+03 0. -1.
         -6    1    1    2    0  502 -0.73096017044E+02  0.10651697929E+03 -0.10280631751E+03  0.23913810550E+03  0.17300000000E+03 0. -1.
<mgrwt>
<rscale>  2 0.21591178E+03</rscale>
<asrwt>0</asrwt>
<pdfrwt beam="1">  1       21 0.27323548E-01 0.21591178E+03</pdfrwt>
<pdfrwt beam="2">  1       21 0.42687210E-01 0.21591178E+03</pdfrwt>
<totfact> 0.66734091E+04</totfact>
</mgrwt>
</event>
<event>
 4    1  0.3945627E+000  0.1842644E+03  0.7546771E-02  0.1163739E+00
         21   -1    0    0  501  502  0.00000000000E+00  0.00000000000E+00  0.79694800052E+03  0.79694800052E+03  0.00000000000E+00 0.  1.
         21   -1    0    0  502  503 -0.00000000000E+00 -0.00000000000E+00 -0.54309175026E+02  0.54309175026E+02  0.00000000000E+00 0.  1.
          6    1    1    2  501    0  0.41059838295E+02  0.48357562045E+02  0.17372316872E+03  0.25324514502E+03  0.17300000000E+03 0.  1.
         -6    1    1    2    0  503 -0.41059838295E+02 -0.48357562045E+02  0.56891565678E+03  0.59801203053E+03  0.17300000000E+03 0.  1.
<mgrwt>
<rscale>  2 0.18426439E+03</rscale>
<asrwt>0</asrwt>
<pdfrwt beam="1">  1       21 0.12260738E+00 0.18426439E+03</pdfrwt>
<pdfrwt beam="2">  1       21 0.83552582E-02 0.18426439E+03</pdfrwt>
<totfact> 0.55929892E+04</totfact>
</mgrwt>
</event>
<event>
 4    1  0.3945627E+000  0.2308907E+03  0.7546771E-02  0.1126014E+00
         21   -1    0    0  503  502  0.00000000000E+00  0.00000000000E+00  0.60892247734E+02  0.60892247734E+02  0.00000000000E+00 0. -1.
         21   -1    0    0  501  503 -0.00000000000E+00 -0.00000000000E+00 -0.10761747633E+04  0.10761747633E+04  0.00000000000E+00 0.  1.
          6    1    1    2  501    0  0.20550234695E+02 -0.15152293613E+03 -0.75315318914E+03  0.78775011180E+03  0.17300000000E+03 0.  1.
         -6    1    1    2    0  502 -0.20550234695E+02  0.15152293613E+03 -0.26212932641E+03  0.34931689923E+03  0.17300000000E+03 0. -1.
<mgrwt>
<rscale>  2 0.23089069E+03</rscale>
<asrwt>0</asrwt>
<pdfrwt beam="1">  1       21 0.93680386E-02 0.23089069E+03</pdfrwt>
<pdfrwt beam="2">  1       21 0.16556534E+00 0.23089069E+03</pdfrwt>
<totfact> 0.20365425E+04</totfact>
</mgrwt>
</event>
<event>
 4    1  0.3945627E+000  0.1809544E+03  0.7546771E-02  0.1166883E+00
         21   -1    0    0  501  502  0.00000000000E+00  0.00000000000E+00  0.72269921329E+02  0.72269921329E+02  0.00000000000E+00 0. -1.
         21   -1    0    0  502  503 -0.00000000000E+00 -0.00000000000E+00 -0.47525550064E+03  0.47525550064E+03  0.00000000000E+00 0.  1.
          6    1    1    2  501    0  0.13460373737E+02 -0.51325608925E+02 -0.14236559316E+03  0.23024435261E+03  0.17300000000E+03 0. -1.
         -6    1    1    2    0  503 -0.13460373737E+02  0.51325608925E+02 -0.26061998615E+03  0.31728106936E+03  0.17300000000E+03 0.  1.
<mgrwt>
<rscale>  2 0.18095441E+03</rscale>
<asrwt>0</asrwt>
<pdfrwt beam="1">  1       21 0.11118450E-01 0.18095441E+03</pdfrwt>
<pdfrwt beam="2">  1       21 0.73116229E-01 0.18095441E+03</pdfrwt>
<totfact> 0.11363333E+05</totfact>
</mgrwt>
</event>
<event>
 4    1  0.3945627E+000  0.2115247E+03  0.7546771E-02  0.1140364E+00
         21   -1    0    0  503  502  0.00000000000E+00  0.00000000000E+00  0.68545692171E+02  0.68545692171E+02  0.00000000000E+00 0.  1.
         21   -1    0    0  501  503 -0.00000000000E+00 -0.00000000000E+00 -0.81309775260E+03  0.81309775260E+03  0.00000000000E+00 0. -1.
          6    1    1    2  501    0  0.87204348116E+02 -0.84906525313E+02 -0.56803993148E+03  0.60614526322E+03  0.17300000000E+03 0. -1.
         -6    1    1    2    0  502 -0.87204348116E+02  0.84906525313E+02 -0.17651212895E+03  0.27549818155E+03  0.17300000000E+03 0.  1.
<mgrwt>
<rscale>  2 0.21152474E+03</rscale>
<asrwt>0</asrwt>
<pdfrwt beam="1">  1       21 0.10545491E-01 0.21152474E+03</pdfrwt>
<pdfrwt beam="2">  1       21 0.12509196E+00 0.21152474E+03</pdfrwt>
<totfact> 0.34793775E+04</totfact>
</mgrwt>
</event>
<event>
 4    1  0.3945627E+000  0.2113649E+03  0.7546771E-02  0.1140490E+00
         21   -1    0    0  503  502  0.00000000000E+00  0.00000000000E+00  0.30436254935E+03  0.30436254935E+03  0.00000000000E+00 0.  1.
         21   -1    0    0  501  503 -0.00000000000E+00 -0.00000000000E+00 -0.31905472525E+03  0.31905472525E+03  0.00000000000E+00 0.  1.
          6    1    1    2  501    0  0.10847077709E+03  0.54591319151E+02 -0.23639264678E+03  0.31710661466E+03  0.17300000000E+03 0.  1.
         -6    1    1    2    0  502 -0.10847077709E+03 -0.54591319151E+02  0.22170047088E+03  0.30631065994E+03  0.17300000000E+03 0.  1.
<mgrwt>
<rscale>  2 0.21136490E+03</rscale>
<asrwt>0</asrwt>
<pdfrwt beam="1">  1       21 0.46825008E-01 0.21136490E+03</pdfrwt>
<pdfrwt beam="2">  1       21 0.49085342E-01 0.21136490E+03</pdfrwt>
<totfact> 0.17092045E+04</totfact>
</mgrwt>
</event>
<event>
 4    1  0.3945627E+000  0.2418277E+03  0.7546771E-02  0.1118581E+00
         21   -1    0    0  501  502  0.00000000000E+00  0.00000000000E+00  0.76457271096E+02  0.76457271096E+02  0.00000000000E+00 0. -1.
         21   -1    0    0  502  503 -0.00000000000E+00 -0.00000000000E+00 -0.83548143889E+03  0.83548143889E+03  0.00000000000E+00 0.  1.
          6    1    1    2  501    0 -0.14218042231E+03  0.91303674160E+02 -0.24696377417E+03  0.34564684167E+03  0.17300000000E+03 0. -1.
         -6    1    1    2    0  503  0.14218042231E+03 -0.91303674160E+02 -0.51206039362E+03  0.56629186832E+03  0.17300000000E+03 0.  1.
<mgrwt>
<rscale>  2 0.24182769E+03</rscale>
<asrwt>0</asrwt>
<pdfrwt beam="1">  1       21 0.11762656E-01 0.24182769E+03</pdfrwt>
<pdfrwt beam="2">  1       21 0.12853561E+00 0.24182769E+03</pdfrwt>
<totfact> 0.26302636E+04</totfact>
</mgrwt>
</event>
<event>
 4    1  0.3945627E+000  0.1888397E+03  0.7546771E-02  0.1159512E+00
         21   -1    0    0  503  502  0.00000000000E+00  0.00000000000E+00  0.17554224284E+03  0.17554224284E+03  0.00000000000E+00 0. -1.
         21   -1    0    0  501  503 -0.00000000000E+00 -0.00000000000E+00 -0.33301438221E+03  0.33301438221E+03  0.00000000000E+00 0.  1.
          6    1    1    2  501    0  0.34629282212E+02  0.67322049153E+02 -0.23752930875E+03  0.30344788351E+03  0.17300000000E+03 0.  1.
         -6    1    1    2    0  502 -0.34629282212E+02 -0.67322049153E+02  0.80057169384E+02  0.20510874155E+03  0.17300000000E+03 0. -1.
<mgrwt>
<rscale>  2 0.18883973E+03</rscale>
<asrwt>0</asrwt>
<pdfrwt beam="1">  1       21 0.27006499E-01 0.18883973E+03</pdfrwt>
<pdfrwt beam="2">  1       21 0.51232982E-01 0.18883973E+03</pdfrwt>
<totfact> 0.47393366E+04</totfact>
</mgrwt>
</event>
<event>
 4    1  0.3945627E+000  0.2362974E+03  0.7546771E-02  0.1122284E+00
         21   -1    0    0  503  502  0.00000000000E+00  0.00000000000E+00  0.79758225179E+02  0.79758225179E+02  0.00000000000E+00 0. -1.
         21   -1    0    0  501  503 -0.00000000000E+00 -0.00000000000E+00 -0.70303372084E+03  0.70303372084E+03  0.00000000000E+00 0.  1.
          6    1    1    2  501    0 -0.14337874139E+03  0.73143654970E+02 -0.28623156766E+03  0.37116703527E+03  0.17300000000E+03 0.  1.
         -6    1    1    2    0  502  0.14337874139E+03 -0.73143654970E+02 -0.33704392800E+03  0.41162491075E+03  0.17300000000E+03 0. -1.
<mgrwt>
<rscale>  2 0.23629739E+03</rscale>
<asrwt>0</asrwt>
<pdfrwt beam="1">  1       21 0.12270496E-01 0.23629739E+03</pdfrwt>
<pdfrwt beam="2">  1       21 0.10815904E+00 0.23629739E+03</pdfrwt>
<totfact> 0.37498952E+04</totfact>
</mgrwt>
</event>
<event>
 4    1  0.3945627E+000  0.2024355E+03  0.7546771E-02  0.1147700E+00
         21   -1    0    0  503  502  0.00000000000E+00  0.00000000000E+00  0.21915297005E+02  0.21915297005E+02  0.00000000000E+00 0.  1.
         21   -1    0    0  501  503 -0.00000000000E+00 -0.00000000000E+00 -0.21040954350E+04  0.21040954350E+04  0.00000000000E+00 0.  1.
          6    1    1    2  501    0  0.10497358980E+03  0.56286523997E+01 -0.13957085670E+04  0.14103129228E+04  0.17300000000E+03 0.  1.
         -6    1    1    2    0  502 -0.10497358980E+03 -0.56286523997E+01 -0.68647157100E+03  0.71569780919E+03  0.17300000000E+03 0.  1.
<mgrwt>
<rscale>  2 0.20243551E+03</rscale>
<asrwt>0</asrwt>
<pdfrwt beam="1">  1       21 0.33715842E-02 0.20243551E+03</pdfrwt>
<pdfrwt beam="2">  1       21 0.32370699E+00 0.20243551E+03</pdfrwt>
<totfact> 0.12848755E+04</totfact>
</mgrwt>
</event>
<event>
 4    1  0.3945627E+000  0.3442090E+03  0.7546771E-02  0.1065017E+00
         21   -1    0    0  503  502  0.00000000000E+00  0.00000000000E+00  0.20566022139E+03  0.20566022139E+03  0.00000000000E+00 0. -1.
         21   -1    0    0  501  503 -0.00000000000E+00 -0.00000000000E+00 -0.62124970261E+03  0.62124970261E+03  0.00000000000E+00 0. -1.
          6    1    1    2  501    0  0.29755367918E+03  0.35550051470E+01 -0.31926178663E+03  0.46947621714E+03  0.17300000000E+03 0. -1.
         -6    1    1    2    0  502 -0.29755367918E+03 -0.35550051470E+01 -0.96327694600E+02  0.35743370687E+03  0.17300000000E+03 0. -1.
<mgrwt>
<rscale>  2 0.34420899E+03</rscale>
<asrwt>0</asrwt>
<pdfrwt beam="1">  1       21 0.31640035E-01 0.34420899E+03</pdfrwt>
<pdfrwt beam="2">  1       21 0.95576875E-01 0.34420899E+03</pdfrwt>
<totfact> 0.80703207E+03</totfact>
</mgrwt>
</event>
<event>
 4    1  0.3945627E+000  0.2345037E+03  0.7546771E-02  0.1123509E+00
         21   -1    0    0  501  502  0.00000000000E+00  0.00000000000E+00  0.81869780632E+03  0.81869780632E+03  0.00000000000E+00 0. -1.
         21   -1    0    0  502  503 -0.00000000000E+00 -0.00000000000E+00 -0.97932970437E+02  0.97932970437E+02  0.00000000000E+00 0. -1.
          6    1    1    2  501    0 -0.15829457477E+03 -0.24111670397E+01  0.61725256834E+03  0.66029744756E+03  0.17300000000E+03 0. -1.
         -6    1    1    2    0  503  0.15829457477E+03  0.24111670397E+01  0.10351226755E+03  0.25633332920E+03  0.17300000000E+03 0. -1.
<mgrwt>
<rscale>  2 0.23450370E+03</rscale>
<asrwt>0</asrwt>
<pdfrwt beam="1">  1       21 0.12595350E+00 0.23450370E+03</pdfrwt>
<pdfrwt beam="2">  1       21 0.15066611E-01 0.23450370E+03</pdfrwt>
<totfact> 0.17746583E+04</totfact>
</mgrwt>
</event>
<event>
 4    1  0.3945627E+000  0.2273021E+03  0.7546771E-02  0.1128553E+00
         21   -1    0    0  501  502  0.00000000000E+00  0.00000000000E+00  0.28855329679E+03  0.28855329679E+03  0.00000000000E+00 0.  1.
         21   -1    0    0  502  503 -0.00000000000E+00 -0.00000000000E+00 -0.42365737692E+03  0.42365737692E+03  0.00000000000E+00 0.  1.
          6    1    1    2  501    0  0.13558768441E+03  0.57907126442E+02  0.20303279185E+03  0.30477626224E+03  0.17300000000E+03 0.  1.
         -6    1    1    2    0  503 -0.13558768441E+03 -0.57907126442E+02 -0.33813687199E+03  0.40743441148E+03  0.17300000000E+03 0.  1.
<mgrwt>
<rscale>  2 0.22730212E+03</rscale>
<asrwt>0</asrwt>
<pdfrwt beam="1">  1       21 0.44392815E-01 0.22730212E+03</pdfrwt>
<pdfrwt beam="2">  1       21 0.65178058E-01 0.22730212E+03</pdfrwt>
<totfact> 0.10320430E+04</totfact>
</mgrwt>
</event>
<event>
 4    1  0.3945627E+000  0.1815846E+03  0.7546771E-02  0.1166278E+00
         21   -1    0    0  501  502  0.00000000000E+00  0.00000000000E+00  0.47174967384E+03  0.47174967384E+03  0.00000000000E+00 0.  1.
         21   -1    0    0  502  503 -0.00000000000E+00 -0.00000000000E+00 -0.74158868915E+02  0.74158868915E+02  0.00000000000E+00 0.  1.
          6    1    1    2  501    0 -0.42981557687E+02 -0.34591374129E+02  0.13334586274E+03  0.22528669862E+03  0.17300000000E+03 0. -1.
         -6    1    1    2    0  503  0.42981557687E+02  0.34591374129E+02  0.26424494219E+03  0.32062184414E+03  0.17300000000E+03 0. -1.
<mgrwt>
<rscale>  2 0.18158463E+03</rscale>
<asrwt>0</asrwt>
<pdfrwt beam="1">  1       21 0.72576871E-01 0.18158463E+03</pdfrwt>
<pdfrwt beam="2">  1       21 0.11409057E-01 0.18158463E+03</pdfrwt>
<totfact> 0.11030691E+05</totfact>
</mgrwt>
</event>
<event>
 4    1  0.3945627E+000  0.1974701E+03  0.7546771E-02  0.1151891E+00
         21   -1    0    0  503  502  0.00000000000E+00  0.00000000000E+00  0.73298703640E+02  0.73298703640E+02  0.00000000000E+00 0.  1.
         21   -1    0    0  501  503 -0.00000000000E+00 -0.00000000000E+00 -0.55008213899E+03  0.55008213899E+03  0.00000000000E+00 0.  1.
          6    1    1    2  501    0 -0.35958810092E+02 -0.88161156140E+02 -0.18187017475E+03  0.26846077170E+03  0.17300000000E+03 0.  1.
         -6    1    1    2    0  502  0.35958810092E+02  0.88161156140E+02 -0.29491326060E+03  0.35492007093E+03  0.17300000000E+03 0.  1.
<mgrwt>
<rscale>  2 0.19747006E+03</rscale>
<asrwt>0</asrwt>
<pdfrwt beam="1">  1       21 0.11276724E-01 0.19747006E+03</pdfrwt>
<pdfrwt beam="2">  1       21 0.84628021E-01 0.19747006E+03</pdfrwt>
<totfact> 0.79190179E+04</totfact>
</mgrwt>
</event>
<event>
 4    1  0.3945627E+000  0.2077536E+03  0.7546771E-02  0.1143357E+00
         21   -1    0    0  503  502  0.00000000000E+00  0.00000000000E+00  0.10462513896E+03  0.10462513896E+03  0.00000000000E+00 0.  1.
         21   -1    0    0  501  503 -0.00000000000E+00 -0.00000000000E+00 -0.52180051768E+03  0.52180051768E+03  0.00000000000E+00 0. -1.
          6    1    1    2  501    0 -0.32535456724E+02  0.11033593464E+03 -0.35191469932E+03  0.40866310087E+03  0.17300000000E+03 0. -1.
         -6    1    1    2    0  502  0.32535456724E+02 -0.11033593464E+03 -0.65260679402E+02  0.21776255576E+03  0.17300000000E+03 0.  1.
<mgrwt>
<rscale>  2 0.20775364E+03</rscale>
<asrwt>0</asrwt>
<pdfrwt beam="1">  1       21 0.16096175E-01 0.20775364E+03</pdfrwt>
<pdfrwt beam="2">  1       21 0.80277002E-01 0.20775364E+03</pdfrwt>
<totfact> 0.46706087E+04</totfact>
</mgrwt>
</event>
<event>
 4    1  0.3945627E+000  0.2038090E+03  0.7546771E-02  0.1146565E+00
         21   -1    0    0  503  502  0.00000000000E+00  0.00000000000E+00  0.25593819475E+03  0.25593819475E+03  0.00000000000E+00 0.  1.
         21   -1    0    0  501  503 -0.00000000000E+00 -0.00000000000E+00 -0.16479560532E+03  0.16479560532E+03  0.00000000000E+00 0.  1.
          6    1    1    2  501    0  0.34729406982E+02  0.10199504569E+03  0.19670522038E+02  0.20475607559E+03  0.17300000000E+03 0.  1.
         -6    1    1    2    0  502 -0.34729406982E+02 -0.10199504569E+03  0.71472067385E+02  0.21597772448E+03  0.17300000000E+03 0.  1.
<mgrwt>
<rscale>  2 0.20380903E+03</rscale>
<asrwt>0</asrwt>
<pdfrwt beam="1">  1       21 0.39375107E-01 0.20380903E+03</pdfrwt>
<pdfrwt beam="2">  1       21 0.25353170E-01 0.20380903E+03</pdfrwt>
<totfact> 0.91269907E+04</totfact>
</mgrwt>
</event>
<event>
 4    1  0.3945627E+000  0.2778606E+03  0.7546771E-02  0.1096863E+00
         21   -1    0    0  501  502  0.00000000000E+00  0.00000000000E+00  0.52822001865E+03  0.52822001865E+03  0.00000000000E+00 0. -1.
         21   -1    0    0  502  503 -0.00000000000E+00 -0.00000000000E+00 -0.21671249588E+03  0.21671249588E+03  0.00000000000E+00 0. -1.
          6    1    1    2  501    0  0.18673195385E+03 -0.11139424017E+03  0.36826911047E+03  0.46133354209E+03  0.17300000000E+03 0. -1.
         -6    1    1    2    0  503 -0.18673195385E+03  0.11139424017E+03 -0.56761587695E+02  0.28359897244E+03  0.17300000000E+03 0. -1.
<mgrwt>
<rscale>  2 0.27786058E+03</rscale>
<asrwt>0</asrwt>
<pdfrwt beam="1">  1       21 0.81264618E-01 0.27786058E+03</pdfrwt>
<pdfrwt beam="2">  1       21 0.33340384E-01 0.27786058E+03</pdfrwt>
<totfact> 0.10941847E+04</totfact>
</mgrwt>
</event>
<event>
 4    1  0.3945627E+000  0.1866785E+03  0.7546771E-02  0.1161492E+00
         21   -1    0    0  503  502  0.00000000000E+00  0.00000000000E+00  0.39657758911E+03  0.39657758911E+03  0.00000000000E+00 0.  1.
         21   -1    0    0  501  503 -0.00000000000E+00 -0.00000000000E+00 -0.16318864381E+03  0.16318864381E+03  0.00000000000E+00 0.  1.
          6    1    1    2  501    0  0.53738043204E+02  0.45078691183E+02 -0.73444612326E+02  0.20060652224E+03  0.17300000000E+03 0.  1.
         -6    1    1    2    0  502 -0.53738043204E+02 -0.45078691183E+02  0.30683355763E+03  0.35915971067E+03  0.17300000000E+03 0.  1.
<mgrwt>
<rscale>  2 0.18667851E+03</rscale>
<asrwt>0</asrwt>
<pdfrwt beam="1">  1       21 0.61011936E-01 0.18667851E+03</pdfrwt>
<pdfrwt beam="2">  1       21 0.25105945E-01 0.18667851E+03</pdfrwt>
<totfact> 0.37671808E+04</totfact>
</mgrwt>
</event>
<event>
 4    1  0.3945627E+000  0.1739644E+03  0.7546771E-02  0.1173776E+00
         21   -1    0    0  503  502  0.00000000000E+00  0.00000000000E+00  0.29469441034E+03  0.29469441034E+03  0.00000000000E+00 0.  1.
         21   -1    0    0  501  503 -0.00000000000E+00 -0.00000000000E+00 -0.15289534477E+03  0.15289534477E+03  0.00000000000E+00 0.  1.
          6    1    1    2  501    0  0.17145098001E+02 -0.63770542493E+01 -0.57335495669E+02  0.18316926672E+03  0.17300000000E+03 0.  1.
         -6    1    1    2    0  502 -0.17145098001E+02  0.63770542493E+01  0.19913456124E+03  0.26442048840E+03  0.17300000000E+03 0.  1.
<mgrwt>
<rscale>  2 0.17396443E+03</rscale>
<asrwt>0</asrwt>
<pdfrwt beam="1">  1       21 0.45337602E-01 0.17396443E+03</pdfrwt>
<pdfrwt beam="2">  1       21 0.23522361E-01 0.17396443E+03</pdfrwt>
<totfact> 0.79985105E+04</totfact>
</mgrwt>
</event>
<event>
 4    1  0.3945627E+000  0.1931045E+03  0.7546771E-02  0.1155691E+00
         21   -1    0    0  501  502  0.00000000000E+00  0.00000000000E+00  0.71853572697E+02  0.71853572697E+02  0.00000000000E+00 0. -1.
         21   -1    0    0  502  503 -0.00000000000E+00 -0.00000000000E+00 -0.60470448159E+03  0.60470448159E+03  0.00000000000E+00 0.  1.
          6    1    1    2  501    0 -0.60394912778E+02  0.60932622943E+02 -0.13904595977E+03  0.23795610720E+03  0.17300000000E+03 0. -1.
         -6    1    1    2    0  503  0.60394912778E+02 -0.60932622943E+02 -0.39380494913E+03  0.43860194708E+03  0.17300000000E+03 0.  1.
<mgrwt>
<rscale>  2 0.19310445E+03</rscale>
<asrwt>0</asrwt>
<pdfrwt beam="1">  1       21 0.11054396E-01 0.19310445E+03</pdfrwt>
<pdfrwt beam="2">  1       21 0.93031460E-01 0.19310445E+03</pdfrwt>
<totfact> 0.66076231E+04</totfact>
</mgrwt>
</event>
<event>
 4    1  0.3945627E+000  0.2706464E+03  0.7546771E-02  0.1100910E+00
         21   -1    0    0  501  502  0.00000000000E+00  0.00000000000E+00  0.10116745145E+04  0.10116745145E+04  0.00000000000E+00 0. -1.
         21   -1    0    0  502  503 -0.00000000000E+00 -0.00000000000E+00 -0.72553138219E+02  0.72553138219E+02  0.00000000000E+00 0.  1.
          6    1    1    2  501    0  0.10163922165E+01  0.20813324925E+03  0.49412289925E+03  0.56338878410E+03  0.17300000000E+03 0. -1.
         -6    1    1    2    0  503 -0.10163922165E+01 -0.20813324925E+03  0.44499847702E+03  0.52083886860E+03  0.17300000000E+03 0.  1.
<mgrwt>
<rscale>  2 0.27064642E+03</rscale>
<asrwt>0</asrwt>
<pdfrwt beam="1">  1       21 0.15564222E+00 0.27064642E+03</pdfrwt>
<pdfrwt beam="2">  1       21 0.11162022E-01 0.27064642E+03</pdfrwt>
<totfact> 0.17263097E+04</totfact>
</mgrwt>
</event>
<event>
 4    1  0.3945627E+000  0.2080260E+03  0.7546771E-02  0.1143139E+00
         21   -1    0    0  501  502  0.00000000000E+00  0.00000000000E+00  0.87849843709E+02  0.87849843709E+02  0.00000000000E+00 0. -1.
         21   -1    0    0  502  503 -0.00000000000E+00 -0.00000000000E+00 -0.51619781985E+03  0.51619781985E+03  0.00000000000E+00 0.  1.
          6    1    1    2  501    0 -0.82852180055E+02  0.80506785011E+02 -0.14959818926E+03  0.25623123229E+03  0.17300000000E+03 0. -1.
         -6    1    1    2    0  503  0.82852180055E+02 -0.80506785011E+02 -0.27874978689E+03  0.34781643127E+03  0.17300000000E+03 0. -1.
<mgrwt>
<rscale>  2 0.20802602E+03</rscale>
<asrwt>0</asrwt>
<pdfrwt beam="1">  1       21 0.13515361E-01 0.20802602E+03</pdfrwt>
<pdfrwt beam="2">  1       21 0.79415048E-01 0.20802602E+03</pdfrwt>
<totfact> 0.65795216E+04</totfact>
</mgrwt>
</event>
<event>
 4    1  0.3945627E+000  0.2319660E+03  0.7546771E-02  0.1125264E+00
         21   -1    0    0  501  502  0.00000000000E+00  0.00000000000E+00  0.15200723362E+04  0.15200723362E+04  0.00000000000E+00 0.  1.
         21   -1    0    0  502  503 -0.00000000000E+00 -0.00000000000E+00 -0.10845920706E+03  0.10845920706E+03  0.00000000000E+00 0.  1.
          6    1    1    2  501    0  0.15490853236E+02 -0.15375070577E+03  0.13741119636E+04  0.13935537071E+04  0.17300000000E+03 0.  1.
         -6    1    1    2    0  503 -0.15490853236E+02  0.15375070577E+03  0.37501165503E+02  0.23497783613E+03  0.17300000000E+03 0.  1.
<mgrwt>
<rscale>  2 0.23196605E+03</rscale>
<asrwt>0</asrwt>
<pdfrwt beam="1">  1       21 0.23385727E+00 0.23196605E+03</pdfrwt>
<pdfrwt beam="2">  1       21 0.16686033E-01 0.23196605E+03</pdfrwt>
<totfact> 0.25728405E+03</totfact>
</mgrwt>
</event>
<event>
 4    1  0.3945627E+000  0.1787509E+03  0.7546771E-02  0.1169017E+00
         21   -1    0    0  503  502  0.00000000000E+00  0.00000000000E+00  0.61409689410E+03  0.61409689410E+03  0.00000000000E+00 0.  1.
         21   -1    0    0  501  503 -0.00000000000E+00 -0.00000000000E+00 -0.10567092853E+03  0.10567092853E+03  0.00000000000E+00 0.  1.
          6    1    1    2  501    0 -0.35725911295E+02 -0.27323150043E+02 -0.21940621214E+01  0.17876439571E+03  0.17300000000E+03 0.  1.
         -6    1    1    2    0  502  0.35725911295E+02  0.27323150043E+02  0.51062002768E+03  0.54100342692E+03  0.17300000000E+03 0.  1.
<mgrwt>
<rscale>  2 0.17875093E+03</rscale>
<asrwt>0</asrwt>
<pdfrwt beam="1">  1       21 0.94476443E-01 0.17875093E+03</pdfrwt>
<pdfrwt beam="2">  1       21 0.16257066E-01 0.17875093E+03</pdfrwt>
<totfact> 0.32024698E+04</totfact>
</mgrwt>
</event>
<event>
 4    1  0.3945627E+000  0.1945416E+03  0.7546771E-02  0.1154428E+00
         21   -1    0    0  501  502  0.00000000000E+00  0.00000000000E+00  0.40595087270E+03  0.40595087270E+03  0.00000000000E+00 0. -1.
         21   -1    0    0  502  503 -0.00000000000E+00 -0.00000000000E+00 -0.32876740252E+03  0.32876740252E+03  0.00000000000E+00 0.  1.
          6    1    1    2  501    0  0.53332772094E+02  0.71225361259E+02  0.34953219540E+03  0.40002398964E+03  0.17300000000E+03 0. -1.
         -6    1    1    2    0  503 -0.53332772094E+02 -0.71225361259E+02 -0.27234872523E+03  0.33469428558E+03  0.17300000000E+03 0.  1.
<mgrwt>
<rscale>  2 0.19454161E+03</rscale>
<asrwt>0</asrwt>
<pdfrwt beam="1">  1       21 0.62453981E-01 0.19454161E+03</pdfrwt>
<pdfrwt beam="2">  1       21 0.50579600E-01 0.19454161E+03</pdfrwt>
<totfact> 0.88300283E+03</totfact>
</mgrwt>
</event>
<event>
 4    1  0.3945627E+000  0.4536579E+03  0.7546771E-02  0.1026637E+00
         21   -1    0    0  503  502  0.00000000000E+00  0.00000000000E+00  0.22915466101E+03  0.22915466101E+03  0.00000000000E+00 0.  1.
         21   -1    0    0  501  503 -0.00000000000E+00 -0.00000000000E+00 -0.10296279651E+04  0.10296279651E+04  0.00000000000E+00 0. -1.
          6    1    1    2  501    0  0.26227242794E+02 -0.41855542784E+03 -0.17529116449E+03  0.48634607718E+03  0.17300000000E+03 0. -1.
         -6    1    1    2    0  502 -0.26227242794E+02  0.41855542784E+03 -0.62518213957E+03  0.77243654890E+03  0.17300000000E+03 0.  1.
<mgrwt>
<rscale>  2 0.45365793E+03</rscale>
<asrwt>0</asrwt>
<pdfrwt beam="1">  1       21 0.35254564E-01 0.45365793E+03</pdfrwt>
<pdfrwt beam="2">  1       21 0.15840430E+00 0.45365793E+03</pdfrwt>
<totfact> 0.17064917E+03</totfact>
</mgrwt>
</event>
<event>
 4    1  0.3945627E+000  0.1858357E+03  0.7546771E-02  0.1162272E+00
         21   -1    0    0  503  502  0.00000000000E+00  0.00000000000E+00  0.38671110484E+03  0.38671110484E+03  0.00000000000E+00 0. -1.
         21   -1    0    0  501  503 -0.00000000000E+00 -0.00000000000E+00 -0.19498023651E+03  0.19498023651E+03  0.00000000000E+00 0. -1.
          6    1    1    2  501    0 -0.63908773884E+02 -0.22837938301E+02 -0.11825380313E+03  0.22026998152E+03  0.17300000000E+03 0. -1.
         -6    1    1    2    0  502  0.63908773884E+02  0.22837938301E+02  0.30998467146E+03  0.36142135983E+03  0.17300000000E+03 0. -1.
<mgrwt>
<rscale>  2 0.18583569E+03</rscale>
<asrwt>0</asrwt>
<pdfrwt beam="1">  1       21 0.59494016E-01 0.18583569E+03</pdfrwt>
<pdfrwt beam="2">  1       21 0.29996959E-01 0.18583569E+03</pdfrwt>
<totfact> 0.28229287E+04</totfact>
</mgrwt>
</event>
<event>
 4    1  0.3945627E+000  0.2294364E+03  0.7546771E-02  0.1127037E+00
         21   -1    0    0  503  502  0.00000000000E+00  0.00000000000E+00  0.10274451764E+03  0.10274451764E+03  0.00000000000E+00 0.  1.
         21   -1    0    0  501  503 -0.00000000000E+00 -0.00000000000E+00 -0.59037701891E+03  0.59037701891E+03  0.00000000000E+00 0. -1.
          6    1    1    2  501    0 -0.14816501771E+03 -0.27553706557E+02 -0.36980715644E+03  0.43519927869E+03  0.17300000000E+03 0. -1.
         -6    1    1    2    0  502  0.14816501771E+03  0.27553706557E+02 -0.11782534483E+03  0.25792225786E+03  0.17300000000E+03 0.  1.
<mgrwt>
<rscale>  2 0.22943644E+03</rscale>
<asrwt>0</asrwt>
<pdfrwt beam="1">  1       21 0.15806849E-01 0.22943644E+03</pdfrwt>
<pdfrwt beam="2">  1       21 0.90827233E-01 0.22943644E+03</pdfrwt>
<totfact> 0.35975977E+04</totfact>
</mgrwt>
</event>
<event>
 4    1  0.3945627E+000  0.2411152E+03  0.7546771E-02  0.1119052E+00
         21   -1    0    0  501  502  0.00000000000E+00  0.00000000000E+00  0.80600891107E+03  0.80600891107E+03  0.00000000000E+00 0.  1.
         21   -1    0    0  502  503 -0.00000000000E+00 -0.00000000000E+00 -0.82854648380E+02  0.82854648380E+02  0.00000000000E+00 0. -1.
          6    1    1    2  501    0 -0.11227103218E+03 -0.12491104853E+03  0.52148137989E+03  0.57452535565E+03  0.17300000000E+03 0.  1.
         -6    1    1    2    0  503  0.11227103218E+03  0.12491104853E+03  0.20167288280E+03  0.31433820380E+03  0.17300000000E+03 0. -1.
<mgrwt>
<rscale>  2 0.24111523E+03</rscale>
<asrwt>0</asrwt>
<pdfrwt beam="1">  1       21 0.12400137E+00 0.24111523E+03</pdfrwt>
<pdfrwt beam="2">  1       21 0.12746870E-01 0.24111523E+03</pdfrwt>
<totfact> 0.24929915E+04</totfact>
</mgrwt>
</event>
<event>
 4    1  0.3945627E+000  0.3161444E+03  0.7546771E-02  0.1077438E+00
         21   -1    0    0  503  502  0.00000000000E+00  0.00000000000E+00  0.35062984144E+03  0.35062984144E+03  0.00000000000E+00 0. -1.
         21   -1    0    0  501  503 -0.00000000000E+00 -0.00000000000E+00 -0.28886954021E+03  0.28886954021E+03  0.00000000000E+00 0.  1.
          6    1    1    2  501    0 -0.18143486227E+03  0.19261270202E+03 -0.58843072882E+01  0.31619912602E+03  0.17300000000E+03 0.  1.
         -6    1    1    2    0  502  0.18143486227E+03 -0.19261270202E+03  0.67644608518E+02  0.32330025563E+03  0.17300000000E+03 0.  1.
<mgrwt>
<rscale>  2 0.31614437E+03</rscale>
<asrwt>0</asrwt>
<pdfrwt beam="1">  1       21 0.53943053E-01 0.31614437E+03</pdfrwt>
<pdfrwt beam="2">  1       21 0.44441468E-01 0.31614437E+03</pdfrwt>
<totfact> 0.14840153E+04</totfact>
</mgrwt>
</event>
<event>
 4    1  0.3945627E+000  0.2000731E+03  0.7546771E-02  0.1149677E+00
         21   -1    0    0  501  502  0.00000000000E+00  0.00000000000E+00  0.61602292650E+03  0.61602292650E+03  0.00000000000E+00 0. -1.
         21   -1    0    0  502  503 -0.00000000000E+00 -0.00000000000E+00 -0.10414050310E+03  0.10414050310E+03  0.00000000000E+00 0. -1.
          6    1    1    2  501    0  0.89952450068E+02 -0.44819870418E+02  0.47674906470E+03  0.51702894962E+03  0.17300000000E+03 0. -1.
         -6    1    1    2    0  503 -0.89952450068E+02  0.44819870418E+02  0.35133358700E+02  0.20313447997E+03  0.17300000000E+03 0. -1.
<mgrwt>
<rscale>  2 0.20007315E+03</rscale>
<asrwt>0</asrwt>
<pdfrwt beam="1">  1       21 0.94772756E-01 0.20007315E+03</pdfrwt>
<pdfrwt beam="2">  1       21 0.16021616E-01 0.20007315E+03</pdfrwt>
<totfact> 0.32266592E+04</totfact>
</mgrwt>
</event>
<event>
 4    1  0.3945627E+000  0.1752008E+03  0.7546771E-02  0.1172530E+00
         21   -1    0    0  503  502  0.00000000000E+00  0.00000000000E+00  0.13500044824E+04  0.13500044824E+04  0.00000000000E+00 0.  1.
         21   -1    0    0  501  503 -0.00000000000E+00 -0.00000000000E+00 -0.27555279589E+03  0.27555279589E+03  0.00000000000E+00 0.  1.
          6    1    1    2  501    0 -0.26968887865E+02 -0.62462939144E+01 -0.24129777324E+03  0.29819448766E+03  0.17300000000E+03 0.  1.
         -6    1    1    2    0  502  0.26968887865E+02  0.62462939144E+01  0.13157494598E+04  0.13273627907E+04  0.17300000000E+03 0.  1.
<mgrwt>
<rscale>  2 0.17520085E+03</rscale>
<asrwt>0</asrwt>
<pdfrwt beam="1">  1       21 0.20769299E+00 0.17520085E+03</pdfrwt>
<pdfrwt beam="2">  1       21 0.42392739E-01 0.17520085E+03</pdfrwt>
<totfact> 0.65652396E+02</totfact>
</mgrwt>
</event>
<event>
 4    1  0.3945627E+000  0.1795448E+03  0.7546771E-02  0.1168244E+00
         21   -1    0    0  503  502  0.00000000000E+00  0.00000000000E+00  0.28623562746E+03  0.28623562746E+03  0.00000000000E+00 0.  1.
         21   -1    0    0  501  503 -0.00000000000E+00 -0.00000000000E+00 -0.17156463248E+03  0.17156463248E+03  0.00000000000E+00 0.  1.
          6    1    1    2  501    0 -0.43449013150E+02  0.20482311987E+02 -0.76832222896E+02  0.19529345182E+03  0.17300000000E+03 0. -1.
         -6    1    1    2    0  502  0.43449013150E+02 -0.20482311987E+02  0.19150321788E+03  0.26250680811E+03  0.17300000000E+03 0. -1.
<mgrwt>
<rscale>  2 0.17954482E+03</rscale>
<asrwt>0</asrwt>
<pdfrwt beam="1">  1       21 0.44036250E-01 0.17954482E+03</pdfrwt>
<pdfrwt beam="2">  1       21 0.26394559E-01 0.17954482E+03</pdfrwt>
<totfact> 0.68008235E+04</totfact>
</mgrwt>
</event>
<event>
 4    1  0.3945627E+000  0.2252140E+03  0.7546771E-02  0.1130054E+00
         21   -1    0    0  503  502  0.00000000000E+00  0.00000000000E+00  0.81192432763E+02  0.81192432763E+02  0.00000000000E+00 0. -1.
         21   -1    0    0  501  503 -0.00000000000E+00 -0.00000000000E+00 -0.19249254052E+04  0.19249254052E+04  0.00000000000E+00 0.  1.
          6    1    1    2  501    0 -0.11689497919E+02  0.14372086820E+03 -0.17462474458E+04  0.17607105027E+04  0.17300000000E+03 0.  1.
         -6    1    1    2    0  502  0.11689497919E+02 -0.14372086820E+03 -0.97485526686E+02  0.24540733532E+03  0.17300000000E+03 0. -1.
<mgrwt>
<rscale>  2 0.22521397E+03</rscale>
<asrwt>0</asrwt>
<pdfrwt beam="1">  1       21 0.12491143E-01 0.22521397E+03</pdfrwt>
<pdfrwt beam="2">  1       21 0.29614238E+00 0.22521397E+03</pdfrwt>
<totfact> 0.18878249E+03</totfact>
</mgrwt>
</event>
<event>
 4    1  0.3945627E+000  0.1748769E+03  0.7546771E-02  0.1172855E+00
         21   -1    0    0  503  502  0.00000000000E+00  0.00000000000E+00  0.97777520636E+02  0.97777520636E+02  0.00000000000E+00 0. -1.
         21   -1    0    0  501  503 -0.00000000000E+00 -0.00000000000E+00 -0.85259584015E+03  0.85259584015E+03  0.00000000000E+00 0. -1.
          6    1    1    2  501    0 -0.24088800663E+02  0.85233881751E+01 -0.75552015839E+03  0.77549508586E+03  0.17300000000E+03 0. -1.
         -6    1    1    2    0  502  0.24088800663E+02 -0.85233881751E+01  0.70183887240E+00  0.17487827493E+03  0.17300000000E+03 0. -1.
<mgrwt>
<rscale>  2 0.17487687E+03</rscale>
<asrwt>0</asrwt>
<pdfrwt beam="1">  1       21 0.15042696E-01 0.17487687E+03</pdfrwt>
<pdfrwt beam="2">  1       21 0.13116859E+00 0.17487687E+03</pdfrwt>
<totfact> 0.16693337E+04</totfact>
</mgrwt>
</event>
<event>
 4    1  0.3945627E+000  0.2173375E+03  0.7546771E-02  0.1135884E+00
         21   -1    0    0  503  502  0.00000000000E+00  0.00000000000E+00  0.49020039887E+02  0.49020039887E+02  0.00000000000E+00 0. -1.
         21   -1    0    0  501  503 -0.00000000000E+00 -0.00000000000E+00 -0.10164153065E+04  0.10164153065E+04  0.00000000000E+00 0. -1.
          6    1    1    2  501    0 -0.45942558878E+02  0.12327145823E+03 -0.60513520997E+03  0.64298071004E+03  0.17300000000E+03 0. -1.
         -6    1    1    2    0  502  0.45942558878E+02 -0.12327145823E+03 -0.36226005659E+03  0.42245463630E+03  0.17300000000E+03 0. -1.
<mgrwt>
<rscale>  2 0.21733746E+03</rscale>
<asrwt>0</asrwt>
<pdfrwt beam="1">  1       21 0.75415440E-02 0.21733746E+03</pdfrwt>
<pdfrwt beam="2">  1       21 0.15637160E+00 0.21733746E+03</pdfrwt>
<totfact> 0.35067825E+04</totfact>
</mgrwt>
</event>
<event>
 4    1  0.3945627E+000  0.3454543E+03  0.7546771E-02  0.1064496E+00
         21   -1    0    0  503  502  0.00000000000E+00  0.00000000000E+00  0.63673931598E+03  0.63673931598E+03  0.00000000000E+00 0.  1.
         21   -1    0    0  501  503 -0.00000000000E+00 -0.00000000000E+00 -0.20189017007E+03  0.20189017007E+03  0.00000000000E+00 0. -1.
          6    1    1    2  501    0  0.59357862278E+02 -0.29306369746E+03  0.10517215612E+03  0.36110922033E+03  0.17300000000E+03 0.  1.
         -6    1    1    2    0  502 -0.59357862278E+02  0.29306369746E+03  0.32967698979E+03  0.47752026572E+03  0.17300000000E+03 0. -1.
<mgrwt>
<rscale>  2 0.34545432E+03</rscale>
<asrwt>0</asrwt>
<pdfrwt beam="1">  1       21 0.97959894E-01 0.34545432E+03</pdfrwt>
<pdfrwt beam="2">  1       21 0.31060026E-01 0.34545432E+03</pdfrwt>
<totfact> 0.78897663E+03</totfact>
</mgrwt>
</event>
<event>
 4    1  0.3945627E+000  0.2232611E+03  0.7546771E-02  0.1131475E+00
         21   -1    0    0  501  502  0.00000000000E+00  0.00000000000E+00  0.20952977510E+03  0.20952977510E+03  0.00000000000E+00 0. -1.
         21   -1    0    0  502  503 -0.00000000000E+00 -0.00000000000E+00 -0.23822311307E+03  0.23822311307E+03  0.00000000000E+00 0. -1.
          6    1    1    2  501    0 -0.11653990901E+03 -0.79592601267E+02 -0.60046961244E+01  0.22334186563E+03  0.17300000000E+03 0. -1.
         -6    1    1    2    0  503  0.11653990901E+03  0.79592601267E+02 -0.22688641852E+02  0.22441102254E+03  0.17300000000E+03 0. -1.
<mgrwt>
<rscale>  2 0.22326113E+03</rscale>
<asrwt>0</asrwt>
<pdfrwt beam="1">  1       21 0.32235350E-01 0.22326113E+03</pdfrwt>
<pdfrwt beam="2">  1       21 0.36649710E-01 0.22326113E+03</pdfrwt>
<totfact> 0.65587556E+04</totfact>
</mgrwt>
</event>
<event>
 4    1  0.3945627E+000  0.2035459E+03  0.7546771E-02  0.1146781E+00
         21   -1    0    0  503  502  0.00000000000E+00  0.00000000000E+00  0.45150432016E+02  0.45150432016E+02  0.00000000000E+00 0. -1.
         21   -1    0    0  501  503 -0.00000000000E+00 -0.00000000000E+00 -0.92711832805E+03  0.92711832805E+03  0.00000000000E+00 0. -1.
          6    1    1    2  501    0 -0.50373432030E+02  0.94680864898E+02 -0.49018875955E+03  0.53076922370E+03  0.17300000000E+03 0.  1.
         -6    1    1    2    0  502  0.50373432030E+02 -0.94680864898E+02 -0.39177913648E+03  0.44149953637E+03  0.17300000000E+03 0.  1.
<mgrwt>
<rscale>  2 0.20354594E+03</rscale>
<asrwt>0</asrwt>
<pdfrwt beam="1">  1       21 0.69462212E-02 0.20354594E+03</pdfrwt>
<pdfrwt beam="2">  1       21 0.14263357E+00 0.20354594E+03</pdfrwt>
<totfact> 0.51953216E+04</totfact>
</mgrwt>
</event>
<event>
 4    1  0.3945627E+000  0.2147392E+03  0.7546771E-02  0.1137867E+00
         21   -1    0    0  501  502  0.00000000000E+00  0.00000000000E+00  0.40871020775E+03  0.40871020775E+03  0.00000000000E+00 0.  1.
         21   -1    0    0  502  503 -0.00000000000E+00 -0.00000000000E+00 -0.11545270409E+03  0.11545270409E+03  0.00000000000E+00 0. -1.
          6    1    1    2  501    0 -0.95917277279E+02 -0.83569142611E+02  0.18616384211E+03  0.28420046057E+03  0.17300000000E+03 0.  1.
         -6    1    1    2    0  503  0.95917277279E+02  0.83569142611E+02  0.10709366154E+03  0.23996245127E+03  0.17300000000E+03 0. -1.
<mgrwt>
<rscale>  2 0.21473920E+03</rscale>
<asrwt>0</asrwt>
<pdfrwt beam="1">  1       21 0.62878493E-01 0.21473920E+03</pdfrwt>
<pdfrwt beam="2">  1       21 0.17761955E-01 0.21473920E+03</pdfrwt>
<totfact> 0.66731955E+04</totfact>
</mgrwt>
</event>
<event>
 4    1  0.3945627E+000  0.1759633E+03  0.7546771E-02  0.1171768E+00
         21   -1    0    0  501  502  0.00000000000E+00  0.00000000000E+00  0.99993278010E+03  0.99993278010E+03  0.00000000000E+00 0.  1.
         21   -1    0    0  502  503 -0.00000000000E+00 -0.00000000000E+00 -0.45229176299E+02  0.45229176299E+02  0.00000000000E+00 0.  1.
          6    1    1    2  501    0 -0.30806254044E+02 -0.92225635379E+01  0.77082276293E+03  0.79065214401E+03  0.17300000000E+03 0.  1.
         -6    1    1    2    0  503  0.30806254044E+02  0.92225635379E+01  0.18388084087E+03  0.25450981240E+03  0.17300000000E+03 0.  1.
<mgrwt>
<rscale>  2 0.17596329E+03</rscale>
<asrwt>0</asrwt>
<pdfrwt beam="1">  1       21 0.15383580E+00 0.17596329E+03</pdfrwt>
<pdfrwt beam="2">  1       21 0.69583355E-02 0.17596329E+03</pdfrwt>
<totfact> 0.43158716E+04</totfact>
</mgrwt>
</event>
<event>
 4    1  0.3945627E+000  0.1821398E+03  0.7546771E-02  0.1165748E+00
         21   -1    0    0  503  502  0.00000000000E+00  0.00000000000E+00  0.70772353229E+02  0.70772353229E+02  0.00000000000E+00 0.  1.
         21   -1    0    0  501  503 -0.00000000000E+00 -0.00000000000E+00 -0.54141909965E+03  0.54141909965E+03  0.00000000000E+00 0.  1.
          6    1    1    2  501    0 -0.47201996758E+02  0.31904372144E+02 -0.34746050828E+03  0.39230564905E+03  0.17300000000E+03 0.  1.
         -6    1    1    2    0  502  0.47201996758E+02 -0.31904372144E+02 -0.12318623814E+03  0.21988580383E+03  0.17300000000E+03 0.  1.
<mgrwt>
<rscale>  2 0.18213983E+03</rscale>
<asrwt>0</asrwt>
<pdfrwt beam="1">  1       21 0.10888054E-01 0.18213983E+03</pdfrwt>
<pdfrwt beam="2">  1       21 0.83295247E-01 0.18213983E+03</pdfrwt>
<totfact> 0.87965894E+04</totfact>
</mgrwt>
</event>
<event>
 4    1  0.3945627E+000  0.1754820E+03  0.7546771E-02  0.1172249E+00
         21   -1    0    0  501  502  0.00000000000E+00  0.00000000000E+00  0.11379639663E+04  0.11379639663E+04  0.00000000000E+00 0. -1.
         21   -1    0    0  502  503 -0.00000000000E+00 -0.00000000000E+00 -0.57262716273E+02  0.57262716273E+02  0.00000000000E+00 0. -1.
          6    1    1    2  501    0 -0.24614094415E+02 -0.16095501994E+02  0.97436432092E+03  0.99004027631E+03  0.17300000000E+03 0. -1.
         -6    1    1    2    0  503  0.24614094415E+02  0.16095501994E+02  0.10633692913E+03  0.20518640629E+03  0.17300000000E+03 0. -1.
<mgrwt>
<rscale>  2 0.17548196E+03</rscale>
<asrwt>0</asrwt>
<pdfrwt beam="1">  1       21 0.17507136E+00 0.17548196E+03</pdfrwt>
<pdfrwt beam="2">  1       21 0.88096495E-02 0.17548196E+03</pdfrwt>
<totfact> 0.20198381E+04</totfact>
</mgrwt>
</event>
<event>
 4    1  0.3945627E+000  0.2057158E+03  0.7546771E-02  0.1145004E+00
         21   -1    0    0  503  502  0.00000000000E+00  0.00000000000E+00  0.16501773050E+04  0.16501773050E+04  0.00000000000E+00 0. -1.
         21   -1    0    0  501  503 -0.00000000000E+00 -0.00000000000E+00 -0.38177874006E+02  0.38177874006E+02  0.00000000000E+00 0.  1.
          6    1    1    2  501    0 -0.96368034069E+02  0.55706459909E+02  0.32232757440E+03  0.38237948805E+03  0.17300000000E+03 0.  1.
         -6    1    1    2    0  502  0.96368034069E+02 -0.55706459909E+02  0.12896718566E+04  0.13059756910E+04  0.17300000000E+03 0. -1.
<mgrwt>
<rscale>  2 0.20571584E+03</rscale>
<asrwt>0</asrwt>
<pdfrwt beam="1">  1       21 0.25387338E+00 0.20571584E+03</pdfrwt>
<pdfrwt beam="2">  1       21 0.58735203E-02 0.20571584E+03</pdfrwt>
<totfact> 0.12750283E+04</totfact>
</mgrwt>
</event>
<event>
 4    1  0.3945627E+000  0.2110235E+03  0.7546771E-02  0.1140758E+00
         21   -1    0    0  503  502  0.00000000000E+00  0.00000000000E+00  0.31755720620E+03  0.31755720620E+03  0.00000000000E+00 0. -1.
         21   -1    0    0  501  503 -0.00000000000E+00 -0.00000000000E+00 -0.17593419834E+03  0.17593419834E+03  0.00000000000E+00 0. -1.
          6    1    1    2  501    0  0.68523419119E+02 -0.99531207979E+02 -0.40345423452E+02  0.21484569701E+03  0.17300000000E+03 0. -1.
         -6    1    1    2    0  502 -0.68523419119E+02  0.99531207979E+02  0.18196843132E+03  0.27864570753E+03  0.17300000000E+03 0. -1.
<mgrwt>
<rscale>  2 0.21102351E+03</rscale>
<asrwt>0</asrwt>
<pdfrwt beam="1">  1       21 0.48854955E-01 0.21102351E+03</pdfrwt>
<pdfrwt beam="2">  1       21 0.27066800E-01 0.21102351E+03</pdfrwt>
<totfact> 0.51556037E+04</totfact>
</mgrwt>
</event>
<event>
 4    1  0.3945627E+000  0.2381972E+03  0.7546771E-02  0.1121000E+00
         21   -1    0    0  503  502  0.00000000000E+00  0.00000000000E+00  0.99608118257E+03  0.99608118257E+03  0.00000000000E+00 0. -1.
         21   -1    0    0  501  503 -0.00000000000E+00 -0.00000000000E+00 -0.57373521499E+02  0.57373521499E+02  0.00000000000E+00 0. -1.
          6    1    1    2  501    0 -0.14170459850E+03  0.82028863656E+02  0.42469827817E+03  0.48693588407E+03  0.17300000000E+03 0. -1.
         -6    1    1    2    0  502  0.14170459850E+03 -0.82028863656E+02  0.51400938291E+03  0.56651882001E+03  0.17300000000E+03 0. -1.
<mgrwt>
<rscale>  2 0.23819725E+03</rscale>
<asrwt>0</asrwt>
<pdfrwt beam="1">  1       21 0.15324325E+00 0.23819725E+03</pdfrwt>
<pdfrwt beam="2">  1       21 0.88266963E-02 0.23819725E+03</pdfrwt>
<totfact> 0.27784447E+04</totfact>
</mgrwt>
</event>
<event>
 4    1  0.3945627E+000  0.2011343E+03  0.7546771E-02  0.1148785E+00
         21   -1    0    0  501  502  0.00000000000E+00  0.00000000000E+00  0.52950025411E+02  0.52950025411E+02  0.00000000000E+00 0. -1.
         21   -1    0    0  502  503 -0.00000000000E+00 -0.00000000000E+00 -0.17012259706E+04  0.17012259706E+04  0.00000000000E+00 0. -1.
          6    1    1    2  501    0  0.38060157264E+02  0.95275607557E+02 -0.17314082857E+03  0.26539171706E+03  0.17300000000E+03 0. -1.
         -6    1    1    2    0  503 -0.38060157264E+02 -0.95275607557E+02 -0.14751351167E+04  0.14887842790E+04  0.17300000000E+03 0. -1.
<mgrwt>
<rscale>  2 0.20113433E+03</rscale>
<asrwt>0</asrwt>
<pdfrwt beam="1">  1       21 0.81461576E-02 0.20113433E+03</pdfrwt>
<pdfrwt beam="2">  1       21 0.26172708E+00 0.20113433E+03</pdfrwt>
<totfact> 0.65451946E+03</totfact>
</mgrwt>
</event>
<event>
 4    1  0.3945627E+000  0.1842905E+03  0.7546771E-02  0.1163714E+00
         21   -1    0    0  503  502  0.00000000000E+00  0.00000000000E+00  0.11432176132E+03  0.11432176132E+03  0.00000000000E+00 0. -1.
         21   -1    0    0  501  503 -0.00000000000E+00 -0.00000000000E+00 -0.29924596823E+03  0.29924596823E+03  0.00000000000E+00 0.  1.
          6    1    1    2  501    0 -0.16100927832E+02 -0.61439045252E+02 -0.74879773014E+02  0.19892203640E+03  0.17300000000E+03 0. -1.
         -6    1    1    2    0  502  0.16100927832E+02  0.61439045252E+02 -0.11004443389E+03  0.21464569315E+03  0.17300000000E+03 0.  1.
<mgrwt>
<rscale>  2 0.18429052E+03</rscale>
<asrwt>0</asrwt>
<pdfrwt beam="1">  1       21 0.17587963E-01 0.18429052E+03</pdfrwt>
<pdfrwt beam="2">  1       21 0.46037842E-01 0.18429052E+03</pdfrwt>
<totfact> 0.13286856E+05</totfact>
</mgrwt>
</event>
<event>
 4    1  0.3945627E+000  0.1799811E+03  0.7546771E-02  0.1167821E+00
         21   -1    0    0  503  502  0.00000000000E+00  0.00000000000E+00  0.11974060038E+04  0.11974060038E+04  0.00000000000E+00 0. -1.
         21   -1    0    0  501  503 -0.00000000000E+00 -0.00000000000E+00 -0.63720685140E+02  0.63720685140E+02  0.00000000000E+00 0. -1.
          6    1    1    2  501    0 -0.31216157893E+02 -0.38597297907E+02  0.88508539270E+02  0.20056660102E+03  0.17300000000E+03 0. -1.
         -6    1    1    2    0  502  0.31216157893E+02  0.38597297907E+02  0.10451767793E+04  0.10605600879E+04  0.17300000000E+03 0. -1.
<mgrwt>
<rscale>  2 0.17998111E+03</rscale>
<asrwt>0</asrwt>
<pdfrwt beam="1">  1       21 0.18421629E+00 0.17998111E+03</pdfrwt>
<pdfrwt beam="2">  1       21 0.98031832E-02 0.17998111E+03</pdfrwt>
<totfact> 0.14463860E+04</totfact>
</mgrwt>
</event>
<event>
 4    1  0.3945627E+000  0.1862033E+03  0.7546771E-02  0.1161931E+00
         21   -1    0    0  503  502  0.00000000000E+00  0.00000000000E+00  0.14832854128E+03  0.14832854128E+03  0.00000000000E+00 0. -1.
         21   -1    0    0  501  503 -0.00000000000E+00 -0.00000000000E+00 -0.23938503938E+03  0.23938503938E+03  0.00000000000E+00 0.  1.
          6    1    1    2  501    0  0.59592008292E+02  0.34517423489E+02 -0.15783078437E+02  0.18687098636E+03  0.17300000000E+03 0. -1.
         -6    1    1    2    0  502 -0.59592008292E+02 -0.34517423489E+02 -0.75273419661E+02  0.20084259430E+03  0.17300000000E+03 0.  1.
<mgrwt>
<rscale>  2 0.18620328E+03</rscale>
<asrwt>0</asrwt>
<pdfrwt beam="1">  1       21 0.22819776E-01 0.18620328E+03</pdfrwt>
<pdfrwt beam="2">  1       21 0.36828467E-01 0.18620328E+03</pdfrwt>
<totfact> 0.12837713E+05</totfact>
</mgrwt>
</event>
<event>
 4    1  0.3945627E+000  0.2101624E+03  0.7546771E-02  0.1141437E+00
         21   -1    0    0  501  502  0.00000000000E+00  0.00000000000E+00  0.14317669288E+03  0.14317669288E+03  0.00000000000E+00 0. -1.
         21   -1    0    0  502  503 -0.00000000000E+00 -0.00000000000E+00 -0.31188913245E+03  0.31188913245E+03  0.00000000000E+00 0. -1.
          6    1    1    2  501    0  0.66315719459E+02  0.99204195832E+02 -0.10811782234E+03  0.23634235893E+03  0.17300000000E+03 0. -1.
         -6    1    1    2    0  503 -0.66315719459E+02 -0.99204195832E+02 -0.60594617226E+02  0.21872346640E+03  0.17300000000E+03 0. -1.
<mgrwt>
<rscale>  2 0.21016243E+03</rscale>
<asrwt>0</asrwt>
<pdfrwt beam="1">  1       21 0.22027184E-01 0.21016243E+03</pdfrwt>
<pdfrwt beam="2">  1       21 0.47982943E-01 0.21016243E+03</pdfrwt>
<totfact> 0.79342484E+04</totfact>
</mgrwt>
</event>
<event>
 4    1  0.3945627E+000  0.2069913E+03  0.7546771E-02  0.1143971E+00
         21   -1    0    0  503  502  0.00000000000E+00  0.00000000000E+00  0.26089514494E+02  0.26089514494E+02  0.00000000000E+00 0. -1.
         21   -1    0    0  501  503 -0.00000000000E+00 -0.00000000000E+00 -0.19022149394E+04  0.19022149394E+04  0.00000000000E+00 0.  1.
          6    1    1    2  501    0 -0.61256831628E+01  0.11348519187E+03 -0.12944942822E+04  0.13109389228E+04  0.17300000000E+03 0.  1.
         -6    1    1    2    0  502  0.61256831628E+01 -0.11348519187E+03 -0.58163114274E+03  0.61736553109E+03  0.17300000000E+03 0. -1.
<mgrwt>
<rscale>  2 0.20699134E+03</rscale>
<asrwt>0</asrwt>
<pdfrwt beam="1">  1       21 0.40137701E-02 0.20699134E+03</pdfrwt>
<pdfrwt beam="2">  1       21 0.29264855E+00 0.20699134E+03</pdfrwt>
<totfact> 0.14453480E+04</totfact>
</mgrwt>
</event>
<event>
 4    1  0.3945627E+000  0.2312735E+03  0.7546771E-02  0.1125747E+00
         21   -1    0    0  501  502  0.00000000000E+00  0.00000000000E+00  0.17029436107E+03  0.17029436107E+03  0.00000000000E+00 0.  1.
         21   -1    0    0  502  503 -0.00000000000E+00 -0.00000000000E+00 -0.31428698767E+03  0.31428698767E+03  0.00000000000E+00 0.  1.
          6    1    1    2  501    0  0.70688164325E+02 -0.13624095028E+03 -0.65899533822E+02  0.24047902542E+03  0.17300000000E+03 0.  1.
         -6    1    1    2    0  503 -0.70688164325E+02  0.13624095028E+03 -0.78093092770E+02  0.24410232332E+03  0.17300000000E+03 0.  1.
<mgrwt>
<rscale>  2 0.23127346E+03</rscale>
<asrwt>0</asrwt>
<pdfrwt beam="1">  1       21 0.26199132E-01 0.23127346E+03</pdfrwt>
<pdfrwt beam="2">  1       21 0.48351844E-01 0.23127346E+03</pdfrwt>
<totfact> 0.55598912E+04</totfact>
</mgrwt>
</event>
<event>
 4    1  0.3945627E+000  0.2335802E+03  0.7546771E-02  0.1124145E+00
         21   -1    0    0  503  502  0.00000000000E+00  0.00000000000E+00  0.13932181245E+04  0.13932181245E+04  0.00000000000E+00 0.  1.
         21   -1    0    0  501  503 -0.00000000000E+00 -0.00000000000E+00 -0.44278029530E+02  0.44278029530E+02  0.00000000000E+00 0. -1.
          6    1    1    2  501    0  0.38349181412E+02 -0.15218424219E+03  0.91881024267E+03  0.94803584601E+03  0.17300000000E+03 0.  1.
         -6    1    1    2    0  502 -0.38349181412E+02  0.15218424219E+03  0.43012985228E+03  0.48946030800E+03  0.17300000000E+03 0. -1.
<mgrwt>
<rscale>  2 0.23358019E+03</rscale>
<asrwt>0</asrwt>
<pdfrwt beam="1">  1       21 0.21434122E+00 0.23358019E+03</pdfrwt>
<pdfrwt beam="2">  1       21 0.68120056E-02 0.23358019E+03</pdfrwt>
<totfact> 0.16755391E+04</totfact>
</mgrwt>
</event>
<event>
 4    1  0.3945627E+000  0.1939189E+03  0.7546771E-02  0.1154973E+00
         21   -1    0    0  503  502  0.00000000000E+00  0.00000000000E+00  0.18834473724E+03  0.18834473724E+03  0.00000000000E+00 0. -1.
         21   -1    0    0  501  503 -0.00000000000E+00 -0.00000000000E+00 -0.20590656397E+03  0.20590656397E+03  0.00000000000E+00 0. -1.
          6    1    1    2  501    0  0.49342835641E+02 -0.72393668532E+02 -0.43120377865E+02  0.19865529356E+03  0.17300000000E+03 0. -1.
         -6    1    1    2    0  502 -0.49342835641E+02  0.72393668532E+02  0.25558551129E+02  0.19559600765E+03  0.17300000000E+03 0. -1.
<mgrwt>
<rscale>  2 0.19391895E+03</rscale>
<asrwt>0</asrwt>
<pdfrwt beam="1">  1       21 0.28976113E-01 0.19391895E+03</pdfrwt>
<pdfrwt beam="2">  1       21 0.31677933E-01 0.19391895E+03</pdfrwt>
<totfact> 0.10918026E+05</totfact>
</mgrwt>
</event>
<event>
 4    1  0.3945627E+000  0.2083454E+03  0.7546771E-02  0.1142883E+00
         21   -1    0    0  501  502  0.00000000000E+00  0.00000000000E+00  0.11181568451E+04  0.11181568451E+04  0.00000000000E+00 0. -1.
         21   -1    0    0  502  503 -0.00000000000E+00 -0.00000000000E+00 -0.60840491359E+02  0.60840491359E+02  0.00000000000E+00 0. -1.
          6    1    1    2  501    0 -0.10401592029E+03  0.51570335321E+02  0.88330125405E+03  0.90754003579E+03  0.17300000000E+03 0. -1.
         -6    1    1    2    0  503  0.10401592029E+03 -0.51570335321E+02  0.17401509966E+03  0.27145730064E+03  0.17300000000E+03 0. -1.
<mgrwt>
<rscale>  2 0.20834541E+03</rscale>
<asrwt>0</asrwt>
<pdfrwt beam="1">  1       21 0.17202411E+00 0.20834541E+03</pdfrwt>
<pdfrwt beam="2">  1       21 0.93600764E-02 0.20834541E+03</pdfrwt>
<totfact> 0.18622594E+04</totfact>
</mgrwt>
</event>
<event>
 4    1  0.3945627E+000  0.1781586E+03  0.7546771E-02  0.1169597E+00
         21   -1    0    0  503  502  0.00000000000E+00  0.00000000000E+00  0.60983241102E+03  0.60983241102E+03  0.00000000000E+00 0.  1.
         21   -1    0    0  501  503 -0.00000000000E+00 -0.00000000000E+00 -0.54183379282E+02  0.54183379282E+02  0.00000000000E+00 0.  1.
          6    1    1    2  501    0  0.42357086004E+02  0.41688020840E+01  0.21191286871E+03  0.27685296742E+03  0.17300000000E+03 0.  1.
         -6    1    1    2    0  502 -0.42357086004E+02 -0.41688020840E+01  0.34373616303E+03  0.38716282288E+03  0.17300000000E+03 0.  1.
<mgrwt>
<rscale>  2 0.17815864E+03</rscale>
<asrwt>0</asrwt>
<pdfrwt beam="1">  1       21 0.93820366E-01 0.17815864E+03</pdfrwt>
<pdfrwt beam="2">  1       21 0.83359049E-02 0.17815864E+03</pdfrwt>
<totfact> 0.10715718E+05</totfact>
</mgrwt>
</event>
<event>
 4    1  0.3945627E+000  0.1767138E+03  0.7546771E-02  0.1171022E+00
         21   -1    0    0  503  502  0.00000000000E+00  0.00000000000E+00  0.12805005953E+03  0.12805005953E+03  0.00000000000E+00 0. -1.
         21   -1    0    0  501  503 -0.00000000000E+00 -0.00000000000E+00 -0.30116192330E+03  0.30116192330E+03  0.00000000000E+00 0. -1.
          6    1    1    2  501    0 -0.22786834337E+02 -0.27919794998E+02 -0.18015746983E+03  0.25235781880E+03  0.17300000000E+03 0.  1.
         -6    1    1    2    0  502  0.22786834337E+02  0.27919794998E+02  0.70456060676E+01  0.17685416404E+03  0.17300000000E+03 0.  1.
<mgrwt>
<rscale>  2 0.17671377E+03</rscale>
<asrwt>0</asrwt>
<pdfrwt beam="1">  1       21 0.19700009E-01 0.17671377E+03</pdfrwt>
<pdfrwt beam="2">  1       21 0.46332603E-01 0.17671377E+03</pdfrwt>
<totfact> 0.10658354E+05</totfact>
</mgrwt>
</event>
<event>
 4    1  0.3945627E+000  0.3434796E+03  0.7546771E-02  0.1065324E+00
         21   -1    0    0  503  502  0.00000000000E+00  0.00000000000E+00  0.12111245431E+04  0.12111245431E+04  0.00000000000E+00 0. -1.
         21   -1    0    0  501  503 -0.00000000000E+00 -0.00000000000E+00 -0.19771878634E+03  0.19771878634E+03  0.00000000000E+00 0. -1.
          6    1    1    2  501    0  0.27907976378E+03 -0.10081511673E+03  0.49687449987E+01  0.34351548835E+03  0.17300000000E+03 0. -1.
         -6    1    1    2    0  502 -0.27907976378E+03  0.10081511673E+03  0.10084370117E+04  0.10653278410E+04  0.17300000000E+03 0. -1.
<mgrwt>
<rscale>  2 0.34347955E+03</rscale>
<asrwt>0</asrwt>
<pdfrwt beam="1">  1       21 0.18632685E+00 0.34347955E+03</pdfrwt>
<pdfrwt beam="2">  1       21 0.30418276E-01 0.34347955E+03</pdfrwt>
<totfact> 0.15219127E+03</totfact>
</mgrwt>
</event>
<event>
 4    1  0.3945627E+000  0.2515792E+03  0.7546771E-02  0.1112311E+00
         21   -1    0    0  503  502  0.00000000000E+00  0.00000000000E+00  0.13122145478E+03  0.13122145478E+03  0.00000000000E+00 0.  1.
         21   -1    0    0  501  503 -0.00000000000E+00 -0.00000000000E+00 -0.48403950181E+03  0.48403950181E+03  0.00000000000E+00 0.  1.
          6    1    1    2  501    0  0.10829058243E+03 -0.14709264213E+03 -0.15812911360E+03  0.29714796344E+03  0.17300000000E+03 0.  1.
         -6    1    1    2    0  502 -0.10829058243E+03  0.14709264213E+03 -0.19468893343E+03  0.31811299315E+03  0.17300000000E+03 0.  1.
<mgrwt>
<rscale>  2 0.25157920E+03</rscale>
<asrwt>0</asrwt>
<pdfrwt beam="1">  1       21 0.20187916E-01 0.25157920E+03</pdfrwt>
<pdfrwt beam="2">  1       21 0.74467615E-01 0.25157920E+03</pdfrwt>
<totfact> 0.35605741E+04</totfact>
</mgrwt>
</event>
<event>
 4    1  0.3945627E+000  0.1918177E+03  0.7546771E-02  0.1156832E+00
         21   -1    0    0  501  502  0.00000000000E+00  0.00000000000E+00  0.11631204319E+04  0.11631204319E+04  0.00000000000E+00 0.  1.
         21   -1    0    0  502  503 -0.00000000000E+00 -0.00000000000E+00 -0.53511798174E+02  0.53511798174E+02  0.00000000000E+00 0.  1.
          6    1    1    2  501    0  0.82342490255E+02 -0.92050698317E+01  0.16584203656E+03  0.25356971448E+03  0.17300000000E+03 0.  1.
         -6    1    1    2    0  503 -0.82342490255E+02  0.92050698317E+01  0.94376659722E+03  0.96306251564E+03  0.17300000000E+03 0.  1.
<mgrwt>
<rscale>  2 0.19181767E+03</rscale>
<asrwt>0</asrwt>
<pdfrwt beam="1">  1       21 0.17894159E+00 0.19181767E+03</pdfrwt>
<pdfrwt beam="2">  1       21 0.82325852E-02 0.19181767E+03</pdfrwt>
<totfact> 0.21133235E+04</totfact>
</mgrwt>
</event>
<event>
 4    1  0.3945627E+000  0.2392599E+03  0.7546771E-02  0.1120287E+00
         21   -1    0    0  501  502  0.00000000000E+00  0.00000000000E+00  0.82774999472E+03  0.82774999472E+03  0.00000000000E+00 0.  1.
         21   -1    0    0  502  503 -0.00000000000E+00 -0.00000000000E+00 -0.98229208786E+02  0.98229208786E+02  0.00000000000E+00 0. -1.
          6    1    1    2  501    0  0.13040147293E+03 -0.10154686113E+03  0.61663506020E+03  0.66142581339E+03  0.17300000000E+03 0. -1.
         -6    1    1    2    0  503 -0.13040147293E+03  0.10154686113E+03  0.11288572574E+03  0.26455339012E+03  0.17300000000E+03 0. -1.
<mgrwt>
<rscale>  2 0.23925992E+03</rscale>
<asrwt>0</asrwt>
<pdfrwt beam="1">  1       21 0.12734615E+00 0.23925992E+03</pdfrwt>
<pdfrwt beam="2">  1       21 0.15112187E-01 0.23925992E+03</pdfrwt>
<totfact> 0.17119874E+04</totfact>
</mgrwt>
</event>
<event>
 4    1  0.3945627E+000  0.1802048E+03  0.7546771E-02  0.1167605E+00
         21   -1    0    0  503  502  0.00000000000E+00  0.00000000000E+00  0.79963353233E+03  0.79963353233E+03  0.00000000000E+00 0.  1.
         21   -1    0    0  501  503 -0.00000000000E+00 -0.00000000000E+00 -0.49762558870E+02  0.49762558870E+02  0.00000000000E+00 0.  1.
          6    1    1    2  501    0 -0.69012233929E+01  0.49971471421E+02  0.55706514754E+03  0.58548727864E+03  0.17300000000E+03 0.  1.
         -6    1    1    2    0  502  0.69012233929E+01 -0.49971471421E+02  0.19280582592E+03  0.26390881257E+03  0.17300000000E+03 0.  1.
<mgrwt>
<rscale>  2 0.18020481E+03</rscale>
<asrwt>0</asrwt>
<pdfrwt beam="1">  1       21 0.12302053E+00 0.18020481E+03</pdfrwt>
<pdfrwt beam="2">  1       21 0.76557789E-02 0.18020481E+03</pdfrwt>
<totfact> 0.64700917E+04</totfact>
</mgrwt>
</event>
<event>
 4    1  0.3945627E+000  0.2235761E+03  0.7546771E-02  0.1131245E+00
         21   -1    0    0  503  502  0.00000000000E+00  0.00000000000E+00  0.10176336129E+04  0.10176336129E+04  0.00000000000E+00 0.  1.
         21   -1    0    0  501  503 -0.00000000000E+00 -0.00000000000E+00 -0.50601063795E+02  0.50601063795E+02  0.00000000000E+00 0.  1.
          6    1    1    2  501    0  0.13134859981E+03 -0.52960720422E+02  0.39214176171E+03  0.45139943936E+03  0.17300000000E+03 0.  1.
         -6    1    1    2    0  502 -0.13134859981E+03  0.52960720422E+02  0.57489078735E+03  0.61683523729E+03  0.17300000000E+03 0.  1.
<mgrwt>
<rscale>  2 0.22357614E+03</rscale>
<asrwt>0</asrwt>
<pdfrwt beam="1">  1       21 0.15655900E+00 0.22357614E+03</pdfrwt>
<pdfrwt beam="2">  1       21 0.77847798E-02 0.22357614E+03</pdfrwt>
<totfact> 0.32957016E+04</totfact>
</mgrwt>
</event>
<event>
 4    1  0.3945627E+000  0.1996383E+03  0.7546771E-02  0.1150045E+00
         21   -1    0    0  503  502  0.00000000000E+00  0.00000000000E+00  0.41640908076E+03  0.41640908076E+03  0.00000000000E+00 0. -1.
         21   -1    0    0  501  503 -0.00000000000E+00 -0.00000000000E+00 -0.11103881643E+03  0.11103881643E+03  0.00000000000E+00 0. -1.
          6    1    1    2  501    0 -0.69921134087E+00 -0.99629046684E+02  0.54705664241E+02  0.20699793608E+03  0.17300000000E+03 0. -1.
         -6    1    1    2    0  502  0.69921134087E+00  0.99629046684E+02  0.25066460008E+03  0.32044996111E+03  0.17300000000E+03 0. -1.
<mgrwt>
<rscale>  2 0.19963826E+03</rscale>
<asrwt>0</asrwt>
<pdfrwt beam="1">  1       21 0.64062935E-01 0.19963826E+03</pdfrwt>
<pdfrwt beam="2">  1       21 0.17082895E-01 0.19963826E+03</pdfrwt>
<totfact> 0.69328769E+04</totfact>
</mgrwt>
</event>
<event>
 4    1  0.3945627E+000  0.1845497E+03  0.7546771E-02  0.1163471E+00
         21   -1    0    0  503  502  0.00000000000E+00  0.00000000000E+00  0.30279319201E+03  0.30279319201E+03  0.00000000000E+00 0.  1.
         21   -1    0    0  501  503 -0.00000000000E+00 -0.00000000000E+00 -0.11363764324E+03  0.11363764324E+03  0.00000000000E+00 0.  1.
          6    1    1    2  501    0 -0.64204584417E+02  0.27148255039E+01  0.11558063106E+03  0.21775555381E+03  0.17300000000E+03 0.  1.
         -6    1    1    2    0  502  0.64204584417E+02 -0.27148255039E+01  0.73574917708E+02  0.19867528144E+03  0.17300000000E+03 0.  1.
<mgrwt>
<rscale>  2 0.18454972E+03</rscale>
<asrwt>0</asrwt>
<pdfrwt beam="1">  1       21 0.46583568E-01 0.18454972E+03</pdfrwt>
<pdfrwt beam="2">  1       21 0.17482714E-01 0.18454972E+03</pdfrwt>
<totfact> 0.13111321E+05</totfact>
</mgrwt>
</event>
<event>
 4    1  0.3945627E+000  0.1849449E+03  0.7546771E-02  0.1163101E+00
         21   -1    0    0  501  502  0.00000000000E+00  0.00000000000E+00  0.97284686291E+03  0.97284686291E+03  0.00000000000E+00 0.  1.
         21   -1    0    0  502  503 -0.00000000000E+00 -0.00000000000E+00 -0.67607092907E+02  0.67607092907E+02  0.00000000000E+00 0.  1.
          6    1    1    2  501    0  0.65247499892E+02  0.42873204472E+01  0.81302363545E+03  0.83379376896E+03  0.17300000000E+03 0.  1.
         -6    1    1    2    0  503 -0.65247499892E+02 -0.42873204472E+01  0.92216134550E+02  0.20666018685E+03  0.17300000000E+03 0.  1.
<mgrwt>
<rscale>  2 0.18494490E+03</rscale>
<asrwt>0</asrwt>
<pdfrwt beam="1">  1       21 0.14966874E+00 0.18494490E+03</pdfrwt>
<pdfrwt beam="2">  1       21 0.10401092E-01 0.18494490E+03</pdfrwt>
<totfact> 0.22871630E+04</totfact>
</mgrwt>
</event>
<event>
 4    1  0.3945627E+000  0.1842678E+03  0.7546771E-02  0.1163735E+00
         21   -1    0    0  503  502  0.00000000000E+00  0.00000000000E+00  0.51828362424E+03  0.51828362424E+03  0.00000000000E+00 0.  1.
         21   -1    0    0  501  503 -0.00000000000E+00 -0.00000000000E+00 -0.12749690468E+03  0.12749690468E+03  0.00000000000E+00 0.  1.
          6    1    1    2  501    0  0.38914999493E+02  0.50112395030E+02 -0.29741357633E+02  0.18665255872E+03  0.17300000000E+03 0.  1.
         -6    1    1    2    0  502 -0.38914999493E+02 -0.50112395030E+02  0.42052807719E+03  0.45912797020E+03  0.17300000000E+03 0.  1.
<mgrwt>
<rscale>  2 0.18426782E+03</rscale>
<asrwt>0</asrwt>
<pdfrwt beam="1">  1       21 0.79735941E-01 0.18426782E+03</pdfrwt>
<pdfrwt beam="2">  1       21 0.19614909E-01 0.18426782E+03</pdfrwt>
<totfact> 0.33316115E+04</totfact>
</mgrwt>
</event>
<event>
 4    1  0.3945627E+000  0.1836550E+03  0.7546771E-02  0.1164312E+00
         21   -1    0    0  501  502  0.00000000000E+00  0.00000000000E+00  0.16509149239E+03  0.16509149239E+03  0.00000000000E+00 0.  1.
         21   -1    0    0  502  503 -0.00000000000E+00 -0.00000000000E+00 -0.44614964491E+03  0.44614964491E+03  0.00000000000E+00 0. -1.
          6    1    1    2  501    0 -0.14161017365E+02 -0.59996986788E+02  0.84485004385E+02  0.20215560542E+03  0.17300000000E+03 0.  1.
         -6    1    1    2    0  503  0.14161017365E+02  0.59996986788E+02 -0.36554315690E+03  0.40908553188E+03  0.17300000000E+03 0. -1.
<mgrwt>
<rscale>  2 0.18365504E+03</rscale>
<asrwt>0</asrwt>
<pdfrwt beam="1">  1       21 0.25398692E-01 0.18365504E+03</pdfrwt>
<pdfrwt beam="2">  1       21 0.68638405E-01 0.18365504E+03</pdfrwt>
<totfact> 0.28573761E+04</totfact>
</mgrwt>
</event>
<event>
 4    1  0.3945627E+000  0.2468915E+03  0.7546771E-02  0.1115285E+00
         21   -1    0    0  501  502  0.00000000000E+00  0.00000000000E+00  0.38934162334E+02  0.38934162334E+02  0.00000000000E+00 0. -1.
         21   -1    0    0  502  503 -0.00000000000E+00 -0.00000000000E+00 -0.18640268323E+04  0.18640268323E+04  0.00000000000E+00 0.  1.
          6    1    1    2  501    0  0.12931072001E+03  0.11960420683E+03 -0.53183938862E+03  0.58635191130E+03  0.17300000000E+03 0. -1.
         -6    1    1    2    0  503 -0.12931072001E+03 -0.11960420683E+03 -0.12932532813E+04  0.13166090833E+04  0.17300000000E+03 0.  1.
<mgrwt>
<rscale>  2 0.24689153E+03</rscale>
<asrwt>0</asrwt>
<pdfrwt beam="1">  1       21 0.59898705E-02 0.24689153E+03</pdfrwt>
<pdfrwt beam="2">  1       21 0.28677339E+00 0.24689153E+03</pdfrwt>
<totfact> 0.76355687E+03</totfact>
</mgrwt>
</event>
<event>
 4    1  0.3945627E+000  0.1793082E+03  0.7546771E-02  0.1168474E+00
         21   -1    0    0  501  502  0.00000000000E+00  0.00000000000E+00  0.12651885671E+03  0.12651885671E+03  0.00000000000E+00 0.  1.
         21   -1    0    0  502  503 -0.00000000000E+00 -0.00000000000E+00 -0.74299063668E+03  0.74299063668E+03  0.00000000000E+00 0.  1.
          6    1    1    2  501    0  0.46711942735E+02 -0.63569511852E+01  0.44417511899E+02  0.18472772338E+03  0.17300000000E+03 0.  1.
         -6    1    1    2    0  503 -0.46711942735E+02  0.63569511852E+01 -0.66088929187E+03  0.68478177001E+03  0.17300000000E+03 0.  1.
<mgrwt>
<rscale>  2 0.17930816E+03</rscale>
<asrwt>0</asrwt>
<pdfrwt beam="1">  1       21 0.19464440E-01 0.17930816E+03</pdfrwt>
<pdfrwt beam="2">  1       21 0.11430625E+00 0.17930816E+03</pdfrwt>
<totfact> 0.14577759E+04</totfact>
</mgrwt>
</event>
<event>
 4    1  0.3945627E+000  0.1896101E+03  0.7546771E-02  0.1158813E+00
         21   -1    0    0  503  502  0.00000000000E+00  0.00000000000E+00  0.38101619230E+02  0.38101619230E+02  0.00000000000E+00 0. -1.
         21   -1    0    0  501  503 -0.00000000000E+00 -0.00000000000E+00 -0.10412571353E+04  0.10412571353E+04  0.00000000000E+00 0. -1.
          6    1    1    2  501    0 -0.49704929498E+02 -0.59602172157E+02 -0.66686868730E+03  0.69330068877E+03  0.17300000000E+03 0. -1.
         -6    1    1    2    0  502  0.49704929498E+02  0.59602172157E+02 -0.33628682882E+03  0.38605806581E+03  0.17300000000E+03 0. -1.
<mgrwt>
<rscale>  2 0.18961012E+03</rscale>
<asrwt>0</asrwt>
<pdfrwt beam="1">  1       21 0.58617882E-02 0.18961012E+03</pdfrwt>
<pdfrwt beam="2">  1       21 0.16019339E+00 0.18961012E+03</pdfrwt>
<totfact> 0.51569067E+04</totfact>
</mgrwt>
</event>
<event>
 4    1  0.3945627E+000  0.1769457E+03  0.7546771E-02  0.1170792E+00
         21   -1    0    0  503  502  0.00000000000E+00  0.00000000000E+00  0.38734353348E+03  0.38734353348E+03  0.00000000000E+00 0.  1.
         21   -1    0    0  501  503 -0.00000000000E+00 -0.00000000000E+00 -0.85954825414E+02  0.85954825414E+02  0.00000000000E+00 0.  1.
          6    1    1    2  501    0  0.35072547335E+02 -0.12276236474E+02  0.20846677853E+03  0.27343772108E+03  0.17300000000E+03 0.  1.
         -6    1    1    2    0  502 -0.35072547335E+02  0.12276236474E+02  0.92921929533E+02  0.19986063781E+03  0.17300000000E+03 0.  1.
<mgrwt>
<rscale>  2 0.17694572E+03</rscale>
<asrwt>0</asrwt>
<pdfrwt beam="1">  1       21 0.59591312E-01 0.17694572E+03</pdfrwt>
<pdfrwt beam="2">  1       21 0.13223820E-01 0.17694572E+03</pdfrwt>
<totfact> 0.13032533E+05</totfact>
</mgrwt>
</event>
<event>
 4    1  0.3945627E+000  0.1996889E+03  0.7546771E-02  0.1150002E+00
         21   -1    0    0  501  502  0.00000000000E+00  0.00000000000E+00  0.43123947161E+03  0.43123947161E+03  0.00000000000E+00 0. -1.
         21   -1    0    0  502  503 -0.00000000000E+00 -0.00000000000E+00 -0.33184697858E+03  0.33184697858E+03  0.00000000000E+00 0. -1.
          6    1    1    2  501    0 -0.73991997695E+02 -0.66871863185E+02  0.37375086552E+03  0.42375154429E+03  0.17300000000E+03 0. -1.
         -6    1    1    2    0  503  0.73991997695E+02  0.66871863185E+02 -0.27435837249E+03  0.33933490590E+03  0.17300000000E+03 0. -1.
<mgrwt>
<rscale>  2 0.19968891E+03</rscale>
<asrwt>0</asrwt>
<pdfrwt beam="1">  1       21 0.66344534E-01 0.19968891E+03</pdfrwt>
<pdfrwt beam="2">  1       21 0.51053382E-01 0.19968891E+03</pdfrwt>
<totfact> 0.75650538E+03</totfact>
</mgrwt>
</event>
<event>
 4    1  0.3945627E+000  0.1799456E+03  0.7546771E-02  0.1167856E+00
         21   -1    0    0  501  502  0.00000000000E+00  0.00000000000E+00  0.13178771246E+04  0.13178771246E+04  0.00000000000E+00 0.  1.
         21   -1    0    0  502  503 -0.00000000000E+00 -0.00000000000E+00 -0.44228744578E+02  0.44228744578E+02  0.00000000000E+00 0.  1.
          6    1    1    2  501    0 -0.46404964968E+02 -0.17262670790E+02  0.10908755146E+04  0.11056173881E+04  0.17300000000E+03 0.  1.
         -6    1    1    2    0  503  0.46404964968E+02  0.17262670790E+02  0.18277286542E+03  0.25648848105E+03  0.17300000000E+03 0.  1.
<mgrwt>
<rscale>  2 0.17994560E+03</rscale>
<asrwt>0</asrwt>
<pdfrwt beam="1">  1       21 0.20275030E+00 0.17994560E+03</pdfrwt>
<pdfrwt beam="2">  1       21 0.68044233E-02 0.17994560E+03</pdfrwt>
<totfact> 0.20684226E+04</totfact>
</mgrwt>
</event>
<event>
 4    1  0.3945627E+000  0.2114472E+03  0.7546771E-02  0.1140425E+00
         21   -1    0    0  501  502  0.00000000000E+00  0.00000000000E+00  0.31105965288E+03  0.31105965288E+03  0.00000000000E+00 0.  1.
         21   -1    0    0  502  503 -0.00000000000E+00 -0.00000000000E+00 -0.17734571501E+03  0.17734571501E+03  0.00000000000E+00 0. -1.
          6    1    1    2  501    0  0.11411766986E+03 -0.41929542195E+02 -0.39455385994E+02  0.21509685392E+03  0.17300000000E+03 0. -1.
         -6    1    1    2    0  503 -0.11411766986E+03  0.41929542195E+02  0.17316932387E+03  0.27330851397E+03  0.17300000000E+03 0.  1.
<mgrwt>
<rscale>  2 0.21144723E+03</rscale>
<asrwt>0</asrwt>
<pdfrwt beam="1">  1       21 0.47855331E-01 0.21144723E+03</pdfrwt>
<pdfrwt beam="2">  1       21 0.27283956E-01 0.21144723E+03</pdfrwt>
<totfact> 0.52986458E+04</totfact>
</mgrwt>
</event>
<event>
 4    1  0.3945627E+000  0.2471391E+03  0.7546771E-02  0.1115126E+00
         21   -1    0    0  503  502  0.00000000000E+00  0.00000000000E+00  0.98391710003E+02  0.98391710003E+02  0.00000000000E+00 0. -1.
         21   -1    0    0  501  503 -0.00000000000E+00 -0.00000000000E+00 -0.70187257047E+03  0.70187257047E+03  0.00000000000E+00 0.  1.
          6    1    1    2  501    0  0.39724974743E+02 -0.17196123732E+03 -0.16571641654E+03  0.29755616524E+03  0.17300000000E+03 0.  1.
         -6    1    1    2    0  502 -0.39724974743E+02  0.17196123732E+03 -0.43776444393E+03  0.50270811524E+03  0.17300000000E+03 0. -1.
<mgrwt>
<rscale>  2 0.24713911E+03</rscale>
<asrwt>0</asrwt>
<pdfrwt beam="1">  1       21 0.15137186E-01 0.24713911E+03</pdfrwt>
<pdfrwt beam="2">  1       21 0.10798040E+00 0.24713911E+03</pdfrwt>
<totfact> 0.25578776E+04</totfact>
</mgrwt>
</event>
<event>
 4    1  0.3945627E+000  0.1980638E+03  0.7546771E-02  0.1151383E+00
         21   -1    0    0  503  502  0.00000000000E+00  0.00000000000E+00  0.17597549243E+03  0.17597549243E+03  0.00000000000E+00 0.  1.
         21   -1    0    0  501  503 -0.00000000000E+00 -0.00000000000E+00 -0.52860873954E+03  0.52860873954E+03  0.00000000000E+00 0. -1.
          6    1    1    2  501    0  0.76262990186E+02  0.59027453064E+02 -0.44421626747E+03  0.48637164409E+03  0.17300000000E+03 0. -1.
         -6    1    1    2    0  502 -0.76262990186E+02 -0.59027453064E+02  0.91583020366E+02  0.21821258787E+03  0.17300000000E+03 0.  1.
<mgrwt>
<rscale>  2 0.19806384E+03</rscale>
<asrwt>0</asrwt>
<pdfrwt beam="1">  1       21 0.27073153E-01 0.19806384E+03</pdfrwt>
<pdfrwt beam="2">  1       21 0.81324420E-01 0.19806384E+03</pdfrwt>
<totfact> 0.17170539E+04</totfact>
</mgrwt>
</event>
<event>
 4    1  0.3945627E+000  0.1895273E+03  0.7546771E-02  0.1158888E+00
         21   -1    0    0  503  502  0.00000000000E+00  0.00000000000E+00  0.18773967259E+03  0.18773967259E+03  0.00000000000E+00 0. -1.
         21   -1    0    0  501  503 -0.00000000000E+00 -0.00000000000E+00 -0.26692646399E+03  0.26692646399E+03  0.00000000000E+00 0.  1.
          6    1    1    2  501    0  0.69861206570E+02 -0.33331645982E+02  0.81386192657E+02  0.20626269455E+03  0.17300000000E+03 0. -1.
         -6    1    1    2    0  502 -0.69861206570E+02  0.33331645982E+02 -0.16057298406E+03  0.24840344204E+03  0.17300000000E+03 0.  1.
<mgrwt>
<rscale>  2 0.18952727E+03</rscale>
<asrwt>0</asrwt>
<pdfrwt beam="1">  1       21 0.28883027E-01 0.18952727E+03</pdfrwt>
<pdfrwt beam="2">  1       21 0.41065610E-01 0.18952727E+03</pdfrwt>
<totfact> 0.65611663E+04</totfact>
</mgrwt>
</event>
<event>
 4    1  0.3945627E+000  0.1744065E+03  0.7546771E-02  0.1173329E+00
         21   -1    0    0  503  502  0.00000000000E+00  0.00000000000E+00  0.30550240432E+03  0.30550240432E+03  0.00000000000E+00 0. -1.
         21   -1    0    0  501  503 -0.00000000000E+00 -0.00000000000E+00 -0.10936652604E+03  0.10936652604E+03  0.00000000000E+00 0. -1.
          6    1    1    2  501    0 -0.73204496755E+01 -0.20857833487E+02  0.35971824131E+02  0.17807754022E+03  0.17300000000E+03 0. -1.
         -6    1    1    2    0  502  0.73204496755E+01  0.20857833487E+02  0.16016405415E+03  0.23679139014E+03  0.17300000000E+03 0. -1.
<mgrwt>
<rscale>  2 0.17440653E+03</rscale>
<asrwt>0</asrwt>
<pdfrwt beam="1">  1       21 0.47000369E-01 0.17440653E+03</pdfrwt>
<pdfrwt beam="2">  1       21 0.16825620E-01 0.17440653E+03</pdfrwt>
<totfact> 0.13860355E+05</totfact>
</mgrwt>
</event>
<event>
 4    1  0.3945627E+000  0.1834219E+03  0.7546771E-02  0.1164532E+00
         21   -1    0    0  501  502  0.00000000000E+00  0.00000000000E+00  0.20491489313E+02  0.20491489313E+02  0.00000000000E+00 0. -1.
         21   -1    0    0  502  503 -0.00000000000E+00 -0.00000000000E+00 -0.16475477132E+04  0.16475477132E+04  0.00000000000E+00 0. -1.
          6    1    1    2  501    0 -0.60568571112E+02 -0.67854307311E+01 -0.76440655930E+03  0.78610494324E+03  0.17300000000E+03 0. -1.
         -6    1    1    2    0  503  0.60568571112E+02  0.67854307311E+01 -0.86264966461E+03  0.88193425930E+03  0.17300000000E+03 0. -1.
<mgrwt>
<rscale>  2 0.18342190E+03</rscale>
<asrwt>0</asrwt>
<pdfrwt beam="1">  1       21 0.31525363E-02 0.18342190E+03</pdfrwt>
<pdfrwt beam="2">  1       21 0.25346892E+00 0.18342190E+03</pdfrwt>
<totfact> 0.37260697E+04</totfact>
</mgrwt>
</event>
<event>
 4    1  0.3945627E+000  0.1812644E+03  0.7546771E-02  0.1166585E+00
         21   -1    0    0  501  502  0.00000000000E+00  0.00000000000E+00  0.30718642582E+03  0.30718642582E+03  0.00000000000E+00 0. -1.
         21   -1    0    0  502  503 -0.00000000000E+00 -0.00000000000E+00 -0.26230576220E+03  0.26230576220E+03  0.00000000000E+00 0.  1.
          6    1    1    2  501    0  0.26017183990E+02  0.47443386273E+02  0.24157095335E+03  0.30201538746E+03  0.17300000000E+03 0. -1.
         -6    1    1    2    0  503 -0.26017183990E+02 -0.47443386273E+02 -0.19669028972E+03  0.26747680055E+03  0.17300000000E+03 0.  1.
<mgrwt>
<rscale>  2 0.18126436E+03</rscale>
<asrwt>0</asrwt>
<pdfrwt beam="1">  1       21 0.47259450E-01 0.18126436E+03</pdfrwt>
<pdfrwt beam="2">  1       21 0.40354733E-01 0.18126436E+03</pdfrwt>
<totfact> 0.25508317E+04</totfact>
</mgrwt>
</event>
<event>
 4    1  0.3945627E+000  0.1783090E+03  0.7546771E-02  0.1169450E+00
         21   -1    0    0  501  502  0.00000000000E+00  0.00000000000E+00  0.21126915780E+03  0.21126915780E+03  0.00000000000E+00 0.  1.
         21   -1    0    0  502  503 -0.00000000000E+00 -0.00000000000E+00 -0.53705630681E+03  0.53705630681E+03  0.00000000000E+00 0.  1.
          6    1    1    2  501    0  0.43180070996E+02  0.76188121287E+00  0.15454673652E+03  0.23596354117E+03  0.17300000000E+03 0.  1.
         -6    1    1    2    0  503 -0.43180070996E+02 -0.76188121287E+00 -0.48033388554E+03  0.51236192344E+03  0.17300000000E+03 0.  1.
<mgrwt>
<rscale>  2 0.17830900E+03</rscale>
<asrwt>0</asrwt>
<pdfrwt beam="1">  1       21 0.32502948E-01 0.17830900E+03</pdfrwt>
<pdfrwt beam="2">  1       21 0.82624046E-01 0.17830900E+03</pdfrwt>
<totfact> 0.11758128E+04</totfact>
</mgrwt>
</event>
<event>
 4    1  0.3945627E+000  0.1831685E+03  0.7546771E-02  0.1164771E+00
         21   -1    0    0  501  502  0.00000000000E+00  0.00000000000E+00  0.63045904047E+02  0.63045904047E+02  0.00000000000E+00 0. -1.
         21   -1    0    0  502  503 -0.00000000000E+00 -0.00000000000E+00 -0.12250355875E+04  0.12250355875E+04  0.00000000000E+00 0. -1.
          6    1    1    2  501    0  0.12637576893E+02  0.58838669994E+02 -0.96637729383E+02  0.20709791930E+03  0.17300000000E+03 0. -1.
         -6    1    1    2    0  503 -0.12637576893E+02 -0.58838669994E+02 -0.10653519541E+04  0.10809835723E+04  0.17300000000E+03 0. -1.
<mgrwt>
<rscale>  2 0.18316849E+03</rscale>
<asrwt>0</asrwt>
<pdfrwt beam="1">  1       21 0.96993709E-02 0.18316849E+03</pdfrwt>
<pdfrwt beam="2">  1       21 0.18846699E+00 0.18316849E+03</pdfrwt>
<totfact> 0.13774443E+04</totfact>
</mgrwt>
</event>
<event>
 4    1  0.3945627E+000  0.2113855E+03  0.7546771E-02  0.1140474E+00
         21   -1    0    0  501  502  0.00000000000E+00  0.00000000000E+00  0.12599672054E+03  0.12599672054E+03  0.00000000000E+00 0.  1.
         21   -1    0    0  502  503 -0.00000000000E+00 -0.00000000000E+00 -0.95108863206E+03  0.95108863206E+03  0.00000000000E+00 0. -1.
          6    1    1    2  501    0  0.98665504426E+02  0.70851561441E+02  0.13930583313E+02  0.21184401496E+03  0.17300000000E+03 0.  1.
         -6    1    1    2    0  503 -0.98665504426E+02 -0.70851561441E+02 -0.83902249483E+03  0.86524133764E+03  0.17300000000E+03 0. -1.
<mgrwt>
<rscale>  2 0.21138549E+03</rscale>
<asrwt>0</asrwt>
<pdfrwt beam="1">  1       21 0.19384111E-01 0.21138549E+03</pdfrwt>
<pdfrwt beam="2">  1       21 0.14632132E+00 0.21138549E+03</pdfrwt>
<totfact> 0.76946125E+03</totfact>
</mgrwt>
</event>
<event>
 4    1  0.3945627E+000  0.2185328E+03  0.7546771E-02  0.1134982E+00
         21   -1    0    0  503  502  0.00000000000E+00  0.00000000000E+00  0.88822891316E+03  0.88822891316E+03  0.00000000000E+00 0.  1.
         21   -1    0    0  501  503 -0.00000000000E+00 -0.00000000000E+00 -0.72655679098E+02  0.72655679098E+02  0.00000000000E+00 0. -1.
          6    1    1    2  501    0 -0.13170038990E+03  0.21967945248E+02  0.16281381699E+03  0.27251591205E+03  0.17300000000E+03 0. -1.
         -6    1    1    2    0  502  0.13170038990E+03 -0.21967945248E+02  0.65275941707E+03  0.68836868020E+03  0.17300000000E+03 0.  1.
<mgrwt>
<rscale>  2 0.21853280E+03</rscale>
<asrwt>0</asrwt>
<pdfrwt beam="1">  1       21 0.13665059E+00 0.21853280E+03</pdfrwt>
<pdfrwt beam="2">  1       21 0.11177797E-01 0.21853280E+03</pdfrwt>
<totfact> 0.24968145E+04</totfact>
</mgrwt>
</event>
<event>
 4    1  0.3945627E+000  0.2016512E+03  0.7546771E-02  0.1148353E+00
         21   -1    0    0  501  502  0.00000000000E+00  0.00000000000E+00  0.23753782634E+03  0.23753782634E+03  0.00000000000E+00 0. -1.
         21   -1    0    0  502  503 -0.00000000000E+00 -0.00000000000E+00 -0.17127951520E+03  0.17127951520E+03  0.00000000000E+00 0. -1.
          6    1    1    2  501    0  0.99507262034E+02 -0.28853296168E+02  0.37899220834E+02  0.20518177024E+03  0.17300000000E+03 0. -1.
         -6    1    1    2    0  503 -0.99507262034E+02  0.28853296168E+02  0.28359090314E+02  0.20363557130E+03  0.17300000000E+03 0. -1.
<mgrwt>
<rscale>  2 0.20165120E+03</rscale>
<asrwt>0</asrwt>
<pdfrwt beam="1">  1       21 0.36544281E-01 0.20165120E+03</pdfrwt>
<pdfrwt beam="2">  1       21 0.26350695E-01 0.20165120E+03</pdfrwt>
<totfact> 0.98540167E+04</totfact>
</mgrwt>
</event>
<event>
 4    1  0.3945627E+000  0.1930154E+03  0.7546771E-02  0.1155769E+00
         21   -1    0    0  503  502  0.00000000000E+00  0.00000000000E+00  0.44368608115E+02  0.44368608115E+02  0.00000000000E+00 0.  1.
         21   -1    0    0  501  503 -0.00000000000E+00 -0.00000000000E+00 -0.11289925656E+04  0.11289925656E+04  0.00000000000E+00 0.  1.
          6    1    1    2  501    0  0.81081253396E+02  0.27418243743E+02 -0.83930643030E+03  0.86121438312E+03  0.17300000000E+03 0.  1.
         -6    1    1    2    0  502 -0.81081253396E+02 -0.27418243743E+02 -0.24531752722E+03  0.31214679063E+03  0.17300000000E+03 0.  1.
<mgrwt>
<rscale>  2 0.19301536E+03</rscale>
<asrwt>0</asrwt>
<pdfrwt beam="1">  1       21 0.68259406E-02 0.19301536E+03</pdfrwt>
<pdfrwt beam="2">  1       21 0.17369114E+00 0.19301536E+03</pdfrwt>
<totfact> 0.31762414E+04</totfact>
</mgrwt>
</event>
<event>
 4    1  0.3945627E+000  0.1883560E+03  0.7546771E-02  0.1159953E+00
         21   -1    0    0  503  502  0.00000000000E+00  0.00000000000E+00  0.62006911262E+03  0.62006911262E+03  0.00000000000E+00 0.  1.
         21   -1    0    0  501  503 -0.00000000000E+00 -0.00000000000E+00 -0.65082521411E+02  0.65082521411E+02  0.00000000000E+00 0.  1.
          6    1    1    2  501    0 -0.20877317615E+02  0.71505992110E+02  0.15839332488E+03  0.24610244750E+03  0.17300000000E+03 0.  1.
         -6    1    1    2    0  502  0.20877317615E+02 -0.71505992110E+02  0.39659326633E+03  0.43904918654E+03  0.17300000000E+03 0.  1.
<mgrwt>
<rscale>  2 0.18835596E+03</rscale>
<asrwt>0</asrwt>
<pdfrwt beam="1">  1       21 0.95395244E-01 0.18835596E+03</pdfrwt>
<pdfrwt beam="2">  1       21 0.10012696E-01 0.18835596E+03</pdfrwt>
<totfact> 0.74416195E+04</totfact>
</mgrwt>
</event>
<event>
 4    1  0.3945627E+000  0.1791157E+03  0.7546771E-02  0.1168662E+00
         21   -1    0    0  501  502  0.00000000000E+00  0.00000000000E+00  0.42376926718E+03  0.42376926718E+03  0.00000000000E+00 0. -1.
         21   -1    0    0  502  503 -0.00000000000E+00 -0.00000000000E+00 -0.35008244651E+03  0.35008244651E+03  0.00000000000E+00 0. -1.
          6    1    1    2  501    0  0.44274226911E+02  0.13901181873E+02  0.37938627639E+03  0.41954308091E+03  0.17300000000E+03 0. -1.
         -6    1    1    2    0  503 -0.44274226911E+02 -0.13901181873E+02 -0.30569945573E+03  0.35430863277E+03  0.17300000000E+03 0. -1.
<mgrwt>
<rscale>  2 0.17911574E+03</rscale>
<asrwt>0</asrwt>
<pdfrwt beam="1">  1       21 0.65195272E-01 0.17911574E+03</pdfrwt>
<pdfrwt beam="2">  1       21 0.53858838E-01 0.17911574E+03</pdfrwt>
<totfact> 0.71311991E+03</totfact>
</mgrwt>
</event>
<event>
 4    1  0.3945627E+000  0.2385294E+03  0.7546771E-02  0.1120776E+00
         21   -1    0    0  501  502  0.00000000000E+00  0.00000000000E+00  0.36496147119E+03  0.36496147119E+03  0.00000000000E+00 0.  1.
         21   -1    0    0  502  503 -0.00000000000E+00 -0.00000000000E+00 -0.23081544581E+03  0.23081544581E+03  0.00000000000E+00 0.  1.
          6    1    1    2  501    0  0.10087145684E+03 -0.12958480401E+03  0.23678660468E+03  0.33610142575E+03  0.17300000000E+03 0.  1.
         -6    1    1    2    0  503 -0.10087145684E+03  0.12958480401E+03 -0.10264057931E+03  0.25967549125E+03  0.17300000000E+03 0.  1.
<mgrwt>
<rscale>  2 0.23852939E+03</rscale>
<asrwt>0</asrwt>
<pdfrwt beam="1">  1       21 0.56147919E-01 0.23852939E+03</pdfrwt>
<pdfrwt beam="2">  1       21 0.35510068E-01 0.23852939E+03</pdfrwt>
<totfact> 0.22262614E+04</totfact>
</mgrwt>
</event>
<event>
 4    1  0.3945627E+000  0.3929233E+03  0.7546771E-02  0.1046258E+00
         21   -1    0    0  501  502  0.00000000000E+00  0.00000000000E+00  0.73004951153E+03  0.73004951153E+03  0.00000000000E+00 0. -1.
         21   -1    0    0  502  503 -0.00000000000E+00 -0.00000000000E+00 -0.36332799990E+03  0.36332799990E+03  0.00000000000E+00 0.  1.
          6    1    1    2  501    0  0.82390646168E+02  0.34303277205E+03 -0.17006605739E+03  0.42814853165E+03  0.17300000000E+03 0.  1.
         -6    1    1    2    0  503 -0.82390646168E+02 -0.34303277205E+03  0.53678756902E+03  0.66522897977E+03  0.17300000000E+03 0. -1.
<mgrwt>
<rscale>  2 0.39292328E+03</rscale>
<asrwt>0</asrwt>
<pdfrwt beam="1">  1       21 0.11231531E+00 0.39292328E+03</pdfrwt>
<pdfrwt beam="2">  1       21 0.55896615E-01 0.39292328E+03</pdfrwt>
<totfact> 0.16441035E+03</totfact>
</mgrwt>
</event>
<event>
 4    1  0.3945627E+000  0.1926852E+03  0.7546771E-02  0.1156062E+00
         21   -1    0    0  503  502  0.00000000000E+00  0.00000000000E+00  0.14255701515E+03  0.14255701515E+03  0.00000000000E+00 0.  1.
         21   -1    0    0  501  503 -0.00000000000E+00 -0.00000000000E+00 -0.26277850721E+03  0.26277850721E+03  0.00000000000E+00 0.  1.
          6    1    1    2  501    0  0.62142801115E+02  0.57765507000E+02 -0.79228546870E+02  0.20833805262E+03  0.17300000000E+03 0.  1.
         -6    1    1    2    0  502 -0.62142801115E+02 -0.57765507000E+02 -0.40992945193E+02  0.19699746974E+03  0.17300000000E+03 0.  1.
<mgrwt>
<rscale>  2 0.19268519E+03</rscale>
<asrwt>0</asrwt>
<pdfrwt beam="1">  1       21 0.21931849E-01 0.19268519E+03</pdfrwt>
<pdfrwt beam="2">  1       21 0.40427462E-01 0.19268519E+03</pdfrwt>
<totfact> 0.11447371E+05</totfact>
</mgrwt>
</event>
<event>
 4    1  0.3945627E+000  0.1937307E+03  0.7546771E-02  0.1155139E+00
         21   -1    0    0  503  502  0.00000000000E+00  0.00000000000E+00  0.29443848918E+02  0.29443848918E+02  0.00000000000E+00 0.  1.
         21   -1    0    0  501  503 -0.00000000000E+00 -0.00000000000E+00 -0.27233681431E+04  0.27233681431E+04  0.00000000000E+00 0.  1.
          6    1    1    2  501    0 -0.62935604203E+02 -0.60346335912E+02 -0.23508389028E+04  0.23588079866E+04  0.17300000000E+03 0.  1.
         -6    1    1    2    0  502  0.62935604203E+02  0.60346335912E+02 -0.34308539134E+03  0.39400400542E+03  0.17300000000E+03 0.  1.
<mgrwt>
<rscale>  2 0.19373066E+03</rscale>
<asrwt>0</asrwt>
<pdfrwt beam="1">  1       21 0.45298207E-02 0.19373066E+03</pdfrwt>
<pdfrwt beam="2">  1       21 0.41897992E+00 0.19373066E+03</pdfrwt>
<totfact> 0.20999498E+03</totfact>
</mgrwt>
</event>
<event>
 4    1  0.3945627E+000  0.1784031E+03  0.7546771E-02  0.1169358E+00
         21   -1    0    0  503  502  0.00000000000E+00  0.00000000000E+00  0.62036205066E+03  0.62036205066E+03  0.00000000000E+00 0. -1.
         21   -1    0    0  501  503 -0.00000000000E+00 -0.00000000000E+00 -0.53374555461E+02  0.53374555461E+02  0.00000000000E+00 0. -1.
          6    1    1    2  501    0 -0.41491114859E+02 -0.13309550719E+02  0.21715998443E+03  0.28104468611E+03  0.17300000000E+03 0. -1.
         -6    1    1    2    0  502  0.41491114859E+02  0.13309550719E+02  0.34982751077E+03  0.39269192001E+03  0.17300000000E+03 0. -1.
<mgrwt>
<rscale>  2 0.17840307E+03</rscale>
<asrwt>0</asrwt>
<pdfrwt beam="1">  1       21 0.95440311E-01 0.17840307E+03</pdfrwt>
<pdfrwt beam="2">  1       21 0.82114705E-02 0.17840307E+03</pdfrwt>
<totfact> 0.10568194E+05</totfact>
</mgrwt>
</event>
<event>
 4    1  0.3945627E+000  0.2633515E+03  0.7546771E-02  0.1105146E+00
         21   -1    0    0  501  502  0.00000000000E+00  0.00000000000E+00  0.55699422293E+03  0.55699422293E+03  0.00000000000E+00 0.  1.
         21   -1    0    0  502  503 -0.00000000000E+00 -0.00000000000E+00 -0.15000229889E+03  0.15000229889E+03  0.00000000000E+00 0. -1.
          6    1    1    2  501    0 -0.12794952591E+03  0.15183516547E+03  0.34921031286E+03  0.43738065945E+03  0.17300000000E+03 0.  1.
         -6    1    1    2    0  503  0.12794952591E+03 -0.15183516547E+03  0.57781611175E+02  0.26961586237E+03  0.17300000000E+03 0. -1.
<mgrwt>
<rscale>  2 0.26335147E+03</rscale>
<asrwt>0</asrwt>
<pdfrwt beam="1">  1       21 0.85691418E-01 0.26335147E+03</pdfrwt>
<pdfrwt beam="2">  1       21 0.23077277E-01 0.26335147E+03</pdfrwt>
<totfact> 0.19967083E+04</totfact>
</mgrwt>
</event>
<event>
 4    1  0.3945627E+000  0.3394553E+03  0.7546771E-02  0.1067028E+00
         21   -1    0    0  501  502  0.00000000000E+00  0.00000000000E+00  0.23433375426E+03  0.23433375426E+03  0.00000000000E+00 0. -1.
         21   -1    0    0  502  503 -0.00000000000E+00 -0.00000000000E+00 -0.94146758585E+03  0.94146758585E+03  0.00000000000E+00 0.  1.
          6    1    1    2  501    0  0.29139160421E+03 -0.19794757214E+02  0.52763074894E+02  0.34353142722E+03  0.17300000000E+03 0. -1.
         -6    1    1    2    0  503 -0.29139160421E+03  0.19794757214E+02 -0.75989690648E+03  0.83226991289E+03  0.17300000000E+03 0.  1.
<mgrwt>
<rscale>  2 0.33945530E+03</rscale>
<asrwt>0</asrwt>
<pdfrwt beam="1">  1       21 0.36051346E-01 0.33945530E+03</pdfrwt>
<pdfrwt beam="2">  1       21 0.14484117E+00 0.33945530E+03</pdfrwt>
<totfact> 0.21918581E+03</totfact>
</mgrwt>
</event>
<event>
 4    1  0.3945627E+000  0.1770942E+03  0.7546771E-02  0.1170645E+00
         21   -1    0    0  503  502  0.00000000000E+00  0.00000000000E+00  0.16977289516E+03  0.16977289516E+03  0.00000000000E+00 0.  1.
         21   -1    0    0  501  503 -0.00000000000E+00 -0.00000000000E+00 -0.25731763008E+03  0.25731763008E+03  0.00000000000E+00 0.  1.
          6    1    1    2  501    0  0.29040325122E+02  0.24290506360E+02 -0.15719051826E+03  0.23679364056E+03  0.17300000000E+03 0.  1.
         -6    1    1    2    0  502 -0.29040325122E+02 -0.24290506360E+02  0.69645783326E+02  0.19029688468E+03  0.17300000000E+03 0.  1.
<mgrwt>
<rscale>  2 0.17709424E+03</rscale>
<asrwt>0</asrwt>
<pdfrwt beam="1">  1       21 0.26118907E-01 0.17709424E+03</pdfrwt>
<pdfrwt beam="2">  1       21 0.39587327E-01 0.17709424E+03</pdfrwt>
<totfact> 0.86212412E+04</totfact>
</mgrwt>
</event>
<event>
 4    1  0.3945627E+000  0.1898730E+03  0.7546771E-02  0.1158576E+00
         21   -1    0    0  503  502  0.00000000000E+00  0.00000000000E+00  0.56891990313E+03  0.56891990313E+03  0.00000000000E+00 0. -1.
         21   -1    0    0  501  503 -0.00000000000E+00 -0.00000000000E+00 -0.13764885149E+03  0.13764885149E+03  0.00000000000E+00 0.  1.
          6    1    1    2  501    0  0.76482404948E+02 -0.16528464061E+02 -0.43886578418E+02  0.19487888587E+03  0.17300000000E+03 0.  1.
         -6    1    1    2    0  502 -0.76482404948E+02  0.16528464061E+02  0.47515763005E+03  0.51168986876E+03  0.17300000000E+03 0. -1.
<mgrwt>
<rscale>  2 0.18987298E+03</rscale>
<asrwt>0</asrwt>
<pdfrwt beam="1">  1       21 0.87526137E-01 0.18987298E+03</pdfrwt>
<pdfrwt beam="2">  1       21 0.21176747E-01 0.18987298E+03</pdfrwt>
<totfact> 0.23274059E+04</totfact>
</mgrwt>
</event>
<event>
 4    1  0.3945627E+000  0.2065171E+03  0.7546771E-02  0.1144354E+00
         21   -1    0    0  503  502  0.00000000000E+00  0.00000000000E+00  0.36691368775E+03  0.36691368775E+03  0.00000000000E+00 0.  1.
         21   -1    0    0  501  503 -0.00000000000E+00 -0.00000000000E+00 -0.19218934782E+03  0.19218934782E+03  0.00000000000E+00 0.  1.
          6    1    1    2  501    0  0.54820652290E+02 -0.98564816232E+02 -0.88375487888E+02  0.22463204085E+03  0.17300000000E+03 0. -1.
         -6    1    1    2    0  502 -0.54820652290E+02  0.98564816232E+02  0.26309982782E+03  0.33447099473E+03  0.17300000000E+03 0. -1.
<mgrwt>
<rscale>  2 0.20651713E+03</rscale>
<asrwt>0</asrwt>
<pdfrwt beam="1">  1       21 0.56448259E-01 0.20651713E+03</pdfrwt>
<pdfrwt beam="2">  1       21 0.29567592E-01 0.20651713E+03</pdfrwt>
<totfact> 0.32116812E+04</totfact>
</mgrwt>
</event>
<event>
 4    1  0.3945627E+000  0.3469844E+03  0.7546771E-02  0.1063860E+00
         21   -1    0    0  501  502  0.00000000000E+00  0.00000000000E+00  0.72428566821E+03  0.72428566821E+03  0.00000000000E+00 0. -1.
         21   -1    0    0  502  503 -0.00000000000E+00 -0.00000000000E+00 -0.24490430028E+03  0.24490430028E+03  0.00000000000E+00 0. -1.
          6    1    1    2  501    0  0.27820059776E+03  0.11433989725E+03  0.51435135397E+03  0.62044782217E+03  0.17300000000E+03 0. -1.
         -6    1    1    2    0  503 -0.27820059776E+03 -0.11433989725E+03 -0.34969986039E+02  0.34874214632E+03  0.17300000000E+03 0. -1.
<mgrwt>
<rscale>  2 0.34698442E+03</rscale>
<asrwt>0</asrwt>
<pdfrwt beam="1">  1       21 0.11142856E+00 0.34698442E+03</pdfrwt>
<pdfrwt beam="2">  1       21 0.37677585E-01 0.34698442E+03</pdfrwt>
<totfact> 0.39085593E+03</totfact>
</mgrwt>
</event>
<event>
 4    1  0.3945627E+000  0.1750848E+03  0.7546771E-02  0.1172647E+00
         21   -1    0    0  503  502  0.00000000000E+00  0.00000000000E+00  0.95069200803E+02  0.95069200803E+02  0.00000000000E+00 0.  1.
         21   -1    0    0  501  503 -0.00000000000E+00 -0.00000000000E+00 -0.33517072106E+03  0.33517072106E+03  0.00000000000E+00 0.  1.
          6    1    1    2  501    0  0.14272879853E+02  0.22846614846E+02 -0.78135523814E+02  0.19172856592E+03  0.17300000000E+03 0.  1.
         -6    1    1    2    0  502 -0.14272879853E+02 -0.22846614846E+02 -0.16196599645E+03  0.23851135594E+03  0.17300000000E+03 0.  1.
<mgrwt>
<rscale>  2 0.17508479E+03</rscale>
<asrwt>0</asrwt>
<pdfrwt beam="1">  1       21 0.14626031E-01 0.17508479E+03</pdfrwt>
<pdfrwt beam="2">  1       21 0.51564727E-01 0.17508479E+03</pdfrwt>
<totfact> 0.14759705E+05</totfact>
</mgrwt>
</event>
<event>
 4    1  0.3945627E+000  0.1882174E+03  0.7546771E-02  0.1160079E+00
         21   -1    0    0  503  502  0.00000000000E+00  0.00000000000E+00  0.53242736652E+03  0.53242736652E+03  0.00000000000E+00 0. -1.
         21   -1    0    0  501  503 -0.00000000000E+00 -0.00000000000E+00 -0.13720106856E+03  0.13720106856E+03  0.00000000000E+00 0. -1.
          6    1    1    2  501    0  0.47358525194E+02 -0.57043418390E+02 -0.42671715776E+02  0.19299392948E+03  0.17300000000E+03 0. -1.
         -6    1    1    2    0  502 -0.47358525194E+02  0.57043418390E+02  0.43789801374E+03  0.47663450560E+03  0.17300000000E+03 0. -1.
<mgrwt>
<rscale>  2 0.18821738E+03</rscale>
<asrwt>0</asrwt>
<pdfrwt beam="1">  1       21 0.81911901E-01 0.18821738E+03</pdfrwt>
<pdfrwt beam="2">  1       21 0.21107857E-01 0.18821738E+03</pdfrwt>
<totfact> 0.27271552E+04</totfact>
</mgrwt>
</event>
<event>
 4    1  0.3945627E+000  0.2515565E+03  0.7546771E-02  0.1112325E+00
         21   -1    0    0  501  502  0.00000000000E+00  0.00000000000E+00  0.33958576011E+02  0.33958576011E+02  0.00000000000E+00 0. -1.
         21   -1    0    0  502  503 -0.00000000000E+00 -0.00000000000E+00 -0.22469257451E+04  0.22469257451E+04  0.00000000000E+00 0.  1.
          6    1    1    2  501    0 -0.16981590990E+02 -0.18183316732E+03 -0.15776110291E+04  0.15975409961E+04  0.17300000000E+03 0.  1.
         -6    1    1    2    0  503  0.16981590990E+02  0.18183316732E+03 -0.63535613994E+03  0.68334332493E+03  0.17300000000E+03 0. -1.
<mgrwt>
<rscale>  2 0.25155650E+03</rscale>
<asrwt>0</asrwt>
<pdfrwt beam="1">  1       21 0.52243953E-02 0.25155650E+03</pdfrwt>
<pdfrwt beam="2">  1       21 0.34568095E+00 0.25155650E+03</pdfrwt>
<totfact> 0.43341268E+03</totfact>
</mgrwt>
</event>
<event>
 4    1  0.3945627E+000  0.2544926E+03  0.7546771E-02  0.1110498E+00
         21   -1    0    0  501  502  0.00000000000E+00  0.00000000000E+00  0.16563372310E+04  0.16563372310E+04  0.00000000000E+00 0.  1.
         21   -1    0    0  502  503 -0.00000000000E+00 -0.00000000000E+00 -0.49685975265E+02  0.49685975265E+02  0.00000000000E+00 0. -1.
          6    1    1    2  501    0  0.18251676101E+03  0.39052691780E+02  0.11970186351E+04  0.12237728930E+04  0.17300000000E+03 0.  1.
         -6    1    1    2    0  503 -0.18251676101E+03 -0.39052691780E+02  0.40963262060E+03  0.48225031327E+03  0.17300000000E+03 0. -1.
<mgrwt>
<rscale>  2 0.25449259E+03</rscale>
<asrwt>0</asrwt>
<pdfrwt beam="1">  1       21 0.25482107E+00 0.25449259E+03</pdfrwt>
<pdfrwt beam="2">  1       21 0.76439975E-02 0.25449259E+03</pdfrwt>
<totfact> 0.76638879E+03</totfact>
</mgrwt>
</event>
<event>
 4    1  0.3945627E+000  0.2001358E+03  0.7546771E-02  0.1149624E+00
         21   -1    0    0  503  502  0.00000000000E+00  0.00000000000E+00  0.21107092308E+03  0.21107092308E+03  0.00000000000E+00 0.  1.
         21   -1    0    0  501  503 -0.00000000000E+00 -0.00000000000E+00 -0.73729126255E+03  0.73729126255E+03  0.00000000000E+00 0.  1.
          6    1    1    2  501    0  0.99311199380E+02 -0.16205549442E+02 -0.67173645737E+03  0.70091668714E+03  0.17300000000E+03 0.  1.
         -6    1    1    2    0  502 -0.99311199380E+02  0.16205549442E+02  0.14551611790E+03  0.24744549849E+03  0.17300000000E+03 0.  1.
<mgrwt>
<rscale>  2 0.20013579E+03</rscale>
<asrwt>0</asrwt>
<pdfrwt beam="1">  1       21 0.32472450E-01 0.20013579E+03</pdfrwt>
<pdfrwt beam="2">  1       21 0.11342942E+00 0.20013579E+03</pdfrwt>
<totfact> 0.54995422E+03</totfact>
</mgrwt>
</event>
<event>
 4    1  0.3945627E+000  0.1850045E+03  0.7546771E-02  0.1163046E+00
         21   -1    0    0  501  502  0.00000000000E+00  0.00000000000E+00  0.34145591215E+03  0.34145591215E+03  0.00000000000E+00 0. -1.
         21   -1    0    0  502  503 -0.00000000000E+00 -0.00000000000E+00 -0.10172880539E+03  0.10172880539E+03  0.00000000000E+00 0. -1.
          6    1    1    2  501    0 -0.14319261799E+02  0.63973616683E+02  0.14669385334E+03  0.23610538218E+03  0.17300000000E+03 0. -1.
         -6    1    1    2    0  503  0.14319261799E+02 -0.63973616683E+02  0.93033253423E+02  0.20707933536E+03  0.17300000000E+03 0. -1.
<mgrwt>
<rscale>  2 0.18500450E+03</rscale>
<asrwt>0</asrwt>
<pdfrwt beam="1">  1       21 0.52531678E-01 0.18500450E+03</pdfrwt>
<pdfrwt beam="2">  1       21 0.15650586E-01 0.18500450E+03</pdfrwt>
<totfact> 0.12508469E+05</totfact>
</mgrwt>
</event>
<event>
 4    1  0.3945627E+000  0.1850857E+03  0.7546771E-02  0.1162970E+00
         21   -1    0    0  503  502  0.00000000000E+00  0.00000000000E+00  0.22013864957E+02  0.22013864957E+02  0.00000000000E+00 0.  1.
         21   -1    0    0  501  503 -0.00000000000E+00 -0.00000000000E+00 -0.17019269466E+04  0.17019269466E+04  0.00000000000E+00 0.  1.
          6    1    1    2  501    0 -0.63908009991E+02  0.15604499732E+02 -0.58768055172E+03  0.61613729397E+03  0.17300000000E+03 0.  1.
         -6    1    1    2    0  502  0.63908009991E+02 -0.15604499732E+02 -0.10922325299E+04  0.11078035176E+04  0.17300000000E+03 0.  1.
<mgrwt>
<rscale>  2 0.18508575E+03</rscale>
<asrwt>0</asrwt>
<pdfrwt beam="1">  1       21 0.33867478E-02 0.18508575E+03</pdfrwt>
<pdfrwt beam="2">  1       21 0.26183497E+00 0.18508575E+03</pdfrwt>
<totfact> 0.29529273E+04</totfact>
</mgrwt>
</event>
<event>
 4    1  0.3945627E+000  0.1787469E+03  0.7546771E-02  0.1169021E+00
         21   -1    0    0  501  502  0.00000000000E+00  0.00000000000E+00  0.34990028394E+03  0.34990028394E+03  0.00000000000E+00 0.  1.
         21   -1    0    0  502  503 -0.00000000000E+00 -0.00000000000E+00 -0.17513019846E+03  0.17513019846E+03  0.00000000000E+00 0.  1.
          6    1    1    2  501    0 -0.52824032987E+01 -0.44648994039E+02  0.26899540882E+03  0.32296898677E+03  0.17300000000E+03 0.  1.
         -6    1    1    2    0  503  0.52824032987E+01  0.44648994039E+02 -0.94225323341E+02  0.20206149562E+03  0.17300000000E+03 0.  1.
<mgrwt>
<rscale>  2 0.17874685E+03</rscale>
<asrwt>0</asrwt>
<pdfrwt beam="1">  1       21 0.53830813E-01 0.17874685E+03</pdfrwt>
<pdfrwt beam="2">  1       21 0.26943107E-01 0.17874685E+03</pdfrwt>
<totfact> 0.43126424E+04</totfact>
</mgrwt>
</event>
<event>
 4    1  0.3945627E+000  0.1929708E+03  0.7546771E-02  0.1155809E+00
         21   -1    0    0  501  502  0.00000000000E+00  0.00000000000E+00  0.42787660994E+03  0.42787660994E+03  0.00000000000E+00 0.  1.
         21   -1    0    0  502  503 -0.00000000000E+00 -0.00000000000E+00 -0.96299886727E+02  0.96299886727E+02  0.00000000000E+00 0.  1.
          6    1    1    2  501    0 -0.66539174600E+02  0.53677271438E+02  0.24710758673E+03  0.31352810184E+03  0.17300000000E+03 0.  1.
         -6    1    1    2    0  503  0.66539174600E+02 -0.53677271438E+02  0.84469136491E+02  0.21064839483E+03  0.17300000000E+03 0.  1.
<mgrwt>
<rscale>  2 0.19297075E+03</rscale>
<asrwt>0</asrwt>
<pdfrwt beam="1">  1       21 0.65827169E-01 0.19297075E+03</pdfrwt>
<pdfrwt beam="2">  1       21 0.14815367E-01 0.19297075E+03</pdfrwt>
<totfact> 0.85065179E+04</totfact>
</mgrwt>
</event>
<event>
 4    1  0.3945627E+000  0.1783061E+03  0.7546771E-02  0.1169453E+00
         21   -1    0    0  501  502  0.00000000000E+00  0.00000000000E+00  0.17673839623E+03  0.17673839623E+03  0.00000000000E+00 0. -1.
         21   -1    0    0  502  503 -0.00000000000E+00 -0.00000000000E+00 -0.51431154284E+03  0.51431154284E+03  0.00000000000E+00 0. -1.
          6    1    1    2  501    0  0.18062780840E+02  0.39214637142E+02  0.10983514191E+03  0.20942017624E+03  0.17300000000E+03 0. -1.
         -6    1    1    2    0  503 -0.18062780840E+02 -0.39214637142E+02 -0.44740828852E+03  0.48162976284E+03  0.17300000000E+03 0. -1.
<mgrwt>
<rscale>  2 0.17830606E+03</rscale>
<asrwt>0</asrwt>
<pdfrwt beam="1">  1       21 0.27190522E-01 0.17830606E+03</pdfrwt>
<pdfrwt beam="2">  1       21 0.79124853E-01 0.17830606E+03</pdfrwt>
<totfact> 0.18341196E+04</totfact>
</mgrwt>
</event>
<event>
 4    1  0.3945627E+000  0.2045899E+03  0.7546771E-02  0.1145923E+00
         21   -1    0    0  503  502  0.00000000000E+00  0.00000000000E+00  0.19992839565E+03  0.19992839565E+03  0.00000000000E+00 0. -1.
         21   -1    0    0  501  503 -0.00000000000E+00 -0.00000000000E+00 -0.21549298612E+03  0.21549298612E+03  0.00000000000E+00 0. -1.
          6    1    1    2  501    0  0.90064995336E+02  0.61776273247E+02 -0.42823404454E+02  0.20902357592E+03  0.17300000000E+03 0. -1.
         -6    1    1    2    0  502 -0.90064995336E+02 -0.61776273247E+02  0.27258813986E+02  0.20639780585E+03  0.17300000000E+03 0. -1.
<mgrwt>
<rscale>  2 0.20458986E+03</rscale>
<asrwt>0</asrwt>
<pdfrwt beam="1">  1       21 0.30758214E-01 0.20458986E+03</pdfrwt>
<pdfrwt beam="2">  1       21 0.33152767E-01 0.20458986E+03</pdfrwt>
<totfact> 0.88473057E+04</totfact>
</mgrwt>
</event>
<event>
 4    1  0.3945627E+000  0.1982370E+03  0.7546771E-02  0.1151235E+00
         21   -1    0    0  503  502  0.00000000000E+00  0.00000000000E+00  0.21107734699E+03  0.21107734699E+03  0.00000000000E+00 0.  1.
         21   -1    0    0  501  503 -0.00000000000E+00 -0.00000000000E+00 -0.18852664789E+03  0.18852664789E+03  0.00000000000E+00 0.  1.
          6    1    1    2  501    0 -0.24483954825E+02 -0.93645282588E+02 -0.11026795457E+02  0.19854342903E+03  0.17300000000E+03 0.  1.
         -6    1    1    2    0  502  0.24483954825E+02  0.93645282588E+02  0.33577494559E+02  0.20106056584E+03  0.17300000000E+03 0.  1.
<mgrwt>
<rscale>  2 0.19823699E+03</rscale>
<asrwt>0</asrwt>
<pdfrwt beam="1">  1       21 0.32473438E-01 0.19823699E+03</pdfrwt>
<pdfrwt beam="2">  1       21 0.29004099E-01 0.19823699E+03</pdfrwt>
<totfact> 0.10360952E+05</totfact>
</mgrwt>
</event>
<event>
 4    1  0.3945627E+000  0.1853403E+03  0.7546771E-02  0.1162733E+00
         21   -1    0    0  503  502  0.00000000000E+00  0.00000000000E+00  0.28317749190E+03  0.28317749190E+03  0.00000000000E+00 0. -1.
         21   -1    0    0  501  503 -0.00000000000E+00 -0.00000000000E+00 -0.15982778861E+03  0.15982778861E+03  0.00000000000E+00 0. -1.
          6    1    1    2  501    0  0.63296572060E+02  0.20385273529E+02 -0.47069883936E+02  0.19122392472E+03  0.17300000000E+03 0. -1.
         -6    1    1    2    0  502 -0.63296572060E+02 -0.20385273529E+02  0.17041958722E+03  0.25178135578E+03  0.17300000000E+03 0. -1.
<mgrwt>
<rscale>  2 0.18534027E+03</rscale>
<asrwt>0</asrwt>
<pdfrwt beam="1">  1       21 0.43565768E-01 0.18534027E+03</pdfrwt>
<pdfrwt beam="2">  1       21 0.24588891E-01 0.18534027E+03</pdfrwt>
<totfact> 0.79400259E+04</totfact>
</mgrwt>
</event>
<event>
 4    1  0.3945627E+000  0.1817871E+03  0.7546771E-02  0.1166085E+00
         21   -1    0    0  503  502  0.00000000000E+00  0.00000000000E+00  0.20664953356E+04  0.20664953356E+04  0.00000000000E+00 0.  1.
         21   -1    0    0  501  503 -0.00000000000E+00 -0.00000000000E+00 -0.18066562147E+02  0.18066562147E+02  0.00000000000E+00 0.  1.
          6    1    1    2  501    0  0.68225556177E+01  0.55416559799E+02  0.67098781435E+03  0.69517709209E+03  0.17300000000E+03 0.  1.
         -6    1    1    2    0  502 -0.68225556177E+01 -0.55416559799E+02  0.13774409591E+04  0.13893848057E+04  0.17300000000E+03 0.  1.
<mgrwt>
<rscale>  2 0.18178708E+03</rscale>
<asrwt>0</asrwt>
<pdfrwt beam="1">  1       21 0.31792217E+00 0.18178708E+03</pdfrwt>
<pdfrwt beam="2">  1       21 0.27794727E-02 0.18178708E+03</pdfrwt>
<totfact> 0.19541432E+04</totfact>
</mgrwt>
</event>
<event>
 4    1  0.3945627E+000  0.2450822E+03  0.7546771E-02  0.1116453E+00
         21   -1    0    0  501  502  0.00000000000E+00  0.00000000000E+00  0.24827348484E+03  0.24827348484E+03  0.00000000000E+00 0. -1.
         21   -1    0    0  502  503 -0.00000000000E+00 -0.00000000000E+00 -0.32434542401E+03  0.32434542401E+03  0.00000000000E+00 0.  1.
          6    1    1    2  501    0  0.12168097775E+03  0.12381442364E+03  0.10628554816E+03  0.26713646249E+03  0.17300000000E+03 0. -1.
         -6    1    1    2    0  503 -0.12168097775E+03 -0.12381442364E+03 -0.18235748733E+03  0.30548244636E+03  0.17300000000E+03 0.  1.
<mgrwt>
<rscale>  2 0.24508217E+03</rscale>
<asrwt>0</asrwt>
<pdfrwt beam="1">  1       21 0.38195921E-01 0.24508217E+03</pdfrwt>
<pdfrwt beam="2">  1       21 0.49899296E-01 0.24508217E+03</pdfrwt>
<totfact> 0.24603031E+04</totfact>
</mgrwt>
</event>
<event>
 4    1  0.3945627E+000  0.2533827E+03  0.7546771E-02  0.1111185E+00
         21   -1    0    0  501  502  0.00000000000E+00  0.00000000000E+00  0.42492358407E+02  0.42492358407E+02  0.00000000000E+00 0. -1.
         21   -1    0    0  502  503 -0.00000000000E+00 -0.00000000000E+00 -0.16412587248E+04  0.16412587248E+04  0.00000000000E+00 0. -1.
          6    1    1    2  501    0  0.42768923229E+02  0.18012393275E+03 -0.10366221344E+04  0.10671402257E+04  0.17300000000E+03 0. -1.
         -6    1    1    2    0  503 -0.42768923229E+02 -0.18012393275E+03 -0.56214423205E+03  0.61661085748E+03  0.17300000000E+03 0. -1.
<mgrwt>
<rscale>  2 0.25338274E+03</rscale>
<asrwt>0</asrwt>
<pdfrwt beam="1">  1       21 0.65372854E-02 0.25338274E+03</pdfrwt>
<pdfrwt beam="2">  1       21 0.25250136E+00 0.25338274E+03</pdfrwt>
<totfact> 0.10392482E+04</totfact>
</mgrwt>
</event>
<event>
 4    1  0.3945627E+000  0.2874066E+03  0.7546771E-02  0.1091711E+00
         21   -1    0    0  501  502  0.00000000000E+00  0.00000000000E+00  0.15627414049E+03  0.15627414049E+03  0.00000000000E+00 0. -1.
         21   -1    0    0  502  503 -0.00000000000E+00 -0.00000000000E+00 -0.10887433730E+04  0.10887433730E+04  0.00000000000E+00 0. -1.
          6    1    1    2  501    0 -0.13527091412E+03  0.18540585705E+03 -0.91275585776E+03  0.95693563415E+03  0.17300000000E+03 0. -1.
         -6    1    1    2    0  503  0.13527091412E+03 -0.18540585705E+03 -0.19713374702E+02  0.28808187929E+03  0.17300000000E+03 0. -1.
<mgrwt>
<rscale>  2 0.28740660E+03</rscale>
<asrwt>0</asrwt>
<pdfrwt beam="1">  1       21 0.24042175E-01 0.28740660E+03</pdfrwt>
<pdfrwt beam="2">  1       21 0.16749898E+00 0.28740660E+03</pdfrwt>
<totfact> 0.33745002E+03</totfact>
</mgrwt>
</event>
<event>
 4    1  0.3945627E+000  0.2706297E+03  0.7546771E-02  0.1100920E+00
         21   -1    0    0  501  502  0.00000000000E+00  0.00000000000E+00  0.67532976730E+02  0.67532976730E+02  0.00000000000E+00 0.  1.
         21   -1    0    0  502  503 -0.00000000000E+00 -0.00000000000E+00 -0.10950416002E+04  0.10950416002E+04  0.00000000000E+00 0. -1.
          6    1    1    2  501    0 -0.17603161048E+03 -0.11101488760E+03 -0.45675783409E+03  0.53091256546E+03  0.17300000000E+03 0.  1.
         -6    1    1    2    0  503  0.17603161048E+03  0.11101488760E+03 -0.57075078939E+03  0.63166201148E+03  0.17300000000E+03 0.  1.
<mgrwt>
<rscale>  2 0.27062970E+03</rscale>
<asrwt>0</asrwt>
<pdfrwt beam="1">  1       21 0.10389690E-01 0.27062970E+03</pdfrwt>
<pdfrwt beam="2">  1       21 0.16846792E+00 0.27062970E+03</pdfrwt>
<totfact> 0.15791524E+04</totfact>
</mgrwt>
</event>
<event>
 4    1  0.3945627E+000  0.2179182E+03  0.7546771E-02  0.1135445E+00
         21   -1    0    0  501  502  0.00000000000E+00  0.00000000000E+00  0.17549257526E+04  0.17549257526E+04  0.00000000000E+00 0.  1.
         21   -1    0    0  502  503 -0.00000000000E+00 -0.00000000000E+00 -0.19288949975E+03  0.19288949975E+03  0.00000000000E+00 0.  1.
          6    1    1    2  501    0  0.17276028704E+02 -0.13138067666E+03  0.16840318059E+04  0.16980728684E+04  0.17300000000E+03 0.  1.
         -6    1    1    2    0  503 -0.17276028704E+02  0.13138067666E+03 -0.12199555301E+03  0.24974238391E+03  0.17300000000E+03 0.  1.
<mgrwt>
<rscale>  2 0.21791820E+03</rscale>
<asrwt>0</asrwt>
<pdfrwt beam="1">  1       21 0.26998857E+00 0.21791820E+03</pdfrwt>
<pdfrwt beam="2">  1       21 0.29675309E-01 0.21791820E+03</pdfrwt>
<totfact> 0.53564561E+02</totfact>
</mgrwt>
</event>
<event>
 4    1  0.3945627E+000  0.1760141E+03  0.7546771E-02  0.1171717E+00
         21   -1    0    0  501  502  0.00000000000E+00  0.00000000000E+00  0.13912991089E+03  0.13912991089E+03  0.00000000000E+00 0.  1.
         21   -1    0    0  502  503 -0.00000000000E+00 -0.00000000000E+00 -0.25531576613E+03  0.25531576613E+03  0.00000000000E+00 0.  1.
          6    1    1    2  501    0 -0.22243563162E+02 -0.23605170595E+02  0.12423076158E+02  0.17645201331E+03  0.17300000000E+03 0.  1.
         -6    1    1    2    0  503  0.22243563162E+02  0.23605170595E+02 -0.12860893140E+03  0.21799366371E+03  0.17300000000E+03 0.  1.
<mgrwt>
<rscale>  2 0.17601415E+03</rscale>
<asrwt>0</asrwt>
<pdfrwt beam="1">  1       21 0.21404602E-01 0.17601415E+03</pdfrwt>
<pdfrwt beam="2">  1       21 0.39279348E-01 0.17601415E+03</pdfrwt>
<totfact> 0.12774377E+05</totfact>
</mgrwt>
</event>
<event>
 4    1  0.3945627E+000  0.2191685E+03  0.7546771E-02  0.1134504E+00
         21   -1    0    0  503  502  0.00000000000E+00  0.00000000000E+00  0.33253022520E+03  0.33253022520E+03  0.00000000000E+00 0. -1.
         21   -1    0    0  501  503 -0.00000000000E+00 -0.00000000000E+00 -0.44661979079E+03  0.44661979079E+03  0.00000000000E+00 0. -1.
          6    1    1    2  501    0 -0.11887593251E+00  0.13455786993E+03 -0.37748410579E+03  0.43649637411E+03  0.17300000000E+03 0. -1.
         -6    1    1    2    0  502  0.11887593251E+00 -0.13455786993E+03  0.26339454020E+03  0.34265364188E+03  0.17300000000E+03 0. -1.
<mgrwt>
<rscale>  2 0.21916851E+03</rscale>
<asrwt>0</asrwt>
<pdfrwt beam="1">  1       21 0.51158497E-01 0.21916851E+03</pdfrwt>
<pdfrwt beam="2">  1       21 0.68710737E-01 0.21916851E+03</pdfrwt>
<totfact> 0.68801132E+03</totfact>
</mgrwt>
</event>
<event>
 4    1  0.3945627E+000  0.2032385E+03  0.7546771E-02  0.1147035E+00
         21   -1    0    0  501  502  0.00000000000E+00  0.00000000000E+00  0.11080432567E+04  0.11080432567E+04  0.00000000000E+00 0.  1.
         21   -1    0    0  502  503 -0.00000000000E+00 -0.00000000000E+00 -0.50218030675E+03  0.50218030675E+03  0.00000000000E+00 0.  1.
          6    1    1    2  501    0 -0.43914234397E+02  0.97202974996E+02  0.10775842692E+04  0.10965827537E+04  0.17300000000E+03 0.  1.
         -6    1    1    2    0  503  0.43914234397E+02 -0.97202974996E+02 -0.47172131932E+03  0.51364080974E+03  0.17300000000E+03 0.  1.
<mgrwt>
<rscale>  2 0.20323848E+03</rscale>
<asrwt>0</asrwt>
<pdfrwt beam="1">  1       21 0.17046819E+00 0.20323848E+03</pdfrwt>
<pdfrwt beam="2">  1       21 0.77258509E-01 0.20323848E+03</pdfrwt>
<totfact> 0.31103896E+02</totfact>
</mgrwt>
</event>
<event>
 4    1  0.3945627E+000  0.1980629E+03  0.7546771E-02  0.1151384E+00
         21   -1    0    0  501  502  0.00000000000E+00  0.00000000000E+00  0.50212996036E+03  0.50212996036E+03  0.00000000000E+00 0. -1.
         21   -1    0    0  502  503 -0.00000000000E+00 -0.00000000000E+00 -0.22602866430E+03  0.22602866430E+03  0.00000000000E+00 0. -1.
          6    1    1    2  501    0  0.76493228263E+02  0.58725724243E+02  0.43256309013E+03  0.47575177519E+03  0.17300000000E+03 0. -1.
         -6    1    1    2    0  503 -0.76493228263E+02 -0.58725724243E+02 -0.15646179407E+03  0.25240684947E+03  0.17300000000E+03 0. -1.
<mgrwt>
<rscale>  2 0.19806293E+03</rscale>
<asrwt>0</asrwt>
<pdfrwt beam="1">  1       21 0.77250763E-01 0.19806293E+03</pdfrwt>
<pdfrwt beam="2">  1       21 0.34773641E-01 0.19806293E+03</pdfrwt>
<totfact> 0.11818865E+04</totfact>
</mgrwt>
</event>
<event>
 4    1  0.3945627E+000  0.1857785E+03  0.7546771E-02  0.1162325E+00
         21   -1    0    0  501  502  0.00000000000E+00  0.00000000000E+00  0.12979657061E+03  0.12979657061E+03  0.00000000000E+00 0.  1.
         21   -1    0    0  502  503 -0.00000000000E+00 -0.00000000000E+00 -0.31600040493E+03  0.31600040493E+03  0.00000000000E+00 0.  1.
          6    1    1    2  501    0 -0.57115099919E+02  0.36366322193E+02 -0.43537596666E+01  0.18582948973E+03  0.17300000000E+03 0.  1.
         -6    1    1    2    0  503  0.57115099919E+02 -0.36366322193E+02 -0.18185007466E+03  0.25996748582E+03  0.17300000000E+03 0.  1.
<mgrwt>
<rscale>  2 0.18577848E+03</rscale>
<asrwt>0</asrwt>
<pdfrwt beam="1">  1       21 0.19968703E-01 0.18577848E+03</pdfrwt>
<pdfrwt beam="2">  1       21 0.48615447E-01 0.18577848E+03</pdfrwt>
<totfact> 0.93770113E+04</totfact>
</mgrwt>
</event>
<event>
 4    1  0.3945627E+000  0.2218466E+03  0.7546771E-02  0.1132514E+00
         21   -1    0    0  503  502  0.00000000000E+00  0.00000000000E+00  0.11276883019E+03  0.11276883019E+03  0.00000000000E+00 0.  1.
         21   -1    0    0  501  503 -0.00000000000E+00 -0.00000000000E+00 -0.43733053301E+03  0.43733053301E+03  0.00000000000E+00 0. -1.
          6    1    1    2  501    0  0.89846841951E+02 -0.10589830858E+03 -0.17474936498E+03  0.28240617438E+03  0.17300000000E+03 0. -1.
         -6    1    1    2    0  502 -0.89846841951E+02  0.10589830858E+03 -0.14981233783E+03  0.26769318881E+03  0.17300000000E+03 0.  1.
<mgrwt>
<rscale>  2 0.22184658E+03</rscale>
<asrwt>0</asrwt>
<pdfrwt beam="1">  1       21 0.17349051E-01 0.22184658E+03</pdfrwt>
<pdfrwt beam="2">  1       21 0.67281620E-01 0.22184658E+03</pdfrwt>
<totfact> 0.59939420E+04</totfact>
</mgrwt>
</event>
<event>
 4    1  0.3945627E+000  0.1892086E+03  0.7546771E-02  0.1159177E+00
         21   -1    0    0  503  502  0.00000000000E+00  0.00000000000E+00  0.25510354651E+02  0.25510354651E+02  0.00000000000E+00 0. -1.
         21   -1    0    0  501  503 -0.00000000000E+00 -0.00000000000E+00 -0.14310683500E+04  0.14310683500E+04  0.00000000000E+00 0. -1.
          6    1    1    2  501    0 -0.31362606904E+02 -0.69909030961E+02 -0.80414191510E+03  0.82610175241E+03  0.17300000000E+03 0. -1.
         -6    1    1    2    0  502  0.31362606904E+02  0.69909030961E+02 -0.60141608030E+03  0.63047695228E+03  0.17300000000E+03 0. -1.
<mgrwt>
<rscale>  2 0.18920858E+03</rscale>
<asrwt>0</asrwt>
<pdfrwt beam="1">  1       21 0.39246685E-02 0.18920858E+03</pdfrwt>
<pdfrwt beam="2">  1       21 0.22016444E+00 0.18920858E+03</pdfrwt>
<totfact> 0.40702139E+04</totfact>
</mgrwt>
</event>
<event>
 4    1  0.3945627E+000  0.2325587E+03  0.7546771E-02  0.1124852E+00
         21   -1    0    0  503  502  0.00000000000E+00  0.00000000000E+00  0.45003883145E+03  0.45003883145E+03  0.00000000000E+00 0. -1.
         21   -1    0    0  501  503 -0.00000000000E+00 -0.00000000000E+00 -0.12060193865E+03  0.12060193865E+03  0.00000000000E+00 0. -1.
          6    1    1    2  501    0  0.14559305845E+03 -0.54380184856E+02  0.18168897082E+03  0.29511764653E+03  0.17300000000E+03 0. -1.
         -6    1    1    2    0  502 -0.14559305845E+03  0.54380184856E+02  0.14774792198E+03  0.27552312358E+03  0.17300000000E+03 0. -1.
<mgrwt>
<rscale>  2 0.23255869E+03</rscale>
<asrwt>0</asrwt>
<pdfrwt beam="1">  1       21 0.69236742E-01 0.23255869E+03</pdfrwt>
<pdfrwt beam="2">  1       21 0.18554145E-01 0.23255869E+03</pdfrwt>
<totfact> 0.49449402E+04</totfact>
</mgrwt>
</event>
<event>
 4    1  0.3945627E+000  0.1783019E+03  0.7546771E-02  0.1169457E+00
         21   -1    0    0  503  502  0.00000000000E+00  0.00000000000E+00  0.18361464990E+03  0.18361464990E+03  0.00000000000E+00 0. -1.
         21   -1    0    0  501  503 -0.00000000000E+00 -0.00000000000E+00 -0.25205621588E+03  0.25205621588E+03  0.00000000000E+00 0. -1.
          6    1    1    2  501    0  0.29833449009E+02  0.31185331515E+02 -0.15610715883E+03  0.23698313151E+03  0.17300000000E+03 0. -1.
         -6    1    1    2    0  502 -0.29833449009E+02 -0.31185331515E+02  0.87665592854E+02  0.19868773428E+03  0.17300000000E+03 0. -1.
<mgrwt>
<rscale>  2 0.17830188E+03</rscale>
<asrwt>0</asrwt>
<pdfrwt beam="1">  1       21 0.28248408E-01 0.17830188E+03</pdfrwt>
<pdfrwt beam="2">  1       21 0.38777879E-01 0.17830188E+03</pdfrwt>
<totfact> 0.77255708E+04</totfact>
</mgrwt>
</event>
<event>
 4    1  0.3945627E+000  0.1785443E+03  0.7546771E-02  0.1169219E+00
         21   -1    0    0  503  502  0.00000000000E+00  0.00000000000E+00  0.18776565259E+03  0.18776565259E+03  0.00000000000E+00 0.  1.
         21   -1    0    0  501  503 -0.00000000000E+00 -0.00000000000E+00 -0.24430809504E+03  0.24430809504E+03  0.00000000000E+00 0.  1.
          6    1    1    2  501    0 -0.30784583825E+02  0.31644727115E+02 -0.14759608923E+03  0.23165207728E+03  0.17300000000E+03 0.  1.
         -6    1    1    2    0  502  0.30784583825E+02 -0.31644727115E+02  0.91053646770E+02  0.20042167035E+03  0.17300000000E+03 0.  1.
<mgrwt>
<rscale>  2 0.17854433E+03</rscale>
<asrwt>0</asrwt>
<pdfrwt beam="1">  1       21 0.28887024E-01 0.17854433E+03</pdfrwt>
<pdfrwt beam="2">  1       21 0.37585860E-01 0.17854433E+03</pdfrwt>
<totfact> 0.78752043E+04</totfact>
</mgrwt>
</event>
<event>
 4    1  0.3945627E+000  0.2066138E+03  0.7546771E-02  0.1144276E+00
         21   -1    0    0  501  502  0.00000000000E+00  0.00000000000E+00  0.55930087027E+02  0.55930087027E+02  0.00000000000E+00 0. -1.
         21   -1    0    0  502  503 -0.00000000000E+00 -0.00000000000E+00 -0.82911411542E+03  0.82911411542E+03  0.00000000000E+00 0. -1.
          6    1    1    2  501    0 -0.42776608047E+02 -0.10454862996E+03 -0.26187779553E+03  0.33357043337E+03  0.17300000000E+03 0. -1.
         -6    1    1    2    0  503  0.42776608047E+02  0.10454862996E+03 -0.51130623286E+03  0.55147376908E+03  0.17300000000E+03 0. -1.
<mgrwt>
<rscale>  2 0.20661378E+03</rscale>
<asrwt>0</asrwt>
<pdfrwt beam="1">  1       21 0.86046297E-02 0.20661378E+03</pdfrwt>
<pdfrwt beam="2">  1       21 0.12755600E+00 0.20661378E+03</pdfrwt>
<totfact> 0.47554038E+04</totfact>
</mgrwt>
</event>
<event>
 4    1  0.3945627E+000  0.2010279E+03  0.7546771E-02  0.1148875E+00
         21   -1    0    0  501  502  0.00000000000E+00  0.00000000000E+00  0.50262363983E+02  0.50262363983E+02  0.00000000000E+00 0. -1.
         21   -1    0    0  502  503 -0.00000000000E+00 -0.00000000000E+00 -0.85042286706E+03  0.85042286706E+03  0.00000000000E+00 0. -1.
          6    1    1    2  501    0  0.69101101086E+02  0.75553067183E+02 -0.29489091665E+03  0.35689337463E+03  0.17300000000E+03 0. -1.
         -6    1    1    2    0  503 -0.69101101086E+02 -0.75553067183E+02 -0.50526958642E+03  0.54379185641E+03  0.17300000000E+03 0. -1.
<mgrwt>
<rscale>  2 0.20102793E+03</rscale>
<asrwt>0</asrwt>
<pdfrwt beam="1">  1       21 0.77326720E-02 0.20102793E+03</pdfrwt>
<pdfrwt beam="2">  1       21 0.13083428E+00 0.20102793E+03</pdfrwt>
<totfact> 0.53905330E+04</totfact>
</mgrwt>
</event>
<event>
 4    1  0.3945627E+000  0.2462143E+03  0.7546771E-02  0.1115721E+00
         21   -1    0    0  501  502  0.00000000000E+00  0.00000000000E+00  0.18594323679E+03  0.18594323679E+03  0.00000000000E+00 0. -1.
         21   -1    0    0  502  503 -0.00000000000E+00 -0.00000000000E+00 -0.59068247457E+03  0.59068247457E+03  0.00000000000E+00 0. -1.
          6    1    1    2  501    0  0.17483574314E+03 -0.11178573874E+02  0.57556342671E+02  0.25285219037E+03  0.17300000000E+03 0. -1.
         -6    1    1    2    0  503 -0.17483574314E+03  0.11178573874E+02 -0.46229558045E+03  0.52377352100E+03  0.17300000000E+03 0. -1.
<mgrwt>
<rscale>  2 0.24621433E+03</rscale>
<asrwt>0</asrwt>
<pdfrwt beam="1">  1       21 0.28606652E-01 0.24621433E+03</pdfrwt>
<pdfrwt beam="2">  1       21 0.90874227E-01 0.24621433E+03</pdfrwt>
<totfact> 0.11614259E+04</totfact>
</mgrwt>
</event>
<event>
 4    1  0.3945627E+000  0.2200018E+03  0.7546771E-02  0.1133882E+00
         21   -1    0    0  501  502  0.00000000000E+00  0.00000000000E+00  0.74286298447E+03  0.74286298447E+03  0.00000000000E+00 0. -1.
         21   -1    0    0  502  503 -0.00000000000E+00 -0.00000000000E+00 -0.75817035504E+02  0.75817035504E+02  0.00000000000E+00 0. -1.
          6    1    1    2  501    0  0.55579610101E+02  0.12402705242E+03  0.48703159996E+03  0.53441611330E+03  0.17300000000E+03 0. -1.
         -6    1    1    2    0  503 -0.55579610101E+02 -0.12402705242E+03  0.18001434900E+03  0.28426390667E+03  0.17300000000E+03 0. -1.
<mgrwt>
<rscale>  2 0.22000182E+03</rscale>
<asrwt>0</asrwt>
<pdfrwt beam="1">  1       21 0.11428661E+00 0.22000182E+03</pdfrwt>
<pdfrwt beam="2">  1       21 0.11664160E-01 0.22000182E+03</pdfrwt>
<totfact> 0.36200911E+04</totfact>
</mgrwt>
</event>
<event>
 4    1  0.3945627E+000  0.2084060E+03  0.7546771E-02  0.1142835E+00
         21   -1    0    0  501  502  0.00000000000E+00  0.00000000000E+00  0.24546088297E+03  0.24546088297E+03  0.00000000000E+00 0. -1.
         21   -1    0    0  502  503 -0.00000000000E+00 -0.00000000000E+00 -0.17840562695E+03  0.17840562695E+03  0.00000000000E+00 0. -1.
          6    1    1    2  501    0  0.11611464089E+03  0.46301328962E+01  0.52704661780E+02  0.21496704244E+03  0.17300000000E+03 0. -1.
         -6    1    1    2    0  503 -0.11611464089E+03 -0.46301328962E+01  0.14350594245E+02  0.20889946748E+03  0.17300000000E+03 0. -1.
<mgrwt>
<rscale>  2 0.20840597E+03</rscale>
<asrwt>0</asrwt>
<pdfrwt beam="1">  1       21 0.37763213E-01 0.20840597E+03</pdfrwt>
<pdfrwt beam="2">  1       21 0.27447019E-01 0.20840597E+03</pdfrwt>
<totfact> 0.85067331E+04</totfact>
</mgrwt>
</event>
<event>
 4    1  0.3945627E+000  0.2037011E+03  0.7546771E-02  0.1146653E+00
         21   -1    0    0  501  502  0.00000000000E+00  0.00000000000E+00  0.74486547175E+03  0.74486547175E+03  0.00000000000E+00 0.  1.
         21   -1    0    0  502  503 -0.00000000000E+00 -0.00000000000E+00 -0.98192102967E+02  0.98192102967E+02  0.00000000000E+00 0. -1.
          6    1    1    2  501    0 -0.10749111952E+03 -0.32869247528E+01  0.60060983599E+03  0.63421315008E+03  0.17300000000E+03 0.  1.
         -6    1    1    2    0  503  0.10749111952E+03  0.32869247528E+01  0.46063532802E+02  0.20884442464E+03  0.17300000000E+03 0. -1.
<mgrwt>
<rscale>  2 0.20370112E+03</rscale>
<asrwt>0</asrwt>
<pdfrwt beam="1">  1       21 0.11459468E+00 0.20370112E+03</pdfrwt>
<pdfrwt beam="2">  1       21 0.15106478E-01 0.20370112E+03</pdfrwt>
<totfact> 0.22744066E+04</totfact>
</mgrwt>
</event>
<event>
 4    1  0.3945627E+000  0.2195630E+03  0.7546771E-02  0.1134209E+00
         21   -1    0    0  501  502  0.00000000000E+00  0.00000000000E+00  0.52062186558E+03  0.52062186558E+03  0.00000000000E+00 0. -1.
         21   -1    0    0  502  503 -0.00000000000E+00 -0.00000000000E+00 -0.48781317979E+03  0.48781317979E+03  0.00000000000E+00 0.  1.
          6    1    1    2  501    0 -0.32929609674E+02  0.13112805809E+03  0.47025046470E+03  0.51898306944E+03  0.17300000000E+03 0. -1.
         -6    1    1    2    0  503  0.32929609674E+02 -0.13112805809E+03 -0.43744177891E+03  0.48945197593E+03  0.17300000000E+03 0.  1.
<mgrwt>
<rscale>  2 0.21956304E+03</rscale>
<asrwt>0</asrwt>
<pdfrwt beam="1">  1       21 0.80095672E-01 0.21956304E+03</pdfrwt>
<pdfrwt beam="2">  1       21 0.75048181E-01 0.21956304E+03</pdfrwt>
<totfact> 0.21277597E+03</totfact>
</mgrwt>
</event>
<event>
 4    1  0.3945627E+000  0.1961571E+03  0.7546771E-02  0.1153022E+00
         21   -1    0    0  503  502  0.00000000000E+00  0.00000000000E+00  0.36575714254E+03  0.36575714254E+03  0.00000000000E+00 0. -1.
         21   -1    0    0  501  503 -0.00000000000E+00 -0.00000000000E+00 -0.14320893671E+03  0.14320893671E+03  0.00000000000E+00 0. -1.
          6    1    1    2  501    0  0.50092156592E+02 -0.77713370900E+02 -0.19830388078E+02  0.19715688286E+03  0.17300000000E+03 0. -1.
         -6    1    1    2    0  502 -0.50092156592E+02  0.77713370900E+02  0.24237859391E+03  0.31180919639E+03  0.17300000000E+03 0. -1.
<mgrwt>
<rscale>  2 0.19615706E+03</rscale>
<asrwt>0</asrwt>
<pdfrwt beam="1">  1       21 0.56270329E-01 0.19615706E+03</pdfrwt>
<pdfrwt beam="2">  1       21 0.22032144E-01 0.19615706E+03</pdfrwt>
<totfact> 0.57114482E+04</totfact>
</mgrwt>
</event>
<event>
 4    1  0.3945627E+000  0.2022541E+03  0.7546771E-02  0.1147851E+00
         21   -1    0    0  501  502  0.00000000000E+00  0.00000000000E+00  0.61959812409E+03  0.61959812409E+03  0.00000000000E+00 0.  1.
         21   -1    0    0  502  503 -0.00000000000E+00 -0.00000000000E+00 -0.68013265719E+02  0.68013265719E+02  0.00000000000E+00 0.  1.
          6    1    1    2  501    0 -0.33723024633E+02  0.99199274552E+02  0.33462878628E+03  0.39100276607E+03  0.17300000000E+03 0.  1.
         -6    1    1    2    0  503  0.33723024633E+02 -0.99199274552E+02  0.21695607209E+03  0.29660862374E+03  0.17300000000E+03 0.  1.
<mgrwt>
<rscale>  2 0.20225414E+03</rscale>
<asrwt>0</asrwt>
<pdfrwt beam="1">  1       21 0.95322785E-01 0.20225414E+03</pdfrwt>
<pdfrwt beam="2">  1       21 0.10463580E-01 0.20225414E+03</pdfrwt>
<totfact> 0.68515935E+04</totfact>
</mgrwt>
</event>
<event>
 4    1  0.3945627E+000  0.2123600E+03  0.7546771E-02  0.1139711E+00
         21   -1    0    0  503  502  0.00000000000E+00  0.00000000000E+00  0.81320071123E+03  0.81320071123E+03  0.00000000000E+00 0. -1.
         21   -1    0    0  501  503 -0.00000000000E+00 -0.00000000000E+00 -0.63513563550E+02  0.63513563550E+02  0.00000000000E+00 0.  1.
          6    1    1    2  501    0 -0.97377274779E+02 -0.75401926147E+02  0.21870896422E+03  0.30484487062E+03  0.17300000000E+03 0.  1.
         -6    1    1    2    0  502  0.97377274779E+02  0.75401926147E+02  0.53097818346E+03  0.57186940416E+03  0.17300000000E+03 0. -1.
<mgrwt>
<rscale>  2 0.21236003E+03</rscale>
<asrwt>0</asrwt>
<pdfrwt beam="1">  1       21 0.12510779E+00 0.21236003E+03</pdfrwt>
<pdfrwt beam="2">  1       21 0.97713181E-02 0.21236003E+03</pdfrwt>
<totfact> 0.39797202E+04</totfact>
</mgrwt>
</event>
<event>
 4    1  0.3945627E+000  0.2124214E+03  0.7546771E-02  0.1139663E+00
         21   -1    0    0  501  502  0.00000000000E+00  0.00000000000E+00  0.10909457676E+03  0.10909457676E+03  0.00000000000E+00 0.  1.
         21   -1    0    0  502  503 -0.00000000000E+00 -0.00000000000E+00 -0.57336839380E+03  0.57336839380E+03  0.00000000000E+00 0.  1.
          6    1    1    2  501    0  0.10957405707E+03  0.56457029434E+02 -0.52017381839E+02  0.21869768670E+03  0.17300000000E+03 0.  1.
         -6    1    1    2    0  503 -0.10957405707E+03 -0.56457029434E+02 -0.41225643520E+03  0.46376528386E+03  0.17300000000E+03 0.  1.
<mgrwt>
<rscale>  2 0.21242144E+03</rscale>
<asrwt>0</asrwt>
<pdfrwt beam="1">  1       21 0.16783781E-01 0.21242144E+03</pdfrwt>
<pdfrwt beam="2">  1       21 0.88210522E-01 0.21242144E+03</pdfrwt>
<totfact> 0.34776030E+04</totfact>
</mgrwt>
</event>
<event>
 4    1  0.3945627E+000  0.1798387E+03  0.7546771E-02  0.1167959E+00
         21   -1    0    0  503  502  0.00000000000E+00  0.00000000000E+00  0.96905267989E+02  0.96905267989E+02  0.00000000000E+00 0.  1.
         21   -1    0    0  501  503 -0.00000000000E+00 -0.00000000000E+00 -0.74522213743E+03  0.74522213743E+03  0.00000000000E+00 0.  1.
          6    1    1    2  501    0 -0.40678297277E+02 -0.27535837279E+02 -0.63703725545E+03  0.66193535261E+03  0.17300000000E+03 0.  1.
         -6    1    1    2    0  502  0.40678297277E+02  0.27535837279E+02 -0.11279613992E+02  0.18019205281E+03  0.17300000000E+03 0.  1.
<mgrwt>
<rscale>  2 0.17983867E+03</rscale>
<asrwt>0</asrwt>
<pdfrwt beam="1">  1       21 0.14908502E-01 0.17983867E+03</pdfrwt>
<pdfrwt beam="2">  1       21 0.11464956E+00 0.17983867E+03</pdfrwt>
<totfact> 0.23613429E+04</totfact>
</mgrwt>
</event>
<event>
 4    1  0.3945627E+000  0.1890133E+03  0.7546771E-02  0.1159354E+00
         21   -1    0    0  501  502  0.00000000000E+00  0.00000000000E+00  0.18354163196E+04  0.18354163196E+04  0.00000000000E+00 0.  1.
         21   -1    0    0  502  503 -0.00000000000E+00 -0.00000000000E+00 -0.35032497183E+02  0.35032497183E+02  0.00000000000E+00 0.  1.
          6    1    1    2  501    0 -0.67227510662E+02 -0.35742057453E+02  0.15236285344E+04  0.15353077684E+04  0.17300000000E+03 0. -1.
         -6    1    1    2    0  503  0.67227510662E+02  0.35742057453E+02  0.27675528795E+03  0.33514104832E+03  0.17300000000E+03 0. -1.
<mgrwt>
<rscale>  2 0.18901331E+03</rscale>
<asrwt>0</asrwt>
<pdfrwt beam="1">  1       21 0.28237167E+00 0.18901331E+03</pdfrwt>
<pdfrwt beam="2">  1       21 0.53896164E-02 0.18901331E+03</pdfrwt>
<totfact> 0.10250155E+04</totfact>
</mgrwt>
</event>
<event>
 4    1  0.3945627E+000  0.2558379E+03  0.7546771E-02  0.1109670E+00
         21   -1    0    0  501  502  0.00000000000E+00  0.00000000000E+00  0.43588061728E+02  0.43588061728E+02  0.00000000000E+00 0.  1.
         21   -1    0    0  502  503 -0.00000000000E+00 -0.00000000000E+00 -0.25270765689E+04  0.25270765689E+04  0.00000000000E+00 0.  1.
          6    1    1    2  501    0 -0.10404732646E+03  0.15715652453E+03 -0.42297158729E+03  0.49432578630E+03  0.17300000000E+03 0.  1.
         -6    1    1    2    0  503  0.10404732646E+03 -0.15715652453E+03 -0.20605169199E+04  0.20763388443E+04  0.17300000000E+03 0.  1.
<mgrwt>
<rscale>  2 0.25583788E+03</rscale>
<asrwt>0</asrwt>
<pdfrwt beam="1">  1       21 0.67058533E-02 0.25583788E+03</pdfrwt>
<pdfrwt beam="2">  1       21 0.38878115E+00 0.25583788E+03</pdfrwt>
<totfact> 0.15359352E+03</totfact>
</mgrwt>
</event>
<event>
 4    1  0.3945627E+000  0.2019664E+03  0.7546771E-02  0.1148090E+00
         21   -1    0    0  503  502  0.00000000000E+00  0.00000000000E+00  0.21834402611E+04  0.21834402611E+04  0.00000000000E+00 0. -1.
         21   -1    0    0  501  503 -0.00000000000E+00 -0.00000000000E+00 -0.36778065285E+02  0.36778065285E+02  0.00000000000E+00 0.  1.
          6    1    1    2  501    0 -0.87442539765E+02  0.56702925123E+02  0.29463735409E+03  0.35721364742E+03  0.17300000000E+03 0.  1.
         -6    1    1    2    0  502  0.87442539765E+02 -0.56702925123E+02  0.18520248418E+04  0.18630046790E+04  0.17300000000E+03 0. -1.
<mgrwt>
<rscale>  2 0.20196638E+03</rscale>
<asrwt>0</asrwt>
<pdfrwt beam="1">  1       21 0.33591378E+00 0.20196638E+03</pdfrwt>
<pdfrwt beam="2">  1       21 0.56581656E-02 0.20196638E+03</pdfrwt>
<totfact> 0.45585663E+03</totfact>
</mgrwt>
</event>
<event>
 4    1  0.3945627E+000  0.2540559E+03  0.7546771E-02  0.1110768E+00
         21   -1    0    0  501  502  0.00000000000E+00  0.00000000000E+00  0.23904123710E+03  0.23904123710E+03  0.00000000000E+00 0.  1.
         21   -1    0    0  502  503 -0.00000000000E+00 -0.00000000000E+00 -0.27408683169E+03  0.27408683169E+03  0.00000000000E+00 0. -1.
          6    1    1    2  501    0  0.30081928623E+02  0.18360410816E+03 -0.48799424469E+02  0.25870016388E+03  0.17300000000E+03 0.  1.
         -6    1    1    2    0  503 -0.30081928623E+02 -0.18360410816E+03  0.13753829871E+02  0.25442790491E+03  0.17300000000E+03 0. -1.
<mgrwt>
<rscale>  2 0.25405588E+03</rscale>
<asrwt>0</asrwt>
<pdfrwt beam="1">  1       21 0.36775575E-01 0.25405588E+03</pdfrwt>
<pdfrwt beam="2">  1       21 0.42167205E-01 0.25405588E+03</pdfrwt>
<totfact> 0.37494766E+04</totfact>
</mgrwt>
</event>
<event>
 4    1  0.3945627E+000  0.2271301E+03  0.7546771E-02  0.1128676E+00
         21   -1    0    0  501  502  0.00000000000E+00  0.00000000000E+00  0.63388223956E+02  0.63388223956E+02  0.00000000000E+00 0.  1.
         21   -1    0    0  502  503 -0.00000000000E+00 -0.00000000000E+00 -0.86349025375E+03  0.86349025375E+03  0.00000000000E+00 0.  1.
          6    1    1    2  501    0  0.16125475658E+02  0.14628416904E+03 -0.28892650640E+03  0.36751410201E+03  0.17300000000E+03 0.  1.
         -6    1    1    2    0  503 -0.16125475658E+02 -0.14628416904E+03 -0.51117552339E+03  0.55936437569E+03  0.17300000000E+03 0.  1.
<mgrwt>
<rscale>  2 0.22713011E+03</rscale>
<asrwt>0</asrwt>
<pdfrwt beam="1">  1       21 0.97520346E-02 0.22713011E+03</pdfrwt>
<pdfrwt beam="2">  1       21 0.13284465E+00 0.22713011E+03</pdfrwt>
<totfact> 0.34042380E+04</totfact>
</mgrwt>
</event>
<event>
 4    1  0.3945627E+000  0.1844587E+03  0.7546771E-02  0.1163556E+00
         21   -1    0    0  501  502  0.00000000000E+00  0.00000000000E+00  0.16241583515E+03  0.16241583515E+03  0.00000000000E+00 0.  1.
         21   -1    0    0  502  503 -0.00000000000E+00 -0.00000000000E+00 -0.12943476885E+04  0.12943476885E+04  0.00000000000E+00 0.  1.
          6    1    1    2  501    0  0.63999804322E+02 -0.19929828704E+00  0.10087052158E+03  0.21023766741E+03  0.17300000000E+03 0.  1.
         -6    1    1    2    0  503 -0.63999804322E+02  0.19929828704E+00 -0.12328023749E+04  0.12465258562E+04  0.17300000000E+03 0.  1.
<mgrwt>
<rscale>  2 0.18445871E+03</rscale>
<asrwt>0</asrwt>
<pdfrwt beam="1">  1       21 0.24987051E-01 0.18445871E+03</pdfrwt>
<pdfrwt beam="2">  1       21 0.19913042E+00 0.18445871E+03</pdfrwt>
<totfact> 0.20800076E+03</totfact>
</mgrwt>
</event>
<event>
 4    1  0.3945627E+000  0.1858771E+03  0.7546771E-02  0.1162233E+00
         21   -1    0    0  501  502  0.00000000000E+00  0.00000000000E+00  0.18588448036E+03  0.18588448036E+03  0.00000000000E+00 0. -1.
         21   -1    0    0  502  503 -0.00000000000E+00 -0.00000000000E+00 -0.99901803351E+03  0.99901803351E+03  0.00000000000E+00 0. -1.
          6    1    1    2  501    0  0.50671565826E+02  0.45317808377E+02  0.12793705465E+03  0.22565061775E+03  0.17300000000E+03 0. -1.
         -6    1    1    2    0  503 -0.50671565826E+02 -0.45317808377E+02 -0.94107060780E+03  0.95925189611E+03  0.17300000000E+03 0. -1.
<mgrwt>
<rscale>  2 0.18587714E+03</rscale>
<asrwt>0</asrwt>
<pdfrwt beam="1">  1       21 0.28597612E-01 0.18587714E+03</pdfrwt>
<pdfrwt beam="2">  1       21 0.15369508E+00 0.18587714E+03</pdfrwt>
<totfact> 0.32984606E+03</totfact>
</mgrwt>
</event>
<event>
 4    1  0.3945627E+000  0.1809440E+03  0.7546771E-02  0.1166893E+00
         21   -1    0    0  503  502  0.00000000000E+00  0.00000000000E+00  0.74450814070E+02  0.74450814070E+02  0.00000000000E+00 0. -1.
         21   -1    0    0  501  503 -0.00000000000E+00 -0.00000000000E+00 -0.46149531293E+03  0.46149531293E+03  0.00000000000E+00 0. -1.
          6    1    1    2  501    0  0.32612901492E+02  0.41810844506E+02 -0.25167306497E+03  0.30996786881E+03  0.17300000000E+03 0.  1.
         -6    1    1    2    0  502 -0.32612901492E+02 -0.41810844506E+02 -0.13537143389E+03  0.22597825819E+03  0.17300000000E+03 0.  1.
<mgrwt>
<rscale>  2 0.18094405E+03</rscale>
<asrwt>0</asrwt>
<pdfrwt beam="1">  1       21 0.11453972E-01 0.18094405E+03</pdfrwt>
<pdfrwt beam="2">  1       21 0.70999278E-01 0.18094405E+03</pdfrwt>
<totfact> 0.11502014E+05</totfact>
</mgrwt>
</event>
<event>
 4    1  0.3945627E+000  0.2145603E+03  0.7546771E-02  0.1138005E+00
         21   -1    0    0  501  502  0.00000000000E+00  0.00000000000E+00  0.29562448825E+03  0.29562448825E+03  0.00000000000E+00 0.  1.
         21   -1    0    0  502  503 -0.00000000000E+00 -0.00000000000E+00 -0.16302405092E+03  0.16302405092E+03  0.00000000000E+00 0. -1.
          6    1    1    2  501    0  0.11559522763E+03  0.52391437169E+02  0.17776085340E+02  0.21529539835E+03  0.17300000000E+03 0. -1.
         -6    1    1    2    0  503 -0.11559522763E+03 -0.52391437169E+02  0.11482435199E+03  0.24335314082E+03  0.17300000000E+03 0.  1.
<mgrwt>
<rscale>  2 0.21456029E+03</rscale>
<asrwt>0</asrwt>
<pdfrwt beam="1">  1       21 0.45480690E-01 0.21456029E+03</pdfrwt>
<pdfrwt beam="2">  1       21 0.25080623E-01 0.21456029E+03</pdfrwt>
<totfact> 0.69123684E+04</totfact>
</mgrwt>
</event>
<event>
 4    1  0.3945627E+000  0.1866480E+03  0.7546771E-02  0.1161520E+00
         21   -1    0    0  501  502  0.00000000000E+00  0.00000000000E+00  0.29792714722E+03  0.29792714722E+03  0.00000000000E+00 0.  1.
         21   -1    0    0  502  503 -0.00000000000E+00 -0.00000000000E+00 -0.11832686339E+03  0.11832686339E+03  0.00000000000E+00 0. -1.
          6    1    1    2  501    0  0.68054122657E+01 -0.69729222861E+02  0.11239013951E+03  0.21787386630E+03  0.17300000000E+03 0.  1.
         -6    1    1    2    0  503 -0.68054122657E+01  0.69729222861E+02  0.67210144328E+02  0.19838014431E+03  0.17300000000E+03 0.  1.
<mgrwt>
<rscale>  2 0.18664801E+03</rscale>
<asrwt>0</asrwt>
<pdfrwt beam="1">  1       21 0.45834946E-01 0.18664801E+03</pdfrwt>
<pdfrwt beam="2">  1       21 0.18204133E-01 0.18664801E+03</pdfrwt>
<totfact> 0.12572228E+05</totfact>
</mgrwt>
</event>
<event>
 4    1  0.3945627E+000  0.1855047E+03  0.7546771E-02  0.1162579E+00
         21   -1    0    0  501  502  0.00000000000E+00  0.00000000000E+00  0.23276325968E+02  0.23276325968E+02  0.00000000000E+00 0.  1.
         21   -1    0    0  502  503 -0.00000000000E+00 -0.00000000000E+00 -0.15060253341E+04  0.15060253341E+04  0.00000000000E+00 0.  1.
          6    1    1    2  501    0 -0.20863874947E+02 -0.63621402403E+02 -0.63783366319E+03  0.66426182039E+03  0.17300000000E+03 0.  1.
         -6    1    1    2    0  503  0.20863874947E+02  0.63621402403E+02 -0.84491534496E+03  0.86503983970E+03  0.17300000000E+03 0.  1.
<mgrwt>
<rscale>  2 0.18550467E+03</rscale>
<asrwt>0</asrwt>
<pdfrwt beam="1">  1       21 0.35809717E-02 0.18550467E+03</pdfrwt>
<pdfrwt beam="2">  1       21 0.23169630E+00 0.18550467E+03</pdfrwt>
<totfact> 0.40493556E+04</totfact>
</mgrwt>
</event>
<event>
 4    1  0.3945627E+000  0.2165900E+03  0.7546771E-02  0.1136451E+00
         21   -1    0    0  503  502  0.00000000000E+00  0.00000000000E+00  0.72651003372E+03  0.72651003372E+03  0.00000000000E+00 0. -1.
         21   -1    0    0  501  503 -0.00000000000E+00 -0.00000000000E+00 -0.64574829609E+02  0.64574829609E+02  0.00000000000E+00 0.  1.
          6    1    1    2  501    0 -0.50494135141E+02  0.12013556227E+03  0.32777800802E+03  0.39287355924E+03  0.17300000000E+03 0.  1.
         -6    1    1    2    0  502  0.50494135141E+02 -0.12013556227E+03  0.33415719610E+03  0.39821130410E+03  0.17300000000E+03 0. -1.
<mgrwt>
<rscale>  2 0.21658996E+03</rscale>
<asrwt>0</asrwt>
<pdfrwt beam="1">  1       21 0.11177077E+00 0.21658996E+03</pdfrwt>
<pdfrwt beam="2">  1       21 0.99345897E-02 0.21658996E+03</pdfrwt>
<totfact> 0.50953220E+04</totfact>
</mgrwt>
</event>
<event>
 4    1  0.3945627E+000  0.2144549E+03  0.7546771E-02  0.1138086E+00
         21   -1    0    0  501  502  0.00000000000E+00  0.00000000000E+00  0.94383811618E+02  0.94383811618E+02  0.00000000000E+00 0. -1.
         21   -1    0    0  502  503 -0.00000000000E+00 -0.00000000000E+00 -0.60508615112E+03  0.60508615112E+03  0.00000000000E+00 0.  1.
          6    1    1    2  501    0 -0.76554051800E+02  0.10100183061E+03 -0.10103079826E+03  0.23706141574E+03  0.17300000000E+03 0. -1.
         -6    1    1    2    0  503  0.76554051800E+02 -0.10100183061E+03 -0.40967154124E+03  0.46240854699E+03  0.17300000000E+03 0.  1.
<mgrwt>
<rscale>  2 0.21445487E+03</rscale>
<asrwt>0</asrwt>
<pdfrwt beam="1">  1       21 0.14520586E-01 0.21445487E+03</pdfrwt>
<pdfrwt beam="2">  1       21 0.93090177E-01 0.21445487E+03</pdfrwt>
<totfact> 0.39963597E+04</totfact>
</mgrwt>
</event>
<event>
 4    1  0.3945627E+000  0.2028287E+03  0.7546771E-02  0.1147374E+00
         21   -1    0    0  501  502  0.00000000000E+00  0.00000000000E+00  0.19404661078E+03  0.19404661078E+03  0.00000000000E+00 0. -1.
         21   -1    0    0  502  503 -0.00000000000E+00 -0.00000000000E+00 -0.23620775178E+03  0.23620775178E+03  0.00000000000E+00 0. -1.
          6    1    1    2  501    0  0.91067884260E+02  0.54010455285E+02  0.47776909997E+02  0.20837975418E+03  0.17300000000E+03 0. -1.
         -6    1    1    2    0  503 -0.91067884260E+02 -0.54010455285E+02 -0.89938050997E+02  0.22187460837E+03  0.17300000000E+03 0. -1.
<mgrwt>
<rscale>  2 0.20282872E+03</rscale>
<asrwt>0</asrwt>
<pdfrwt beam="1">  1       21 0.29853325E-01 0.20282872E+03</pdfrwt>
<pdfrwt beam="2">  1       21 0.36339654E-01 0.20282872E+03</pdfrwt>
<totfact> 0.78221251E+04</totfact>
</mgrwt>
</event>
<event>
 4    1  0.3945627E+000  0.1771326E+03  0.7546771E-02  0.1170607E+00
         21   -1    0    0  501  502  0.00000000000E+00  0.00000000000E+00  0.20470047469E+03  0.20470047469E+03  0.00000000000E+00 0.  1.
         21   -1    0    0  502  503 -0.00000000000E+00 -0.00000000000E+00 -0.25265647153E+03  0.25265647153E+03  0.00000000000E+00 0.  1.
          6    1    1    2  501    0 -0.13647815911E+02 -0.35506102024E+02  0.11944131816E+03  0.21364029265E+03  0.17300000000E+03 0.  1.
         -6    1    1    2    0  503  0.13647815911E+02  0.35506102024E+02 -0.16739731500E+03  0.24371665358E+03  0.17300000000E+03 0.  1.
<mgrwt>
<rscale>  2 0.17713257E+03</rscale>
<asrwt>0</asrwt>
<pdfrwt beam="1">  1       21 0.31492381E-01 0.17713257E+03</pdfrwt>
<pdfrwt beam="2">  1       21 0.38870226E-01 0.17713257E+03</pdfrwt>
<totfact> 0.62274621E+04</totfact>
</mgrwt>
</event>
<event>
 4    1  0.3945627E+000  0.2160412E+03  0.7546771E-02  0.1136869E+00
         21   -1    0    0  501  502  0.00000000000E+00  0.00000000000E+00  0.13052893713E+03  0.13052893713E+03  0.00000000000E+00 0. -1.
         21   -1    0    0  502  503 -0.00000000000E+00 -0.00000000000E+00 -0.54312874571E+03  0.54312874571E+03  0.00000000000E+00 0.  1.
          6    1    1    2  501    0 -0.66821064382E+02 -0.11081400014E+03 -0.94235658408E+01  0.21624662047E+03  0.17300000000E+03 0. -1.
         -6    1    1    2    0  503  0.66821064382E+02  0.11081400014E+03 -0.40317624274E+03  0.45741106237E+03  0.17300000000E+03 0.  1.
<mgrwt>
<rscale>  2 0.21604119E+03</rscale>
<asrwt>0</asrwt>
<pdfrwt beam="1">  1       21 0.20081375E-01 0.21604119E+03</pdfrwt>
<pdfrwt beam="2">  1       21 0.83558267E-01 0.21604119E+03</pdfrwt>
<totfact> 0.28174532E+04</totfact>
</mgrwt>
</event>
<event>
 4    1  0.3945627E+000  0.1790235E+03  0.7546771E-02  0.1168752E+00
         21   -1    0    0  503  502  0.00000000000E+00  0.00000000000E+00  0.41589941571E+03  0.41589941571E+03  0.00000000000E+00 0.  1.
         21   -1    0    0  501  503 -0.00000000000E+00 -0.00000000000E+00 -0.12593255713E+03  0.12593255713E+03  0.00000000000E+00 0.  1.
          6    1    1    2  501    0 -0.38597184650E+02  0.25112865461E+02 -0.23786911303E+02  0.18059683226E+03  0.17300000000E+03 0.  1.
         -6    1    1    2    0  502  0.38597184650E+02 -0.25112865461E+02  0.31375376988E+03  0.36123514058E+03  0.17300000000E+03 0.  1.
<mgrwt>
<rscale>  2 0.17902346E+03</rscale>
<asrwt>0</asrwt>
<pdfrwt beam="1">  1       21 0.63984525E-01 0.17902346E+03</pdfrwt>
<pdfrwt beam="2">  1       21 0.19374240E-01 0.17902346E+03</pdfrwt>
<totfact> 0.55590384E+04</totfact>
</mgrwt>
</event>
<event>
 4    1  0.3945627E+000  0.2311268E+03  0.7546771E-02  0.1125849E+00
         21   -1    0    0  503  502  0.00000000000E+00  0.00000000000E+00  0.10819218601E+04  0.10819218601E+04  0.00000000000E+00 0. -1.
         21   -1    0    0  501  503 -0.00000000000E+00 -0.00000000000E+00 -0.57878436488E+02  0.57878436488E+02  0.00000000000E+00 0.  1.
          6    1    1    2  501    0  0.15123241580E+03  0.24886829432E+02  0.29357548412E+03  0.37363908086E+03  0.17300000000E+03 0.  1.
         -6    1    1    2    0  502 -0.15123241580E+03 -0.24886829432E+02  0.73046793950E+03  0.76616121574E+03  0.17300000000E+03 0. -1.
<mgrwt>
<rscale>  2 0.23112680E+03</rscale>
<asrwt>0</asrwt>
<pdfrwt beam="1">  1       21 0.16644950E+00 0.23112680E+03</pdfrwt>
<pdfrwt beam="2">  1       21 0.89043757E-02 0.23112680E+03</pdfrwt>
<totfact> 0.21945379E+04</totfact>
</mgrwt>
</event>
<event>
 4    1  0.3945627E+000  0.2209303E+03  0.7546771E-02  0.1133191E+00
         21   -1    0    0  501  502  0.00000000000E+00  0.00000000000E+00  0.38501404962E+03  0.38501404962E+03  0.00000000000E+00 0. -1.
         21   -1    0    0  502  503 -0.00000000000E+00 -0.00000000000E+00 -0.13626838671E+03  0.13626838671E+03  0.00000000000E+00 0.  1.
          6    1    1    2  501    0 -0.11730644746E+03 -0.71556923225E+02  0.55578324105E+02  0.22781384064E+03  0.17300000000E+03 0.  1.
         -6    1    1    2    0  503  0.11730644746E+03  0.71556923225E+02  0.19316733881E+03  0.29346859570E+03  0.17300000000E+03 0. -1.
<mgrwt>
<rscale>  2 0.22093030E+03</rscale>
<asrwt>0</asrwt>
<pdfrwt beam="1">  1       21 0.59232930E-01 0.22093030E+03</pdfrwt>
<pdfrwt beam="2">  1       21 0.20964367E-01 0.22093030E+03</pdfrwt>
<totfact> 0.55564861E+04</totfact>
</mgrwt>
</event>
<event>
 4    1  0.3945627E+000  0.6587191E+03  0.7546771E-02  0.9790555E-01
         21   -1    0    0  501  502  0.00000000000E+00  0.00000000000E+00  0.12115167765E+04  0.12115167765E+04  0.00000000000E+00 0.  1.
         21   -1    0    0  502  503 -0.00000000000E+00 -0.00000000000E+00 -0.41752936282E+03  0.41752936282E+03  0.00000000000E+00 0. -1.
          6    1    1    2  501    0 -0.35658599923E+03  0.52614471715E+03  0.70414985774E+03  0.96422915346E+03  0.17300000000E+03 0.  1.
         -6    1    1    2    0  503  0.35658599923E+03 -0.52614471715E+03  0.89837555946E+02  0.66481698586E+03  0.17300000000E+03 0. -1.
<mgrwt>
<rscale>  2 0.65871909E+03</rscale>
<asrwt>0</asrwt>
<pdfrwt beam="1">  1       21 0.18638720E+00 0.65871909E+03</pdfrwt>
<pdfrwt beam="2">  1       21 0.64235287E-01 0.65871909E+03</pdfrwt>
<totfact> 0.27663975E+02</totfact>
</mgrwt>
</event>
<event>
 4    1  0.3945627E+000  0.2462114E+03  0.7546771E-02  0.1115723E+00
         21   -1    0    0  501  502  0.00000000000E+00  0.00000000000E+00  0.35463378893E+03  0.35463378893E+03  0.00000000000E+00 0.  1.
         21   -1    0    0  502  503 -0.00000000000E+00 -0.00000000000E+00 -0.25612739237E+03  0.25612739237E+03  0.00000000000E+00 0. -1.
          6    1    1    2  501    0 -0.13703505758E+03  0.10914413981E+03  0.22537317662E+03  0.33378603776E+03  0.17300000000E+03 0.  1.
         -6    1    1    2    0  503  0.13703505758E+03 -0.10914413981E+03 -0.12686678006E+03  0.27697514355E+03  0.17300000000E+03 0. -1.
<mgrwt>
<rscale>  2 0.24621139E+03</rscale>
<asrwt>0</asrwt>
<pdfrwt beam="1">  1       21 0.54559044E-01 0.24621139E+03</pdfrwt>
<pdfrwt beam="2">  1       21 0.39404214E-01 0.24621139E+03</pdfrwt>
<totfact> 0.19122009E+04</totfact>
</mgrwt>
</event>
<event>
 4    1  0.3945627E+000  0.2649590E+03  0.7546771E-02  0.1104200E+00
         21   -1    0    0  501  502  0.00000000000E+00  0.00000000000E+00  0.57292553313E+03  0.57292553313E+03  0.00000000000E+00 0.  1.
         21   -1    0    0  502  503 -0.00000000000E+00 -0.00000000000E+00 -0.15057574475E+03  0.15057574475E+03  0.00000000000E+00 0.  1.
          6    1    1    2  501    0  0.19451420014E+03 -0.49381261162E+02  0.36728411589E+03  0.45288067390E+03  0.17300000000E+03 0.  1.
         -6    1    1    2    0  503 -0.19451420014E+03  0.49381261162E+02  0.55065672493E+02  0.27062060398E+03  0.17300000000E+03 0.  1.
<mgrwt>
<rscale>  2 0.26495902E+03</rscale>
<asrwt>0</asrwt>
<pdfrwt beam="1">  1       21 0.88142388E-01 0.26495902E+03</pdfrwt>
<pdfrwt beam="2">  1       21 0.23165500E-01 0.26495902E+03</pdfrwt>
<totfact> 0.18553774E+04</totfact>
</mgrwt>
</event>
<event>
 4    1  0.3945627E+000  0.3001700E+03  0.7546771E-02  0.1085156E+00
         21   -1    0    0  503  502  0.00000000000E+00  0.00000000000E+00  0.16566053601E+03  0.16566053601E+03  0.00000000000E+00 0. -1.
         21   -1    0    0  501  503 -0.00000000000E+00 -0.00000000000E+00 -0.54459711696E+03  0.54459711696E+03  0.00000000000E+00 0.  1.
          6    1    1    2  501    0  0.71576874499E+02  0.23462691386E+03 -0.17672254027E+03  0.34832871531E+03  0.17300000000E+03 0. -1.
         -6    1    1    2    0  502 -0.71576874499E+02 -0.23462691386E+03 -0.20221404067E+03  0.36192893766E+03  0.17300000000E+03 0.  1.
<mgrwt>
<rscale>  2 0.30017001E+03</rscale>
<asrwt>0</asrwt>
<pdfrwt beam="1">  1       21 0.25486236E-01 0.30017001E+03</pdfrwt>
<pdfrwt beam="2">  1       21 0.83784171E-01 0.30017001E+03</pdfrwt>
<totfact> 0.17103210E+04</totfact>
</mgrwt>
</event>
<event>
 4    1  0.3945627E+000  0.2872418E+03  0.7546771E-02  0.1091798E+00
         21   -1    0    0  501  502  0.00000000000E+00  0.00000000000E+00  0.59484587759E+02  0.59484587759E+02  0.00000000000E+00 0.  1.
         21   -1    0    0  502  503 -0.00000000000E+00 -0.00000000000E+00 -0.16257193038E+04  0.16257193038E+04  0.00000000000E+00 0. -1.
          6    1    1    2  501    0 -0.65765088818E+02 -0.21966752444E+03 -0.46026685611E+03  0.54254349783E+03  0.17300000000E+03 0.  1.
         -6    1    1    2    0  503  0.65765088818E+02  0.21966752444E+03 -0.11059678599E+04  0.11426603937E+04  0.17300000000E+03 0. -1.
<mgrwt>
<rscale>  2 0.28724183E+03</rscale>
<asrwt>0</asrwt>
<pdfrwt beam="1">  1       21 0.91514752E-02 0.28724183E+03</pdfrwt>
<pdfrwt beam="2">  1       21 0.25011066E+00 0.28724183E+03</pdfrwt>
<totfact> 0.58179835E+03</totfact>
</mgrwt>
</event>
<event>
 4    1  0.3945627E+000  0.4236817E+03  0.7546771E-02  0.1035875E+00
         21   -1    0    0  501  502  0.00000000000E+00  0.00000000000E+00  0.72719113703E+03  0.72719113703E+03  0.00000000000E+00 0.  1.
         21   -1    0    0  502  503 -0.00000000000E+00 -0.00000000000E+00 -0.13756355743E+04  0.13756355743E+04  0.00000000000E+00 0. -1.
          6    1    1    2  501    0  0.28458802524E+03 -0.26189087837E+03  0.62819616240E+03  0.75771801796E+03  0.17300000000E+03 0.  1.
         -6    1    1    2    0  503 -0.28458802524E+03  0.26189087837E+03 -0.12766405997E+04  0.13451086934E+04  0.17300000000E+03 0. -1.
<mgrwt>
<rscale>  2 0.42368169E+03</rscale>
<asrwt>0</asrwt>
<pdfrwt beam="1">  1       21 0.11187556E+00 0.42368169E+03</pdfrwt>
<pdfrwt beam="2">  1       21 0.21163624E+00 0.42368169E+03</pdfrwt>
<totfact> 0.56557797E+01</totfact>
</mgrwt>
</event>
<event>
 4    1  0.3945627E+000  0.2865496E+03  0.7546771E-02  0.1092165E+00
         21   -1    0    0  501  502  0.00000000000E+00  0.00000000000E+00  0.23027206263E+03  0.23027206263E+03  0.00000000000E+00 0. -1.
         21   -1    0    0  502  503 -0.00000000000E+00 -0.00000000000E+00 -0.37884151931E+03  0.37884151931E+03  0.00000000000E+00 0. -1.
          6    1    1    2  501    0 -0.14129445759E+03 -0.17949248860E+03 -0.45935146884E+00  0.28654997507E+03  0.17300000000E+03 0. -1.
         -6    1    1    2    0  503  0.14129445759E+03  0.17949248860E+03 -0.14811010521E+03  0.32256360687E+03  0.17300000000E+03 0. -1.
<mgrwt>
<rscale>  2 0.28654961E+03</rscale>
<asrwt>0</asrwt>
<pdfrwt beam="1">  1       21 0.35426471E-01 0.28654961E+03</pdfrwt>
<pdfrwt beam="2">  1       21 0.58283310E-01 0.28654961E+03</pdfrwt>
<totfact> 0.20201285E+04</totfact>
</mgrwt>
</event>
<event>
 4    1  0.3945627E+000  0.1829302E+03  0.7546771E-02  0.1164997E+00
         21   -1    0    0  503  502  0.00000000000E+00  0.00000000000E+00  0.27371743180E+03  0.27371743180E+03  0.00000000000E+00 0.  1.
         21   -1    0    0  501  503 -0.00000000000E+00 -0.00000000000E+00 -0.12757623734E+03  0.12757623734E+03  0.00000000000E+00 0.  1.
          6    1    1    2  501    0  0.57102947495E+02 -0.16544028318E+02  0.32094101135E+02  0.18572421170E+03  0.17300000000E+03 0. -1.
         -6    1    1    2    0  502 -0.57102947495E+02  0.16544028318E+02  0.11404709332E+03  0.21556945744E+03  0.17300000000E+03 0. -1.
<mgrwt>
<rscale>  2 0.18293018E+03</rscale>
<asrwt>0</asrwt>
<pdfrwt beam="1">  1       21 0.42110374E-01 0.18293018E+03</pdfrwt>
<pdfrwt beam="2">  1       21 0.19627113E-01 0.18293018E+03</pdfrwt>
<totfact> 0.13018435E+05</totfact>
</mgrwt>
</event>
<event>
 4    1  0.3945627E+000  0.2191475E+03  0.7546771E-02  0.1134520E+00
         21   -1    0    0  501  502  0.00000000000E+00  0.00000000000E+00  0.11181847416E+03  0.11181847416E+03  0.00000000000E+00 0.  1.
         21   -1    0    0  502  503 -0.00000000000E+00 -0.00000000000E+00 -0.50956599795E+03  0.50956599795E+03  0.00000000000E+00 0. -1.
          6    1    1    2  501    0  0.13075842990E+03 -0.31604591081E+02 -0.75715268810E+02  0.23185861877E+03  0.17300000000E+03 0.  1.
         -6    1    1    2    0  503 -0.13075842990E+03  0.31604591081E+02 -0.32203225498E+03  0.38952585334E+03  0.17300000000E+03 0.  1.
<mgrwt>
<rscale>  2 0.21914748E+03</rscale>
<asrwt>0</asrwt>
<pdfrwt beam="1">  1       21 0.17202842E-01 0.21914748E+03</pdfrwt>
<pdfrwt beam="2">  1       21 0.78394769E-01 0.21914748E+03</pdfrwt>
<totfact> 0.43364242E+04</totfact>
</mgrwt>
</event>
<event>
 4    1  0.3945627E+000  0.2415534E+03  0.7546771E-02  0.1118762E+00
         21   -1    0    0  503  502  0.00000000000E+00  0.00000000000E+00  0.22124821845E+04  0.22124821845E+04  0.00000000000E+00 0. -1.
         21   -1    0    0  501  503 -0.00000000000E+00 -0.00000000000E+00 -0.27821603237E+02  0.27821603237E+02  0.00000000000E+00 0.  1.
          6    1    1    2  501    0 -0.14501554650E+03  0.85962397594E+02  0.83666068021E+03  0.87083243872E+03  0.17300000000E+03 0. -1.
         -6    1    1    2    0  502  0.14501554650E+03 -0.85962397594E+02  0.13479999010E+04  0.13694713490E+04  0.17300000000E+03 0.  1.
<mgrwt>
<rscale>  2 0.24155339E+03</rscale>
<asrwt>0</asrwt>
<pdfrwt beam="1">  1       21 0.34038174E+00 0.24155339E+03</pdfrwt>
<pdfrwt beam="2">  1       21 0.42802484E-02 0.24155339E+03</pdfrwt>
<totfact> 0.66026861E+03</totfact>
</mgrwt>
</event>
<event>
 4    1  0.3945627E+000  0.2148484E+03  0.7546771E-02  0.1137783E+00
         21   -1    0    0  501  502  0.00000000000E+00  0.00000000000E+00  0.12334229375E+04  0.12334229375E+04  0.00000000000E+00 0. -1.
         21   -1    0    0  502  503 -0.00000000000E+00 -0.00000000000E+00 -0.50354624512E+02  0.50354624512E+02  0.00000000000E+00 0.  1.
          6    1    1    2  501    0 -0.57957366089E+02  0.11345391428E+03  0.91680621984E+03  0.94164403661E+03  0.17300000000E+03 0. -1.
         -6    1    1    2    0  503  0.57957366089E+02 -0.11345391428E+03  0.26626209311E+03  0.34213352536E+03  0.17300000000E+03 0.  1.
<mgrwt>
<rscale>  2 0.21484843E+03</rscale>
<asrwt>0</asrwt>
<pdfrwt beam="1">  1       21 0.18975735E+00 0.21484843E+03</pdfrwt>
<pdfrwt beam="2">  1       21 0.77468663E-02 0.21484843E+03</pdfrwt>
<totfact> 0.19549322E+04</totfact>
</mgrwt>
</event>
<event>
 4    1  0.3945627E+000  0.2361090E+03  0.7546771E-02  0.1122412E+00
         21   -1    0    0  503  502  0.00000000000E+00  0.00000000000E+00  0.52331142022E+03  0.52331142022E+03  0.00000000000E+00 0.  1.
         21   -1    0    0  501  503 -0.00000000000E+00 -0.00000000000E+00 -0.11590168766E+03  0.11590168766E+03  0.00000000000E+00 0. -1.
          6    1    1    2  501    0 -0.25260174941E+02 -0.15868330217E+03  0.29459557517E+03  0.37753677931E+03  0.17300000000E+03 0.  1.
         -6    1    1    2    0  502  0.25260174941E+02  0.15868330217E+03  0.11281415740E+03  0.26167632857E+03  0.17300000000E+03 0. -1.
<mgrwt>
<rscale>  2 0.23610901E+03</rscale>
<asrwt>0</asrwt>
<pdfrwt beam="1">  1       21 0.80509448E-01 0.23610901E+03</pdfrwt>
<pdfrwt beam="2">  1       21 0.17831029E-01 0.23610901E+03</pdfrwt>
<totfact> 0.37900771E+04</totfact>
</mgrwt>
</event>
<event>
 4    1  0.3945627E+000  0.2016115E+03  0.7546771E-02  0.1148386E+00
         21   -1    0    0  503  502  0.00000000000E+00  0.00000000000E+00  0.48009846212E+02  0.48009846212E+02  0.00000000000E+00 0. -1.
         21   -1    0    0  501  503 -0.00000000000E+00 -0.00000000000E+00 -0.96923173293E+03  0.96923173293E+03  0.00000000000E+00 0. -1.
          6    1    1    2  501    0 -0.99696269529E+02  0.27907628591E+02 -0.64149748267E+03  0.67243304661E+03  0.17300000000E+03 0. -1.
         -6    1    1    2    0  502  0.99696269529E+02 -0.27907628591E+02 -0.27972440404E+03  0.34480853253E+03  0.17300000000E+03 0. -1.
<mgrwt>
<rscale>  2 0.20161146E+03</rscale>
<asrwt>0</asrwt>
<pdfrwt beam="1">  1       21 0.73861308E-02 0.20161146E+03</pdfrwt>
<pdfrwt beam="2">  1       21 0.14911256E+00 0.20161146E+03</pdfrwt>
<totfact> 0.41631052E+04</totfact>
</mgrwt>
</event>
<event>
 4    1  0.3945627E+000  0.2127653E+03  0.7546771E-02  0.1139395E+00
         21   -1    0    0  503  502  0.00000000000E+00  0.00000000000E+00  0.33738744504E+03  0.33738744504E+03  0.00000000000E+00 0.  1.
         21   -1    0    0  501  503 -0.00000000000E+00 -0.00000000000E+00 -0.14019479916E+03  0.14019479916E+03  0.00000000000E+00 0. -1.
          6    1    1    2  501    0 -0.11019951058E+03 -0.56534241023E+02  0.49115902800E+02  0.21836076673E+03  0.17300000000E+03 0. -1.
         -6    1    1    2    0  502  0.11019951058E+03  0.56534241023E+02  0.14807674308E+03  0.25922147747E+03  0.17300000000E+03 0.  1.
<mgrwt>
<rscale>  2 0.21276525E+03</rscale>
<asrwt>0</asrwt>
<pdfrwt beam="1">  1       21 0.51905761E-01 0.21276525E+03</pdfrwt>
<pdfrwt beam="2">  1       21 0.21568431E-01 0.21276525E+03</pdfrwt>
<totfact> 0.69979477E+04</totfact>
</mgrwt>
</event>
<event>
 4    1  0.3945627E+000  0.2295294E+03  0.7546771E-02  0.1126971E+00
         21   -1    0    0  501  502  0.00000000000E+00  0.00000000000E+00  0.27771887403E+03  0.27771887403E+03  0.00000000000E+00 0. -1.
         21   -1    0    0  502  503 -0.00000000000E+00 -0.00000000000E+00 -0.19296761945E+03  0.19296761945E+03  0.00000000000E+00 0.  1.
          6    1    1    2  501    0  0.76173398717E+02 -0.13020123610E+03  0.11758755754E+02  0.22983040898E+03  0.17300000000E+03 0. -1.
         -6    1    1    2    0  503 -0.76173398717E+02  0.13020123610E+03  0.72992498822E+02  0.24085608450E+03  0.17300000000E+03 0.  1.
<mgrwt>
<rscale>  2 0.22952941E+03</rscale>
<asrwt>0</asrwt>
<pdfrwt beam="1">  1       21 0.42725981E-01 0.22952941E+03</pdfrwt>
<pdfrwt beam="2">  1       21 0.29687326E-01 0.22952941E+03</pdfrwt>
<totfact> 0.56362651E+04</totfact>
</mgrwt>
</event>
<event>
 4    1  0.3945627E+000  0.1867795E+03  0.7546771E-02  0.1161398E+00
         21   -1    0    0  501  502  0.00000000000E+00  0.00000000000E+00  0.26300746974E+03  0.26300746974E+03  0.00000000000E+00 0. -1.
         21   -1    0    0  502  503 -0.00000000000E+00 -0.00000000000E+00 -0.19392314095E+03  0.19392314095E+03  0.00000000000E+00 0. -1.
          6    1    1    2  501    0 -0.33368939563E+02  0.62000812953E+02  0.16296987888E+03  0.24788256969E+03  0.17300000000E+03 0. -1.
         -6    1    1    2    0  503  0.33368939563E+02 -0.62000812953E+02 -0.93885550089E+02  0.20904804101E+03  0.17300000000E+03 0. -1.
<mgrwt>
<rscale>  2 0.18677951E+03</rscale>
<asrwt>0</asrwt>
<pdfrwt beam="1">  1       21 0.40462688E-01 0.18677951E+03</pdfrwt>
<pdfrwt beam="2">  1       21 0.29834329E-01 0.18677951E+03</pdfrwt>
<totfact> 0.63554797E+04</totfact>
</mgrwt>
</event>
<event>
 4    1  0.3945627E+000  0.2083709E+03  0.7546771E-02  0.1142863E+00
         21   -1    0    0  503  502  0.00000000000E+00  0.00000000000E+00  0.47246973604E+03  0.47246973604E+03  0.00000000000E+00 0.  1.
         21   -1    0    0  501  503 -0.00000000000E+00 -0.00000000000E+00 -0.37206692007E+03  0.37206692007E+03  0.00000000000E+00 0.  1.
          6    1    1    2  501    0 -0.11469480097E+03  0.18289986539E+02 -0.31622683994E+03  0.37870547300E+03  0.17300000000E+03 0.  1.
         -6    1    1    2    0  502  0.11469480097E+03 -0.18289986539E+02  0.41662965591E+03  0.46583118311E+03  0.17300000000E+03 0.  1.
<mgrwt>
<rscale>  2 0.20837087E+03</rscale>
<asrwt>0</asrwt>
<pdfrwt beam="1">  1       21 0.72687652E-01 0.20837087E+03</pdfrwt>
<pdfrwt beam="2">  1       21 0.57241064E-01 0.20837087E+03</pdfrwt>
<totfact> 0.48260383E+03</totfact>
</mgrwt>
</event>
<event>
 4    1  0.3945627E+000  0.2872339E+03  0.7546771E-02  0.1091802E+00
         21   -1    0    0  503  502  0.00000000000E+00  0.00000000000E+00  0.66068754467E+03  0.66068754467E+03  0.00000000000E+00 0. -1.
         21   -1    0    0  501  503 -0.00000000000E+00 -0.00000000000E+00 -0.18451180450E+03  0.18451180450E+03  0.00000000000E+00 0.  1.
          6    1    1    2  501    0  0.20474799575E+03 -0.10321126352E+03 -0.21682949853E+01  0.28724207244E+03  0.17300000000E+03 0.  1.
         -6    1    1    2    0  502 -0.20474799575E+03  0.10321126352E+03  0.47834403515E+03  0.55795727672E+03  0.17300000000E+03 0. -1.
<mgrwt>
<rscale>  2 0.28723389E+03</rscale>
<asrwt>0</asrwt>
<pdfrwt beam="1">  1       21 0.10164424E+00 0.28723389E+03</pdfrwt>
<pdfrwt beam="2">  1       21 0.28386432E-01 0.28723389E+03</pdfrwt>
<totfact> 0.88491100E+03</totfact>
</mgrwt>
</event>
<event>
 4    1  0.3945627E+000  0.1953046E+03  0.7546771E-02  0.1153762E+00
         21   -1    0    0  503  502  0.00000000000E+00  0.00000000000E+00  0.10578535205E+03  0.10578535205E+03  0.00000000000E+00 0. -1.
         21   -1    0    0  501  503 -0.00000000000E+00 -0.00000000000E+00 -0.49986016702E+03  0.49986016702E+03  0.00000000000E+00 0. -1.
          6    1    1    2  501    0  0.88410308557E+02 -0.19962759850E+02 -0.35688704472E+03  0.40683197653E+03  0.17300000000E+03 0. -1.
         -6    1    1    2    0  502 -0.88410308557E+02  0.19962759850E+02 -0.37187770250E+02  0.19881354254E+03  0.17300000000E+03 0. -1.
<mgrwt>
<rscale>  2 0.19530462E+03</rscale>
<asrwt>0</asrwt>
<pdfrwt beam="1">  1       21 0.16274670E-01 0.19530462E+03</pdfrwt>
<pdfrwt beam="2">  1       21 0.76901561E-01 0.19530462E+03</pdfrwt>
<totfact> 0.50742731E+04</totfact>
</mgrwt>
</event>
<event>
 4    1  0.3945627E+000  0.1842690E+03  0.7546771E-02  0.1163734E+00
         21   -1    0    0  501  502  0.00000000000E+00  0.00000000000E+00  0.41913183813E+03  0.41913183813E+03  0.00000000000E+00 0.  1.
         21   -1    0    0  502  503 -0.00000000000E+00 -0.00000000000E+00 -0.81786889656E+02  0.81786889656E+02  0.00000000000E+00 0.  1.
          6    1    1    2  501    0 -0.61295199828E+02 -0.16399679696E+02  0.14430636351E+03  0.23404994673E+03  0.17300000000E+03 0.  1.
         -6    1    1    2    0  503  0.61295199828E+02  0.16399679696E+02  0.19303858496E+03  0.26686878105E+03  0.17300000000E+03 0.  1.
<mgrwt>
<rscale>  2 0.18426896E+03</rscale>
<asrwt>0</asrwt>
<pdfrwt beam="1">  1       21 0.64481820E-01 0.18426896E+03</pdfrwt>
<pdfrwt beam="2">  1       21 0.12582599E-01 0.18426896E+03</pdfrwt>
<totfact> 0.11990361E+05</totfact>
</mgrwt>
</event>
<event>
 4    1  0.3945627E+000  0.2073307E+03  0.7546771E-02  0.1143697E+00
         21   -1    0    0  503  502  0.00000000000E+00  0.00000000000E+00  0.23175043779E+03  0.23175043779E+03  0.00000000000E+00 0. -1.
         21   -1    0    0  501  503 -0.00000000000E+00 -0.00000000000E+00 -0.35794780728E+03  0.35794780728E+03  0.00000000000E+00 0. -1.
          6    1    1    2  501    0 -0.62455858659E+02  0.95688489164E+02 -0.26776145390E+03  0.33864763019E+03  0.17300000000E+03 0. -1.
         -6    1    1    2    0  502  0.62455858659E+02 -0.95688489164E+02  0.14156408440E+03  0.25105061488E+03  0.17300000000E+03 0. -1.
<mgrwt>
<rscale>  2 0.20733071E+03</rscale>
<asrwt>0</asrwt>
<pdfrwt beam="1">  1       21 0.35653914E-01 0.20733071E+03</pdfrwt>
<pdfrwt beam="2">  1       21 0.55068893E-01 0.20733071E+03</pdfrwt>
<totfact> 0.23397386E+04</totfact>
</mgrwt>
</event>
<event>
 4    1  0.3945627E+000  0.1820104E+03  0.7546771E-02  0.1165871E+00
         21   -1    0    0  501  502  0.00000000000E+00  0.00000000000E+00  0.20375168690E+03  0.20375168690E+03  0.00000000000E+00 0.  1.
         21   -1    0    0  502  503 -0.00000000000E+00 -0.00000000000E+00 -0.29999759735E+03  0.29999759735E+03  0.00000000000E+00 0.  1.
          6    1    1    2  501    0  0.53860372271E+02  0.17258088958E+02  0.12234098564E+03  0.21930594635E+03  0.17300000000E+03 0.  1.
         -6    1    1    2    0  503 -0.53860372271E+02 -0.17258088958E+02 -0.21858689609E+03  0.28444333791E+03  0.17300000000E+03 0.  1.
<mgrwt>
<rscale>  2 0.18201039E+03</rscale>
<asrwt>0</asrwt>
<pdfrwt beam="1">  1       21 0.31346413E-01 0.18201039E+03</pdfrwt>
<pdfrwt beam="2">  1       21 0.46153476E-01 0.18201039E+03</pdfrwt>
<totfact> 0.44221440E+04</totfact>
</mgrwt>
</event>
<event>
 4    1  0.3945627E+000  0.2407150E+03  0.7546771E-02  0.1119317E+00
         21   -1    0    0  503  502  0.00000000000E+00  0.00000000000E+00  0.23779491656E+03  0.23779491656E+03  0.00000000000E+00 0. -1.
         21   -1    0    0  501  503 -0.00000000000E+00 -0.00000000000E+00 -0.38096376795E+03  0.38096376795E+03  0.00000000000E+00 0.  1.
          6    1    1    2  501    0 -0.16618980652E+03 -0.19891272058E+02 -0.25731071253E+03  0.35235283067E+03  0.17300000000E+03 0.  1.
         -6    1    1    2    0  502  0.16618980652E+03  0.19891272058E+02  0.11414186114E+03  0.26640585384E+03  0.17300000000E+03 0. -1.
<mgrwt>
<rscale>  2 0.24071501E+03</rscale>
<asrwt>0</asrwt>
<pdfrwt beam="1">  1       21 0.36583833E-01 0.24071501E+03</pdfrwt>
<pdfrwt beam="2">  1       21 0.58609811E-01 0.24071501E+03</pdfrwt>
<totfact> 0.19110127E+04</totfact>
</mgrwt>
</event>
<event>
 4    1  0.3945627E+000  0.2499170E+03  0.7546771E-02  0.1113357E+00
         21   -1    0    0  501  502  0.00000000000E+00  0.00000000000E+00  0.29907159006E+03  0.29907159006E+03  0.00000000000E+00 0.  1.
         21   -1    0    0  502  503 -0.00000000000E+00 -0.00000000000E+00 -0.24402099014E+03  0.24402099014E+03  0.00000000000E+00 0. -1.
          6    1    1    2  501    0  0.17590260439E+03  0.39847112927E+02  0.13062939020E+03  0.28199744010E+03  0.17300000000E+03 0.  1.
         -6    1    1    2    0  503 -0.17590260439E+03 -0.39847112927E+02 -0.75578790288E+02  0.26109514010E+03  0.17300000000E+03 0. -1.
<mgrwt>
<rscale>  2 0.24991702E+03</rscale>
<asrwt>0</asrwt>
<pdfrwt beam="1">  1       21 0.46011014E-01 0.24991702E+03</pdfrwt>
<pdfrwt beam="2">  1       21 0.37541691E-01 0.24991702E+03</pdfrwt>
<totfact> 0.30104270E+04</totfact>
</mgrwt>
</event>
<event>
 4    1  0.3945627E+000  0.2211608E+03  0.7546771E-02  0.1133021E+00
         21   -1    0    0  501  502  0.00000000000E+00  0.00000000000E+00  0.43955980078E+02  0.43955980078E+02  0.00000000000E+00 0. -1.
         21   -1    0    0  502  503 -0.00000000000E+00 -0.00000000000E+00 -0.17448818938E+04  0.17448818938E+04  0.00000000000E+00 0. -1.
          6    1    1    2  501    0  0.11465605218E+03 -0.76400759438E+02 -0.31211722297E+03  0.38253006055E+03  0.17300000000E+03 0. -1.
         -6    1    1    2    0  503 -0.11465605218E+03  0.76400759438E+02 -0.13888086907E+04  0.14063078133E+04  0.17300000000E+03 0. -1.
<mgrwt>
<rscale>  2 0.22116077E+03</rscale>
<asrwt>0</asrwt>
<pdfrwt beam="1">  1       21 0.67624587E-02 0.22116077E+03</pdfrwt>
<pdfrwt beam="2">  1       21 0.26844336E+00 0.22116077E+03</pdfrwt>
<totfact> 0.81050044E+03</totfact>
</mgrwt>
</event>
<event>
 4    1  0.3945627E+000  0.2011429E+03  0.7546771E-02  0.1148778E+00
         21   -1    0    0  503  502  0.00000000000E+00  0.00000000000E+00  0.25374073081E+03  0.25374073081E+03  0.00000000000E+00 0. -1.
         21   -1    0    0  501  503 -0.00000000000E+00 -0.00000000000E+00 -0.17456881411E+03  0.17456881411E+03  0.00000000000E+00 0.  1.
          6    1    1    2  501    0  0.69270067226E+02 -0.75704084593E+02 -0.23441833661E+02  0.20250424737E+03  0.17300000000E+03 0.  1.
         -6    1    1    2    0  502 -0.69270067226E+02  0.75704084593E+02  0.10261375036E+03  0.22580529755E+03  0.17300000000E+03 0. -1.
<mgrwt>
<rscale>  2 0.20114286E+03</rscale>
<asrwt>0</asrwt>
<pdfrwt beam="1">  1       21 0.39037036E-01 0.20114286E+03</pdfrwt>
<pdfrwt beam="2">  1       21 0.26856741E-01 0.20114286E+03</pdfrwt>
<totfact> 0.83238212E+04</totfact>
</mgrwt>
</event>
<event>
 4    1  0.3945627E+000  0.1894975E+03  0.7546771E-02  0.1158915E+00
         21   -1    0    0  501  502  0.00000000000E+00  0.00000000000E+00  0.18207453236E+03  0.18207453236E+03  0.00000000000E+00 0. -1.
         21   -1    0    0  502  503 -0.00000000000E+00 -0.00000000000E+00 -0.64778379669E+03  0.64778379669E+03  0.00000000000E+00 0. -1.
          6    1    1    2  501    0  0.32120164969E+02 -0.70346178138E+02  0.11319278370E+03  0.22073036959E+03  0.17300000000E+03 0. -1.
         -6    1    1    2    0  503 -0.32120164969E+02  0.70346178138E+02 -0.57890204804E+03  0.60912795946E+03  0.17300000000E+03 0. -1.
<mgrwt>
<rscale>  2 0.18949747E+03</rscale>
<asrwt>0</asrwt>
<pdfrwt beam="1">  1       21 0.28011467E-01 0.18949747E+03</pdfrwt>
<pdfrwt beam="2">  1       21 0.99659044E-01 0.18949747E+03</pdfrwt>
<totfact> 0.10098054E+04</totfact>
</mgrwt>
</event>
<event>
 4    1  0.3945627E+000  0.2396618E+03  0.7546771E-02  0.1120018E+00
         21   -1    0    0  501  502  0.00000000000E+00  0.00000000000E+00  0.11941808347E+03  0.11941808347E+03  0.00000000000E+00 0.  1.
         21   -1    0    0  502  503 -0.00000000000E+00 -0.00000000000E+00 -0.48752496744E+03  0.48752496744E+03  0.00000000000E+00 0. -1.
          6    1    1    2  501    0 -0.16450449724E+03 -0.21144037798E+02 -0.14889349497E+03  0.28214725374E+03  0.17300000000E+03 0.  1.
         -6    1    1    2    0  503  0.16450449724E+03  0.21144037798E+02 -0.21921338899E+03  0.32479579717E+03  0.17300000000E+03 0. -1.
<mgrwt>
<rscale>  2 0.23966184E+03</rscale>
<asrwt>0</asrwt>
<pdfrwt beam="1">  1       21 0.18372013E-01 0.23966184E+03</pdfrwt>
<pdfrwt beam="2">  1       21 0.75003841E-01 0.23966184E+03</pdfrwt>
<totfact> 0.42012245E+04</totfact>
</mgrwt>
</event>
<event>
 4    1  0.3945627E+000  0.1798221E+03  0.7546771E-02  0.1167975E+00
         21   -1    0    0  501  502  0.00000000000E+00  0.00000000000E+00  0.16270206837E+03  0.16270206837E+03  0.00000000000E+00 0.  1.
         21   -1    0    0  502  503 -0.00000000000E+00 -0.00000000000E+00 -0.21251631953E+03  0.21251631953E+03  0.00000000000E+00 0.  1.
          6    1    1    2  501    0 -0.30303123117E+02 -0.38583955016E+02  0.22853195633E+02  0.18126850087E+03  0.17300000000E+03 0.  1.
         -6    1    1    2    0  503  0.30303123117E+02  0.38583955016E+02 -0.72667446791E+02  0.19394988703E+03  0.17300000000E+03 0.  1.
<mgrwt>
<rscale>  2 0.17982214E+03</rscale>
<asrwt>0</asrwt>
<pdfrwt beam="1">  1       21 0.25031087E-01 0.17982214E+03</pdfrwt>
<pdfrwt beam="2">  1       21 0.32694819E-01 0.17982214E+03</pdfrwt>
<totfact> 0.13663947E+05</totfact>
</mgrwt>
</event>
<event>
 4    1  0.3945627E+000  0.3512811E+03  0.7546771E-02  0.1062090E+00
         21   -1    0    0  501  502  0.00000000000E+00  0.00000000000E+00  0.92003652243E+03  0.92003652243E+03  0.00000000000E+00 0.  1.
         21   -1    0    0  502  503 -0.00000000000E+00 -0.00000000000E+00 -0.17049956388E+03  0.17049956388E+03  0.00000000000E+00 0. -1.
          6    1    1    2  501    0 -0.25646398869E+03 -0.16642003591E+03  0.62662719949E+03  0.71837319896E+03  0.17300000000E+03 0.  1.
         -6    1    1    2    0  503  0.25646398869E+03  0.16642003591E+03  0.12290975907E+03  0.37216288735E+03  0.17300000000E+03 0. -1.
<mgrwt>
<rscale>  2 0.35128109E+03</rscale>
<asrwt>0</asrwt>
<pdfrwt beam="1">  1       21 0.14154408E+00 0.35128109E+03</pdfrwt>
<pdfrwt beam="2">  1       21 0.26230703E-01 0.35128109E+03</pdfrwt>
<totfact> 0.43505521E+03</totfact>
</mgrwt>
</event>
<event>
 4    1  0.3945627E+000  0.2917062E+03  0.7546771E-02  0.1089462E+00
         21   -1    0    0  501  502  0.00000000000E+00  0.00000000000E+00  0.21620372903E+03  0.21620372903E+03  0.00000000000E+00 0.  1.
         21   -1    0    0  502  503 -0.00000000000E+00 -0.00000000000E+00 -0.39370510625E+03  0.39370510625E+03  0.00000000000E+00 0.  1.
          6    1    1    2  501    0 -0.20566657251E+03  0.11342290903E+03 -0.83218119820E+02  0.30334427769E+03  0.17300000000E+03 0.  1.
         -6    1    1    2    0  503  0.20566657251E+03 -0.11342290903E+03 -0.94283257401E+02  0.30656455759E+03  0.17300000000E+03 0.  1.
<mgrwt>
<rscale>  2 0.29170618E+03</rscale>
<asrwt>0</asrwt>
<pdfrwt beam="1">  1       21 0.33262112E-01 0.29170618E+03</pdfrwt>
<pdfrwt beam="2">  1       21 0.60570016E-01 0.29170618E+03</pdfrwt>
<totfact> 0.21038010E+04</totfact>
</mgrwt>
</event>
<event>
 4    1  0.3945627E+000  0.1790311E+03  0.7546771E-02  0.1168744E+00
         21   -1    0    0  503  502  0.00000000000E+00  0.00000000000E+00  0.41807623931E+02  0.41807623931E+02  0.00000000000E+00 0.  1.
         21   -1    0    0  501  503 -0.00000000000E+00 -0.00000000000E+00 -0.76694196243E+03  0.76694196243E+03  0.00000000000E+00 0.  1.
          6    1    1    2  501    0 -0.18458415417E+02 -0.42218873672E+02 -0.35478523989E+03  0.39739742429E+03  0.17300000000E+03 0. -1.
         -6    1    1    2    0  502  0.18458415417E+02  0.42218873672E+02 -0.37034909861E+03  0.41135216206E+03  0.17300000000E+03 0. -1.
<mgrwt>
<rscale>  2 0.17903113E+03</rscale>
<asrwt>0</asrwt>
<pdfrwt beam="1">  1       21 0.64319425E-02 0.17903113E+03</pdfrwt>
<pdfrwt beam="2">  1       21 0.11799106E+00 0.17903113E+03</pdfrwt>
<totfact> 0.96935933E+04</totfact>
</mgrwt>
</event>
<event>
 4    1  0.3945627E+000  0.1801571E+03  0.7546771E-02  0.1167651E+00
         21   -1    0    0  503  502  0.00000000000E+00  0.00000000000E+00  0.15260334608E+04  0.15260334608E+04  0.00000000000E+00 0.  1.
         21   -1    0    0  501  503 -0.00000000000E+00 -0.00000000000E+00 -0.33020077096E+02  0.33020077096E+02  0.00000000000E+00 0.  1.
          6    1    1    2  501    0 -0.13211939434E+02 -0.48508069486E+02  0.28146883618E+03  0.33418751307E+03  0.17300000000E+03 0.  1.
         -6    1    1    2    0  502  0.13211939434E+02  0.48508069486E+02  0.12115445475E+04  0.12248660248E+04  0.17300000000E+03 0.  1.
<mgrwt>
<rscale>  2 0.18015712E+03</rscale>
<asrwt>0</asrwt>
<pdfrwt beam="1">  1       21 0.23477432E+00 0.18015712E+03</pdfrwt>
<pdfrwt beam="2">  1       21 0.50800131E-02 0.18015712E+03</pdfrwt>
<totfact> 0.21662135E+04</totfact>
</mgrwt>
</event>
<event>
 4    1  0.3945627E+000  0.1801618E+03  0.7546771E-02  0.1167647E+00
         21   -1    0    0  503  502  0.00000000000E+00  0.00000000000E+00  0.25646662548E+03  0.25646662548E+03  0.00000000000E+00 0.  1.
         21   -1    0    0  501  503 -0.00000000000E+00 -0.00000000000E+00 -0.20163071094E+03  0.20163071094E+03  0.00000000000E+00 0.  1.
          6    1    1    2  501    0  0.37232547341E+02  0.33808545347E+02 -0.11234311574E+03  0.21231876030E+03  0.17300000000E+03 0.  1.
         -6    1    1    2    0  502 -0.37232547341E+02 -0.33808545347E+02  0.16717903028E+03  0.24577857613E+03  0.17300000000E+03 0.  1.
<mgrwt>
<rscale>  2 0.18016182E+03</rscale>
<asrwt>0</asrwt>
<pdfrwt beam="1">  1       21 0.39456404E-01 0.18016182E+03</pdfrwt>
<pdfrwt beam="2">  1       21 0.31020109E-01 0.18016182E+03</pdfrwt>
<totfact> 0.62155353E+04</totfact>
</mgrwt>
</event>
<event>
 4    1  0.3945627E+000  0.2151548E+03  0.7546771E-02  0.1137548E+00
         21   -1    0    0  503  502  0.00000000000E+00  0.00000000000E+00  0.92254242840E+02  0.92254242840E+02  0.00000000000E+00 0. -1.
         21   -1    0    0  501  503 -0.00000000000E+00 -0.00000000000E+00 -0.60622664934E+03  0.60622664934E+03  0.00000000000E+00 0.  1.
          6    1    1    2  501    0  0.28596551076E+02  0.12467881674E+03 -0.40194646272E+03  0.45590846556E+03  0.17300000000E+03 0.  1.
         -6    1    1    2    0  502 -0.28596551076E+02 -0.12467881674E+03 -0.11202594378E+03  0.24257242662E+03  0.17300000000E+03 0. -1.
<mgrwt>
<rscale>  2 0.21515476E+03</rscale>
<asrwt>0</asrwt>
<pdfrwt beam="1">  1       21 0.14192960E-01 0.21515476E+03</pdfrwt>
<pdfrwt beam="2">  1       21 0.93265640E-01 0.21515476E+03</pdfrwt>
<totfact> 0.41460036E+04</totfact>
</mgrwt>
</event>
<event>
 4    1  0.3945627E+000  0.1791212E+03  0.7546771E-02  0.1168656E+00
         21   -1    0    0  501  502  0.00000000000E+00  0.00000000000E+00  0.16795803404E+04  0.16795803404E+04  0.00000000000E+00 0. -1.
         21   -1    0    0  502  503 -0.00000000000E+00 -0.00000000000E+00 -0.68733064884E+02  0.68733064884E+02  0.00000000000E+00 0. -1.
          6    1    1    2  501    0  0.12330711033E+02 -0.44759001773E+02  0.15482382592E+04  0.15585654050E+04  0.17300000000E+03 0. -1.
         -6    1    1    2    0  503 -0.12330711033E+02  0.44759001773E+02  0.62609016388E+02  0.18974800027E+03  0.17300000000E+03 0. -1.
<mgrwt>
<rscale>  2 0.17912123E+03</rscale>
<asrwt>0</asrwt>
<pdfrwt beam="1">  1       21 0.25839694E+00 0.17912123E+03</pdfrwt>
<pdfrwt beam="2">  1       21 0.10574319E-01 0.17912123E+03</pdfrwt>
<totfact> 0.44303024E+03</totfact>
</mgrwt>
</event>
<event>
 4    1  0.3945627E+000  0.2006153E+03  0.7546771E-02  0.1149221E+00
         21   -1    0    0  501  502  0.00000000000E+00  0.00000000000E+00  0.23631257280E+03  0.23631257280E+03  0.00000000000E+00 0.  1.
         21   -1    0    0  502  503 -0.00000000000E+00 -0.00000000000E+00 -0.17681145177E+03  0.17681145177E+03  0.00000000000E+00 0.  1.
          6    1    1    2  501    0 -0.10795676895E+02  0.10099977019E+03 -0.98576716303E+01  0.20085734716E+03  0.17300000000E+03 0.  1.
         -6    1    1    2    0  503  0.10795676895E+02 -0.10099977019E+03  0.69358792663E+02  0.21226667741E+03  0.17300000000E+03 0.  1.
<mgrwt>
<rscale>  2 0.20061530E+03</rscale>
<asrwt>0</asrwt>
<pdfrwt beam="1">  1       21 0.36355781E-01 0.20061530E+03</pdfrwt>
<pdfrwt beam="2">  1       21 0.27201762E-01 0.20061530E+03</pdfrwt>
<totfact> 0.93693333E+04</totfact>
</mgrwt>
</event>
<event>
 4    1  0.3945627E+000  0.2384570E+03  0.7546771E-02  0.1120825E+00
         21   -1    0    0  503  502  0.00000000000E+00  0.00000000000E+00  0.28380595343E+03  0.28380595343E+03  0.00000000000E+00 0. -1.
         21   -1    0    0  501  503 -0.00000000000E+00 -0.00000000000E+00 -0.76207196258E+03  0.76207196258E+03  0.00000000000E+00 0.  1.
          6    1    1    2  501    0  0.21586528162E+02 -0.16268603806E+03 -0.68809757427E+03  0.72824446232E+03  0.17300000000E+03 0.  1.
         -6    1    1    2    0  502 -0.21586528162E+02  0.16268603806E+03  0.20983156513E+03  0.31763345369E+03  0.17300000000E+03 0. -1.
<mgrwt>
<rscale>  2 0.23845697E+03</rscale>
<asrwt>0</asrwt>
<pdfrwt beam="1">  1       21 0.43662454E-01 0.23845697E+03</pdfrwt>
<pdfrwt beam="2">  1       21 0.11724184E+00 0.23845697E+03</pdfrwt>
<totfact> 0.27159890E+03</totfact>
</mgrwt>
</event>
<event>
 4    1  0.3945627E+000  0.3231534E+03  0.7546771E-02  0.1074207E+00
         21   -1    0    0  503  502  0.00000000000E+00  0.00000000000E+00  0.14885105223E+03  0.14885105223E+03  0.00000000000E+00 0. -1.
         21   -1    0    0  501  503 -0.00000000000E+00 -0.00000000000E+00 -0.70225117496E+03  0.70225117496E+03  0.00000000000E+00 0. -1.
          6    1    1    2  501    0 -0.26037427900E+03 -0.81880142552E+02 -0.26336110101E+03  0.41687791071E+03  0.17300000000E+03 0. -1.
         -6    1    1    2    0  502  0.26037427900E+03  0.81880142552E+02 -0.29003902172E+03  0.43422431649E+03  0.17300000000E+03 0. -1.
<mgrwt>
<rscale>  2 0.32315340E+03</rscale>
<asrwt>0</asrwt>
<pdfrwt beam="1">  1       21 0.22900161E-01 0.32315340E+03</pdfrwt>
<pdfrwt beam="2">  1       21 0.10803865E+00 0.32315340E+03</pdfrwt>
<totfact> 0.11368578E+04</totfact>
</mgrwt>
</event>
<event>
 4    1  0.3945627E+000  0.1829082E+03  0.7546771E-02  0.1165018E+00
         21   -1    0    0  501  502  0.00000000000E+00  0.00000000000E+00  0.18624484627E+03  0.18624484627E+03  0.00000000000E+00 0. -1.
         21   -1    0    0  502  503 -0.00000000000E+00 -0.00000000000E+00 -0.18174961349E+03  0.18174961349E+03  0.00000000000E+00 0. -1.
          6    1    1    2  501    0 -0.37186135934E+02  0.46298937682E+02  0.22111839711E+02  0.18423988111E+03  0.17300000000E+03 0. -1.
         -6    1    1    2    0  503  0.37186135934E+02 -0.46298937682E+02 -0.17616606930E+02  0.18375457865E+03  0.17300000000E+03 0. -1.
<mgrwt>
<rscale>  2 0.18290817E+03</rscale>
<asrwt>0</asrwt>
<pdfrwt beam="1">  1       21 0.28653053E-01 0.18290817E+03</pdfrwt>
<pdfrwt beam="2">  1       21 0.27961479E-01 0.18290817E+03</pdfrwt>
<totfact> 0.14278821E+05</totfact>
</mgrwt>
</event>
<event>
 4    1  0.3945627E+000  0.2953477E+03  0.7546771E-02  0.1087590E+00
         21   -1    0    0  501  502  0.00000000000E+00  0.00000000000E+00  0.78121657063E+03  0.78121657063E+03  0.00000000000E+00 0. -1.
         21   -1    0    0  502  503 -0.00000000000E+00 -0.00000000000E+00 -0.12735739333E+03  0.12735739333E+03  0.00000000000E+00 0.  1.
          6    1    1    2  501    0  0.19254464378E+03  0.14222465766E+03  0.48642131701E+03  0.56906589314E+03  0.17300000000E+03 0. -1.
         -6    1    1    2    0  503 -0.19254464378E+03 -0.14222465766E+03  0.16743786029E+03  0.33950807082E+03  0.17300000000E+03 0.  1.
<mgrwt>
<rscale>  2 0.29534775E+03</rscale>
<asrwt>0</asrwt>
<pdfrwt beam="1">  1       21 0.12018716E+00 0.29534775E+03</pdfrwt>
<pdfrwt beam="2">  1       21 0.19593446E-01 0.29534775E+03</pdfrwt>
<totfact> 0.11890285E+04</totfact>
</mgrwt>
</event>
<event>
 4    1  0.3945627E+000  0.1867546E+03  0.7546771E-02  0.1161421E+00
         21   -1    0    0  501  502  0.00000000000E+00  0.00000000000E+00  0.17750846792E+03  0.17750846792E+03  0.00000000000E+00 0. -1.
         21   -1    0    0  502  503 -0.00000000000E+00 -0.00000000000E+00 -0.19880048747E+03  0.19880048747E+03  0.00000000000E+00 0. -1.
          6    1    1    2  501    0  0.54938061550E+02  0.43932821612E+02 -0.30963689472E+02  0.18930407678E+03  0.17300000000E+03 0. -1.
         -6    1    1    2    0  503 -0.54938061550E+02 -0.43932821612E+02  0.96716699195E+01  0.18700487860E+03  0.17300000000E+03 0. -1.
<mgrwt>
<rscale>  2 0.18675461E+03</rscale>
<asrwt>0</asrwt>
<pdfrwt beam="1">  1       21 0.27308995E-01 0.18675461E+03</pdfrwt>
<pdfrwt beam="2">  1       21 0.30584690E-01 0.18675461E+03</pdfrwt>
<totfact> 0.13147487E+05</totfact>
</mgrwt>
</event>
<event>
 4    1  0.3945627E+000  0.2195854E+03  0.7546771E-02  0.1134193E+00
         21   -1    0    0  503  502  0.00000000000E+00  0.00000000000E+00  0.58786010699E+03  0.58786010699E+03  0.00000000000E+00 0.  1.
         21   -1    0    0  501  503 -0.00000000000E+00 -0.00000000000E+00 -0.11656692776E+03  0.11656692776E+03  0.00000000000E+00 0.  1.
          6    1    1    2  501    0 -0.13479175222E+03 -0.10951595416E+02  0.42738422366E+03  0.48049456661E+03  0.17300000000E+03 0.  1.
         -6    1    1    2    0  502  0.13479175222E+03  0.10951595416E+02  0.43908955566E+02  0.22393246814E+03  0.17300000000E+03 0.  1.
<mgrwt>
<rscale>  2 0.21958541E+03</rscale>
<asrwt>0</asrwt>
<pdfrwt beam="1">  1       21 0.90440015E-01 0.21958541E+03</pdfrwt>
<pdfrwt beam="2">  1       21 0.17933374E-01 0.21958541E+03</pdfrwt>
<totfact> 0.28930241E+04</totfact>
</mgrwt>
</event>
<event>
 4    1  0.3945627E+000  0.2398067E+03  0.7546771E-02  0.1119922E+00
         21   -1    0    0  501  502  0.00000000000E+00  0.00000000000E+00  0.23563034628E+03  0.23563034628E+03  0.00000000000E+00 0.  1.
         21   -1    0    0  502  503 -0.00000000000E+00 -0.00000000000E+00 -0.78365202647E+03  0.78365202647E+03  0.00000000000E+00 0.  1.
          6    1    1    2  501    0  0.63023028395E+02  0.15364356856E+03  0.14888833169E+03  0.28226757444E+03  0.17300000000E+03 0.  1.
         -6    1    1    2    0  503 -0.63023028395E+02 -0.15364356856E+03 -0.69691001188E+03  0.73701479831E+03  0.17300000000E+03 0.  1.
<mgrwt>
<rscale>  2 0.23980669E+03</rscale>
<asrwt>0</asrwt>
<pdfrwt beam="1">  1       21 0.36250823E-01 0.23980669E+03</pdfrwt>
<pdfrwt beam="2">  1       21 0.12056185E+00 0.23980669E+03</pdfrwt>
<totfact> 0.36926057E+03</totfact>
</mgrwt>
</event>
<event>
 4    1  0.3945627E+000  0.1758735E+03  0.7546771E-02  0.1171857E+00
         21   -1    0    0  501  502  0.00000000000E+00  0.00000000000E+00  0.36125797739E+03  0.36125797739E+03  0.00000000000E+00 0.  1.
         21   -1    0    0  502  503 -0.00000000000E+00 -0.00000000000E+00 -0.21477483823E+03  0.21477483823E+03  0.00000000000E+00 0.  1.
          6    1    1    2  501    0 -0.30288169508E+02 -0.92259555266E+01  0.29658755663E+03  0.34481251458E+03  0.17300000000E+03 0.  1.
         -6    1    1    2    0  503  0.30288169508E+02  0.92259555266E+01 -0.15010441747E+03  0.23122030104E+03  0.17300000000E+03 0.  1.
<mgrwt>
<rscale>  2 0.17587351E+03</rscale>
<asrwt>0</asrwt>
<pdfrwt beam="1">  1       21 0.55578150E-01 0.17587351E+03</pdfrwt>
<pdfrwt beam="2">  1       21 0.33042283E-01 0.17587351E+03</pdfrwt>
<totfact> 0.27157646E+04</totfact>
</mgrwt>
</event>
<event>
 4    1  0.3945627E+000  0.2210750E+03  0.7546771E-02  0.1133084E+00
         21   -1    0    0  501  502  0.00000000000E+00  0.00000000000E+00  0.61623701479E+03  0.61623701479E+03  0.00000000000E+00 0. -1.
         21   -1    0    0  502  503 -0.00000000000E+00 -0.00000000000E+00 -0.11678089009E+03  0.11678089009E+03  0.00000000000E+00 0. -1.
          6    1    1    2  501    0  0.13605821402E+03  0.20816661029E+02  0.45733497712E+03  0.50796599520E+03  0.17300000000E+03 0. -1.
         -6    1    1    2    0  503 -0.13605821402E+03 -0.20816661029E+02  0.42121147582E+02  0.22505190969E+03  0.17300000000E+03 0. -1.
<mgrwt>
<rscale>  2 0.22107503E+03</rscale>
<asrwt>0</asrwt>
<pdfrwt beam="1">  1       21 0.94805693E-01 0.22107503E+03</pdfrwt>
<pdfrwt beam="2">  1       21 0.17966291E-01 0.22107503E+03</pdfrwt>
<totfact> 0.25803310E+04</totfact>
</mgrwt>
</event>
<event>
 4    1  0.3945627E+000  0.3715302E+03  0.7546771E-02  0.1054109E+00
         21   -1    0    0  503  502  0.00000000000E+00  0.00000000000E+00  0.13081165985E+03  0.13081165985E+03  0.00000000000E+00 0.  1.
         21   -1    0    0  501  503 -0.00000000000E+00 -0.00000000000E+00 -0.13987973708E+04  0.13987973708E+04  0.00000000000E+00 0. -1.
          6    1    1    2  501    0  0.32801165327E+03 -0.22672150154E+02 -0.25495089474E+03  0.45059364155E+03  0.17300000000E+03 0.  1.
         -6    1    1    2    0  502 -0.32801165327E+03  0.22672150154E+02 -0.10130348163E+04  0.10790153891E+04  0.17300000000E+03 0. -1.
<mgrwt>
<rscale>  2 0.37153018E+03</rscale>
<asrwt>0</asrwt>
<pdfrwt beam="1">  1       21 0.20124872E-01 0.37153018E+03</pdfrwt>
<pdfrwt beam="2">  1       21 0.21519958E+00 0.37153018E+03</pdfrwt>
<totfact> 0.21495802E+03</totfact>
</mgrwt>
</event>
<event>
 4    1  0.3945627E+000  0.2881297E+03  0.7546771E-02  0.1091330E+00
         21   -1    0    0  503  502  0.00000000000E+00  0.00000000000E+00  0.31877777071E+03  0.31877777071E+03  0.00000000000E+00 0.  1.
         21   -1    0    0  501  503 -0.00000000000E+00 -0.00000000000E+00 -0.30098638649E+03  0.30098638649E+03  0.00000000000E+00 0. -1.
          6    1    1    2  501    0 -0.13860988917E+03  0.18405705113E+03 -0.10485725581E+03  0.30661660676E+03  0.17300000000E+03 0. -1.
         -6    1    1    2    0  502  0.13860988917E+03 -0.18405705113E+03  0.12264864002E+03  0.31314755044E+03  0.17300000000E+03 0.  1.
<mgrwt>
<rscale>  2 0.28812966E+03</rscale>
<asrwt>0</asrwt>
<pdfrwt beam="1">  1       21 0.49042734E-01 0.28812966E+03</pdfrwt>
<pdfrwt beam="2">  1       21 0.46305598E-01 0.28812966E+03</pdfrwt>
<totfact> 0.16862645E+04</totfact>
</mgrwt>
</event>
<event>
 4    1  0.3945627E+000  0.1852147E+03  0.7546771E-02  0.1162850E+00
         21   -1    0    0  501  502  0.00000000000E+00  0.00000000000E+00  0.13711648988E+03  0.13711648988E+03  0.00000000000E+00 0. -1.
         21   -1    0    0  502  503 -0.00000000000E+00 -0.00000000000E+00 -0.77223044726E+03  0.77223044726E+03  0.00000000000E+00 0. -1.
          6    1    1    2  501    0  0.46881546788E+02 -0.46664633562E+02  0.56278378174E+02  0.19357614343E+03  0.17300000000E+03 0. -1.
         -6    1    1    2    0  503 -0.46881546788E+02  0.46664633562E+02 -0.69139233556E+03  0.71577079371E+03  0.17300000000E+03 0. -1.
<mgrwt>
<rscale>  2 0.18521465E+03</rscale>
<asrwt>0</asrwt>
<pdfrwt beam="1">  1       21 0.21094844E-01 0.18521465E+03</pdfrwt>
<pdfrwt beam="2">  1       21 0.11880469E+00 0.18521465E+03</pdfrwt>
<totfact> 0.11368826E+04</totfact>
</mgrwt>
</event>
<event>
 4    1  0.3945627E+000  0.1781770E+03  0.7546771E-02  0.1169579E+00
         21   -1    0    0  501  502  0.00000000000E+00  0.00000000000E+00  0.20017497532E+03  0.20017497532E+03  0.00000000000E+00 0.  1.
         21   -1    0    0  502  503 -0.00000000000E+00 -0.00000000000E+00 -0.36277802667E+03  0.36277802667E+03  0.00000000000E+00 0.  1.
          6    1    1    2  501    0 -0.38709569819E+02  0.17877304564E+02  0.12986739253E+03  0.22048258085E+03  0.17300000000E+03 0.  1.
         -6    1    1    2    0  503  0.38709569819E+02 -0.17877304564E+02 -0.29247044388E+03  0.34247042115E+03  0.17300000000E+03 0.  1.
<mgrwt>
<rscale>  2 0.17817696E+03</rscale>
<asrwt>0</asrwt>
<pdfrwt beam="1">  1       21 0.30796150E-01 0.17817696E+03</pdfrwt>
<pdfrwt beam="2">  1       21 0.55812003E-01 0.17817696E+03</pdfrwt>
<totfact> 0.30856892E+04</totfact>
</mgrwt>
</event>
<event>
 4    1  0.3945627E+000  0.1910316E+03  0.7546771E-02  0.1157534E+00
         21   -1    0    0  503  502  0.00000000000E+00  0.00000000000E+00  0.41299175175E+02  0.41299175175E+02  0.00000000000E+00 0.  1.
         21   -1    0    0  501  503 -0.00000000000E+00 -0.00000000000E+00 -0.93436982534E+03  0.93436982534E+03  0.00000000000E+00 0. -1.
          6    1    1    2  501    0  0.37499453337E+02 -0.71818164689E+02 -0.33285081098E+03  0.38377430887E+03  0.17300000000E+03 0. -1.
         -6    1    1    2    0  502 -0.37499453337E+02  0.71818164689E+02 -0.56021983919E+03  0.59189469165E+03  0.17300000000E+03 0.  1.
<mgrwt>
<rscale>  2 0.19103156E+03</rscale>
<asrwt>0</asrwt>
<pdfrwt beam="1">  1       21 0.63537195E-02 0.19103156E+03</pdfrwt>
<pdfrwt beam="2">  1       21 0.14374920E+00 0.19103156E+03</pdfrwt>
<totfact> 0.59771394E+04</totfact>
</mgrwt>
</event>
<event>
 4    1  0.3945627E+000  0.1765640E+03  0.7546771E-02  0.1171171E+00
         21   -1    0    0  503  502  0.00000000000E+00  0.00000000000E+00  0.17360215085E+03  0.17360215085E+03  0.00000000000E+00 0.  1.
         21   -1    0    0  501  503 -0.00000000000E+00 -0.00000000000E+00 -0.35916485227E+03  0.35916485227E+03  0.00000000000E+00 0.  1.
          6    1    1    2  501    0 -0.35072161695E+02  0.39715592622E+01 -0.28114615023E+03  0.33199094505E+03  0.17300000000E+03 0.  1.
         -6    1    1    2    0  502  0.35072161695E+02 -0.39715592622E+01  0.95583448807E+02  0.20077605807E+03  0.17300000000E+03 0.  1.
<mgrwt>
<rscale>  2 0.17656395E+03</rscale>
<asrwt>0</asrwt>
<pdfrwt beam="1">  1       21 0.26708024E-01 0.17656395E+03</pdfrwt>
<pdfrwt beam="2">  1       21 0.55256130E-01 0.17656395E+03</pdfrwt>
<totfact> 0.41553322E+04</totfact>
</mgrwt>
</event>
<event>
 4    1  0.3945627E+000  0.2187481E+03  0.7546771E-02  0.1134820E+00
         21   -1    0    0  501  502  0.00000000000E+00  0.00000000000E+00  0.13709046734E+03  0.13709046734E+03  0.00000000000E+00 0. -1.
         21   -1    0    0  502  503 -0.00000000000E+00 -0.00000000000E+00 -0.35937543226E+03  0.35937543226E+03  0.00000000000E+00 0. -1.
          6    1    1    2  501    0 -0.29245012921E+02  0.13063858813E+03 -0.15322960045E+03  0.26707680907E+03  0.17300000000E+03 0. -1.
         -6    1    1    2    0  503  0.29245012921E+02 -0.13063858813E+03 -0.69055364481E+02  0.22938909053E+03  0.17300000000E+03 0. -1.
<mgrwt>
<rscale>  2 0.21874805E+03</rscale>
<asrwt>0</asrwt>
<pdfrwt beam="1">  1       21 0.21090841E-01 0.21874805E+03</pdfrwt>
<pdfrwt beam="2">  1       21 0.55288529E-01 0.21874805E+03</pdfrwt>
<totfact> 0.63716191E+04</totfact>
</mgrwt>
</event>
<event>
 4    1  0.3945627E+000  0.5133413E+03  0.7546771E-02  0.1010354E+00
         21   -1    0    0  503  502  0.00000000000E+00  0.00000000000E+00  0.20215701147E+04  0.20215701147E+04  0.00000000000E+00 0. -1.
         21   -1    0    0  501  503 -0.00000000000E+00 -0.00000000000E+00 -0.13813963617E+03  0.13813963617E+03  0.00000000000E+00 0. -1.
          6    1    1    2  501    0  0.78456857910E+02  0.47690125542E+03  0.68534966626E+03  0.85628467872E+03  0.17300000000E+03 0. -1.
         -6    1    1    2    0  502 -0.78456857910E+02 -0.47690125542E+03  0.11980808123E+04  0.13034250722E+04  0.17300000000E+03 0. -1.
<mgrwt>
<rscale>  2 0.51334130E+03</rscale>
<asrwt>0</asrwt>
<pdfrwt beam="1">  1       21 0.31101076E+00 0.51334130E+03</pdfrwt>
<pdfrwt beam="2">  1       21 0.21252253E-01 0.51334130E+03</pdfrwt>
<totfact> 0.46608570E+02</totfact>
</mgrwt>
</event>
<event>
 4    1  0.3945627E+000  0.1932291E+03  0.7546771E-02  0.1155581E+00
         21   -1    0    0  503  502  0.00000000000E+00  0.00000000000E+00  0.80504623193E+03  0.80504623193E+03  0.00000000000E+00 0. -1.
         21   -1    0    0  501  503 -0.00000000000E+00 -0.00000000000E+00 -0.11071058799E+03  0.11071058799E+03  0.00000000000E+00 0.  1.
          6    1    1    2  501    0 -0.84241030890E+02 -0.17661661832E+02 -0.18653388098E+01  0.19323810461E+03  0.17300000000E+03 0.  1.
         -6    1    1    2    0  502  0.84241030890E+02  0.17661661832E+02  0.69620098276E+03  0.72251871531E+03  0.17300000000E+03 0. -1.
<mgrwt>
<rscale>  2 0.19322910E+03</rscale>
<asrwt>0</asrwt>
<pdfrwt beam="1">  1       21 0.12385326E+00 0.19322910E+03</pdfrwt>
<pdfrwt beam="2">  1       21 0.17032399E-01 0.19322910E+03</pdfrwt>
<totfact> 0.15170396E+04</totfact>
</mgrwt>
</event>
<event>
 4    1  0.3945627E+000  0.1869478E+03  0.7546771E-02  0.1161243E+00
         21   -1    0    0  503  502  0.00000000000E+00  0.00000000000E+00  0.62095526094E+02  0.62095526094E+02  0.00000000000E+00 0.  1.
         21   -1    0    0  501  503 -0.00000000000E+00 -0.00000000000E+00 -0.58798099451E+03  0.58798099451E+03  0.00000000000E+00 0.  1.
          6    1    1    2  501    0  0.70522359765E+02  0.68616712207E+01 -0.19572340779E+03  0.27066055885E+03  0.17300000000E+03 0.  1.
         -6    1    1    2    0  502 -0.70522359765E+02 -0.68616712207E+01 -0.33016206062E+03  0.37941596176E+03  0.17300000000E+03 0.  1.
<mgrwt>
<rscale>  2 0.18694782E+03</rscale>
<asrwt>0</asrwt>
<pdfrwt beam="1">  1       21 0.95531579E-02 0.18694782E+03</pdfrwt>
<pdfrwt beam="2">  1       21 0.90458614E-01 0.18694782E+03</pdfrwt>
<totfact> 0.91542169E+04</totfact>
</mgrwt>
</event>
<event>
 4    1  0.3945627E+000  0.1824446E+03  0.7546771E-02  0.1165458E+00
         21   -1    0    0  501  502  0.00000000000E+00  0.00000000000E+00  0.22230741026E+03  0.22230741026E+03  0.00000000000E+00 0. -1.
         21   -1    0    0  502  503 -0.00000000000E+00 -0.00000000000E+00 -0.40446953105E+03  0.40446953105E+03  0.00000000000E+00 0. -1.
          6    1    1    2  501    0 -0.53185140070E+02  0.22986327295E+02  0.15762622361E+03  0.24110590357E+03  0.17300000000E+03 0. -1.
         -6    1    1    2    0  503  0.53185140070E+02 -0.22986327295E+02 -0.33978834440E+03  0.38567103774E+03  0.17300000000E+03 0. -1.
<mgrwt>
<rscale>  2 0.18244460E+03</rscale>
<asrwt>0</asrwt>
<pdfrwt beam="1">  1       21 0.34201140E-01 0.18244460E+03</pdfrwt>
<pdfrwt beam="2">  1       21 0.62226081E-01 0.18244460E+03</pdfrwt>
<totfact> 0.19855809E+04</totfact>
</mgrwt>
</event>
<event>
 4    1  0.3945627E+000  0.2034068E+03  0.7546771E-02  0.1146896E+00
         21   -1    0    0  503  502  0.00000000000E+00  0.00000000000E+00  0.53555146994E+03  0.53555146994E+03  0.00000000000E+00 0. -1.
         21   -1    0    0  501  503 -0.00000000000E+00 -0.00000000000E+00 -0.77826226916E+02  0.77826226916E+02  0.00000000000E+00 0. -1.
          6    1    1    2  501    0 -0.76712732065E+02 -0.74568752759E+02  0.20260128637E+03  0.28709166374E+03  0.17300000000E+03 0. -1.
         -6    1    1    2    0  502  0.76712732065E+02  0.74568752759E+02  0.25512395665E+03  0.32628603312E+03  0.17300000000E+03 0. -1.
<mgrwt>
<rscale>  2 0.20340684E+03</rscale>
<asrwt>0</asrwt>
<pdfrwt beam="1">  1       21 0.82392532E-01 0.20340684E+03</pdfrwt>
<pdfrwt beam="2">  1       21 0.11973266E-01 0.20340684E+03</pdfrwt>
<totfact> 0.75427495E+04</totfact>
</mgrwt>
</event>
<event>
 4    1  0.3945627E+000  0.2195109E+03  0.7546771E-02  0.1134248E+00
         21   -1    0    0  501  502  0.00000000000E+00  0.00000000000E+00  0.55751277549E+03  0.55751277549E+03  0.00000000000E+00 0.  1.
         21   -1    0    0  502  503 -0.00000000000E+00 -0.00000000000E+00 -0.19511462208E+03  0.19511462208E+03  0.00000000000E+00 0.  1.
          6    1    1    2  501    0  0.74254196539E+02 -0.11288203324E+03  0.46206044066E+03  0.51155145387E+03  0.17300000000E+03 0.  1.
         -6    1    1    2    0  503 -0.74254196539E+02  0.11288203324E+03 -0.99662287254E+02  0.24107594370E+03  0.17300000000E+03 0.  1.
<mgrwt>
<rscale>  2 0.21951091E+03</rscale>
<asrwt>0</asrwt>
<pdfrwt beam="1">  1       21 0.85771195E-01 0.21951091E+03</pdfrwt>
<pdfrwt beam="2">  1       21 0.30017634E-01 0.21951091E+03</pdfrwt>
<totfact> 0.12276711E+04</totfact>
</mgrwt>
</event>
<event>
 4    1  0.3945627E+000  0.2482587E+03  0.7546771E-02  0.1114410E+00
         21   -1    0    0  501  502  0.00000000000E+00  0.00000000000E+00  0.39512034686E+03  0.39512034686E+03  0.00000000000E+00 0.  1.
         21   -1    0    0  502  503 -0.00000000000E+00 -0.00000000000E+00 -0.15612480021E+03  0.15612480021E+03  0.00000000000E+00 0.  1.
          6    1    1    2  501    0  0.20221350369E+01  0.17804300881E+03  0.11121689882E+03  0.27203235212E+03  0.17300000000E+03 0.  1.
         -6    1    1    2    0  503 -0.20221350369E+01 -0.17804300881E+03  0.12777864783E+03  0.27921279494E+03  0.17300000000E+03 0.  1.
<mgrwt>
<rscale>  2 0.24825874E+03</rscale>
<asrwt>0</asrwt>
<pdfrwt beam="1">  1       21 0.60787745E-01 0.24825874E+03</pdfrwt>
<pdfrwt beam="2">  1       21 0.24019200E-01 0.24825874E+03</pdfrwt>
<totfact> 0.40117937E+04</totfact>
</mgrwt>
</event>
<event>
 4    1  0.3945627E+000  0.1919807E+03  0.7546771E-02  0.1156687E+00
         21   -1    0    0  501  502  0.00000000000E+00  0.00000000000E+00  0.10575720887E+03  0.10575720887E+03  0.00000000000E+00 0.  1.
         21   -1    0    0  502  503 -0.00000000000E+00 -0.00000000000E+00 -0.66035601695E+03  0.66035601695E+03  0.00000000000E+00 0.  1.
          6    1    1    2  501    0  0.14359814923E+02  0.81984128695E+02 -0.14060819369E+02  0.19249495652E+03  0.17300000000E+03 0.  1.
         -6    1    1    2    0  503 -0.14359814923E+02 -0.81984128695E+02 -0.54053798871E+03  0.57361826931E+03  0.17300000000E+03 0.  1.
<mgrwt>
<rscale>  2 0.19198073E+03</rscale>
<asrwt>0</asrwt>
<pdfrwt beam="1">  1       21 0.16270340E-01 0.19198073E+03</pdfrwt>
<pdfrwt beam="2">  1       21 0.10159323E+00 0.19198073E+03</pdfrwt>
<totfact> 0.26746333E+04</totfact>
</mgrwt>
</event>
<event>
 4    1  0.3945627E+000  0.1879516E+03  0.7546771E-02  0.1160322E+00
         21   -1    0    0  503  502  0.00000000000E+00  0.00000000000E+00  0.17830787777E+03  0.17830787777E+03  0.00000000000E+00 0. -1.
         21   -1    0    0  501  503 -0.00000000000E+00 -0.00000000000E+00 -0.22439382096E+03  0.22439382096E+03  0.00000000000E+00 0. -1.
          6    1    1    2  501    0  0.61671885852E+01 -0.73203596137E+02 -0.91945539646E+02  0.20923618942E+03  0.17300000000E+03 0. -1.
         -6    1    1    2    0  502 -0.61671885852E+01  0.73203596137E+02  0.45859596458E+02  0.19346550930E+03  0.17300000000E+03 0. -1.
<mgrwt>
<rscale>  2 0.18795159E+03</rscale>
<asrwt>0</asrwt>
<pdfrwt beam="1">  1       21 0.27431981E-01 0.18795159E+03</pdfrwt>
<pdfrwt beam="2">  1       21 0.34522126E-01 0.18795159E+03</pdfrwt>
<totfact> 0.10268543E+05</totfact>
</mgrwt>
</event>
<event>
 4    1  0.3945627E+000  0.2364802E+03  0.7546771E-02  0.1122160E+00
         21   -1    0    0  501  502  0.00000000000E+00  0.00000000000E+00  0.31573362935E+03  0.31573362935E+03  0.00000000000E+00 0.  1.
         21   -1    0    0  502  503 -0.00000000000E+00 -0.00000000000E+00 -0.27777261420E+03  0.27777261420E+03  0.00000000000E+00 0.  1.
          6    1    1    2  501    0 -0.14016758174E+03 -0.79667761270E+02  0.19761363467E+03  0.30817860367E+03  0.17300000000E+03 0.  1.
         -6    1    1    2    0  503  0.14016758174E+03  0.79667761270E+02 -0.15965261952E+03  0.28532763987E+03  0.17300000000E+03 0.  1.
<mgrwt>
<rscale>  2 0.23648024E+03</rscale>
<asrwt>0</asrwt>
<pdfrwt beam="1">  1       21 0.48574405E-01 0.23648024E+03</pdfrwt>
<pdfrwt beam="2">  1       21 0.42734248E-01 0.23648024E+03</pdfrwt>
<totfact> 0.20800318E+04</totfact>
</mgrwt>
</event>
<event>
 4    1  0.3945627E+000  0.2023470E+03  0.7546771E-02  0.1147774E+00
         21   -1    0    0  503  502  0.00000000000E+00  0.00000000000E+00  0.69927973296E+03  0.69927973296E+03  0.00000000000E+00 0.  1.
         21   -1    0    0  501  503 -0.00000000000E+00 -0.00000000000E+00 -0.62646762659E+02  0.62646762659E+02  0.00000000000E+00 0.  1.
          6    1    1    2  501    0  0.10445352103E+03 -0.10235543300E+02  0.22092023076E+03  0.29958313164E+03  0.17300000000E+03 0. -1.
         -6    1    1    2    0  502 -0.10445352103E+03  0.10235543300E+02  0.41571273954E+03  0.46234336398E+03  0.17300000000E+03 0. -1.
<mgrwt>
<rscale>  2 0.20234699E+03</rscale>
<asrwt>0</asrwt>
<pdfrwt beam="1">  1       21 0.10758149E+00 0.20234699E+03</pdfrwt>
<pdfrwt beam="2">  1       21 0.96379640E-02 0.20234699E+03</pdfrwt>
<totfact> 0.59390766E+04</totfact>
</mgrwt>
</event>
<event>
 4    1  0.3945627E+000  0.1804866E+03  0.7546771E-02  0.1167333E+00
         21   -1    0    0  501  502  0.00000000000E+00  0.00000000000E+00  0.69229623785E+03  0.69229623785E+03  0.00000000000E+00 0. -1.
         21   -1    0    0  502  503 -0.00000000000E+00 -0.00000000000E+00 -0.49477005321E+02  0.49477005321E+02  0.00000000000E+00 0. -1.
          6    1    1    2  501    0 -0.44427810660E+02  0.25933930402E+02  0.40348345533E+03  0.44201164898E+03  0.17300000000E+03 0. -1.
         -6    1    1    2    0  503  0.44427810660E+02 -0.25933930402E+02  0.23933577720E+03  0.29976159419E+03  0.17300000000E+03 0. -1.
<mgrwt>
<rscale>  2 0.18048656E+03</rscale>
<asrwt>0</asrwt>
<pdfrwt beam="1">  1       21 0.10650711E+00 0.18048656E+03</pdfrwt>
<pdfrwt beam="2">  1       21 0.76118475E-02 0.18048656E+03</pdfrwt>
<totfact> 0.92853284E+04</totfact>
</mgrwt>
</event>
<event>
 4    1  0.3945627E+000  0.1983266E+03  0.7546771E-02  0.1151159E+00
         21   -1    0    0  503  502  0.00000000000E+00  0.00000000000E+00  0.26511839549E+03  0.26511839549E+03  0.00000000000E+00 0. -1.
         21   -1    0    0  501  503 -0.00000000000E+00 -0.00000000000E+00 -0.36276142439E+03  0.36276142439E+03  0.00000000000E+00 0. -1.
          6    1    1    2  501    0 -0.89157234127E+02  0.38150116491E+02 -0.29017189324E+03  0.35147286014E+03  0.17300000000E+03 0. -1.
         -6    1    1    2    0  502  0.89157234127E+02 -0.38150116491E+02  0.19252886435E+03  0.27640695974E+03  0.17300000000E+03 0. -1.
<mgrwt>
<rscale>  2 0.19832661E+03</rscale>
<asrwt>0</asrwt>
<pdfrwt beam="1">  1       21 0.40787445E-01 0.19832661E+03</pdfrwt>
<pdfrwt beam="2">  1       21 0.55809450E-01 0.19832661E+03</pdfrwt>
<totfact> 0.17450045E+04</totfact>
</mgrwt>
</event>
<event>
 4    1  0.3945627E+000  0.1775852E+03  0.7546771E-02  0.1170161E+00
         21   -1    0    0  501  502  0.00000000000E+00  0.00000000000E+00  0.89026320485E+03  0.89026320485E+03  0.00000000000E+00 0. -1.
         21   -1    0    0  502  503 -0.00000000000E+00 -0.00000000000E+00 -0.37767270784E+02  0.37767270784E+02  0.00000000000E+00 0. -1.
          6    1    1    2  501    0 -0.34813692656E+02  0.19887641488E+02  0.54183353552E+03  0.57019303021E+03  0.17300000000E+03 0. -1.
         -6    1    1    2    0  503  0.34813692656E+02 -0.19887641488E+02  0.31066239854E+03  0.35783744542E+03  0.17300000000E+03 0. -1.
<mgrwt>
<rscale>  2 0.17758522E+03</rscale>
<asrwt>0</asrwt>
<pdfrwt beam="1">  1       21 0.13696355E+00 0.17758522E+03</pdfrwt>
<pdfrwt beam="2">  1       21 0.58103500E-02 0.17758522E+03</pdfrwt>
<totfact> 0.79453708E+04</totfact>
</mgrwt>
</event>
<event>
 4    1  0.3945627E+000  0.1893638E+03  0.7546771E-02  0.1159036E+00
         21   -1    0    0  501  502  0.00000000000E+00  0.00000000000E+00  0.49473183481E+03  0.49473183481E+03  0.00000000000E+00 0. -1.
         21   -1    0    0  502  503 -0.00000000000E+00 -0.00000000000E+00 -0.74089326646E+02  0.74089326646E+02  0.00000000000E+00 0. -1.
          6    1    1    2  501    0 -0.60909469770E+02 -0.47113645889E+02  0.16841732210E+03  0.25342267760E+03  0.17300000000E+03 0. -1.
         -6    1    1    2    0  503  0.60909469770E+02  0.47113645889E+02  0.25222518606E+03  0.31539848385E+03  0.17300000000E+03 0. -1.
<mgrwt>
<rscale>  2 0.18936383E+03</rscale>
<asrwt>0</asrwt>
<pdfrwt beam="1">  1       21 0.76112588E-01 0.18936383E+03</pdfrwt>
<pdfrwt beam="2">  1       21 0.11398358E-01 0.18936383E+03</pdfrwt>
<totfact> 0.99092653E+04</totfact>
</mgrwt>
</event>
<event>
 4    1  0.3945627E+000  0.1848518E+03  0.7546771E-02  0.1163188E+00
         21   -1    0    0  503  502  0.00000000000E+00  0.00000000000E+00  0.78066564248E+03  0.78066564248E+03  0.00000000000E+00 0. -1.
         21   -1    0    0  501  503 -0.00000000000E+00 -0.00000000000E+00 -0.96574896671E+02  0.96574896671E+02  0.00000000000E+00 0.  1.
          6    1    1    2  501    0  0.35607682884E+02  0.54527691427E+02  0.17712217936E+02  0.18569840839E+03  0.17300000000E+03 0.  1.
         -6    1    1    2    0  502 -0.35607682884E+02 -0.54527691427E+02  0.66637852787E+03  0.69154213077E+03  0.17300000000E+03 0. -1.
<mgrwt>
<rscale>  2 0.18485177E+03</rscale>
<asrwt>0</asrwt>
<pdfrwt beam="1">  1       21 0.12010240E+00 0.18485177E+03</pdfrwt>
<pdfrwt beam="2">  1       21 0.14857677E-01 0.18485177E+03</pdfrwt>
<totfact> 0.21137492E+04</totfact>
</mgrwt>
</event>
<event>
 4    1  0.3945627E+000  0.1848870E+03  0.7546771E-02  0.1163155E+00
         21   -1    0    0  501  502  0.00000000000E+00  0.00000000000E+00  0.14333266078E+03  0.14333266078E+03  0.00000000000E+00 0. -1.
         21   -1    0    0  502  503 -0.00000000000E+00 -0.00000000000E+00 -0.24528225624E+03  0.24528225624E+03  0.00000000000E+00 0.  1.
          6    1    1    2  501    0  0.52465204882E+02  0.38750444678E+02 -0.83312609121E+02  0.20279098975E+03  0.17300000000E+03 0.  1.
         -6    1    1    2    0  503 -0.52465204882E+02 -0.38750444678E+02 -0.18636986337E+02  0.18582392727E+03  0.17300000000E+03 0.  1.
<mgrwt>
<rscale>  2 0.18488698E+03</rscale>
<asrwt>0</asrwt>
<pdfrwt beam="1">  1       21 0.22051179E-01 0.18488698E+03</pdfrwt>
<pdfrwt beam="2">  1       21 0.37735732E-01 0.18488698E+03</pdfrwt>
<totfact> 0.13050564E+05</totfact>
</mgrwt>
</event>
<event>
 4    1  0.3945627E+000  0.2866018E+03  0.7546771E-02  0.1092137E+00
         21   -1    0    0  503  502  0.00000000000E+00  0.00000000000E+00  0.25863668148E+04  0.25863668148E+04  0.00000000000E+00 0. -1.
         21   -1    0    0  501  503 -0.00000000000E+00 -0.00000000000E+00 -0.52383826260E+02  0.52383826260E+02  0.00000000000E+00 0.  1.
          6    1    1    2  501    0  0.22046272880E+03 -0.60064765500E+02  0.43911754588E+03  0.52437087060E+03  0.17300000000E+03 0.  1.
         -6    1    1    2    0  502 -0.22046272880E+03  0.60064765500E+02  0.20948654427E+04  0.21143797705E+04  0.17300000000E+03 0. -1.
<mgrwt>
<rscale>  2 0.28660180E+03</rscale>
<asrwt>0</asrwt>
<pdfrwt beam="1">  1       21 0.39790249E+00 0.28660180E+03</pdfrwt>
<pdfrwt beam="2">  1       21 0.80590522E-02 0.28660180E+03</pdfrwt>
<totfact> 0.94569616E+02</totfact>
</mgrwt>
</event>
<event>
 4    1  0.3945627E+000  0.1980583E+03  0.7546771E-02  0.1151388E+00
         21   -1    0    0  501  502  0.00000000000E+00  0.00000000000E+00  0.31842025710E+03  0.31842025710E+03  0.00000000000E+00 0. -1.
         21   -1    0    0  502  503 -0.00000000000E+00 -0.00000000000E+00 -0.13222601455E+03  0.13222601455E+03  0.00000000000E+00 0. -1.
          6    1    1    2  501    0  0.46369561738E+02  0.84545550779E+02  0.15199074014E+03  0.24965630675E+03  0.17300000000E+03 0. -1.
         -6    1    1    2    0  503 -0.46369561738E+02 -0.84545550779E+02  0.34203502413E+02  0.20098996490E+03  0.17300000000E+03 0. -1.
<mgrwt>
<rscale>  2 0.19805829E+03</rscale>
<asrwt>0</asrwt>
<pdfrwt beam="1">  1       21 0.48987732E-01 0.19805829E+03</pdfrwt>
<pdfrwt beam="2">  1       21 0.20342464E-01 0.19805829E+03</pdfrwt>
<totfact> 0.88715122E+04</totfact>
</mgrwt>
</event>
<event>
 4    1  0.3945627E+000  0.2069765E+03  0.7546771E-02  0.1143983E+00
         21   -1    0    0  503  502  0.00000000000E+00  0.00000000000E+00  0.14859095516E+03  0.14859095516E+03  0.00000000000E+00 0.  1.
         21   -1    0    0  501  503 -0.00000000000E+00 -0.00000000000E+00 -0.34421774567E+03  0.34421774567E+03  0.00000000000E+00 0. -1.
          6    1    1    2  501    0 -0.67470131890E+02 -0.91422396615E+02 -0.19712350886E+03  0.28582678504E+03  0.17300000000E+03 0. -1.
         -6    1    1    2    0  502  0.67470131890E+02  0.91422396615E+02  0.14967183364E+01  0.20698191579E+03  0.17300000000E+03 0.  1.
<mgrwt>
<rscale>  2 0.20697650E+03</rscale>
<asrwt>0</asrwt>
<pdfrwt beam="1">  1       21 0.22860148E-01 0.20697650E+03</pdfrwt>
<pdfrwt beam="2">  1       21 0.52956575E-01 0.20697650E+03</pdfrwt>
<totfact> 0.60256920E+04</totfact>
</mgrwt>
</event>
<event>
 4    1  0.3945627E+000  0.1730340E+03  0.7546771E-02  0.1174720E+00
         21   -1    0    0  503  502  0.00000000000E+00  0.00000000000E+00  0.79760884073E+03  0.79760884073E+03  0.00000000000E+00 0. -1.
         21   -1    0    0  501  503 -0.00000000000E+00 -0.00000000000E+00 -0.73861341909E+02  0.73861341909E+02  0.00000000000E+00 0. -1.
          6    1    1    2  501    0  0.34157414484E+01  0.31798432744E+00  0.56307149496E+02  0.18196500622E+03  0.17300000000E+03 0. -1.
         -6    1    1    2    0  502 -0.34157414484E+01 -0.31798432744E+00  0.66744034932E+03  0.68950517642E+03  0.17300000000E+03 0. -1.
<mgrwt>
<rscale>  2 0.17303401E+03</rscale>
<asrwt>0</asrwt>
<pdfrwt beam="1">  1       21 0.12270905E+00 0.17303401E+03</pdfrwt>
<pdfrwt beam="2">  1       21 0.11363284E-01 0.17303401E+03</pdfrwt>
<totfact> 0.32687712E+04</totfact>
</mgrwt>
</event>
<event>
 4    1  0.3945627E+000  0.2085510E+03  0.7546771E-02  0.1142719E+00
         21   -1    0    0  503  502  0.00000000000E+00  0.00000000000E+00  0.15241531821E+03  0.15241531821E+03  0.00000000000E+00 0.  1.
         21   -1    0    0  501  503 -0.00000000000E+00 -0.00000000000E+00 -0.74535427268E+03  0.74535427268E+03  0.00000000000E+00 0. -1.
          6    1    1    2  501    0  0.11643002251E+03 -0.29271170072E+01 -0.64910727319E+03  0.68178718840E+03  0.17300000000E+03 0. -1.
         -6    1    1    2    0  502 -0.11643002251E+03  0.29271170072E+01  0.56168318724E+02  0.21598240249E+03  0.17300000000E+03 0.  1.
<mgrwt>
<rscale>  2 0.20855100E+03</rscale>
<asrwt>0</asrwt>
<pdfrwt beam="1">  1       21 0.23448510E-01 0.20855100E+03</pdfrwt>
<pdfrwt beam="2">  1       21 0.11466989E+00 0.20855100E+03</pdfrwt>
<totfact> 0.99884980E+03</totfact>
</mgrwt>
</event>
<event>
 4    1  0.3945627E+000  0.2225879E+03  0.7546771E-02  0.1131968E+00
         21   -1    0    0  501  502  0.00000000000E+00  0.00000000000E+00  0.31099164361E+03  0.31099164361E+03  0.00000000000E+00 0. -1.
         21   -1    0    0  502  503 -0.00000000000E+00 -0.00000000000E+00 -0.18206038058E+03  0.18206038058E+03  0.00000000000E+00 0. -1.
          6    1    1    2  501    0 -0.50008575024E+02  0.13082624758E+03 -0.22672830649E+02  0.22373962966E+03  0.17300000000E+03 0. -1.
         -6    1    1    2    0  503  0.50008575024E+02 -0.13082624758E+03  0.15160409368E+03  0.26931239454E+03  0.17300000000E+03 0. -1.
<mgrwt>
<rscale>  2 0.22258788E+03</rscale>
<asrwt>0</asrwt>
<pdfrwt beam="1">  1       21 0.47844868E-01 0.22258788E+03</pdfrwt>
<pdfrwt beam="2">  1       21 0.28009289E-01 0.22258788E+03</pdfrwt>
<totfact> 0.50131499E+04</totfact>
</mgrwt>
</event>
<event>
 4    1  0.3945627E+000  0.2482791E+03  0.7546771E-02  0.1114397E+00
         21   -1    0    0  501  502  0.00000000000E+00  0.00000000000E+00  0.95148803108E+03  0.95148803108E+03  0.00000000000E+00 0.  1.
         21   -1    0    0  502  503 -0.00000000000E+00 -0.00000000000E+00 -0.10669448415E+03  0.10669448415E+03  0.00000000000E+00 0. -1.
          6    1    1    2  501    0  0.48963704314E+02  0.17121937149E+03  0.90797348095E+02  0.26436088200E+03  0.17300000000E+03 0. -1.
         -6    1    1    2    0  503 -0.48963704314E+02 -0.17121937149E+03  0.75399619884E+03  0.79382163322E+03  0.17300000000E+03 0.  1.
<mgrwt>
<rscale>  2 0.24827911E+03</rscale>
<asrwt>0</asrwt>
<pdfrwt beam="1">  1       21 0.14638277E+00 0.24827911E+03</pdfrwt>
<pdfrwt beam="2">  1       21 0.16414537E-01 0.24827911E+03</pdfrwt>
<totfact> 0.10209303E+04</totfact>
</mgrwt>
</event>
<event>
 4    1  0.3945627E+000  0.2035409E+03  0.7546771E-02  0.1146786E+00
         21   -1    0    0  501  502  0.00000000000E+00  0.00000000000E+00  0.53117631024E+02  0.53117631024E+02  0.00000000000E+00 0. -1.
         21   -1    0    0  502  503 -0.00000000000E+00 -0.00000000000E+00 -0.89299242354E+03  0.89299242354E+03  0.00000000000E+00 0. -1.
          6    1    1    2  501    0  0.78654505557E+02  0.72892722589E+02 -0.25162491644E+03  0.32364174457E+03  0.17300000000E+03 0. -1.
         -6    1    1    2    0  503 -0.78654505557E+02 -0.72892722589E+02 -0.58824987607E+03  0.62246831000E+03  0.17300000000E+03 0. -1.
<mgrwt>
<rscale>  2 0.20354086E+03</rscale>
<asrwt>0</asrwt>
<pdfrwt beam="1">  1       21 0.81719436E-02 0.20354086E+03</pdfrwt>
<pdfrwt beam="2">  1       21 0.13738344E+00 0.20354086E+03</pdfrwt>
<totfact> 0.43173476E+04</totfact>
</mgrwt>
</event>
<event>
 4    1  0.3945627E+000  0.2320686E+03  0.7546771E-02  0.1125192E+00
         21   -1    0    0  503  502  0.00000000000E+00  0.00000000000E+00  0.18693668662E+03  0.18693668662E+03  0.00000000000E+00 0.  1.
         21   -1    0    0  501  503 -0.00000000000E+00 -0.00000000000E+00 -0.69444529812E+03  0.69444529812E+03  0.00000000000E+00 0.  1.
          6    1    1    2  501    0  0.86695492656E+02 -0.12810427737E+03 -0.59085885728E+03  0.63479918364E+03  0.17300000000E+03 0.  1.
         -6    1    1    2    0  502 -0.86695492656E+02  0.12810427737E+03  0.83350245773E+02  0.24658280110E+03  0.17300000000E+03 0.  1.
<mgrwt>
<rscale>  2 0.23206856E+03</rscale>
<asrwt>0</asrwt>
<pdfrwt beam="1">  1       21 0.28759490E-01 0.23206856E+03</pdfrwt>
<pdfrwt beam="2">  1       21 0.10683774E+00 0.23206856E+03</pdfrwt>
<totfact> 0.78866299E+03</totfact>
</mgrwt>
</event>
<event>
 4    1  0.3945627E+000  0.2018896E+03  0.7546771E-02  0.1148154E+00
         21   -1    0    0  503  502  0.00000000000E+00  0.00000000000E+00  0.29039734246E+03  0.29039734246E+03  0.00000000000E+00 0. -1.
         21   -1    0    0  501  503 -0.00000000000E+00 -0.00000000000E+00 -0.28090100481E+03  0.28090100481E+03  0.00000000000E+00 0. -1.
          6    1    1    2  501    0 -0.44440588722E+02 -0.94103398646E+02 -0.19730323492E+03  0.28229059863E+03  0.17300000000E+03 0.  1.
         -6    1    1    2    0  502  0.44440588722E+02  0.94103398646E+02  0.20679957257E+03  0.28900774865E+03  0.17300000000E+03 0.  1.
<mgrwt>
<rscale>  2 0.20188961E+03</rscale>
<asrwt>0</asrwt>
<pdfrwt beam="1">  1       21 0.44676514E-01 0.20188961E+03</pdfrwt>
<pdfrwt beam="2">  1       21 0.43215539E-01 0.20188961E+03</pdfrwt>
<totfact> 0.24627316E+04</totfact>
</mgrwt>
</event>
<event>
 4    1  0.3945627E+000  0.4219436E+03  0.7546771E-02  0.1036436E+00
         21   -1    0    0  503  502  0.00000000000E+00  0.00000000000E+00  0.26496338344E+03  0.26496338344E+03  0.00000000000E+00 0.  1.
         21   -1    0    0  501  503 -0.00000000000E+00 -0.00000000000E+00 -0.12059803842E+04  0.12059803842E+04  0.00000000000E+00 0. -1.
          6    1    1    2  501    0  0.29915204032E+03  0.24210627421E+03 -0.95993532324E+03  0.10485762805E+04  0.17300000000E+03 0. -1.
         -6    1    1    2    0  502 -0.29915204032E+03 -0.24210627421E+03  0.18918322505E+02  0.42236748710E+03  0.17300000000E+03 0.  1.
<mgrwt>
<rscale>  2 0.42194359E+03</rscale>
<asrwt>0</asrwt>
<pdfrwt beam="1">  1       21 0.40763598E-01 0.42194359E+03</pdfrwt>
<pdfrwt beam="2">  1       21 0.18553544E+00 0.42194359E+03</pdfrwt>
<totfact> 0.81846736E+02</totfact>
</mgrwt>
</event>
<event>
 4    1  0.3945627E+000  0.2048873E+03  0.7546771E-02  0.1145680E+00
         21   -1    0    0  501  502  0.00000000000E+00  0.00000000000E+00  0.34063236968E+03  0.34063236968E+03  0.00000000000E+00 0.  1.
         21   -1    0    0  502  503 -0.00000000000E+00 -0.00000000000E+00 -0.12354444479E+03  0.12354444479E+03  0.00000000000E+00 0. -1.
          6    1    1    2  501    0  0.10976200045E+03 -0.14453630289E+01  0.96981361374E+02  0.22668076731E+03  0.17300000000E+03 0.  1.
         -6    1    1    2    0  503 -0.10976200045E+03  0.14453630289E+01  0.12010656352E+03  0.23749604716E+03  0.17300000000E+03 0.  1.
<mgrwt>
<rscale>  2 0.20488725E+03</rscale>
<asrwt>0</asrwt>
<pdfrwt beam="1">  1       21 0.52404980E-01 0.20488725E+03</pdfrwt>
<pdfrwt beam="2">  1       21 0.19006838E-01 0.20488725E+03</pdfrwt>
<totfact> 0.87207606E+04</totfact>
</mgrwt>
</event>
<event>
 4    1  0.3945627E+000  0.3477336E+03  0.7546771E-02  0.1063549E+00
         21   -1    0    0  503  502  0.00000000000E+00  0.00000000000E+00  0.38658443698E+03  0.38658443698E+03  0.00000000000E+00 0.  1.
         21   -1    0    0  501  503 -0.00000000000E+00 -0.00000000000E+00 -0.49171658222E+03  0.49171658222E+03  0.00000000000E+00 0. -1.
          6    1    1    2  501    0 -0.20804126882E+03 -0.21842275686E+03 -0.31747510986E+03  0.47085997454E+03  0.17300000000E+03 0. -1.
         -6    1    1    2    0  502  0.20804126882E+03  0.21842275686E+03  0.21234296462E+03  0.40744104466E+03  0.17300000000E+03 0.  1.
<mgrwt>
<rscale>  2 0.34773362E+03</rscale>
<asrwt>0</asrwt>
<pdfrwt beam="1">  1       21 0.59474528E-01 0.34773362E+03</pdfrwt>
<pdfrwt beam="2">  1       21 0.75648706E-01 0.34773362E+03</pdfrwt>
<totfact> 0.37475956E+03</totfact>
</mgrwt>
</event>
<event>
 4    1  0.3945627E+000  0.1785906E+03  0.7546771E-02  0.1169174E+00
         21   -1    0    0  503  502  0.00000000000E+00  0.00000000000E+00  0.14436295623E+03  0.14436295623E+03  0.00000000000E+00 0.  1.
         21   -1    0    0  501  503 -0.00000000000E+00 -0.00000000000E+00 -0.51921405055E+03  0.51921405055E+03  0.00000000000E+00 0.  1.
          6    1    1    2  501    0  0.73123145848E+01  0.43727800772E+02 -0.43890395243E+03  0.47384730659E+03  0.17300000000E+03 0.  1.
         -6    1    1    2    0  502 -0.73123145848E+01 -0.43727800772E+02  0.64052858108E+02  0.18972970020E+03  0.17300000000E+03 0.  1.
<mgrwt>
<rscale>  2 0.17859057E+03</rscale>
<asrwt>0</asrwt>
<pdfrwt beam="1">  1       21 0.22209686E-01 0.17859057E+03</pdfrwt>
<pdfrwt beam="2">  1       21 0.79879083E-01 0.17859057E+03</pdfrwt>
<totfact> 0.26377882E+04</totfact>
</mgrwt>
</event>
<event>
 4    1  0.3945627E+000  0.2097687E+03  0.7546771E-02  0.1141749E+00
         21   -1    0    0  501  502  0.00000000000E+00  0.00000000000E+00  0.10397621667E+03  0.10397621667E+03  0.00000000000E+00 0.  1.
         21   -1    0    0  502  503 -0.00000000000E+00 -0.00000000000E+00 -0.84951338164E+03  0.84951338164E+03  0.00000000000E+00 0.  1.
          6    1    1    2  501    0  0.65154476358E+02 -0.99140336955E+02 -0.35042606231E+02  0.21267556619E+03  0.17300000000E+03 0.  1.
         -6    1    1    2    0  503 -0.65154476358E+02  0.99140336955E+02 -0.71049455874E+03  0.74081403213E+03  0.17300000000E+03 0.  1.
<mgrwt>
<rscale>  2 0.20976871E+03</rscale>
<asrwt>0</asrwt>
<pdfrwt beam="1">  1       21 0.15996342E-01 0.20976871E+03</pdfrwt>
<pdfrwt beam="2">  1       21 0.13069436E+00 0.20976871E+03</pdfrwt>
<totfact> 0.14705083E+04</totfact>
</mgrwt>
</event>
<event>
 4    1  0.3945627E+000  0.1855553E+03  0.7546771E-02  0.1162532E+00
         21   -1    0    0  503  502  0.00000000000E+00  0.00000000000E+00  0.37827120643E+03  0.37827120643E+03  0.00000000000E+00 0. -1.
         21   -1    0    0  501  503 -0.00000000000E+00 -0.00000000000E+00 -0.11353075049E+03  0.11353075049E+03  0.00000000000E+00 0. -1.
          6    1    1    2  501    0  0.50851722711E+02  0.43770780946E+02  0.24186285547E+03  0.30484163073E+03  0.17300000000E+03 0. -1.
         -6    1    1    2    0  502 -0.50851722711E+02 -0.43770780946E+02  0.22877600473E+02  0.18696032619E+03  0.17300000000E+03 0. -1.
<mgrwt>
<rscale>  2 0.18555533E+03</rscale>
<asrwt>0</asrwt>
<pdfrwt beam="1">  1       21 0.58195570E-01 0.18555533E+03</pdfrwt>
<pdfrwt beam="2">  1       21 0.17466269E-01 0.18555533E+03</pdfrwt>
<totfact> 0.82342253E+04</totfact>
</mgrwt>
</event>
<event>
 4    1  0.3945627E+000  0.1968633E+03  0.7546771E-02  0.1152413E+00
         21   -1    0    0  503  502  0.00000000000E+00  0.00000000000E+00  0.41988176083E+03  0.41988176083E+03  0.00000000000E+00 0. -1.
         21   -1    0    0  501  503 -0.00000000000E+00 -0.00000000000E+00 -0.16565416810E+03  0.16565416810E+03  0.00000000000E+00 0.  1.
          6    1    1    2  501    0 -0.89623373044E+02 -0.28174635255E+02 -0.67706525244E+02  0.20818100929E+03  0.17300000000E+03 0.  1.
         -6    1    1    2    0  502  0.89623373044E+02  0.28174635255E+02  0.32193411797E+03  0.37735491964E+03  0.17300000000E+03 0. -1.
<mgrwt>
<rscale>  2 0.19686330E+03</rscale>
<asrwt>0</asrwt>
<pdfrwt beam="1">  1       21 0.64597194E-01 0.19686330E+03</pdfrwt>
<pdfrwt beam="2">  1       21 0.25485257E-01 0.19686330E+03</pdfrwt>
<totfact> 0.32181130E+04</totfact>
</mgrwt>
</event>
<event>
 4    1  0.3945627E+000  0.1777456E+03  0.7546771E-02  0.1170003E+00
         21   -1    0    0  501  502  0.00000000000E+00  0.00000000000E+00  0.14307348211E+03  0.14307348211E+03  0.00000000000E+00 0. -1.
         21   -1    0    0  502  503 -0.00000000000E+00 -0.00000000000E+00 -0.27591643363E+03  0.27591643363E+03  0.00000000000E+00 0. -1.
          6    1    1    2  501    0 -0.16905176593E+02  0.37131202467E+02  0.27193612208E+02  0.17981380297E+03  0.17300000000E+03 0. -1.
         -6    1    1    2    0  503  0.16905176593E+02 -0.37131202467E+02 -0.16003656372E+03  0.23917611277E+03  0.17300000000E+03 0. -1.
<mgrwt>
<rscale>  2 0.17774564E+03</rscale>
<asrwt>0</asrwt>
<pdfrwt beam="1">  1       21 0.22011305E-01 0.17774564E+03</pdfrwt>
<pdfrwt beam="2">  1       21 0.42448682E-01 0.17774564E+03</pdfrwt>
<totfact> 0.10354399E+05</totfact>
</mgrwt>
</event>
<event>
 4    1  0.3945627E+000  0.1804357E+03  0.7546771E-02  0.1167382E+00
         21   -1    0    0  501  502  0.00000000000E+00  0.00000000000E+00  0.94515357943E+02  0.94515357943E+02  0.00000000000E+00 0.  1.
         21   -1    0    0  502  503 -0.00000000000E+00 -0.00000000000E+00 -0.10902391575E+04  0.10902391575E+04  0.00000000000E+00 0.  1.
          6    1    1    2  501    0 -0.43790029611E+02  0.26654825159E+02 -0.79232194888E+01  0.18060958946E+03  0.17300000000E+03 0.  1.
         -6    1    1    2    0  503  0.43790029611E+02 -0.26654825159E+02 -0.98780058006E+03  0.10041449260E+04  0.17300000000E+03 0.  1.
<mgrwt>
<rscale>  2 0.18043571E+03</rscale>
<asrwt>0</asrwt>
<pdfrwt beam="1">  1       21 0.14540825E-01 0.18043571E+03</pdfrwt>
<pdfrwt beam="2">  1       21 0.16772909E+00 0.18043571E+03</pdfrwt>
<totfact> 0.92815348E+03</totfact>
</mgrwt>
</event>
<event>
 4    1  0.3945627E+000  0.1743119E+03  0.7546771E-02  0.1173424E+00
         21   -1    0    0  503  502  0.00000000000E+00  0.00000000000E+00  0.18707074075E+03  0.18707074075E+03  0.00000000000E+00 0.  1.
         21   -1    0    0  501  503 -0.00000000000E+00 -0.00000000000E+00 -0.20748964195E+03  0.20748964195E+03  0.00000000000E+00 0.  1.
          6    1    1    2  501    0 -0.89345250803E+01  0.19385459165E+02 -0.10215105434E+03  0.20203826288E+03  0.17300000000E+03 0.  1.
         -6    1    1    2    0  502  0.89345250803E+01 -0.19385459165E+02  0.81732153131E+02  0.19252211982E+03  0.17300000000E+03 0.  1.
<mgrwt>
<rscale>  2 0.17431185E+03</rscale>
<asrwt>0</asrwt>
<pdfrwt beam="1">  1       21 0.28780114E-01 0.17431185E+03</pdfrwt>
<pdfrwt beam="2">  1       21 0.31921483E-01 0.17431185E+03</pdfrwt>
<totfact> 0.10976031E+05</totfact>
</mgrwt>
</event>
<event>
 4    1  0.3945627E+000  0.3292330E+03  0.7546771E-02  0.1071477E+00
         21   -1    0    0  503  502  0.00000000000E+00  0.00000000000E+00  0.17161392994E+04  0.17161392994E+04  0.00000000000E+00 0. -1.
         21   -1    0    0  501  503 -0.00000000000E+00 -0.00000000000E+00 -0.84575603681E+02  0.84575603681E+02  0.00000000000E+00 0. -1.
          6    1    1    2  501    0 -0.20188092759E+03 -0.19418920448E+03  0.36273839668E+03  0.48987090186E+03  0.17300000000E+03 0. -1.
         -6    1    1    2    0  502  0.20188092759E+03  0.19418920448E+03  0.12688252991E+04  0.13108440012E+04  0.17300000000E+03 0. -1.
<mgrwt>
<rscale>  2 0.32923298E+03</rscale>
<asrwt>0</asrwt>
<pdfrwt beam="1">  1       21 0.26402140E+00 0.32923298E+03</pdfrwt>
<pdfrwt beam="2">  1       21 0.13011633E-01 0.32923298E+03</pdfrwt>
<totfact> 0.24810609E+03</totfact>
</mgrwt>
</event>
<event>
 4    1  0.3945627E+000  0.1953876E+03  0.7546771E-02  0.1153690E+00
         21   -1    0    0  503  502  0.00000000000E+00  0.00000000000E+00  0.74451939129E+03  0.74451939129E+03  0.00000000000E+00 0.  1.
         21   -1    0    0  501  503 -0.00000000000E+00 -0.00000000000E+00 -0.83959134436E+02  0.83959134436E+02  0.00000000000E+00 0.  1.
          6    1    1    2  501    0 -0.73521756238E+02  0.53309241045E+02  0.71830428112E+02  0.20817284699E+03  0.17300000000E+03 0.  1.
         -6    1    1    2    0  502  0.73521756238E+02 -0.53309241045E+02  0.58872982875E+03  0.62030567874E+03  0.17300000000E+03 0.  1.
<mgrwt>
<rscale>  2 0.19538762E+03</rscale>
<asrwt>0</asrwt>
<pdfrwt beam="1">  1       21 0.11454144E+00 0.19538762E+03</pdfrwt>
<pdfrwt beam="2">  1       21 0.12916790E-01 0.19538762E+03</pdfrwt>
<totfact> 0.30393872E+04</totfact>
</mgrwt>
</event>
<event>
 4    1  0.3945627E+000  0.2581006E+03  0.7546771E-02  0.1108290E+00
         21   -1    0    0  503  502  0.00000000000E+00  0.00000000000E+00  0.61785385331E+03  0.61785385331E+03  0.00000000000E+00 0.  1.
         21   -1    0    0  501  503 -0.00000000000E+00 -0.00000000000E+00 -0.10788457811E+03  0.10788457811E+03  0.00000000000E+00 0. -1.
          6    1    1    2  501    0 -0.11318268782E-01  0.19153825820E+03  0.26398392073E+03  0.36919292367E+03  0.17300000000E+03 0. -1.
         -6    1    1    2    0  502  0.11318268782E-01 -0.19153825820E+03  0.24598535447E+03  0.35654550775E+03  0.17300000000E+03 0. -1.
<mgrwt>
<rscale>  2 0.25810057E+03</rscale>
<asrwt>0</asrwt>
<pdfrwt beam="1">  1       21 0.95054437E-01 0.25810057E+03</pdfrwt>
<pdfrwt beam="2">  1       21 0.16597628E-01 0.25810057E+03</pdfrwt>
<totfact> 0.29165858E+04</totfact>
</mgrwt>
</event>
<event>
 4    1  0.3945627E+000  0.2292799E+03  0.7546771E-02  0.1127148E+00
         21   -1    0    0  501  502  0.00000000000E+00  0.00000000000E+00  0.76182013766E+03  0.76182013766E+03  0.00000000000E+00 0. -1.
         21   -1    0    0  502  503 -0.00000000000E+00 -0.00000000000E+00 -0.74143109848E+02  0.74143109848E+02  0.00000000000E+00 0. -1.
          6    1    1    2  501    0 -0.15031096369E+03  0.68457343076E+01  0.45387373792E+03  0.50849839711E+03  0.17300000000E+03 0. -1.
         -6    1    1    2    0  503  0.15031096369E+03 -0.68457343076E+01  0.23380328989E+03  0.32746485040E+03  0.17300000000E+03 0. -1.
<mgrwt>
<rscale>  2 0.22927985E+03</rscale>
<asrwt>0</asrwt>
<pdfrwt beam="1">  1       21 0.11720309E+00 0.22927985E+03</pdfrwt>
<pdfrwt beam="2">  1       21 0.11406633E-01 0.22927985E+03</pdfrwt>
<totfact> 0.35251199E+04</totfact>
</mgrwt>
</event>
<event>
 4    1  0.3945627E+000  0.1992429E+03  0.7546771E-02  0.1150379E+00
         21   -1    0    0  503  502  0.00000000000E+00  0.00000000000E+00  0.80779428770E+02  0.80779428770E+02  0.00000000000E+00 0. -1.
         21   -1    0    0  501  503 -0.00000000000E+00 -0.00000000000E+00 -0.50028309597E+03  0.50028309597E+03  0.00000000000E+00 0. -1.
          6    1    1    2  501    0  0.64229615768E+02 -0.75121731702E+02 -0.24839266512E+03  0.31842838159E+03  0.17300000000E+03 0. -1.
         -6    1    1    2    0  502 -0.64229615768E+02  0.75121731702E+02 -0.17111100208E+03  0.26263414315E+03  0.17300000000E+03 0. -1.
<mgrwt>
<rscale>  2 0.19924286E+03</rscale>
<asrwt>0</asrwt>
<pdfrwt beam="1">  1       21 0.12427604E-01 0.19924286E+03</pdfrwt>
<pdfrwt beam="2">  1       21 0.76966630E-01 0.19924286E+03</pdfrwt>
<totfact> 0.82456863E+04</totfact>
</mgrwt>
</event>
<event>
 4    1  0.3945627E+000  0.1951610E+03  0.7546771E-02  0.1153887E+00
         21   -1    0    0  501  502  0.00000000000E+00  0.00000000000E+00  0.73683925420E+02  0.73683925420E+02  0.00000000000E+00 0. -1.
         21   -1    0    0  502  503 -0.00000000000E+00 -0.00000000000E+00 -0.10811653099E+04  0.10811653099E+04  0.00000000000E+00 0. -1.
          6    1    1    2  501    0 -0.44825234358E+02  0.78418843575E+02 -0.86594955792E+02  0.21350996003E+03  0.17300000000E+03 0. -1.
         -6    1    1    2    0  503  0.44825234358E+02 -0.78418843575E+02 -0.92088642867E+03  0.94133927527E+03  0.17300000000E+03 0. -1.
<mgrwt>
<rscale>  2 0.19516100E+03</rscale>
<asrwt>0</asrwt>
<pdfrwt beam="1">  1       21 0.11335989E-01 0.19516100E+03</pdfrwt>
<pdfrwt beam="2">  1       21 0.16633312E+00 0.19516100E+03</pdfrwt>
<totfact> 0.14688058E+04</totfact>
</mgrwt>
</event>
<event>
 4    1  0.3945627E+000  0.1881089E+03  0.7546771E-02  0.1160178E+00
         21   -1    0    0  501  502  0.00000000000E+00  0.00000000000E+00  0.22405413008E+03  0.22405413008E+03  0.00000000000E+00 0. -1.
         21   -1    0    0  502  503 -0.00000000000E+00 -0.00000000000E+00 -0.19189266532E+03  0.19189266532E+03  0.00000000000E+00 0. -1.
          6    1    1    2  501    0  0.64427843271E+02  0.36124800868E+02  0.10357451940E+03  0.21473851377E+03  0.17300000000E+03 0. -1.
         -6    1    1    2    0  503 -0.64427843271E+02 -0.36124800868E+02 -0.71413054642E+02  0.20120828164E+03  0.17300000000E+03 0. -1.
<mgrwt>
<rscale>  2 0.18810887E+03</rscale>
<asrwt>0</asrwt>
<pdfrwt beam="1">  1       21 0.34469866E-01 0.18810887E+03</pdfrwt>
<pdfrwt beam="2">  1       21 0.29521948E-01 0.18810887E+03</pdfrwt>
<totfact> 0.89339625E+04</totfact>
</mgrwt>
</event>
<event>
 4    1  0.3945627E+000  0.2904982E+03  0.7546771E-02  0.1090089E+00
         21   -1    0    0  503  502  0.00000000000E+00  0.00000000000E+00  0.41648154774E+03  0.41648154774E+03  0.00000000000E+00 0. -1.
         21   -1    0    0  501  503 -0.00000000000E+00 -0.00000000000E+00 -0.20269686981E+03  0.20269686981E+03  0.00000000000E+00 0.  1.
          6    1    1    2  501    0  0.17888096090E+03  0.14987258423E+03  0.10102551414E+03  0.30756356121E+03  0.17300000000E+03 0. -1.
         -6    1    1    2    0  502 -0.17888096090E+03 -0.14987258423E+03  0.11275916379E+03  0.31161485634E+03  0.17300000000E+03 0. -1.
<mgrwt>
<rscale>  2 0.29049817E+03</rscale>
<asrwt>0</asrwt>
<pdfrwt beam="1">  1       21 0.64074084E-01 0.29049817E+03</pdfrwt>
<pdfrwt beam="2">  1       21 0.31184134E-01 0.29049817E+03</pdfrwt>
<totfact> 0.21158444E+04</totfact>
</mgrwt>
</event>
<event>
 4    1  0.3945627E+000  0.2502060E+03  0.7546771E-02  0.1113175E+00
         21   -1    0    0  503  502  0.00000000000E+00  0.00000000000E+00  0.21583544996E+03  0.21583544996E+03  0.00000000000E+00 0.  1.
         21   -1    0    0  501  503 -0.00000000000E+00 -0.00000000000E+00 -0.31882143426E+03  0.31882143426E+03  0.00000000000E+00 0.  1.
          6    1    1    2  501    0  0.16676876988E+03 -0.69729725301E+02 -0.13179986128E+03  0.28279720761E+03  0.17300000000E+03 0.  1.
         -6    1    1    2    0  502 -0.16676876988E+03  0.69729725301E+02  0.28813876975E+02  0.25185967661E+03  0.17300000000E+03 0.  1.
<mgrwt>
<rscale>  2 0.25020603E+03</rscale>
<asrwt>0</asrwt>
<pdfrwt beam="1">  1       21 0.33205454E-01 0.25020603E+03</pdfrwt>
<pdfrwt beam="2">  1       21 0.49049452E-01 0.25020603E+03</pdfrwt>
<totfact> 0.33675459E+04</totfact>
</mgrwt>
</event>
<event>
 4    1  0.3945627E+000  0.1954801E+03  0.7546771E-02  0.1153609E+00
         21   -1    0    0  503  502  0.00000000000E+00  0.00000000000E+00  0.81939322602E+03  0.81939322602E+03  0.00000000000E+00 0.  1.
         21   -1    0    0  501  503 -0.00000000000E+00 -0.00000000000E+00 -0.44753928244E+03  0.44753928244E+03  0.00000000000E+00 0.  1.
          6    1    1    2  501    0 -0.50656469749E+02 -0.75613558597E+02 -0.41362687682E+03  0.45749282115E+03  0.17300000000E+03 0.  1.
         -6    1    1    2    0  502  0.50656469749E+02  0.75613558597E+02  0.78548082040E+03  0.80943968731E+03  0.17300000000E+03 0.  1.
<mgrwt>
<rscale>  2 0.19548015E+03</rscale>
<asrwt>0</asrwt>
<pdfrwt beam="1">  1       21 0.12606050E+00 0.19548015E+03</pdfrwt>
<pdfrwt beam="2">  1       21 0.68852197E-01 0.19548015E+03</pdfrwt>
<totfact> 0.89485085E+02</totfact>
</mgrwt>
</event>
<event>
 4    1  0.3945627E+000  0.1840333E+03  0.7546771E-02  0.1163956E+00
         21   -1    0    0  503  502  0.00000000000E+00  0.00000000000E+00  0.70144730299E+02  0.70144730299E+02  0.00000000000E+00 0.  1.
         21   -1    0    0  501  503 -0.00000000000E+00 -0.00000000000E+00 -0.89196088609E+03  0.89196088609E+03  0.00000000000E+00 0.  1.
          6    1    1    2  501    0 -0.55803193666E+02  0.28727191795E+02 -0.73670648430E+03  0.75934490976E+03  0.17300000000E+03 0.  1.
         -6    1    1    2    0  502  0.55803193666E+02 -0.28727191795E+02 -0.85109671497E+02  0.20276070663E+03  0.17300000000E+03 0.  1.
<mgrwt>
<rscale>  2 0.18403328E+03</rscale>
<asrwt>0</asrwt>
<pdfrwt beam="1">  1       21 0.10791497E-01 0.18403328E+03</pdfrwt>
<pdfrwt beam="2">  1       21 0.13722475E+00 0.18403328E+03</pdfrwt>
<totfact> 0.26857705E+04</totfact>
</mgrwt>
</event>
<event>
 4    1  0.3945627E+000  0.2744245E+03  0.7546771E-02  0.1098774E+00
         21   -1    0    0  503  502  0.00000000000E+00  0.00000000000E+00  0.97835565025E+03  0.97835565025E+03  0.00000000000E+00 0. -1.
         21   -1    0    0  501  503 -0.00000000000E+00 -0.00000000000E+00 -0.82327169564E+02  0.82327169564E+02  0.00000000000E+00 0.  1.
          6    1    1    2  501    0 -0.10652932511E+03  0.18447577156E+03  0.31279023237E+03  0.41610880412E+03  0.17300000000E+03 0.  1.
         -6    1    1    2    0  502  0.10652932511E+03 -0.18447577156E+03  0.58323824832E+03  0.64457401569E+03  0.17300000000E+03 0. -1.
<mgrwt>
<rscale>  2 0.27442450E+03</rscale>
<asrwt>0</asrwt>
<pdfrwt beam="1">  1       21 0.15051625E+00 0.27442450E+03</pdfrwt>
<pdfrwt beam="2">  1       21 0.12665719E-01 0.27442450E+03</pdfrwt>
<totfact> 0.15010711E+04</totfact>
</mgrwt>
</event>
<event>
 4    1  0.3945627E+000  0.1775053E+03  0.7546771E-02  0.1170240E+00
         21   -1    0    0  503  502  0.00000000000E+00  0.00000000000E+00  0.79829652304E+03  0.79829652304E+03  0.00000000000E+00 0.  1.
         21   -1    0    0  501  503 -0.00000000000E+00 -0.00000000000E+00 -0.45516963770E+02  0.45516963770E+02  0.00000000000E+00 0.  1.
          6    1    1    2  501    0  0.25303995772E+02  0.30640319153E+02  0.22260002519E+03  0.28470843432E+03  0.17300000000E+03 0.  1.
         -6    1    1    2    0  502 -0.25303995772E+02 -0.30640319153E+02  0.53017953408E+03  0.55910505249E+03  0.17300000000E+03 0.  1.
<mgrwt>
<rscale>  2 0.17750527E+03</rscale>
<asrwt>0</asrwt>
<pdfrwt beam="1">  1       21 0.12281484E+00 0.17750527E+03</pdfrwt>
<pdfrwt beam="2">  1       21 0.70026104E-02 0.17750527E+03</pdfrwt>
<totfact> 0.75900963E+04</totfact>
</mgrwt>
</event>
<event>
 4    1  0.3945627E+000  0.2261097E+03  0.7546771E-02  0.1129408E+00
         21   -1    0    0  501  502  0.00000000000E+00  0.00000000000E+00  0.47747441480E+03  0.47747441480E+03  0.00000000000E+00 0.  1.
         21   -1    0    0  502  503 -0.00000000000E+00 -0.00000000000E+00 -0.10909813816E+03  0.10909813816E+03  0.00000000000E+00 0. -1.
          6    1    1    2  501    0  0.12904236071E+03  0.67414206296E+02  0.14424994619E+03  0.26820449855E+03  0.17300000000E+03 0. -1.
         -6    1    1    2    0  503 -0.12904236071E+03 -0.67414206296E+02  0.22412633045E+03  0.31836805441E+03  0.17300000000E+03 0.  1.
<mgrwt>
<rscale>  2 0.22610972E+03</rscale>
<asrwt>0</asrwt>
<pdfrwt beam="1">  1       21 0.73457601E-01 0.22610972E+03</pdfrwt>
<pdfrwt beam="2">  1       21 0.16784329E-01 0.22610972E+03</pdfrwt>
<totfact> 0.52354266E+04</totfact>
</mgrwt>
</event>
<event>
 4    1  0.3945627E+000  0.2317132E+03  0.7546771E-02  0.1125440E+00
         21   -1    0    0  501  502  0.00000000000E+00  0.00000000000E+00  0.12730906496E+04  0.12730906496E+04  0.00000000000E+00 0.  1.
         21   -1    0    0  502  503 -0.00000000000E+00 -0.00000000000E+00 -0.21096131753E+03  0.21096131753E+03  0.00000000000E+00 0. -1.
          6    1    1    2  501    0  0.96641834136E+02 -0.12009308355E+03  0.11947893052E+04  0.12170507288E+04  0.17300000000E+03 0.  1.
         -6    1    1    2    0  503 -0.96641834136E+02  0.12009308355E+03 -0.13265997306E+03  0.26700123834E+03  0.17300000000E+03 0. -1.
<mgrwt>
<rscale>  2 0.23171317E+03</rscale>
<asrwt>0</asrwt>
<pdfrwt beam="1">  1       21 0.19586009E+00 0.23171317E+03</pdfrwt>
<pdfrwt beam="2">  1       21 0.32455588E-01 0.23171317E+03</pdfrwt>
<totfact> 0.12536658E+03</totfact>
</mgrwt>
</event>
<event>
 4    1  0.3945627E+000  0.1904305E+03  0.7546771E-02  0.1158074E+00
         21   -1    0    0  503  502  0.00000000000E+00  0.00000000000E+00  0.11961914431E+03  0.11961914431E+03  0.00000000000E+00 0.  1.
         21   -1    0    0  501  503 -0.00000000000E+00 -0.00000000000E+00 -0.34746725940E+03  0.34746725940E+03  0.00000000000E+00 0.  1.
          6    1    1    2  501    0  0.37978299803E+01  0.79500578236E+02 -0.19732033741E+03  0.27422450840E+03  0.17300000000E+03 0.  1.
         -6    1    1    2    0  502 -0.37978299803E+01 -0.79500578236E+02 -0.30527777688E+02  0.19286189531E+03  0.17300000000E+03 0.  1.
<mgrwt>
<rscale>  2 0.19043047E+03</rscale>
<asrwt>0</asrwt>
<pdfrwt beam="1">  1       21 0.18402945E-01 0.19043047E+03</pdfrwt>
<pdfrwt beam="2">  1       21 0.53456501E-01 0.19043047E+03</pdfrwt>
<totfact> 0.89344140E+04</totfact>
</mgrwt>
</event>
<event>
 4    1  0.3945627E+000  0.3304640E+03  0.7546771E-02  0.1070932E+00
         21   -1    0    0  503  502  0.00000000000E+00  0.00000000000E+00  0.12094496987E+04  0.12094496987E+04  0.00000000000E+00 0. -1.
         21   -1    0    0  501  503 -0.00000000000E+00 -0.00000000000E+00 -0.96243234006E+02  0.96243234006E+02  0.00000000000E+00 0. -1.
          6    1    1    2  501    0  0.13567276168E+03  0.24671917153E+03  0.39429352110E+03  0.51446460388E+03  0.17300000000E+03 0. -1.
         -6    1    1    2    0  502 -0.13567276168E+03 -0.24671917153E+03  0.71891294355E+03  0.79122832879E+03  0.17300000000E+03 0. -1.
<mgrwt>
<rscale>  2 0.33046399E+03</rscale>
<asrwt>0</asrwt>
<pdfrwt beam="1">  1       21 0.18606917E+00 0.33046399E+03</pdfrwt>
<pdfrwt beam="2">  1       21 0.14806652E-01 0.33046399E+03</pdfrwt>
<totfact> 0.60648482E+03</totfact>
</mgrwt>
</event>
<event>
 4    1  0.3945627E+000  0.1824291E+03  0.7546771E-02  0.1165473E+00
         21   -1    0    0  501  502  0.00000000000E+00  0.00000000000E+00  0.48009982318E+02  0.48009982318E+02  0.00000000000E+00 0.  1.
         21   -1    0    0  502  503 -0.00000000000E+00 -0.00000000000E+00 -0.71838475667E+03  0.71838475667E+03  0.00000000000E+00 0.  1.
          6    1    1    2  501    0  0.44550460801E+02  0.36967943201E+02 -0.40694026226E+03  0.44596047968E+03  0.17300000000E+03 0.  1.
         -6    1    1    2    0  503 -0.44550460801E+02 -0.36967943201E+02 -0.26343451209E+03  0.32043425932E+03  0.17300000000E+03 0.  1.
<mgrwt>
<rscale>  2 0.18242909E+03</rscale>
<asrwt>0</asrwt>
<pdfrwt beam="1">  1       21 0.73861520E-02 0.18242909E+03</pdfrwt>
<pdfrwt beam="2">  1       21 0.11052072E+00 0.18242909E+03</pdfrwt>
<totfact> 0.89402314E+04</totfact>
</mgrwt>
</event>
<event>
 4    1  0.3945627E+000  0.2014515E+03  0.7546771E-02  0.1148520E+00
         21   -1    0    0  503  502  0.00000000000E+00  0.00000000000E+00  0.46316868969E+02  0.46316868969E+02  0.00000000000E+00 0. -1.
         21   -1    0    0  501  503 -0.00000000000E+00 -0.00000000000E+00 -0.25391188898E+04  0.25391188898E+04  0.00000000000E+00 0. -1.
          6    1    1    2  501    0 -0.52326690409E+01  0.10308414708E+03 -0.22925609952E+04  0.23013949333E+04  0.17300000000E+03 0. -1.
         -6    1    1    2    0  502  0.52326690409E+01 -0.10308414708E+03 -0.20024102566E+03  0.28404082552E+03  0.17300000000E+03 0. -1.
<mgrwt>
<rscale>  2 0.20145154E+03</rscale>
<asrwt>0</asrwt>
<pdfrwt beam="1">  1       21 0.71256713E-02 0.20145154E+03</pdfrwt>
<pdfrwt beam="2">  1       21 0.39063372E+00 0.20145154E+03</pdfrwt>
<totfact> 0.14418215E+03</totfact>
</mgrwt>
</event>
<event>
 4    1  0.3945627E+000  0.1835166E+03  0.7546771E-02  0.1164442E+00
         21   -1    0    0  501  502  0.00000000000E+00  0.00000000000E+00  0.15473412937E+03  0.15473412937E+03  0.00000000000E+00 0. -1.
         21   -1    0    0  502  503 -0.00000000000E+00 -0.00000000000E+00 -0.45970387196E+03  0.45970387196E+03  0.00000000000E+00 0. -1.
          6    1    1    2  501    0  0.47748467310E+02 -0.38333266762E+02  0.70441922842E+02  0.19657166623E+03  0.17300000000E+03 0. -1.
         -6    1    1    2    0  503 -0.47748467310E+02  0.38333266762E+02 -0.37541166543E+03  0.41786633510E+03  0.17300000000E+03 0. -1.
<mgrwt>
<rscale>  2 0.18351664E+03</rscale>
<asrwt>0</asrwt>
<pdfrwt beam="1">  1       21 0.23805251E-01 0.18351664E+03</pdfrwt>
<pdfrwt beam="2">  1       21 0.70723671E-01 0.18351664E+03</pdfrwt>
<totfact> 0.30266984E+04</totfact>
</mgrwt>
</event>
<event>
 4    1  0.3945627E+000  0.2100037E+03  0.7546771E-02  0.1141563E+00
         21   -1    0    0  501  502  0.00000000000E+00  0.00000000000E+00  0.51282190718E+03  0.51282190718E+03  0.00000000000E+00 0.  1.
         21   -1    0    0  502  503 -0.00000000000E+00 -0.00000000000E+00 -0.14340635558E+03  0.14340635558E+03  0.00000000000E+00 0.  1.
          6    1    1    2  501    0 -0.19386198214E+02  0.11745946751E+03  0.39230860303E+03  0.44498043912E+03  0.17300000000E+03 0.  1.
         -6    1    1    2    0  503  0.19386198214E+02 -0.11745946751E+03 -0.22893051431E+02  0.21124782364E+03  0.17300000000E+03 0.  1.
<mgrwt>
<rscale>  2 0.21000369E+03</rscale>
<asrwt>0</asrwt>
<pdfrwt beam="1">  1       21 0.78895677E-01 0.21000369E+03</pdfrwt>
<pdfrwt beam="2">  1       21 0.22062516E-01 0.21000369E+03</pdfrwt>
<totfact> 0.26982111E+04</totfact>
</mgrwt>
</event>
<event>
 4    1  0.3945627E+000  0.1806491E+03  0.7546771E-02  0.1167176E+00
         21   -1    0    0  503  502  0.00000000000E+00  0.00000000000E+00  0.12651658303E+03  0.12651658303E+03  0.00000000000E+00 0.  1.
         21   -1    0    0  501  503 -0.00000000000E+00 -0.00000000000E+00 -0.26140199188E+03  0.26140199188E+03  0.00000000000E+00 0.  1.
          6    1    1    2  501    0  0.30363629891E+02 -0.42227152965E+02 -0.45131489606E+02  0.18620132605E+03  0.17300000000E+03 0.  1.
         -6    1    1    2    0  502 -0.30363629891E+02  0.42227152965E+02 -0.89753919249E+02  0.20171724886E+03  0.17300000000E+03 0.  1.
<mgrwt>
<rscale>  2 0.18064906E+03</rscale>
<asrwt>0</asrwt>
<pdfrwt beam="1">  1       21 0.19464090E-01 0.18064906E+03</pdfrwt>
<pdfrwt beam="2">  1       21 0.40215691E-01 0.18064906E+03</pdfrwt>
<totfact> 0.14525438E+05</totfact>
</mgrwt>
</event>
<event>
 4    1  0.3945627E+000  0.2014964E+03  0.7546771E-02  0.1148483E+00
         21   -1    0    0  501  502  0.00000000000E+00  0.00000000000E+00  0.18339558123E+04  0.18339558123E+04  0.00000000000E+00 0.  1.
         21   -1    0    0  502  503 -0.00000000000E+00 -0.00000000000E+00 -0.29275257502E+02  0.29275257502E+02  0.00000000000E+00 0.  1.
          6    1    1    2  501    0  0.68107976788E+02  0.77672976658E+02  0.13623223023E+04  0.13771430002E+04  0.17300000000E+03 0.  1.
         -6    1    1    2    0  503 -0.68107976788E+02 -0.77672976658E+02  0.44235825251E+03  0.48608806956E+03  0.17300000000E+03 0.  1.
<mgrwt>
<rscale>  2 0.20149637E+03</rscale>
<asrwt>0</asrwt>
<pdfrwt beam="1">  1       21 0.28214696E+00 0.20149637E+03</pdfrwt>
<pdfrwt beam="2">  1       21 0.45038872E-02 0.20149637E+03</pdfrwt>
<totfact> 0.13762782E+04</totfact>
</mgrwt>
</event>
<event>
 4    1  0.3945627E+000  0.2301895E+03  0.7546771E-02  0.1126506E+00
         21   -1    0    0  501  502  0.00000000000E+00  0.00000000000E+00  0.87021169199E+02  0.87021169199E+02  0.00000000000E+00 0.  1.
         21   -1    0    0  502  503 -0.00000000000E+00 -0.00000000000E+00 -0.62342990788E+03  0.62342990788E+03  0.00000000000E+00 0. -1.
          6    1    1    2  501    0  0.14954521964E+03 -0.26352054356E+02 -0.21397438655E+03  0.31428051417E+03  0.17300000000E+03 0.  1.
         -6    1    1    2    0  503 -0.14954521964E+03  0.26352054356E+02 -0.32243435213E+03  0.39617056291E+03  0.17300000000E+03 0. -1.
<mgrwt>
<rscale>  2 0.23018949E+03</rscale>
<asrwt>0</asrwt>
<pdfrwt beam="1">  1       21 0.13387872E-01 0.23018949E+03</pdfrwt>
<pdfrwt beam="2">  1       21 0.95912293E-01 0.23018949E+03</pdfrwt>
<totfact> 0.42851719E+04</totfact>
</mgrwt>
</event>
<event>
 4    1  0.3945627E+000  0.3111976E+03  0.7546771E-02  0.1079773E+00
         21   -1    0    0  501  502  0.00000000000E+00  0.00000000000E+00  0.13573278980E+04  0.13573278980E+04  0.00000000000E+00 0. -1.
         21   -1    0    0  502  503 -0.00000000000E+00 -0.00000000000E+00 -0.11357589382E+03  0.11357589382E+03  0.00000000000E+00 0. -1.
          6    1    1    2  501    0  0.27722368087E+02  0.25718945930E+03  0.10703176211E+04  0.11146406406E+04  0.17300000000E+03 0. -1.
         -6    1    1    2    0  503 -0.27722368087E+02 -0.25718945930E+03  0.17343438308E+03  0.35626315120E+03  0.17300000000E+03 0. -1.
<mgrwt>
<rscale>  2 0.31119760E+03</rscale>
<asrwt>0</asrwt>
<pdfrwt beam="1">  1       21 0.20881966E+00 0.31119760E+03</pdfrwt>
<pdfrwt beam="2">  1       21 0.17473215E-01 0.31119760E+03</pdfrwt>
<totfact> 0.31895464E+03</totfact>
</mgrwt>
</event>
<event>
 4    1  0.3945627E+000  0.2042162E+03  0.7546771E-02  0.1146230E+00
         21   -1    0    0  503  502  0.00000000000E+00  0.00000000000E+00  0.75396437764E+03  0.75396437764E+03  0.00000000000E+00 0. -1.
         21   -1    0    0  501  503 -0.00000000000E+00 -0.00000000000E+00 -0.55981640735E+02  0.55981640735E+02  0.00000000000E+00 0. -1.
          6    1    1    2  501    0  0.70039701766E+02  0.82883556054E+02  0.30474187339E+03  0.36684036458E+03  0.17300000000E+03 0. -1.
         -6    1    1    2    0  502 -0.70039701766E+02 -0.82883556054E+02  0.39324086351E+03  0.44310565379E+03  0.17300000000E+03 0. -1.
<mgrwt>
<rscale>  2 0.20421617E+03</rscale>
<asrwt>0</asrwt>
<pdfrwt beam="1">  1       21 0.11599451E+00 0.20421617E+03</pdfrwt>
<pdfrwt beam="2">  1       21 0.86125607E-02 0.20421617E+03</pdfrwt>
<totfact> 0.60216129E+04</totfact>
</mgrwt>
</event>
<event>
 4    1  0.3945627E+000  0.2039566E+03  0.7546771E-02  0.1146443E+00
         21   -1    0    0  503  502  0.00000000000E+00  0.00000000000E+00  0.98760550459E+03  0.98760550459E+03  0.00000000000E+00 0.  1.
         21   -1    0    0  501  503 -0.00000000000E+00 -0.00000000000E+00 -0.84568396292E+02  0.84568396292E+02  0.00000000000E+00 0.  1.
          6    1    1    2  501    0 -0.97601820755E+02 -0.46294597352E+02  0.71714181623E+02  0.21619719934E+03  0.17300000000E+03 0.  1.
         -6    1    1    2    0  502  0.97601820755E+02  0.46294597352E+02  0.83132292667E+03  0.85597670154E+03  0.17300000000E+03 0.  1.
<mgrwt>
<rscale>  2 0.20395663E+03</rscale>
<asrwt>0</asrwt>
<pdfrwt beam="1">  1       21 0.15193930E+00 0.20395663E+03</pdfrwt>
<pdfrwt beam="2">  1       21 0.13010523E-01 0.20395663E+03</pdfrwt>
<totfact> 0.14548411E+04</totfact>
</mgrwt>
</event>
<event>
 4    1  0.3945627E+000  0.2088215E+03  0.7546771E-02  0.1142503E+00
         21   -1    0    0  501  502  0.00000000000E+00  0.00000000000E+00  0.92650555765E+02  0.92650555765E+02  0.00000000000E+00 0.  1.
         21   -1    0    0  502  503 -0.00000000000E+00 -0.00000000000E+00 -0.12010117589E+04  0.12010117589E+04  0.00000000000E+00 0. -1.
          6    1    1    2  501    0 -0.11239332979E+03 -0.32329123703E+02 -0.49769223472E+02  0.21467046473E+03  0.17300000000E+03 0.  1.
         -6    1    1    2    0  503  0.11239332979E+03  0.32329123703E+02 -0.10585919797E+04  0.10789918500E+04  0.17300000000E+03 0. -1.
<mgrwt>
<rscale>  2 0.20882153E+03</rscale>
<asrwt>0</asrwt>
<pdfrwt beam="1">  1       21 0.14253933E-01 0.20882153E+03</pdfrwt>
<pdfrwt beam="2">  1       21 0.18477102E+00 0.20882153E+03</pdfrwt>
<totfact> 0.71736799E+03</totfact>
</mgrwt>
</event>
<event>
 4    1  0.3945627E+000  0.1835295E+03  0.7546771E-02  0.1164430E+00
         21   -1    0    0  501  502  0.00000000000E+00  0.00000000000E+00  0.68719465249E+02  0.68719465249E+02  0.00000000000E+00 0. -1.
         21   -1    0    0  502  503 -0.00000000000E+00 -0.00000000000E+00 -0.12025896779E+04  0.12025896779E+04  0.00000000000E+00 0.  1.
          6    1    1    2  501    0  0.27631172343E+02 -0.54686422102E+02 -0.77679939036E+02  0.19929189491E+03  0.17300000000E+03 0. -1.
         -6    1    1    2    0  503 -0.27631172343E+02  0.54686422102E+02 -0.10561902736E+04  0.10720172482E+04  0.17300000000E+03 0.  1.
<mgrwt>
<rscale>  2 0.18352952E+03</rscale>
<asrwt>0</asrwt>
<pdfrwt beam="1">  1       21 0.10572225E-01 0.18352952E+03</pdfrwt>
<pdfrwt beam="2">  1       21 0.18501380E+00 0.18352952E+03</pdfrwt>
<totfact> 0.12467633E+04</totfact>
</mgrwt>
</event>
<event>
 4    1  0.3945627E+000  0.2783161E+03  0.7546771E-02  0.1096612E+00
         21   -1    0    0  501  502  0.00000000000E+00  0.00000000000E+00  0.22978930846E+03  0.22978930846E+03  0.00000000000E+00 0.  1.
         21   -1    0    0  502  503 -0.00000000000E+00 -0.00000000000E+00 -0.69475879053E+03  0.69475879053E+03  0.00000000000E+00 0. -1.
          6    1    1    2  501    0 -0.17503001941E+03 -0.12998212210E+03  0.99197738874E+02  0.29546582063E+03  0.17300000000E+03 0.  1.
         -6    1    1    2    0  503  0.17503001941E+03  0.12998212210E+03 -0.56416722095E+03  0.62908227837E+03  0.17300000000E+03 0. -1.
<mgrwt>
<rscale>  2 0.27831611E+03</rscale>
<asrwt>0</asrwt>
<pdfrwt beam="1">  1       21 0.35352201E-01 0.27831611E+03</pdfrwt>
<pdfrwt beam="2">  1       21 0.10688597E+00 0.27831611E+03</pdfrwt>
<totfact> 0.50968708E+03</totfact>
</mgrwt>
</event>
<event>
 4    1  0.3945627E+000  0.2433790E+03  0.7546771E-02  0.1117562E+00
         21   -1    0    0  501  502  0.00000000000E+00  0.00000000000E+00  0.13755415786E+03  0.13755415786E+03  0.00000000000E+00 0.  1.
         21   -1    0    0  502  503 -0.00000000000E+00 -0.00000000000E+00 -0.58920787582E+03  0.58920787582E+03  0.00000000000E+00 0.  1.
          6    1    1    2  501    0 -0.86870227917E+02 -0.14750555292E+03 -0.37303394519E+02  0.24622117676E+03  0.17300000000E+03 0.  1.
         -6    1    1    2    0  503  0.86870227917E+02  0.14750555292E+03 -0.41435032344E+03  0.48054085693E+03  0.17300000000E+03 0.  1.
<mgrwt>
<rscale>  2 0.24337897E+03</rscale>
<asrwt>0</asrwt>
<pdfrwt beam="1">  1       21 0.21162178E-01 0.24337897E+03</pdfrwt>
<pdfrwt beam="2">  1       21 0.90647367E-01 0.24337897E+03</pdfrwt>
<totfact> 0.20854396E+04</totfact>
</mgrwt>
</event>
<event>
 4    1  0.3945627E+000  0.2128272E+03  0.7546771E-02  0.1139347E+00
         21   -1    0    0  501  502  0.00000000000E+00  0.00000000000E+00  0.19906906532E+03  0.19906906532E+03  0.00000000000E+00 0. -1.
         21   -1    0    0  502  503 -0.00000000000E+00 -0.00000000000E+00 -0.36311435687E+03  0.36311435687E+03  0.00000000000E+00 0.  1.
          6    1    1    2  501    0 -0.28568972113E+02 -0.12062433924E+03  0.89737026209E+02  0.23097218720E+03  0.17300000000E+03 0.  1.
         -6    1    1    2    0  503  0.28568972113E+02  0.12062433924E+03 -0.25378231776E+03  0.33121123500E+03  0.17300000000E+03 0.  1.
<mgrwt>
<rscale>  2 0.21282720E+03</rscale>
<asrwt>0</asrwt>
<pdfrwt beam="1">  1       21 0.30626010E-01 0.21282720E+03</pdfrwt>
<pdfrwt beam="2">  1       21 0.55863747E-01 0.21282720E+03</pdfrwt>
<totfact> 0.30553916E+04</totfact>
</mgrwt>
</event>
<event>
 4    1  0.3945627E+000  0.1939099E+03  0.7546771E-02  0.1154981E+00
         21   -1    0    0  501  502  0.00000000000E+00  0.00000000000E+00  0.73000563524E+03  0.73000563524E+03  0.00000000000E+00 0.  1.
         21   -1    0    0  502  503 -0.00000000000E+00 -0.00000000000E+00 -0.51803854187E+02  0.51803854187E+02  0.00000000000E+00 0.  1.
          6    1    1    2  501    0 -0.64964075318E+02  0.58751168659E+02  0.30955285304E+03  0.36527250064E+03  0.17300000000E+03 0.  1.
         -6    1    1    2    0  503  0.64964075318E+02 -0.58751168659E+02  0.36864892802E+03  0.41653698879E+03  0.17300000000E+03 0.  1.
<mgrwt>
<rscale>  2 0.19390985E+03</rscale>
<asrwt>0</asrwt>
<pdfrwt beam="1">  1       21 0.11230855E+00 0.19390985E+03</pdfrwt>
<pdfrwt beam="2">  1       21 0.79698243E-02 0.19390985E+03</pdfrwt>
<totfact> 0.74976289E+04</totfact>
</mgrwt>
</event>
<event>
 4    1  0.3945627E+000  0.1907686E+03  0.7546771E-02  0.1157770E+00
         21   -1    0    0  503  502  0.00000000000E+00  0.00000000000E+00  0.13758078868E+03  0.13758078868E+03  0.00000000000E+00 0.  1.
         21   -1    0    0  501  503 -0.00000000000E+00 -0.00000000000E+00 -0.30336125798E+03  0.30336125798E+03  0.00000000000E+00 0. -1.
          6    1    1    2  501    0  0.21759396153E+02 -0.77396233588E+02 -0.16178117290E+03  0.25013155778E+03  0.17300000000E+03 0.  1.
         -6    1    1    2    0  502 -0.21759396153E+02  0.77396233588E+02 -0.39992964069E+01  0.19081048888E+03  0.17300000000E+03 0. -1.
<mgrwt>
<rscale>  2 0.19076857E+03</rscale>
<asrwt>0</asrwt>
<pdfrwt beam="1">  1       21 0.21166275E-01 0.19076857E+03</pdfrwt>
<pdfrwt beam="2">  1       21 0.46670962E-01 0.19076857E+03</pdfrwt>
<totfact> 0.91323107E+04</totfact>
</mgrwt>
</event>
<event>
 4    1  0.3945627E+000  0.2554742E+03  0.7546771E-02  0.1109893E+00
         21   -1    0    0  501  502  0.00000000000E+00  0.00000000000E+00  0.59771612046E+03  0.59771612046E+03  0.00000000000E+00 0.  1.
         21   -1    0    0  502  503 -0.00000000000E+00 -0.00000000000E+00 -0.11246763901E+03  0.11246763901E+03  0.00000000000E+00 0.  1.
          6    1    1    2  501    0 -0.33459477514E+02 -0.18498254685E+03  0.30320505520E+03  0.39648503726E+03  0.17300000000E+03 0.  1.
         -6    1    1    2    0  503  0.33459477514E+02  0.18498254685E+03  0.18204342625E+03  0.31369872221E+03  0.17300000000E+03 0.  1.
<mgrwt>
<rscale>  2 0.25547422E+03</rscale>
<asrwt>0</asrwt>
<pdfrwt beam="1">  1       21 0.91956325E-01 0.25547422E+03</pdfrwt>
<pdfrwt beam="2">  1       21 0.17302714E-01 0.25547422E+03</pdfrwt>
<totfact> 0.29226964E+04</totfact>
</mgrwt>
</event>
<event>
 4    1  0.3945627E+000  0.1953338E+03  0.7546771E-02  0.1153737E+00
         21   -1    0    0  503  502  0.00000000000E+00  0.00000000000E+00  0.21539822805E+03  0.21539822805E+03  0.00000000000E+00 0. -1.
         21   -1    0    0  501  503 -0.00000000000E+00 -0.00000000000E+00 -0.20822679255E+03  0.20822679255E+03  0.00000000000E+00 0. -1.
          6    1    1    2  501    0 -0.49767529424E+02 -0.75825263384E+02 -0.78257572844E+02  0.21042700696E+03  0.17300000000E+03 0. -1.
         -6    1    1    2    0  502  0.49767529424E+02  0.75825263384E+02  0.85429008346E+02  0.21319801364E+03  0.17300000000E+03 0. -1.
<mgrwt>
<rscale>  2 0.19533376E+03</rscale>
<asrwt>0</asrwt>
<pdfrwt beam="1">  1       21 0.33138189E-01 0.19533376E+03</pdfrwt>
<pdfrwt beam="2">  1       21 0.32034891E-01 0.19533376E+03</pdfrwt>
<totfact> 0.82085874E+04</totfact>
</mgrwt>
</event>
<event>
 4    1  0.3945627E+000  0.1931555E+03  0.7546771E-02  0.1155646E+00
         21   -1    0    0  503  502  0.00000000000E+00  0.00000000000E+00  0.32914257528E+03  0.32914257528E+03  0.00000000000E+00 0.  1.
         21   -1    0    0  501  503 -0.00000000000E+00 -0.00000000000E+00 -0.19024071025E+03  0.19024071025E+03  0.00000000000E+00 0.  1.
          6    1    1    2  501    0  0.71860659305E+02  0.47075504908E+02  0.23454701739E+03  0.30384430369E+03  0.17300000000E+03 0.  1.
         -6    1    1    2    0  502 -0.71860659305E+02 -0.47075504908E+02 -0.95645152366E+02  0.21553898183E+03  0.17300000000E+03 0.  1.
<mgrwt>
<rscale>  2 0.19315553E+03</rscale>
<asrwt>0</asrwt>
<pdfrwt beam="1">  1       21 0.50637319E-01 0.19315553E+03</pdfrwt>
<pdfrwt beam="2">  1       21 0.29267802E-01 0.19315553E+03</pdfrwt>
<totfact> 0.41486140E+04</totfact>
</mgrwt>
</event>
<event>
 4    1  0.3945627E+000  0.2247324E+03  0.7546771E-02  0.1130403E+00
         21   -1    0    0  501  502  0.00000000000E+00  0.00000000000E+00  0.45823947759E+03  0.45823947759E+03  0.00000000000E+00 0. -1.
         21   -1    0    0  502  503 -0.00000000000E+00 -0.00000000000E+00 -0.45695802355E+03  0.45695802355E+03  0.00000000000E+00 0. -1.
          6    1    1    2  501    0 -0.63987409208E+02 -0.12837939987E+03  0.39925314361E+03  0.45815688528E+03  0.17300000000E+03 0. -1.
         -6    1    1    2    0  503  0.63987409208E+02  0.12837939987E+03 -0.39797168957E+03  0.45704061586E+03  0.17300000000E+03 0. -1.
<mgrwt>
<rscale>  2 0.22473242E+03</rscale>
<asrwt>0</asrwt>
<pdfrwt beam="1">  1       21 0.70498381E-01 0.22473242E+03</pdfrwt>
<pdfrwt beam="2">  1       21 0.70301234E-01 0.22473242E+03</pdfrwt>
<totfact> 0.32635041E+03</totfact>
</mgrwt>
</event>
<event>
 4    1  0.3945627E+000  0.1889969E+03  0.7546771E-02  0.1159369E+00
         21   -1    0    0  501  502  0.00000000000E+00  0.00000000000E+00  0.46624027094E+03  0.46624027094E+03  0.00000000000E+00 0.  1.
         21   -1    0    0  502  503 -0.00000000000E+00 -0.00000000000E+00 -0.11719547695E+03  0.11719547695E+03  0.00000000000E+00 0.  1.
          6    1    1    2  501    0 -0.63231339014E+02 -0.42339541147E+02  0.34618650201E+03  0.39441720697E+03  0.17300000000E+03 0.  1.
         -6    1    1    2    0  503  0.63231339014E+02  0.42339541147E+02  0.28582919764E+01  0.18901854092E+03  0.17300000000E+03 0.  1.
<mgrwt>
<rscale>  2 0.18899693E+03</rscale>
<asrwt>0</asrwt>
<pdfrwt beam="1">  1       21 0.71729272E-01 0.18899693E+03</pdfrwt>
<pdfrwt beam="2">  1       21 0.18030074E-01 0.18899693E+03</pdfrwt>
<totfact> 0.49225635E+04</totfact>
</mgrwt>
</event>
<event>
 4    1  0.3945627E+000  0.1843984E+03  0.7546771E-02  0.1163613E+00
         21   -1    0    0  501  502  0.00000000000E+00  0.00000000000E+00  0.82006539230E+03  0.82006539230E+03  0.00000000000E+00 0. -1.
         21   -1    0    0  502  503 -0.00000000000E+00 -0.00000000000E+00 -0.50643544845E+02  0.50643544845E+02  0.00000000000E+00 0. -1.
          6    1    1    2  501    0  0.38842247894E+02  0.50646381710E+02  0.57006558377E+03  0.59914734915E+03  0.17300000000E+03 0.  1.
         -6    1    1    2    0  503 -0.38842247894E+02 -0.50646381710E+02  0.19935626369E+03  0.27156158800E+03  0.17300000000E+03 0.  1.
<mgrwt>
<rscale>  2 0.18439842E+03</rscale>
<asrwt>0</asrwt>
<pdfrwt beam="1">  1       21 0.12616390E+00 0.18439842E+03</pdfrwt>
<pdfrwt beam="2">  1       21 0.77913152E-02 0.18439842E+03</pdfrwt>
<totfact> 0.58805820E+04</totfact>
</mgrwt>
</event>
<event>
 4    1  0.3945627E+000  0.2107088E+03  0.7546771E-02  0.1141006E+00
         21   -1    0    0  503  502  0.00000000000E+00  0.00000000000E+00  0.11387076156E+04  0.11387076156E+04  0.00000000000E+00 0.  1.
         21   -1    0    0  501  503 -0.00000000000E+00 -0.00000000000E+00 -0.49248767595E+02  0.49248767595E+02  0.00000000000E+00 0.  1.
          6    1    1    2  501    0 -0.10984072753E+03  0.49032777714E+02  0.81582387019E+03  0.84259526813E+03  0.17300000000E+03 0.  1.
         -6    1    1    2    0  502  0.10984072753E+03 -0.49032777714E+02  0.27363497785E+03  0.34536111509E+03  0.17300000000E+03 0.  1.
<mgrwt>
<rscale>  2 0.21070880E+03</rscale>
<asrwt>0</asrwt>
<pdfrwt beam="1">  1       21 0.17518577E+00 0.21070880E+03</pdfrwt>
<pdfrwt beam="2">  1       21 0.75767343E-02 0.21070880E+03</pdfrwt>
<totfact> 0.25582225E+04</totfact>
</mgrwt>
</event>
<event>
 4    1  0.3945627E+000  0.1801814E+03  0.7546771E-02  0.1167628E+00
         21   -1    0    0  503  502  0.00000000000E+00  0.00000000000E+00  0.38438462963E+04  0.38438462963E+04  0.00000000000E+00 0. -1.
         21   -1    0    0  501  503 -0.00000000000E+00 -0.00000000000E+00 -0.23160758208E+02  0.23160758208E+02  0.00000000000E+00 0. -1.
          6    1    1    2  501    0 -0.50300165096E+02  0.24947022236E+01  0.36919471238E+03  0.41081634071E+03  0.17300000000E+03 0. -1.
         -6    1    1    2    0  502  0.50300165096E+02 -0.24947022236E+01  0.34514908257E+04  0.34561907138E+04  0.17300000000E+03 0. -1.
<mgrwt>
<rscale>  2 0.18018138E+03</rscale>
<asrwt>0</asrwt>
<pdfrwt beam="1">  1       21 0.59136046E+00 0.18018138E+03</pdfrwt>
<pdfrwt beam="2">  1       21 0.35631966E-02 0.18018138E+03</pdfrwt>
<totfact> 0.19358259E+02</totfact>
</mgrwt>
</event>
<event>
 4    1  0.3945627E+000  0.1818465E+03  0.7546771E-02  0.1166028E+00
         21   -1    0    0  503  502  0.00000000000E+00  0.00000000000E+00  0.25091199752E+03  0.25091199752E+03  0.00000000000E+00 0.  1.
         21   -1    0    0  501  503 -0.00000000000E+00 -0.00000000000E+00 -0.13509909986E+03  0.13509909986E+03  0.00000000000E+00 0.  1.
          6    1    1    2  501    0  0.27865814747E+02  0.48606998637E+02  0.27708300578E+02  0.18394535566E+03  0.17300000000E+03 0.  1.
         -6    1    1    2    0  502 -0.27865814747E+02 -0.48606998637E+02  0.88104597087E+02  0.20206574172E+03  0.17300000000E+03 0.  1.
<mgrwt>
<rscale>  2 0.18184648E+03</rscale>
<asrwt>0</asrwt>
<pdfrwt beam="1">  1       21 0.38601846E-01 0.18184648E+03</pdfrwt>
<pdfrwt beam="2">  1       21 0.20784477E-01 0.18184648E+03</pdfrwt>
<totfact> 0.13949651E+05</totfact>
</mgrwt>
</event>
<event>
 4    1  0.3945627E+000  0.1738603E+03  0.7546771E-02  0.1173881E+00
         21   -1    0    0  503  502  0.00000000000E+00  0.00000000000E+00  0.10785864994E+03  0.10785864994E+03  0.00000000000E+00 0.  1.
         21   -1    0    0  501  503 -0.00000000000E+00 -0.00000000000E+00 -0.41714733735E+03  0.41714733735E+03  0.00000000000E+00 0.  1.
          6    1    1    2  501    0 -0.11801135505E+02  0.12614712994E+02 -0.30502322839E+03  0.35109338878E+03  0.17300000000E+03 0.  1.
         -6    1    1    2    0  502  0.11801135505E+02 -0.12614712994E+02 -0.42654590199E+01  0.17391259852E+03  0.17300000000E+03 0.  1.
<mgrwt>
<rscale>  2 0.17386028E+03</rscale>
<asrwt>0</asrwt>
<pdfrwt beam="1">  1       21 0.16593638E-01 0.17386028E+03</pdfrwt>
<pdfrwt beam="2">  1       21 0.64176514E-01 0.17386028E+03</pdfrwt>
<totfact> 0.73676588E+04</totfact>
</mgrwt>
</event>
<event>
 4    1  0.3945627E+000  0.2246659E+03  0.7546771E-02  0.1130451E+00
         21   -1    0    0  503  502  0.00000000000E+00  0.00000000000E+00  0.59047025271E+02  0.59047025271E+02  0.00000000000E+00 0.  1.
         21   -1    0    0  501  503 -0.00000000000E+00 -0.00000000000E+00 -0.86358070021E+03  0.86358070021E+03  0.00000000000E+00 0. -1.
          6    1    1    2  501    0 -0.61528318066E+02  0.12946058391E+03 -0.44872168950E+03  0.50182260943E+03  0.17300000000E+03 0.  1.
         -6    1    1    2    0  502  0.61528318066E+02 -0.12946058391E+03 -0.35581198544E+03  0.42080511605E+03  0.17300000000E+03 0.  1.
<mgrwt>
<rscale>  2 0.22466592E+03</rscale>
<asrwt>0</asrwt>
<pdfrwt beam="1">  1       21 0.90841577E-02 0.22466592E+03</pdfrwt>
<pdfrwt beam="2">  1       21 0.13285857E+00 0.22466592E+03</pdfrwt>
<totfact> 0.38625653E+04</totfact>
</mgrwt>
</event>
<event>
 4    1  0.3945627E+000  0.1817529E+03  0.7546771E-02  0.1166117E+00
         21   -1    0    0  501  502  0.00000000000E+00  0.00000000000E+00  0.51130247741E+03  0.51130247741E+03  0.00000000000E+00 0. -1.
         21   -1    0    0  502  503 -0.00000000000E+00 -0.00000000000E+00 -0.65327865301E+02  0.65327865301E+02  0.00000000000E+00 0. -1.
          6    1    1    2  501    0  0.80423716178E+01  0.55140008867E+02  0.19271673266E+03  0.26490345292E+03  0.17300000000E+03 0. -1.
         -6    1    1    2    0  503 -0.80423716178E+01 -0.55140008867E+02  0.25325787945E+03  0.31172688979E+03  0.17300000000E+03 0. -1.
<mgrwt>
<rscale>  2 0.18175286E+03</rscale>
<asrwt>0</asrwt>
<pdfrwt beam="1">  1       21 0.78661917E-01 0.18175286E+03</pdfrwt>
<pdfrwt beam="2">  1       21 0.10050441E-01 0.18175286E+03</pdfrwt>
<totfact> 0.11537624E+05</totfact>
</mgrwt>
</event>
<event>
 4    1  0.3945627E+000  0.2041374E+03  0.7546771E-02  0.1146295E+00
         21   -1    0    0  503  502  0.00000000000E+00  0.00000000000E+00  0.49751327854E+03  0.49751327854E+03  0.00000000000E+00 0. -1.
         21   -1    0    0  501  503 -0.00000000000E+00 -0.00000000000E+00 -0.86919417900E+02  0.86919417900E+02  0.00000000000E+00 0. -1.
          6    1    1    2  501    0 -0.57517904109E+00 -0.10836390748E+03  0.14959110860E+03  0.25308015933E+03  0.17300000000E+03 0. -1.
         -6    1    1    2    0  502  0.57517904109E+00  0.10836390748E+03  0.26100275204E+03  0.33135253711E+03  0.17300000000E+03 0. -1.
<mgrwt>
<rscale>  2 0.20413737E+03</rscale>
<asrwt>0</asrwt>
<pdfrwt beam="1">  1       21 0.76540503E-01 0.20413737E+03</pdfrwt>
<pdfrwt beam="2">  1       21 0.13372218E-01 0.20413737E+03</pdfrwt>
<totfact> 0.73011774E+04</totfact>
</mgrwt>
</event>
<event>
 4    1  0.3945627E+000  0.2025004E+03  0.7546771E-02  0.1147646E+00
         21   -1    0    0  503  502  0.00000000000E+00  0.00000000000E+00  0.11439438806E+04  0.11439438806E+04  0.00000000000E+00 0.  1.
         21   -1    0    0  501  503 -0.00000000000E+00 -0.00000000000E+00 -0.36388433878E+02  0.36388433878E+02  0.00000000000E+00 0.  1.
          6    1    1    2  501    0 -0.53845180869E+02  0.90432820018E+02  0.48175644545E+03  0.52258556349E+03  0.17300000000E+03 0. -1.
         -6    1    1    2    0  502  0.53845180869E+02 -0.90432820018E+02  0.62579900131E+03  0.65774675102E+03  0.17300000000E+03 0. -1.
<mgrwt>
<rscale>  2 0.20250037E+03</rscale>
<asrwt>0</asrwt>
<pdfrwt beam="1">  1       21 0.17599134E+00 0.20250037E+03</pdfrwt>
<pdfrwt beam="2">  1       21 0.55982215E-02 0.20250037E+03</pdfrwt>
<totfact> 0.42760912E+04</totfact>
</mgrwt>
</event>
<event>
 4    1  0.3945627E+000  0.1786597E+03  0.7546771E-02  0.1169107E+00
         21   -1    0    0  501  502  0.00000000000E+00  0.00000000000E+00  0.17029344425E+03  0.17029344425E+03  0.00000000000E+00 0.  1.
         21   -1    0    0  502  503 -0.00000000000E+00 -0.00000000000E+00 -0.35892586363E+03  0.35892586363E+03  0.00000000000E+00 0.  1.
          6    1    1    2  501    0 -0.44611575481E+02  0.31880504822E+00  0.88586969441E+02  0.19941651250E+03  0.17300000000E+03 0.  1.
         -6    1    1    2    0  503  0.44611575481E+02 -0.31880504822E+00 -0.27721938882E+03  0.32980279538E+03  0.17300000000E+03 0.  1.
<mgrwt>
<rscale>  2 0.17865972E+03</rscale>
<asrwt>0</asrwt>
<pdfrwt beam="1">  1       21 0.26198991E-01 0.17865972E+03</pdfrwt>
<pdfrwt beam="2">  1       21 0.55219364E-01 0.17865972E+03</pdfrwt>
<totfact> 0.43128781E+04</totfact>
</mgrwt>
</event>
<event>
 4    1  0.3945627E+000  0.2008393E+03  0.7546771E-02  0.1149033E+00
         21   -1    0    0  503  502  0.00000000000E+00  0.00000000000E+00  0.96135296693E+03  0.96135296693E+03  0.00000000000E+00 0.  1.
         21   -1    0    0  501  503 -0.00000000000E+00 -0.00000000000E+00 -0.90441349862E+02  0.90441349862E+02  0.00000000000E+00 0.  1.
          6    1    1    2  501    0  0.78895267367E+02  0.64675832278E+02  0.50408834287E+02  0.20706877376E+03  0.17300000000E+03 0.  1.
         -6    1    1    2    0  502 -0.78895267367E+02 -0.64675832278E+02  0.82050278278E+03  0.84472554302E+03  0.17300000000E+03 0.  1.
<mgrwt>
<rscale>  2 0.20083931E+03</rscale>
<asrwt>0</asrwt>
<pdfrwt beam="1">  1       21 0.14790045E+00 0.20083931E+03</pdfrwt>
<pdfrwt beam="2">  1       21 0.13914055E-01 0.20083931E+03</pdfrwt>
<totfact> 0.13864930E+04</totfact>
</mgrwt>
</event>
<event>
 4    1  0.3945627E+000  0.2037855E+03  0.7546771E-02  0.1146584E+00
         21   -1    0    0  501  502  0.00000000000E+00  0.00000000000E+00  0.47814294846E+03  0.47814294846E+03  0.00000000000E+00 0.  1.
         21   -1    0    0  502  503 -0.00000000000E+00 -0.00000000000E+00 -0.90436666370E+02  0.90436666370E+02  0.00000000000E+00 0.  1.
          6    1    1    2  501    0 -0.10563720686E+03  0.20983473720E+02  0.25043863743E+03  0.32287464558E+03  0.17300000000E+03 0.  1.
         -6    1    1    2    0  503  0.10563720686E+03 -0.20983473720E+02  0.13726764466E+03  0.24570496925E+03  0.17300000000E+03 0.  1.
<mgrwt>
<rscale>  2 0.20378549E+03</rscale>
<asrwt>0</asrwt>
<pdfrwt beam="1">  1       21 0.73560452E-01 0.20378549E+03</pdfrwt>
<pdfrwt beam="2">  1       21 0.13913334E-01 0.20378549E+03</pdfrwt>
<totfact> 0.74276878E+04</totfact>
</mgrwt>
</event>
<event>
 4    1  0.3945627E+000  0.2392914E+03  0.7546771E-02  0.1120266E+00
         21   -1    0    0  503  502  0.00000000000E+00  0.00000000000E+00  0.72687762526E+03  0.72687762526E+03  0.00000000000E+00 0.  1.
         21   -1    0    0  501  503 -0.00000000000E+00 -0.00000000000E+00 -0.10605412421E+03  0.10605412421E+03  0.00000000000E+00 0. -1.
          6    1    1    2  501    0 -0.11344193504E+03  0.12025926255E+03  0.99196864763E+02  0.25903741203E+03  0.17300000000E+03 0. -1.
         -6    1    1    2    0  502  0.11344193504E+03 -0.12025926255E+03  0.52162663628E+03  0.57389433743E+03  0.17300000000E+03 0.  1.
<mgrwt>
<rscale>  2 0.23929138E+03</rscale>
<asrwt>0</asrwt>
<pdfrwt beam="1">  1       21 0.11182732E+00 0.23929138E+03</pdfrwt>
<pdfrwt beam="2">  1       21 0.16316020E-01 0.23929138E+03</pdfrwt>
<totfact> 0.20544149E+04</totfact>
</mgrwt>
</event>
<event>
 4    1  0.3945627E+000  0.2044980E+03  0.7546771E-02  0.1145999E+00
         21   -1    0    0  501  502  0.00000000000E+00  0.00000000000E+00  0.14483764343E+04  0.14483764343E+04  0.00000000000E+00 0.  1.
         21   -1    0    0  502  503 -0.00000000000E+00 -0.00000000000E+00 -0.42487940815E+02  0.42487940815E+02  0.00000000000E+00 0.  1.
          6    1    1    2  501    0  0.86198244224E+02  0.66785548302E+02  0.11249107328E+04  0.11433475428E+04  0.17300000000E+03 0.  1.
         -6    1    1    2    0  503 -0.86198244224E+02 -0.66785548302E+02  0.28097776068E+03  0.34751683235E+03  0.17300000000E+03 0.  1.
<mgrwt>
<rscale>  2 0.20449804E+03</rscale>
<asrwt>0</asrwt>
<pdfrwt beam="1">  1       21 0.22282711E+00 0.20449804E+03</pdfrwt>
<pdfrwt beam="2">  1       21 0.65366074E-02 0.20449804E+03</pdfrwt>
<totfact> 0.16295364E+04</totfact>
</mgrwt>
</event>
<event>
 4    1  0.3945627E+000  0.1962520E+03  0.7546771E-02  0.1152940E+00
         21   -1    0    0  501  502  0.00000000000E+00  0.00000000000E+00  0.36284406921E+02  0.36284406921E+02  0.00000000000E+00 0. -1.
         21   -1    0    0  502  503 -0.00000000000E+00 -0.00000000000E+00 -0.12505317528E+04  0.12505317528E+04  0.00000000000E+00 0. -1.
          6    1    1    2  501    0 -0.72475633128E+02 -0.57733144363E+02 -0.85729655446E+03  0.87947269182E+03  0.17300000000E+03 0. -1.
         -6    1    1    2    0  503  0.72475633128E+02  0.57733144363E+02 -0.35695079144E+03  0.40734346793E+03  0.17300000000E+03 0. -1.
<mgrwt>
<rscale>  2 0.19625196E+03</rscale>
<asrwt>0</asrwt>
<pdfrwt beam="1">  1       21 0.55822161E-02 0.19625196E+03</pdfrwt>
<pdfrwt beam="2">  1       21 0.19238951E+00 0.19625196E+03</pdfrwt>
<totfact> 0.33471881E+04</totfact>
</mgrwt>
</event>
<event>
 4    1  0.3945627E+000  0.1883798E+03  0.7546771E-02  0.1159931E+00
         21   -1    0    0  503  502  0.00000000000E+00  0.00000000000E+00  0.30789795279E+03  0.30789795279E+03  0.00000000000E+00 0. -1.
         21   -1    0    0  501  503 -0.00000000000E+00 -0.00000000000E+00 -0.18426156797E+03  0.18426156797E+03  0.00000000000E+00 0. -1.
          6    1    1    2  501    0  0.21448594369E+02 -0.71399688677E+02 -0.88773806066E+02  0.20824924102E+03  0.17300000000E+03 0. -1.
         -6    1    1    2    0  502 -0.21448594369E+02  0.71399688677E+02  0.21241019089E+03  0.28391027973E+03  0.17300000000E+03 0. -1.
<mgrwt>
<rscale>  2 0.18837982E+03</rscale>
<asrwt>0</asrwt>
<pdfrwt beam="1">  1       21 0.47368916E-01 0.18837982E+03</pdfrwt>
<pdfrwt beam="2">  1       21 0.28347934E-01 0.18837982E+03</pdfrwt>
<totfact> 0.50815167E+04</totfact>
</mgrwt>
</event>
<event>
 4    1  0.3945627E+000  0.1931503E+03  0.7546771E-02  0.1155650E+00
         21   -1    0    0  501  502  0.00000000000E+00  0.00000000000E+00  0.80670256042E+02  0.80670256042E+02  0.00000000000E+00 0.  1.
         21   -1    0    0  502  503 -0.00000000000E+00 -0.00000000000E+00 -0.56539218423E+03  0.56539218423E+03  0.00000000000E+00 0.  1.
          6    1    1    2  501    0 -0.85674861728E+02 -0.61513390179E+01 -0.10453261900E+03  0.21962260662E+03  0.17300000000E+03 0. -1.
         -6    1    1    2    0  503  0.85674861728E+02  0.61513390179E+01 -0.38018930918E+03  0.42643983365E+03  0.17300000000E+03 0. -1.
<mgrwt>
<rscale>  2 0.19315025E+03</rscale>
<asrwt>0</asrwt>
<pdfrwt beam="1">  1       21 0.12410809E-01 0.19315025E+03</pdfrwt>
<pdfrwt beam="2">  1       21 0.86983410E-01 0.19315025E+03</pdfrwt>
<totfact> 0.62780746E+04</totfact>
</mgrwt>
</event>
<event>
 4    1  0.3945627E+000  0.2057585E+03  0.7546771E-02  0.1144969E+00
         21   -1    0    0  503  502  0.00000000000E+00  0.00000000000E+00  0.11623024272E+03  0.11623024272E+03  0.00000000000E+00 0.  1.
         21   -1    0    0  501  503 -0.00000000000E+00 -0.00000000000E+00 -0.61157096020E+03  0.61157096020E+03  0.00000000000E+00 0. -1.
          6    1    1    2  501    0  0.10863286154E+03  0.24626832399E+02 -0.47908560680E+03  0.52140157089E+03  0.17300000000E+03 0. -1.
         -6    1    1    2    0  502 -0.10863286154E+03 -0.24626832399E+02 -0.16255110678E+02  0.20639963203E+03  0.17300000000E+03 0.  1.
<mgrwt>
<rscale>  2 0.20575855E+03</rscale>
<asrwt>0</asrwt>
<pdfrwt beam="1">  1       21 0.17881575E-01 0.20575855E+03</pdfrwt>
<pdfrwt beam="2">  1       21 0.94087842E-01 0.20575855E+03</pdfrwt>
<totfact> 0.26723756E+04</totfact>
</mgrwt>
</event>
<event>
 4    1  0.3945627E+000  0.1819594E+03  0.7546771E-02  0.1165920E+00
         21   -1    0    0  503  502  0.00000000000E+00  0.00000000000E+00  0.25271447776E+04  0.25271447776E+04  0.00000000000E+00 0. -1.
         21   -1    0    0  501  503 -0.00000000000E+00 -0.00000000000E+00 -0.17904229825E+02  0.17904229825E+02  0.00000000000E+00 0. -1.
          6    1    1    2  501    0  0.40110335737E+02 -0.39640562634E+02  0.59554423300E+03  0.62272156435E+03  0.17300000000E+03 0. -1.
         -6    1    1    2    0  502 -0.40110335737E+02  0.39640562634E+02  0.19136963148E+04  0.19223274431E+04  0.17300000000E+03 0. -1.
<mgrwt>
<rscale>  2 0.18195937E+03</rscale>
<asrwt>0</asrwt>
<pdfrwt beam="1">  1       21 0.38879122E+00 0.18195937E+03</pdfrwt>
<pdfrwt beam="2">  1       21 0.27544989E-02 0.18195937E+03</pdfrwt>
<totfact> 0.75533856E+03</totfact>
</mgrwt>
</event>
<event>
 4    1  0.3945627E+000  0.2096885E+03  0.7546771E-02  0.1141813E+00
         21   -1    0    0  503  502  0.00000000000E+00  0.00000000000E+00  0.35945213172E+03  0.35945213172E+03  0.00000000000E+00 0. -1.
         21   -1    0    0  501  503 -0.00000000000E+00 -0.00000000000E+00 -0.15452597462E+03  0.15452597462E+03  0.00000000000E+00 0. -1.
          6    1    1    2  501    0 -0.93842620846E+02  0.72345232751E+02 -0.14854135352E+02  0.21021397557E+03  0.17300000000E+03 0. -1.
         -6    1    1    2    0  502  0.93842620846E+02 -0.72345232751E+02  0.21978029245E+03  0.30376413076E+03  0.17300000000E+03 0. -1.
<mgrwt>
<rscale>  2 0.20968851E+03</rscale>
<asrwt>0</asrwt>
<pdfrwt beam="1">  1       21 0.55300328E-01 0.20968851E+03</pdfrwt>
<pdfrwt beam="2">  1       21 0.23773227E-01 0.20968851E+03</pdfrwt>
<totfact> 0.50978944E+04</totfact>
</mgrwt>
</event>
<event>
 4    1  0.3945627E+000  0.1868300E+03  0.7546771E-02  0.1161352E+00
         21   -1    0    0  503  502  0.00000000000E+00  0.00000000000E+00  0.25399494589E+03  0.25399494589E+03  0.00000000000E+00 0. -1.
         21   -1    0    0  501  503 -0.00000000000E+00 -0.00000000000E+00 -0.59519258102E+03  0.59519258102E+03  0.00000000000E+00 0. -1.
          6    1    1    2  501    0 -0.14584974786E+01  0.70528806293E+02 -0.54296225301E+03  0.57420679892E+03  0.17300000000E+03 0. -1.
         -6    1    1    2    0  502  0.14584974786E+01 -0.70528806293E+02  0.20176461789E+03  0.27498072799E+03  0.17300000000E+03 0. -1.
<mgrwt>
<rscale>  2 0.18682998E+03</rscale>
<asrwt>0</asrwt>
<pdfrwt beam="1">  1       21 0.39076146E-01 0.18682998E+03</pdfrwt>
<pdfrwt beam="2">  1       21 0.91568088E-01 0.18682998E+03</pdfrwt>
<totfact> 0.64013964E+03</totfact>
</mgrwt>
</event>
<event>
 4    1  0.3945627E+000  0.1774745E+03  0.7546771E-02  0.1170270E+00
         21   -1    0    0  503  502  0.00000000000E+00  0.00000000000E+00  0.31985412642E+03  0.31985412642E+03  0.00000000000E+00 0. -1.
         21   -1    0    0  501  503 -0.00000000000E+00 -0.00000000000E+00 -0.11386575148E+03  0.11386575148E+03  0.00000000000E+00 0. -1.
          6    1    1    2  501    0 -0.21689743430E+02 -0.33132260739E+02  0.23262263394E+02  0.17899252658E+03  0.17300000000E+03 0. -1.
         -6    1    1    2    0  502  0.21689743430E+02  0.33132260739E+02  0.18272611155E+03  0.25472735133E+03  0.17300000000E+03 0. -1.
<mgrwt>
<rscale>  2 0.17747448E+03</rscale>
<asrwt>0</asrwt>
<pdfrwt beam="1">  1       21 0.49208327E-01 0.17747448E+03</pdfrwt>
<pdfrwt beam="2">  1       21 0.17517808E-01 0.17747448E+03</pdfrwt>
<totfact> 0.11691977E+05</totfact>
</mgrwt>
</event>
<event>
 4    1  0.3945627E+000  0.2067361E+03  0.7546771E-02  0.1144177E+00
         21   -1    0    0  503  502  0.00000000000E+00  0.00000000000E+00  0.14472268922E+03  0.14472268922E+03  0.00000000000E+00 0. -1.
         21   -1    0    0  501  503 -0.00000000000E+00 -0.00000000000E+00 -0.31761296158E+03  0.31761296158E+03  0.00000000000E+00 0.  1.
          6    1    1    2  501    0 -0.19849351570E+02 -0.11143074004E+03 -0.14768607437E+03  0.25406885513E+03  0.17300000000E+03 0.  1.
         -6    1    1    2    0  502  0.19849351570E+02  0.11143074004E+03 -0.25204197985E+02  0.20826679567E+03  0.17300000000E+03 0. -1.
<mgrwt>
<rscale>  2 0.20673608E+03</rscale>
<asrwt>0</asrwt>
<pdfrwt beam="1">  1       21 0.22265029E-01 0.20673608E+03</pdfrwt>
<pdfrwt beam="2">  1       21 0.48863532E-01 0.20673608E+03</pdfrwt>
<totfact> 0.74971932E+04</totfact>
</mgrwt>
</event>
<event>
 4    1  0.3945627E+000  0.1731003E+03  0.7546771E-02  0.1174653E+00
         21   -1    0    0  501  502  0.00000000000E+00  0.00000000000E+00  0.78974358825E+03  0.78974358825E+03  0.00000000000E+00 0.  1.
         21   -1    0    0  502  503 -0.00000000000E+00 -0.00000000000E+00 -0.50691901154E+02  0.50691901154E+02  0.00000000000E+00 0.  1.
          6    1    1    2  501    0  0.55338643455E+01  0.20253463548E+01  0.58027903166E+03  0.60554725684E+03  0.17300000000E+03 0.  1.
         -6    1    1    2    0  503 -0.55338643455E+01 -0.20253463548E+01  0.15877265543E+03  0.23488823256E+03  0.17300000000E+03 0.  1.
<mgrwt>
<rscale>  2 0.17310033E+03</rscale>
<asrwt>0</asrwt>
<pdfrwt beam="1">  1       21 0.12149900E+00 0.17310033E+03</pdfrwt>
<pdfrwt beam="2">  1       21 0.77987546E-02 0.17310033E+03</pdfrwt>
<totfact> 0.64858932E+04</totfact>
</mgrwt>
</event>
<event>
 4    1  0.3945627E+000  0.1917791E+03  0.7546771E-02  0.1156866E+00
         21   -1    0    0  503  502  0.00000000000E+00  0.00000000000E+00  0.53757713077E+03  0.53757713077E+03  0.00000000000E+00 0. -1.
         21   -1    0    0  501  503 -0.00000000000E+00 -0.00000000000E+00 -0.68467185808E+02  0.68467185808E+02  0.00000000000E+00 0. -1.
          6    1    1    2  501    0  0.70488661038E+02  0.43376881500E+02  0.22631923863E+03  0.29664727027E+03  0.17300000000E+03 0. -1.
         -6    1    1    2    0  502 -0.70488661038E+02 -0.43376881500E+02  0.24279070633E+03  0.30939704631E+03  0.17300000000E+03 0. -1.
<mgrwt>
<rscale>  2 0.19177905E+03</rscale>
<asrwt>0</asrwt>
<pdfrwt beam="1">  1       21 0.82704171E-01 0.19177905E+03</pdfrwt>
<pdfrwt beam="2">  1       21 0.10533414E-01 0.19177905E+03</pdfrwt>
<totfact> 0.94443410E+04</totfact>
</mgrwt>
</event>
<event>
 4    1  0.3945627E+000  0.2101632E+03  0.7546771E-02  0.1141437E+00
         21   -1    0    0  501  502  0.00000000000E+00  0.00000000000E+00  0.44792331210E+03  0.44792331210E+03  0.00000000000E+00 0.  1.
         21   -1    0    0  502  503 -0.00000000000E+00 -0.00000000000E+00 -0.99522818759E+02  0.99522818759E+02  0.00000000000E+00 0. -1.
          6    1    1    2  501    0  0.52356437751E+02  0.10723051855E+03  0.20045122012E+03  0.29042946188E+03  0.17300000000E+03 0. -1.
         -6    1    1    2    0  503 -0.52356437751E+02 -0.10723051855E+03  0.14794927322E+03  0.25701666897E+03  0.17300000000E+03 0. -1.
<mgrwt>
<rscale>  2 0.21016322E+03</rscale>
<asrwt>0</asrwt>
<pdfrwt beam="1">  1       21 0.68911278E-01 0.21016322E+03</pdfrwt>
<pdfrwt beam="2">  1       21 0.15311203E-01 0.21016322E+03</pdfrwt>
<totfact> 0.71910158E+04</totfact>
</mgrwt>
</event>
<event>
 4    1  0.3945627E+000  0.2399644E+03  0.7546771E-02  0.1119817E+00
         21   -1    0    0  503  502  0.00000000000E+00  0.00000000000E+00  0.35738517277E+03  0.35738517277E+03  0.00000000000E+00 0.  1.
         21   -1    0    0  501  503 -0.00000000000E+00 -0.00000000000E+00 -0.21651815530E+03  0.21651815530E+03  0.00000000000E+00 0.  1.
          6    1    1    2  501    0 -0.16522421611E+03 -0.18837757777E+02 -0.74710205227E+02  0.25132552093E+03  0.17300000000E+03 0.  1.
         -6    1    1    2    0  502  0.16522421611E+03  0.18837757777E+02  0.21557722270E+03  0.32257780714E+03  0.17300000000E+03 0.  1.
<mgrwt>
<rscale>  2 0.23996438E+03</rscale>
<asrwt>0</asrwt>
<pdfrwt beam="1">  1       21 0.54982334E-01 0.23996438E+03</pdfrwt>
<pdfrwt beam="2">  1       21 0.33310485E-01 0.23996438E+03</pdfrwt>
<totfact> 0.26422806E+04</totfact>
</mgrwt>
</event>
<event>
 4    1  0.3945627E+000  0.2230040E+03  0.7546771E-02  0.1131663E+00
         21   -1    0    0  503  502  0.00000000000E+00  0.00000000000E+00  0.41463603992E+03  0.41463603992E+03  0.00000000000E+00 0. -1.
         21   -1    0    0  501  503 -0.00000000000E+00 -0.00000000000E+00 -0.18487923832E+03  0.18487923832E+03  0.00000000000E+00 0. -1.
          6    1    1    2  501    0  0.14063917929E+03 -0.47332722701E+01 -0.62779750304E+02  0.23167235413E+03  0.17300000000E+03 0. -1.
         -6    1    1    2    0  502 -0.14063917929E+03  0.47332722701E+01  0.29253655190E+03  0.36784292411E+03  0.17300000000E+03 0. -1.
<mgrwt>
<rscale>  2 0.22300400E+03</rscale>
<asrwt>0</asrwt>
<pdfrwt beam="1">  1       21 0.63790160E-01 0.22300400E+03</pdfrwt>
<pdfrwt beam="2">  1       21 0.28442960E-01 0.22300400E+03</pdfrwt>
<totfact> 0.26389494E+04</totfact>
</mgrwt>
</event>
<event>
 4    1  0.3945627E+000  0.1740163E+03  0.7546771E-02  0.1173723E+00
         21   -1    0    0  503  502  0.00000000000E+00  0.00000000000E+00  0.32323074918E+03  0.32323074918E+03  0.00000000000E+00 0.  1.
         21   -1    0    0  501  503 -0.00000000000E+00 -0.00000000000E+00 -0.16131794593E+04  0.16131794593E+04  0.00000000000E+00 0.  1.
          6    1    1    2  501    0  0.15597561346E+02  0.10458534269E+02 -0.15846450402E+04  0.15941711227E+04  0.17300000000E+03 0.  1.
         -6    1    1    2    0  502 -0.15597561346E+02 -0.10458534269E+02  0.29469633012E+03  0.34223908579E+03  0.17300000000E+03 0.  1.
<mgrwt>
<rscale>  2 0.17401628E+03</rscale>
<asrwt>0</asrwt>
<pdfrwt beam="1">  1       21 0.49727807E-01 0.17401628E+03</pdfrwt>
<pdfrwt beam="2">  1       21 0.24818146E+00 0.17401628E+03</pdfrwt>
<totfact> 0.26998566E+02</totfact>
</mgrwt>
</event>
<event>
 4    1  0.3945627E+000  0.1815350E+03  0.7546771E-02  0.1166326E+00
         21   -1    0    0  501  502  0.00000000000E+00  0.00000000000E+00  0.77642369219E+03  0.77642369219E+03  0.00000000000E+00 0.  1.
         21   -1    0    0  502  503 -0.00000000000E+00 -0.00000000000E+00 -0.42876841489E+02  0.42876841489E+02  0.00000000000E+00 0. -1.
          6    1    1    2  501    0  0.25313582060E+02 -0.48838344953E+02  0.32564088182E+03  0.37282294094E+03  0.17300000000E+03 0.  1.
         -6    1    1    2    0  503 -0.25313582060E+02  0.48838344953E+02  0.40790596888E+03  0.44647759274E+03  0.17300000000E+03 0.  1.
<mgrwt>
<rscale>  2 0.18153501E+03</rscale>
<asrwt>0</asrwt>
<pdfrwt beam="1">  1       21 0.11944979E+00 0.18153501E+03</pdfrwt>
<pdfrwt beam="2">  1       21 0.65964377E-02 0.18153501E+03</pdfrwt>
<totfact> 0.89953254E+04</totfact>
</mgrwt>
</event>
<event>
 4    1  0.3945627E+000  0.2393761E+03  0.7546771E-02  0.1120209E+00
         21   -1    0    0  501  502  0.00000000000E+00  0.00000000000E+00  0.78192350427E+02  0.78192350427E+02  0.00000000000E+00 0.  1.
         21   -1    0    0  502  503 -0.00000000000E+00 -0.00000000000E+00 -0.92221649277E+03  0.92221649277E+03  0.00000000000E+00 0. -1.
          6    1    1    2  501    0 -0.11450861468E+03 -0.11941396790E+03 -0.19533006610E+03  0.30895752668E+03  0.17300000000E+03 0.  1.
         -6    1    1    2    0  503  0.11450861468E+03  0.11941396790E+03 -0.64869407624E+03  0.69145131652E+03  0.17300000000E+03 0. -1.
<mgrwt>
<rscale>  2 0.23937610E+03</rscale>
<asrwt>0</asrwt>
<pdfrwt beam="1">  1       21 0.12029592E-01 0.23937610E+03</pdfrwt>
<pdfrwt beam="2">  1       21 0.14187946E+00 0.23937610E+03</pdfrwt>
<totfact> 0.19621224E+04</totfact>
</mgrwt>
</event>
<event>
 4    1  0.3945627E+000  0.1987663E+03  0.7546771E-02  0.1150784E+00
         21   -1    0    0  503  502  0.00000000000E+00  0.00000000000E+00  0.60935476282E+03  0.60935476282E+03  0.00000000000E+00 0.  1.
         21   -1    0    0  501  503 -0.00000000000E+00 -0.00000000000E+00 -0.70719367023E+02  0.70719367023E+02  0.00000000000E+00 0.  1.
          6    1    1    2  501    0  0.91557268946E+02 -0.34587856753E+02  0.36739633283E+03  0.41771775005E+03  0.17300000000E+03 0.  1.
         -6    1    1    2    0  502 -0.91557268946E+02  0.34587856753E+02  0.17123906297E+03  0.26235637979E+03  0.17300000000E+03 0.  1.
<mgrwt>
<rscale>  2 0.19876633E+03</rscale>
<asrwt>0</asrwt>
<pdfrwt beam="1">  1       21 0.93746883E-01 0.19876633E+03</pdfrwt>
<pdfrwt beam="2">  1       21 0.10879903E-01 0.19876633E+03</pdfrwt>
<totfact> 0.66584087E+04</totfact>
</mgrwt>
</event>
<event>
 4    1  0.3945627E+000  0.1913553E+03  0.7546771E-02  0.1157245E+00
         21   -1    0    0  503  502  0.00000000000E+00  0.00000000000E+00  0.21877903959E+03  0.21877903959E+03  0.00000000000E+00 0. -1.
         21   -1    0    0  501  503 -0.00000000000E+00 -0.00000000000E+00 -0.40077306694E+03  0.40077306694E+03  0.00000000000E+00 0. -1.
          6    1    1    2  501    0 -0.54023920913E+02 -0.61394324916E+02 -0.32739986529E+03  0.37921961837E+03  0.17300000000E+03 0. -1.
         -6    1    1    2    0  502  0.54023920913E+02  0.61394324916E+02  0.14540583794E+03  0.24033248817E+03  0.17300000000E+03 0. -1.
<mgrwt>
<rscale>  2 0.19135529E+03</rscale>
<asrwt>0</asrwt>
<pdfrwt beam="1">  1       21 0.33658314E-01 0.19135529E+03</pdfrwt>
<pdfrwt beam="2">  1       21 0.61657395E-01 0.19135529E+03</pdfrwt>
<totfact> 0.20794002E+04</totfact>
</mgrwt>
</event>
<event>
 4    1  0.3945627E+000  0.1802494E+03  0.7546771E-02  0.1167562E+00
         21   -1    0    0  501  502  0.00000000000E+00  0.00000000000E+00  0.73141549802E+02  0.73141549802E+02  0.00000000000E+00 0.  1.
         21   -1    0    0  502  503 -0.00000000000E+00 -0.00000000000E+00 -0.51385971878E+03  0.51385971878E+03  0.00000000000E+00 0. -1.
          6    1    1    2  501    0 -0.18141689363E+02 -0.47241039855E+02 -0.11229975758E+03  0.21237013041E+03  0.17300000000E+03 0.  1.
         -6    1    1    2    0  503  0.18141689363E+02  0.47241039855E+02 -0.32841841140E+03  0.37463113817E+03  0.17300000000E+03 0. -1.
<mgrwt>
<rscale>  2 0.18024937E+03</rscale>
<asrwt>0</asrwt>
<pdfrwt beam="1">  1       21 0.11252547E-01 0.18024937E+03</pdfrwt>
<pdfrwt beam="2">  1       21 0.79055338E-01 0.18024937E+03</pdfrwt>
<totfact> 0.93451496E+04</totfact>
</mgrwt>
</event>
<event>
 4    1  0.3945627E+000  0.1913598E+03  0.7546771E-02  0.1157241E+00
         21   -1    0    0  501  502  0.00000000000E+00  0.00000000000E+00  0.31885277568E+03  0.31885277568E+03  0.00000000000E+00 0. -1.
         21   -1    0    0  502  503 -0.00000000000E+00 -0.00000000000E+00 -0.19076661089E+03  0.19076661089E+03  0.00000000000E+00 0. -1.
          6    1    1    2  501    0 -0.75291397294E+02  0.31949880994E+02  0.22479197398E+03  0.29521182390E+03  0.17300000000E+03 0. -1.
         -6    1    1    2    0  503  0.75291397294E+02 -0.31949880994E+02 -0.96705809186E+02  0.21440756268E+03  0.17300000000E+03 0. -1.
<mgrwt>
<rscale>  2 0.19135984E+03</rscale>
<asrwt>0</asrwt>
<pdfrwt beam="1">  1       21 0.49054273E-01 0.19135984E+03</pdfrwt>
<pdfrwt beam="2">  1       21 0.29348709E-01 0.19135984E+03</pdfrwt>
<totfact> 0.44125514E+04</totfact>
</mgrwt>
</event>
<event>
 4    1  0.3945627E+000  0.4531995E+03  0.7546771E-02  0.1026772E+00
         21   -1    0    0  503  502  0.00000000000E+00  0.00000000000E+00  0.87198429938E+03  0.87198429938E+03  0.00000000000E+00 0. -1.
         21   -1    0    0  501  503 -0.00000000000E+00 -0.00000000000E+00 -0.25620133378E+03  0.25620133378E+03  0.00000000000E+00 0.  1.
          6    1    1    2  501    0  0.28773219234E+03  0.30441910599E+03  0.46807116048E+03  0.65152161735E+03  0.17300000000E+03 0. -1.
         -6    1    1    2    0  502 -0.28773219234E+03 -0.30441910599E+03  0.14771180511E+03  0.47666401581E+03  0.17300000000E+03 0.  1.
<mgrwt>
<rscale>  2 0.45319952E+03</rscale>
<asrwt>0</asrwt>
<pdfrwt beam="1">  1       21 0.13415143E+00 0.45319952E+03</pdfrwt>
<pdfrwt beam="2">  1       21 0.39415590E-01 0.45319952E+03</pdfrwt>
<totfact> 0.21270568E+03</totfact>
</mgrwt>
</event>
<event>
 4    1  0.3945627E+000  0.1976151E+03  0.7546771E-02  0.1151767E+00
         21   -1    0    0  503  502  0.00000000000E+00  0.00000000000E+00  0.37580209286E+02  0.37580209286E+02  0.00000000000E+00 0.  1.
         21   -1    0    0  501  503 -0.00000000000E+00 -0.00000000000E+00 -0.13887541475E+04  0.13887541475E+04  0.00000000000E+00 0. -1.
          6    1    1    2  501    0 -0.59690264043E+02  0.74564062125E+02 -0.31776847967E+03  0.37420386644E+03  0.17300000000E+03 0. -1.
         -6    1    1    2    0  502  0.59690264043E+02 -0.74564062125E+02 -0.10334054586E+04  0.10521304904E+04  0.17300000000E+03 0. -1.
<mgrwt>
<rscale>  2 0.19761510E+03</rscale>
<asrwt>0</asrwt>
<pdfrwt beam="1">  1       21 0.57815705E-02 0.19761510E+03</pdfrwt>
<pdfrwt beam="2">  1       21 0.21365449E+00 0.19761510E+03</pdfrwt>
<totfact> 0.23042099E+04</totfact>
</mgrwt>
</event>
<event>
 4    1  0.3945627E+000  0.1899869E+03  0.7546771E-02  0.1158473E+00
         21   -1    0    0  503  502  0.00000000000E+00  0.00000000000E+00  0.50835101150E+03  0.50835101150E+03  0.00000000000E+00 0.  1.
         21   -1    0    0  501  503 -0.00000000000E+00 -0.00000000000E+00 -0.32565347278E+03  0.32565347278E+03  0.00000000000E+00 0.  1.
          6    1    1    2  501    0  0.77398767961E+02 -0.13246391179E+02 -0.27740102608E+03  0.33622368363E+03  0.17300000000E+03 0.  1.
         -6    1    1    2    0  502 -0.77398767961E+02  0.13246391179E+02  0.46009856480E+03  0.49778080065E+03  0.17300000000E+03 0.  1.
<mgrwt>
<rscale>  2 0.18998694E+03</rscale>
<asrwt>0</asrwt>
<pdfrwt beam="1">  1       21 0.78207848E-01 0.18998694E+03</pdfrwt>
<pdfrwt beam="2">  1       21 0.50100534E-01 0.18998694E+03</pdfrwt>
<totfact> 0.55038013E+03</totfact>
</mgrwt>
</event>
<event>
 4    1  0.3945627E+000  0.1794357E+03  0.7546771E-02  0.1168350E+00
         21   -1    0    0  501  502  0.00000000000E+00  0.00000000000E+00  0.10315550281E+04  0.10315550281E+04  0.00000000000E+00 0.  1.
         21   -1    0    0  502  503 -0.00000000000E+00 -0.00000000000E+00 -0.34698775037E+02  0.34698775037E+02  0.00000000000E+00 0. -1.
          6    1    1    2  501    0  0.68443275862E+00  0.47620512755E+02  0.66742093133E+03  0.69112074290E+03  0.17300000000E+03 0.  1.
         -6    1    1    2    0  503 -0.68443275862E+00 -0.47620512755E+02  0.32943532176E+03  0.37513306027E+03  0.17300000000E+03 0. -1.
<mgrwt>
<rscale>  2 0.17943573E+03</rscale>
<asrwt>0</asrwt>
<pdfrwt beam="1">  1       21 0.15870075E+00 0.17943573E+03</pdfrwt>
<pdfrwt beam="2">  1       21 0.53382739E-02 0.17943573E+03</pdfrwt>
<totfact> 0.62377110E+04</totfact>
</mgrwt>
</event>
<event>
 4    1  0.3945627E+000  0.2143145E+03  0.7546771E-02  0.1138194E+00
         21   -1    0    0  501  502  0.00000000000E+00  0.00000000000E+00  0.10133877959E+04  0.10133877959E+04  0.00000000000E+00 0. -1.
         21   -1    0    0  502  503 -0.00000000000E+00 -0.00000000000E+00 -0.48129234461E+02  0.48129234461E+02  0.00000000000E+00 0. -1.
          6    1    1    2  501    0 -0.10034145235E+03 -0.77027832722E+02  0.61076915279E+03  0.64727865102E+03  0.17300000000E+03 0. -1.
         -6    1    1    2    0  503  0.10034145235E+03  0.77027832722E+02  0.35448940868E+03  0.41423837937E+03  0.17300000000E+03 0. -1.
<mgrwt>
<rscale>  2 0.21431447E+03</rscale>
<asrwt>0</asrwt>
<pdfrwt beam="1">  1       21 0.15590580E+00 0.21431447E+03</pdfrwt>
<pdfrwt beam="2">  1       21 0.74044984E-02 0.21431447E+03</pdfrwt>
<totfact> 0.36558896E+04</totfact>
</mgrwt>
</event>
<event>
 4    1  0.3945627E+000  0.2500545E+03  0.7546771E-02  0.1113270E+00
         21   -1    0    0  501  502  0.00000000000E+00  0.00000000000E+00  0.50554907348E+02  0.50554907348E+02  0.00000000000E+00 0.  1.
         21   -1    0    0  502  503 -0.00000000000E+00 -0.00000000000E+00 -0.17537065976E+04  0.17537065976E+04  0.00000000000E+00 0. -1.
          6    1    1    2  501    0 -0.18054415238E+03  0.14431462165E+01 -0.13413423100E+04  0.13644509761E+04  0.17300000000E+03 0. -1.
         -6    1    1    2    0  503  0.18054415238E+03 -0.14431462165E+01 -0.36180938024E+03  0.43981052882E+03  0.17300000000E+03 0.  1.
<mgrwt>
<rscale>  2 0.25005454E+03</rscale>
<asrwt>0</asrwt>
<pdfrwt beam="1">  1       21 0.77776773E-02 0.25005454E+03</pdfrwt>
<pdfrwt beam="2">  1       21 0.26980104E+00 0.25005454E+03</pdfrwt>
<totfact> 0.60859131E+03</totfact>
</mgrwt>
</event>
<event>
 4    1  0.3945627E+000  0.2319374E+03  0.7546771E-02  0.1125284E+00
         21   -1    0    0  501  502  0.00000000000E+00  0.00000000000E+00  0.96645137183E+03  0.96645137183E+03  0.00000000000E+00 0.  1.
         21   -1    0    0  502  503 -0.00000000000E+00 -0.00000000000E+00 -0.11567356574E+03  0.11567356574E+03  0.00000000000E+00 0. -1.
          6    1    1    2  501    0  0.15436082364E+03 -0.62198113655E+01  0.81510341479E+03  0.84746004433E+03  0.17300000000E+03 0.  1.
         -6    1    1    2    0  503 -0.15436082364E+03  0.62198113655E+01  0.35674391291E+02  0.23466489324E+03  0.17300000000E+03 0. -1.
<mgrwt>
<rscale>  2 0.23193738E+03</rscale>
<asrwt>0</asrwt>
<pdfrwt beam="1">  1       21 0.14868482E+00 0.23193738E+03</pdfrwt>
<pdfrwt beam="2">  1       21 0.17795934E-01 0.23193738E+03</pdfrwt>
<totfact> 0.85234203E+03</totfact>
</mgrwt>
</event>
<event>
 4    1  0.3945627E+000  0.1877121E+03  0.7546771E-02  0.1160541E+00
         21   -1    0    0  503  502  0.00000000000E+00  0.00000000000E+00  0.78785011911E+03  0.78785011911E+03  0.00000000000E+00 0. -1.
         21   -1    0    0  501  503 -0.00000000000E+00 -0.00000000000E+00 -0.47312646734E+02  0.47312646734E+02  0.00000000000E+00 0. -1.
          6    1    1    2  501    0  0.58549927467E+02 -0.43344513794E+02  0.46794419869E+03  0.50419005739E+03  0.17300000000E+03 0. -1.
         -6    1    1    2    0  502 -0.58549927467E+02  0.43344513794E+02  0.27259327368E+03  0.33097270845E+03  0.17300000000E+03 0. -1.
<mgrwt>
<rscale>  2 0.18771212E+03</rscale>
<asrwt>0</asrwt>
<pdfrwt beam="1">  1       21 0.12120770E+00 0.18771212E+03</pdfrwt>
<pdfrwt beam="2">  1       21 0.72788693E-02 0.18771212E+03</pdfrwt>
<totfact> 0.73001722E+04</totfact>
</mgrwt>
</event>
<event>
 4    1  0.3945627E+000  0.5313241E+03  0.7546771E-02  0.1005912E+00
         21   -1    0    0  503  502  0.00000000000E+00  0.00000000000E+00  0.36757248910E+03  0.36757248910E+03  0.00000000000E+00 0.  1.
         21   -1    0    0  501  503 -0.00000000000E+00 -0.00000000000E+00 -0.80146250054E+03  0.80146250054E+03  0.00000000000E+00 0. -1.
          6    1    1    2  501    0  0.37435606108E+03 -0.33501315974E+03 -0.97555693211E+02  0.54020587829E+03  0.17300000000E+03 0.  1.
         -6    1    1    2    0  502 -0.37435606108E+03  0.33501315974E+03 -0.33633431823E+03  0.62882911135E+03  0.17300000000E+03 0. -1.
<mgrwt>
<rscale>  2 0.53132408E+03</rscale>
<asrwt>0</asrwt>
<pdfrwt beam="1">  1       21 0.56549613E-01 0.53132408E+03</pdfrwt>
<pdfrwt beam="2">  1       21 0.12330192E+00 0.53132408E+03</pdfrwt>
<totfact> 0.11998049E+03</totfact>
</mgrwt>
</event>
<event>
 4    1  0.3945627E+000  0.2358236E+03  0.7546771E-02  0.1122607E+00
         21   -1    0    0  503  502  0.00000000000E+00  0.00000000000E+00  0.33347494890E+03  0.33347494890E+03  0.00000000000E+00 0. -1.
         21   -1    0    0  501  503 -0.00000000000E+00 -0.00000000000E+00 -0.41772870444E+03  0.41772870444E+03  0.00000000000E+00 0. -1.
          6    1    1    2  501    0  0.14082104048E+03  0.76506277132E+02 -0.33325479343E+03  0.40825425072E+03  0.17300000000E+03 0. -1.
         -6    1    1    2    0  502 -0.14082104048E+03 -0.76506277132E+02  0.24900103790E+03  0.34294940262E+03  0.17300000000E+03 0. -1.
<mgrwt>
<rscale>  2 0.23582361E+03</rscale>
<asrwt>0</asrwt>
<pdfrwt beam="1">  1       21 0.51303838E-01 0.23582361E+03</pdfrwt>
<pdfrwt beam="2">  1       21 0.64265954E-01 0.23582361E+03</pdfrwt>
<totfact> 0.78357816E+03</totfact>
</mgrwt>
</event>
<event>
 4    1  0.3945627E+000  0.2154903E+03  0.7546771E-02  0.1137291E+00
         21   -1    0    0  503  502  0.00000000000E+00  0.00000000000E+00  0.58881345843E+03  0.58881345843E+03  0.00000000000E+00 0. -1.
         21   -1    0    0  501  503 -0.00000000000E+00 -0.00000000000E+00 -0.19319563558E+03  0.19319563558E+03  0.00000000000E+00 0. -1.
          6    1    1    2  501    0  0.90158490662E+02 -0.91534138143E+02 -0.10298343979E+03  0.23883391877E+03  0.17300000000E+03 0. -1.
         -6    1    1    2    0  502 -0.90158490662E+02  0.91534138143E+02  0.49860126265E+03  0.54317517524E+03  0.17300000000E+03 0. -1.
<mgrwt>
<rscale>  2 0.21549026E+03</rscale>
<asrwt>0</asrwt>
<pdfrwt beam="1">  1       21 0.90586685E-01 0.21549026E+03</pdfrwt>
<pdfrwt beam="2">  1       21 0.29722406E-01 0.21549026E+03</pdfrwt>
<totfact> 0.11058732E+04</totfact>
</mgrwt>
</event>
<event>
 4    1  0.3945627E+000  0.2077982E+03  0.7546771E-02  0.1143322E+00
         21   -1    0    0  503  502  0.00000000000E+00  0.00000000000E+00  0.41073736238E+03  0.41073736238E+03  0.00000000000E+00 0. -1.
         21   -1    0    0  501  503 -0.00000000000E+00 -0.00000000000E+00 -0.19191235282E+03  0.19191235282E+03  0.00000000000E+00 0. -1.
          6    1    1    2  501    0 -0.89853704091E+02 -0.71954080116E+02 -0.93217483881E+02  0.22774893432E+03  0.17300000000E+03 0. -1.
         -6    1    1    2    0  502  0.89853704091E+02  0.71954080116E+02  0.31204249345E+03  0.37490078088E+03  0.17300000000E+03 0. -1.
<mgrwt>
<rscale>  2 0.20779817E+03</rscale>
<asrwt>0</asrwt>
<pdfrwt beam="1">  1       21 0.63190363E-01 0.20779817E+03</pdfrwt>
<pdfrwt beam="2">  1       21 0.29524978E-01 0.20779817E+03</pdfrwt>
<totfact> 0.25253677E+04</totfact>
</mgrwt>
</event>
<event>
 4    1  0.3945627E+000  0.3455436E+03  0.7546771E-02  0.1064459E+00
         21   -1    0    0  501  502  0.00000000000E+00  0.00000000000E+00  0.10052011783E+04  0.10052011783E+04  0.00000000000E+00 0. -1.
         21   -1    0    0  502  503 -0.00000000000E+00 -0.00000000000E+00 -0.13091557299E+03  0.13091557299E+03  0.00000000000E+00 0. -1.
          6    1    1    2  501    0  0.23630313165E+03  0.18339089975E+03  0.61007714091E+03  0.70113801067E+03  0.17300000000E+03 0. -1.
         -6    1    1    2    0  503 -0.23630313165E+03 -0.18339089975E+03  0.26420846444E+03  0.43497874066E+03  0.17300000000E+03 0. -1.
<mgrwt>
<rscale>  2 0.34554362E+03</rscale>
<asrwt>0</asrwt>
<pdfrwt beam="1">  1       21 0.15464633E+00 0.34554362E+03</pdfrwt>
<pdfrwt beam="2">  1       21 0.20140858E-01 0.34554362E+03</pdfrwt>
<totfact> 0.57122291E+03</totfact>
</mgrwt>
</event>
<event>
 4    1  0.3945627E+000  0.2033406E+03  0.7546771E-02  0.1146951E+00
         21   -1    0    0  501  502  0.00000000000E+00  0.00000000000E+00  0.57053715551E+02  0.57053715551E+02  0.00000000000E+00 0.  1.
         21   -1    0    0  502  503 -0.00000000000E+00 -0.00000000000E+00 -0.75861556567E+03  0.75861556567E+03  0.00000000000E+00 0. -1.
          6    1    1    2  501    0  0.87453953638E+02  0.61402127405E+02 -0.26456116331E+03  0.33367652657E+03  0.17300000000E+03 0.  1.
         -6    1    1    2    0  503 -0.87453953638E+02 -0.61402127405E+02 -0.43700068681E+03  0.48199275464E+03  0.17300000000E+03 0. -1.
<mgrwt>
<rscale>  2 0.20334064E+03</rscale>
<asrwt>0</asrwt>
<pdfrwt beam="1">  1       21 0.87774951E-02 0.20334064E+03</pdfrwt>
<pdfrwt beam="2">  1       21 0.11671008E+00 0.20334064E+03</pdfrwt>
<totfact> 0.57402877E+04</totfact>
</mgrwt>
</event>
<event>
 4    1  0.3945627E+000  0.2558895E+03  0.7546771E-02  0.1109638E+00
         21   -1    0    0  503  502  0.00000000000E+00  0.00000000000E+00  0.45373677716E+02  0.45373677716E+02  0.00000000000E+00 0.  1.
         21   -1    0    0  501  503 -0.00000000000E+00 -0.00000000000E+00 -0.14883502333E+04  0.14883502333E+04  0.00000000000E+00 0. -1.
          6    1    1    2  501    0  0.79504903355E+02 -0.17096605254E+03 -0.85518000550E+03  0.89264341289E+03  0.17300000000E+03 0. -1.
         -6    1    1    2    0  502 -0.79504903355E+02  0.17096605254E+03 -0.58779655011E+03  0.64108049814E+03  0.17300000000E+03 0.  1.
<mgrwt>
<rscale>  2 0.25588947E+03</rscale>
<asrwt>0</asrwt>
<pdfrwt beam="1">  1       21 0.69805644E-02 0.25588947E+03</pdfrwt>
<pdfrwt beam="2">  1       21 0.22897700E+00 0.25588947E+03</pdfrwt>
<totfact> 0.12839153E+04</totfact>
</mgrwt>
</event>
<event>
 4    1  0.3945627E+000  0.3272653E+03  0.7546771E-02  0.1072353E+00
         21   -1    0    0  503  502  0.00000000000E+00  0.00000000000E+00  0.82073010931E+03  0.82073010931E+03  0.00000000000E+00 0. -1.
         21   -1    0    0  501  503 -0.00000000000E+00 -0.00000000000E+00 -0.14395891727E+03  0.14395891727E+03  0.00000000000E+00 0.  1.
          6    1    1    2  501    0 -0.11050181819E+03 -0.25487829333E+03  0.48588689870E+03  0.58582307445E+03  0.17300000000E+03 0.  1.
         -6    1    1    2    0  502  0.11050181819E+03  0.25487829333E+03  0.19088429334E+03  0.37886595212E+03  0.17300000000E+03 0.  1.
<mgrwt>
<rscale>  2 0.32726533E+03</rscale>
<asrwt>0</asrwt>
<pdfrwt beam="1">  1       21 0.12626617E+00 0.32726533E+03</pdfrwt>
<pdfrwt beam="2">  1       21 0.22147526E-01 0.32726533E+03</pdfrwt>
<totfact> 0.81964904E+03</totfact>
</mgrwt>
</event>
<event>
 4    1  0.3945627E+000  0.2758998E+03  0.7546771E-02  0.1097950E+00
         21   -1    0    0  503  502  0.00000000000E+00  0.00000000000E+00  0.48042912638E+03  0.48042912638E+03  0.00000000000E+00 0.  1.
         21   -1    0    0  501  503 -0.00000000000E+00 -0.00000000000E+00 -0.20152391538E+03  0.20152391538E+03  0.00000000000E+00 0. -1.
          6    1    1    2  501    0  0.11244575509E+03 -0.18316011206E+03 -0.18200741477E+02  0.27649944209E+03  0.17300000000E+03 0.  1.
         -6    1    1    2    0  502 -0.11244575509E+03  0.18316011206E+03  0.29710595248E+03  0.40545359967E+03  0.17300000000E+03 0.  1.
<mgrwt>
<rscale>  2 0.27589975E+03</rscale>
<asrwt>0</asrwt>
<pdfrwt beam="1">  1       21 0.73912173E-01 0.27589975E+03</pdfrwt>
<pdfrwt beam="2">  1       21 0.31003680E-01 0.27589975E+03</pdfrwt>
<totfact> 0.15684195E+04</totfact>
</mgrwt>
</event>
<event>
 4    1  0.3945627E+000  0.1899769E+03  0.7546771E-02  0.1158482E+00
         21   -1    0    0  501  502  0.00000000000E+00  0.00000000000E+00  0.16735182831E+03  0.16735182831E+03  0.00000000000E+00 0. -1.
         21   -1    0    0  502  503 -0.00000000000E+00 -0.00000000000E+00 -0.22952344573E+03  0.22952344573E+03  0.00000000000E+00 0. -1.
          6    1    1    2  501    0 -0.73760656632E+02  0.26862328478E+02  0.17682143428E+02  0.19079800144E+03  0.17300000000E+03 0. -1.
         -6    1    1    2    0  503  0.73760656632E+02 -0.26862328478E+02 -0.79853760849E+02  0.20607727259E+03  0.17300000000E+03 0. -1.
<mgrwt>
<rscale>  2 0.18997689E+03</rscale>
<asrwt>0</asrwt>
<pdfrwt beam="1">  1       21 0.25746435E-01 0.18997689E+03</pdfrwt>
<pdfrwt beam="2">  1       21 0.35311299E-01 0.18997689E+03</pdfrwt>
<totfact> 0.11082158E+05</totfact>
</mgrwt>
</event>
<event>
 4    1  0.3945627E+000  0.1778672E+03  0.7546771E-02  0.1169883E+00
         21   -1    0    0  501  502  0.00000000000E+00  0.00000000000E+00  0.63254568331E+02  0.63254568331E+02  0.00000000000E+00 0. -1.
         21   -1    0    0  502  503 -0.00000000000E+00 -0.00000000000E+00 -0.61623596404E+03  0.61623596404E+03  0.00000000000E+00 0. -1.
          6    1    1    2  501    0 -0.24132005768E+01 -0.41254283321E+02 -0.12903188822E+03  0.21974068264E+03  0.17300000000E+03 0. -1.
         -6    1    1    2    0  503  0.24132005768E+01  0.41254283321E+02 -0.42394950749E+03  0.45974984973E+03  0.17300000000E+03 0. -1.
<mgrwt>
<rscale>  2 0.17786720E+03</rscale>
<asrwt>0</asrwt>
<pdfrwt beam="1">  1       21 0.97314719E-02 0.17786720E+03</pdfrwt>
<pdfrwt beam="2">  1       21 0.94805535E-01 0.17786720E+03</pdfrwt>
<totfact> 0.79760526E+04</totfact>
</mgrwt>
</event>
<event>
 4    1  0.3945627E+000  0.2400816E+03  0.7546771E-02  0.1119738E+00
         21   -1    0    0  501  502  0.00000000000E+00  0.00000000000E+00  0.20263393043E+03  0.20263393043E+03  0.00000000000E+00 0.  1.
         21   -1    0    0  502  503 -0.00000000000E+00 -0.00000000000E+00 -0.33577759386E+03  0.33577759386E+03  0.00000000000E+00 0. -1.
          6    1    1    2  501    0 -0.12179640720E+03  0.11347171706E+03  0.38681170767E+02  0.24317777109E+03  0.17300000000E+03 0.  1.
         -6    1    1    2    0  503  0.12179640720E+03 -0.11347171706E+03 -0.17182483420E+03  0.29523375320E+03  0.17300000000E+03 0. -1.
<mgrwt>
<rscale>  2 0.24008164E+03</rscale>
<asrwt>0</asrwt>
<pdfrwt beam="1">  1       21 0.31174451E-01 0.24008164E+03</pdfrwt>
<pdfrwt beam="2">  1       21 0.51658091E-01 0.24008164E+03</pdfrwt>
<totfact> 0.34368307E+04</totfact>
</mgrwt>
</event>
<event>
 4    1  0.3945627E+000  0.1802121E+03  0.7546771E-02  0.1167598E+00
         21   -1    0    0  503  502  0.00000000000E+00  0.00000000000E+00  0.63841303081E+03  0.63841303081E+03  0.00000000000E+00 0.  1.
         21   -1    0    0  501  503 -0.00000000000E+00 -0.00000000000E+00 -0.85556117333E+02  0.85556117333E+02  0.00000000000E+00 0. -1.
          6    1    1    2  501    0  0.23162082426E+02  0.44843189058E+02  0.45945291817E+02  0.18597678217E+03  0.17300000000E+03 0. -1.
         -6    1    1    2    0  502 -0.23162082426E+02 -0.44843189058E+02  0.50691162166E+03  0.53799236597E+03  0.17300000000E+03 0.  1.
<mgrwt>
<rscale>  2 0.18021208E+03</rscale>
<asrwt>0</asrwt>
<pdfrwt beam="1">  1       21 0.98217387E-01 0.18021208E+03</pdfrwt>
<pdfrwt beam="2">  1       21 0.13162480E-01 0.18021208E+03</pdfrwt>
<totfact> 0.42854271E+04</totfact>
</mgrwt>
</event>
<event>
 4    1  0.3945627E+000  0.2007242E+03  0.7546771E-02  0.1149129E+00
         21   -1    0    0  501  502  0.00000000000E+00  0.00000000000E+00  0.25395485959E+03  0.25395485959E+03  0.00000000000E+00 0. -1.
         21   -1    0    0  502  503 -0.00000000000E+00 -0.00000000000E+00 -0.23979741837E+03  0.23979741837E+03  0.00000000000E+00 0.  1.
          6    1    1    2  501    0  0.21128562106E+02 -0.99573079997E+02  0.15069091273E+03  0.25099395526E+03  0.17300000000E+03 0. -1.
         -6    1    1    2    0  503 -0.21128562106E+02  0.99573079997E+02 -0.13653347151E+03  0.24275832270E+03  0.17300000000E+03 0.  1.
<mgrwt>
<rscale>  2 0.20072422E+03</rscale>
<asrwt>0</asrwt>
<pdfrwt beam="1">  1       21 0.39069979E-01 0.20072422E+03</pdfrwt>
<pdfrwt beam="2">  1       21 0.36891910E-01 0.20072422E+03</pdfrwt>
<totfact> 0.44576846E+04</totfact>
</mgrwt>
</event>
<event>
 4    1  0.3945627E+000  0.2596011E+03  0.7546771E-02  0.1107383E+00
         21   -1    0    0  503  502  0.00000000000E+00  0.00000000000E+00  0.55217614510E+03  0.55217614510E+03  0.00000000000E+00 0.  1.
         21   -1    0    0  501  503 -0.00000000000E+00 -0.00000000000E+00 -0.12368185746E+03  0.12368185746E+03  0.00000000000E+00 0. -1.
          6    1    1    2  501    0  0.97976651166E+02 -0.16692599371E+03  0.17542256005E+03  0.31331419713E+03  0.17300000000E+03 0.  1.
         -6    1    1    2    0  502 -0.97976651166E+02  0.16692599371E+03  0.25307172759E+03  0.36254380543E+03  0.17300000000E+03 0. -1.
<mgrwt>
<rscale>  2 0.25960106E+03</rscale>
<asrwt>0</asrwt>
<pdfrwt beam="1">  1       21 0.84950175E-01 0.25960106E+03</pdfrwt>
<pdfrwt beam="2">  1       21 0.19027978E-01 0.25960106E+03</pdfrwt>
<totfact> 0.29383706E+04</totfact>
</mgrwt>
</event>
<event>
 4    1  0.3945627E+000  0.2576731E+03  0.7546771E-02  0.1108549E+00
         21   -1    0    0  501  502  0.00000000000E+00  0.00000000000E+00  0.77390832736E+02  0.77390832736E+02  0.00000000000E+00 0.  1.
         21   -1    0    0  502  503 -0.00000000000E+00 -0.00000000000E+00 -0.87576926134E+03  0.87576926134E+03  0.00000000000E+00 0.  1.
          6    1    1    2  501    0  0.17746545398E+03 -0.70515452599E+02 -0.46722042224E+03  0.53356381003E+03  0.17300000000E+03 0.  1.
         -6    1    1    2    0  503 -0.17746545398E+03  0.70515452599E+02 -0.33115800636E+03  0.41959628405E+03  0.17300000000E+03 0.  1.
<mgrwt>
<rscale>  2 0.25767308E+03</rscale>
<asrwt>0</asrwt>
<pdfrwt beam="1">  1       21 0.11906282E-01 0.25767308E+03</pdfrwt>
<pdfrwt beam="2">  1       21 0.13473373E+00 0.25767308E+03</pdfrwt>
<totfact> 0.22639098E+04</totfact>
</mgrwt>
</event>
<event>
 4    1  0.3945627E+000  0.2996347E+03  0.7546771E-02  0.1085423E+00
         21   -1    0    0  501  502  0.00000000000E+00  0.00000000000E+00  0.56822560168E+03  0.56822560168E+03  0.00000000000E+00 0. -1.
         21   -1    0    0  502  503 -0.00000000000E+00 -0.00000000000E+00 -0.24747997532E+03  0.24747997532E+03  0.00000000000E+00 0.  1.
          6    1    1    2  501    0  0.23636815864E+03  0.63103517582E+02  0.40561247827E+03  0.50428408945E+03  0.17300000000E+03 0. -1.
         -6    1    1    2    0  503 -0.23636815864E+03 -0.63103517582E+02 -0.84866851905E+02  0.31142148754E+03  0.17300000000E+03 0.  1.
<mgrwt>
<rscale>  2 0.29963471E+03</rscale>
<asrwt>0</asrwt>
<pdfrwt beam="1">  1       21 0.87419323E-01 0.29963471E+03</pdfrwt>
<pdfrwt beam="2">  1       21 0.38073842E-01 0.29963471E+03</pdfrwt>
<totfact> 0.70062946E+03</totfact>
</mgrwt>
</event>
<event>
 4    1  0.3945627E+000  0.1970990E+03  0.7546771E-02  0.1152210E+00
         21   -1    0    0  503  502  0.00000000000E+00  0.00000000000E+00  0.14834390162E+03  0.14834390162E+03  0.00000000000E+00 0.  1.
         21   -1    0    0  501  503 -0.00000000000E+00 -0.00000000000E+00 -0.16848452702E+04  0.16848452702E+04  0.00000000000E+00 0.  1.
          6    1    1    2  501    0  0.68342363605E+02 -0.65179261948E+02 -0.16106048359E+04  0.16226200888E+04  0.17300000000E+03 0.  1.
         -6    1    1    2    0  502 -0.68342363605E+02  0.65179261948E+02  0.74103467395E+02  0.21056908304E+03  0.17300000000E+03 0.  1.
<mgrwt>
<rscale>  2 0.19709900E+03</rscale>
<asrwt>0</asrwt>
<pdfrwt beam="1">  1       21 0.22822139E-01 0.19709900E+03</pdfrwt>
<pdfrwt beam="2">  1       21 0.25920696E+00 0.19709900E+03</pdfrwt>
<totfact> 0.10519842E+03</totfact>
</mgrwt>
</event>
<event>
 4    1  0.3945627E+000  0.1922923E+03  0.7546771E-02  0.1156410E+00
         21   -1    0    0  503  502  0.00000000000E+00  0.00000000000E+00  0.29818978566E+03  0.29818978566E+03  0.00000000000E+00 0.  1.
         21   -1    0    0  501  503 -0.00000000000E+00 -0.00000000000E+00 -0.13090220036E+03  0.13090220036E+03  0.00000000000E+00 0.  1.
          6    1    1    2  501    0 -0.81388083234E+02  0.20574060386E+02  0.34387859629E+02  0.19534287021E+03  0.17300000000E+03 0.  1.
         -6    1    1    2    0  502  0.81388083234E+02 -0.20574060386E+02  0.13289972567E+03  0.23374911580E+03  0.17300000000E+03 0.  1.
<mgrwt>
<rscale>  2 0.19229226E+03</rscale>
<asrwt>0</asrwt>
<pdfrwt beam="1">  1       21 0.45875351E-01 0.19229226E+03</pdfrwt>
<pdfrwt beam="2">  1       21 0.20138800E-01 0.19229226E+03</pdfrwt>
<totfact> 0.10380392E+05</totfact>
</mgrwt>
</event>
<event>
 4    1  0.3945627E+000  0.1773661E+03  0.7546771E-02  0.1170377E+00
         21   -1    0    0  503  502  0.00000000000E+00  0.00000000000E+00  0.48396587207E+03  0.48396587207E+03  0.00000000000E+00 0.  1.
         21   -1    0    0  501  503 -0.00000000000E+00 -0.00000000000E+00 -0.91065530656E+02  0.91065530656E+02  0.00000000000E+00 0.  1.
          6    1    1    2  501    0  0.39104666637E+02 -0.75609000343E+00  0.42634271022E+02  0.18241827674E+03  0.17300000000E+03 0.  1.
         -6    1    1    2    0  502 -0.39104666637E+02  0.75609000343E+00  0.35026607040E+03  0.39261312599E+03  0.17300000000E+03 0.  1.
<mgrwt>
<rscale>  2 0.17736614E+03</rscale>
<asrwt>0</asrwt>
<pdfrwt beam="1">  1       21 0.74456286E-01 0.17736614E+03</pdfrwt>
<pdfrwt beam="2">  1       21 0.14010082E-01 0.17736614E+03</pdfrwt>
<totfact> 0.72236593E+04</totfact>
</mgrwt>
</event>
<event>
 4    1  0.3945627E+000  0.2553691E+03  0.7546771E-02  0.1109958E+00
         21   -1    0    0  503  502  0.00000000000E+00  0.00000000000E+00  0.84408108341E+03  0.84408108341E+03  0.00000000000E+00 0.  1.
         21   -1    0    0  501  503 -0.00000000000E+00 -0.00000000000E+00 -0.28694841353E+03  0.28694841353E+03  0.00000000000E+00 0.  1.
          6    1    1    2  501    0  0.98206704857E+02 -0.16012435809E+03 -0.20485927383E+03  0.32738461938E+03  0.17300000000E+03 0.  1.
         -6    1    1    2    0  502 -0.98206704857E+02  0.16012435809E+03  0.76199194372E+03  0.80364487756E+03  0.17300000000E+03 0.  1.
<mgrwt>
<rscale>  2 0.25536908E+03</rscale>
<asrwt>0</asrwt>
<pdfrwt beam="1">  1       21 0.12985863E+00 0.25536908E+03</pdfrwt>
<pdfrwt beam="2">  1       21 0.44145910E-01 0.25536908E+03</pdfrwt>
<totfact> 0.20286233E+03</totfact>
</mgrwt>
</event>
<event>
 4    1  0.3945627E+000  0.1746896E+03  0.7546771E-02  0.1173044E+00
         21   -1    0    0  501  502  0.00000000000E+00  0.00000000000E+00  0.30482364329E+03  0.30482364329E+03  0.00000000000E+00 0.  1.
         21   -1    0    0  502  503 -0.00000000000E+00 -0.00000000000E+00 -0.17258655278E+03  0.17258655278E+03  0.00000000000E+00 0.  1.
          6    1    1    2  501    0 -0.13084221267E+01 -0.24201912824E+02  0.22080474828E+03  0.28155138326E+03  0.17300000000E+03 0.  1.
         -6    1    1    2    0  503  0.13084221267E+01  0.24201912824E+02 -0.88567657771E+02  0.19585881281E+03  0.17300000000E+03 0.  1.
<mgrwt>
<rscale>  2 0.17468957E+03</rscale>
<asrwt>0</asrwt>
<pdfrwt beam="1">  1       21 0.46895945E-01 0.17468957E+03</pdfrwt>
<pdfrwt beam="2">  1       21 0.26551777E-01 0.17468957E+03</pdfrwt>
<totfact> 0.59225031E+04</totfact>
</mgrwt>
</event>
<event>
 4    1  0.3945627E+000  0.1826689E+03  0.7546771E-02  0.1165245E+00
         21   -1    0    0  503  502  0.00000000000E+00  0.00000000000E+00  0.27359951347E+03  0.27359951347E+03  0.00000000000E+00 0. -1.
         21   -1    0    0  501  503 -0.00000000000E+00 -0.00000000000E+00 -0.13745203875E+03  0.13745203875E+03  0.00000000000E+00 0. -1.
          6    1    1    2  501    0 -0.58345573085E+02 -0.58935528347E+01 -0.92770148596E+00  0.18267129083E+03  0.17300000000E+03 0. -1.
         -6    1    1    2    0  502  0.58345573085E+02  0.58935528347E+01  0.13707517620E+03  0.22838026139E+03  0.17300000000E+03 0. -1.
<mgrwt>
<rscale>  2 0.18266894E+03</rscale>
<asrwt>0</asrwt>
<pdfrwt beam="1">  1       21 0.42092233E-01 0.18266894E+03</pdfrwt>
<pdfrwt beam="2">  1       21 0.21146468E-01 0.18266894E+03</pdfrwt>
<totfact> 0.11336197E+05</totfact>
</mgrwt>
</event>
<event>
 4    1  0.3945627E+000  0.1756913E+03  0.7546771E-02  0.1172039E+00
         21   -1    0    0  501  502  0.00000000000E+00  0.00000000000E+00  0.96328077961E+03  0.96328077961E+03  0.00000000000E+00 0. -1.
         21   -1    0    0  502  503 -0.00000000000E+00 -0.00000000000E+00 -0.44449071011E+02  0.44449071011E+02  0.00000000000E+00 0. -1.
          6    1    1    2  501    0 -0.18033807179E+02 -0.24763267726E+02  0.72559937744E+03  0.74656673792E+03  0.17300000000E+03 0. -1.
         -6    1    1    2    0  503  0.18033807179E+02  0.24763267726E+02  0.19323233116E+03  0.26116311270E+03  0.17300000000E+03 0. -1.
<mgrwt>
<rscale>  2 0.17569131E+03</rscale>
<asrwt>0</asrwt>
<pdfrwt beam="1">  1       21 0.14819703E+00 0.17569131E+03</pdfrwt>
<pdfrwt beam="2">  1       21 0.68383193E-02 0.17569131E+03</pdfrwt>
<totfact> 0.49063633E+04</totfact>
</mgrwt>
</event>
<event>
 4    1  0.3945627E+000  0.1914251E+03  0.7546771E-02  0.1157182E+00
         21   -1    0    0  503  502  0.00000000000E+00  0.00000000000E+00  0.99964334630E+03  0.99964334630E+03  0.00000000000E+00 0.  1.
         21   -1    0    0  501  503 -0.00000000000E+00 -0.00000000000E+00 -0.74694838795E+02  0.74694838795E+02  0.00000000000E+00 0.  1.
          6    1    1    2  501    0 -0.48506711602E+02 -0.66043001791E+02  0.79141774853E+02  0.20714004848E+03  0.17300000000E+03 0.  1.
         -6    1    1    2    0  502  0.48506711602E+02  0.66043001791E+02  0.84580673265E+03  0.86719813662E+03  0.17300000000E+03 0.  1.
<mgrwt>
<rscale>  2 0.19142513E+03</rscale>
<asrwt>0</asrwt>
<pdfrwt beam="1">  1       21 0.15379127E+00 0.19142513E+03</pdfrwt>
<pdfrwt beam="2">  1       21 0.11491514E-01 0.19142513E+03</pdfrwt>
<totfact> 0.17756996E+04</totfact>
</mgrwt>
</event>
<event>
 4    1  0.3945627E+000  0.1822189E+03  0.7546771E-02  0.1165673E+00
         21   -1    0    0  503  502  0.00000000000E+00  0.00000000000E+00  0.14901594546E+03  0.14901594546E+03  0.00000000000E+00 0.  1.
         21   -1    0    0  501  503 -0.00000000000E+00 -0.00000000000E+00 -0.49224588533E+03  0.49224588533E+03  0.00000000000E+00 0.  1.
          6    1    1    2  501    0  0.34417911852E+02 -0.45717817118E+02 -0.40882558701E+03  0.44759588029E+03  0.17300000000E+03 0.  1.
         -6    1    1    2    0  502 -0.34417911852E+02  0.45717817118E+02  0.65595647142E+02  0.19366595050E+03  0.17300000000E+03 0.  1.
<mgrwt>
<rscale>  2 0.18221886E+03</rscale>
<asrwt>0</asrwt>
<pdfrwt beam="1">  1       21 0.22925530E-01 0.18221886E+03</pdfrwt>
<pdfrwt beam="2">  1       21 0.75730136E-01 0.18221886E+03</pdfrwt>
<totfact> 0.27946113E+04</totfact>
</mgrwt>
</event>
<event>
 4    1  0.3945627E+000  0.3244490E+03  0.7546771E-02  0.1073620E+00
         21   -1    0    0  503  502  0.00000000000E+00  0.00000000000E+00  0.15919217621E+03  0.15919217621E+03  0.00000000000E+00 0. -1.
         21   -1    0    0  501  503 -0.00000000000E+00 -0.00000000000E+00 -0.66681095259E+03  0.66681095259E+03  0.00000000000E+00 0. -1.
          6    1    1    2  501    0  0.61551732102E+02 -0.26748749276E+03 -0.29149660166E+03  0.43616217544E+03  0.17300000000E+03 0. -1.
         -6    1    1    2    0  502 -0.61551732102E+02  0.26748749276E+03 -0.21612217473E+03  0.38984095336E+03  0.17300000000E+03 0. -1.
<mgrwt>
<rscale>  2 0.32444903E+03</rscale>
<asrwt>0</asrwt>
<pdfrwt beam="1">  1       21 0.24491104E-01 0.32444903E+03</pdfrwt>
<pdfrwt beam="2">  1       21 0.10258630E+00 0.32444903E+03</pdfrwt>
<totfact> 0.11331377E+04</totfact>
</mgrwt>
</event>
<event>
 4    1  0.3945627E+000  0.1857352E+03  0.7546771E-02  0.1162365E+00
         21   -1    0    0  501  502  0.00000000000E+00  0.00000000000E+00  0.56514617242E+03  0.56514617242E+03  0.00000000000E+00 0.  1.
         21   -1    0    0  502  503 -0.00000000000E+00 -0.00000000000E+00 -0.20603877323E+03  0.20603877323E+03  0.00000000000E+00 0.  1.
          6    1    1    2  501    0 -0.44731724651E+02  0.50671793830E+02  0.50302331311E+03  0.53621824979E+03  0.17300000000E+03 0.  1.
         -6    1    1    2    0  503  0.44731724651E+02 -0.50671793830E+02 -0.14391591392E+03  0.23496669585E+03  0.17300000000E+03 0.  1.
<mgrwt>
<rscale>  2 0.18573518E+03</rscale>
<asrwt>0</asrwt>
<pdfrwt beam="1">  1       21 0.86945564E-01 0.18573518E+03</pdfrwt>
<pdfrwt beam="2">  1       21 0.31698273E-01 0.18573518E+03</pdfrwt>
<totfact> 0.10937450E+04</totfact>
</mgrwt>
</event>
<event>
 4    1  0.3945627E+000  0.2286640E+03  0.7546771E-02  0.1127584E+00
         21   -1    0    0  503  502  0.00000000000E+00  0.00000000000E+00  0.43553695509E+03  0.43553695509E+03  0.00000000000E+00 0.  1.
         21   -1    0    0  501  503 -0.00000000000E+00 -0.00000000000E+00 -0.23106002925E+03  0.23106002925E+03  0.00000000000E+00 0.  1.
          6    1    1    2  501    0 -0.14900143991E+03  0.12521607117E+02 -0.12878043994E+03  0.26243403257E+03  0.17300000000E+03 0.  1.
         -6    1    1    2    0  502  0.14900143991E+03 -0.12521607117E+02  0.33325736577E+03  0.40416295177E+03  0.17300000000E+03 0.  1.
<mgrwt>
<rscale>  2 0.22866399E+03</rscale>
<asrwt>0</asrwt>
<pdfrwt beam="1">  1       21 0.67005685E-01 0.22866399E+03</pdfrwt>
<pdfrwt beam="2">  1       21 0.35547697E-01 0.22866399E+03</pdfrwt>
<totfact> 0.15226966E+04</totfact>
</mgrwt>
</event>
<event>
 4    1  0.3945627E+000  0.1983894E+03  0.7546771E-02  0.1151105E+00
         21   -1    0    0  501  502  0.00000000000E+00  0.00000000000E+00  0.30440983312E+03  0.30440983312E+03  0.00000000000E+00 0. -1.
         21   -1    0    0  502  503 -0.00000000000E+00 -0.00000000000E+00 -0.12936409378E+03  0.12936409378E+03  0.00000000000E+00 0. -1.
          6    1    1    2  501    0  0.63553747954E+02 -0.73418618328E+02  0.92570536120E+02  0.21892390585E+03  0.17300000000E+03 0. -1.
         -6    1    1    2    0  503 -0.63553747954E+02  0.73418618328E+02  0.82475203217E+02  0.21485002104E+03  0.17300000000E+03 0. -1.
<mgrwt>
<rscale>  2 0.19838945E+03</rscale>
<asrwt>0</asrwt>
<pdfrwt beam="1">  1       21 0.46832282E-01 0.19838945E+03</pdfrwt>
<pdfrwt beam="2">  1       21 0.19902168E-01 0.19838945E+03</pdfrwt>
<totfact> 0.10144508E+05</totfact>
</mgrwt>
</event>
<event>
 4    1  0.3945627E+000  0.1750400E+03  0.7546771E-02  0.1172692E+00
         21   -1    0    0  501  502  0.00000000000E+00  0.00000000000E+00  0.16453222677E+04  0.16453222677E+04  0.00000000000E+00 0.  1.
         21   -1    0    0  502  503 -0.00000000000E+00 -0.00000000000E+00 -0.19624909057E+02  0.19624909057E+02  0.00000000000E+00 0.  1.
          6    1    1    2  501    0 -0.14597110813E+02 -0.22291605687E+02  0.10010504581E+04  0.10162386585E+04  0.17300000000E+03 0.  1.
         -6    1    1    2    0  503  0.14597110813E+02  0.22291605687E+02  0.62464690061E+03  0.64870851834E+03  0.17300000000E+03 0.  1.
<mgrwt>
<rscale>  2 0.17503997E+03</rscale>
<asrwt>0</asrwt>
<pdfrwt beam="1">  1       21 0.25312639E+00 0.17503997E+03</pdfrwt>
<pdfrwt beam="2">  1       21 0.30192181E-02 0.17503997E+03</pdfrwt>
<totfact> 0.40492946E+04</totfact>
</mgrwt>
</event>
<event>
 4    1  0.3945627E+000  0.2704751E+03  0.7546771E-02  0.1101008E+00
         21   -1    0    0  501  502  0.00000000000E+00  0.00000000000E+00  0.28013766793E+03  0.28013766793E+03  0.00000000000E+00 0. -1.
         21   -1    0    0  502  503 -0.00000000000E+00 -0.00000000000E+00 -0.56988586521E+03  0.56988586521E+03  0.00000000000E+00 0.  1.
          6    1    1    2  501    0  0.13921866271E+03  0.15442140596E+03  0.16795232407E+03  0.31837837525E+03  0.17300000000E+03 0. -1.
         -6    1    1    2    0  503 -0.13921866271E+03 -0.15442140596E+03 -0.45770052135E+03  0.53164515789E+03  0.17300000000E+03 0.  1.
<mgrwt>
<rscale>  2 0.27047515E+03</rscale>
<asrwt>0</asrwt>
<pdfrwt beam="1">  1       21 0.43098103E-01 0.27047515E+03</pdfrwt>
<pdfrwt beam="2">  1       21 0.87674749E-01 0.27047515E+03</pdfrwt>
<totfact> 0.54850020E+03</totfact>
</mgrwt>
</event>
<event>
 4    1  0.3945627E+000  0.2234579E+03  0.7546771E-02  0.1131331E+00
         21   -1    0    0  501  502  0.00000000000E+00  0.00000000000E+00  0.33359692580E+03  0.33359692580E+03  0.00000000000E+00 0. -1.
         21   -1    0    0  502  503 -0.00000000000E+00 -0.00000000000E+00 -0.15784696891E+03  0.15784696891E+03  0.00000000000E+00 0. -1.
          6    1    1    2  501    0  0.10198189958E+03 -0.98000627831E+02  0.14376123473E+03  0.26570796659E+03  0.17300000000E+03 0. -1.
         -6    1    1    2    0  503 -0.10198189958E+03  0.98000627831E+02  0.31988722157E+02  0.22573592811E+03  0.17300000000E+03 0. -1.
<mgrwt>
<rscale>  2 0.22345790E+03</rscale>
<asrwt>0</asrwt>
<pdfrwt beam="1">  1       21 0.51322604E-01 0.22345790E+03</pdfrwt>
<pdfrwt beam="2">  1       21 0.24284149E-01 0.22345790E+03</pdfrwt>
<totfact> 0.56957435E+04</totfact>
</mgrwt>
</event>
<event>
 4    1  0.3945627E+000  0.2018386E+03  0.7546771E-02  0.1148197E+00
         21   -1    0    0  501  502  0.00000000000E+00  0.00000000000E+00  0.65987007590E+03  0.65987007590E+03  0.00000000000E+00 0. -1.
         21   -1    0    0  502  503 -0.00000000000E+00 -0.00000000000E+00 -0.11161511153E+03  0.11161511153E+03  0.00000000000E+00 0.  1.
          6    1    1    2  501    0 -0.10388255415E+03  0.42723025816E+01  0.53198999108E+03  0.56899225674E+03  0.17300000000E+03 0. -1.
         -6    1    1    2    0  503  0.10388255415E+03 -0.42723025816E+01  0.16264973293E+02  0.20249293070E+03  0.17300000000E+03 0.  1.
<mgrwt>
<rscale>  2 0.20183864E+03</rscale>
<asrwt>0</asrwt>
<pdfrwt beam="1">  1       21 0.10151847E+00 0.20183864E+03</pdfrwt>
<pdfrwt beam="2">  1       21 0.17171556E-01 0.20183864E+03</pdfrwt>
<totfact> 0.24122732E+04</totfact>
</mgrwt>
</event>
<event>
 4    1  0.3945627E+000  0.5942470E+03  0.7546771E-02  0.9917414E-01
         21   -1    0    0  501  502  0.00000000000E+00  0.00000000000E+00  0.82165839625E+03  0.82165839625E+03  0.00000000000E+00 0. -1.
         21   -1    0    0  502  503 -0.00000000000E+00 -0.00000000000E+00 -0.43403092677E+03  0.43403092677E+03  0.00000000000E+00 0.  1.
          6    1    1    2  501    0 -0.33446839107E+02  0.56752252476E+03  0.13165386870E+03  0.60865610019E+03  0.17300000000E+03 0.  1.
         -6    1    1    2    0  503  0.33446839107E+02 -0.56752252476E+03  0.25597360078E+03  0.64703322283E+03  0.17300000000E+03 0. -1.
<mgrwt>
<rscale>  2 0.59424701E+03</rscale>
<asrwt>0</asrwt>
<pdfrwt beam="1">  1       21 0.12640898E+00 0.59424701E+03</pdfrwt>
<pdfrwt beam="2">  1       21 0.66773989E-01 0.59424701E+03</pdfrwt>
<totfact> 0.76280156E+02</totfact>
</mgrwt>
</event>
<event>
 4    1  0.3945627E+000  0.2510258E+03  0.7546771E-02  0.1112658E+00
         21   -1    0    0  503  502  0.00000000000E+00  0.00000000000E+00  0.12123482147E+04  0.12123482147E+04  0.00000000000E+00 0.  1.
         21   -1    0    0  501  503 -0.00000000000E+00 -0.00000000000E+00 -0.12049362882E+03  0.12049362882E+03  0.00000000000E+00 0. -1.
          6    1    1    2  501    0 -0.17389136657E+03  0.53354705663E+02  0.43393425771E+02  0.25474874167E+03  0.17300000000E+03 0. -1.
         -6    1    1    2    0  502  0.17389136657E+03 -0.53354705663E+02  0.10484611601E+04  0.10780931019E+04  0.17300000000E+03 0.  1.
<mgrwt>
<rscale>  2 0.25102576E+03</rscale>
<asrwt>0</asrwt>
<pdfrwt beam="1">  1       21 0.18651510E+00 0.25102576E+03</pdfrwt>
<pdfrwt beam="2">  1       21 0.18537482E-01 0.25102576E+03</pdfrwt>
<totfact> 0.41677629E+03</totfact>
</mgrwt>
</event>
<event>
 4    1  0.3945627E+000  0.1915103E+03  0.7546771E-02  0.1157106E+00
         21   -1    0    0  501  502  0.00000000000E+00  0.00000000000E+00  0.54943444877E+02  0.54943444877E+02  0.00000000000E+00 0.  1.
         21   -1    0    0  502  503 -0.00000000000E+00 -0.00000000000E+00 -0.67792219778E+03  0.67792219778E+03  0.00000000000E+00 0.  1.
          6    1    1    2  501    0 -0.15732348205E+02 -0.80620629050E+02 -0.26611233820E+03  0.32785967905E+03  0.17300000000E+03 0.  1.
         -6    1    1    2    0  503  0.15732348205E+02  0.80620629050E+02 -0.35686641470E+03  0.40500596360E+03  0.17300000000E+03 0.  1.
<mgrwt>
<rscale>  2 0.19151029E+03</rscale>
<asrwt>0</asrwt>
<pdfrwt beam="1">  1       21 0.84528373E-02 0.19151029E+03</pdfrwt>
<pdfrwt beam="2">  1       21 0.10429573E+00 0.19151029E+03</pdfrwt>
<totfact> 0.80989418E+04</totfact>
</mgrwt>
</event>
<event>
 4    1  0.3945627E+000  0.2157027E+03  0.7546771E-02  0.1137128E+00
         21   -1    0    0  501  502  0.00000000000E+00  0.00000000000E+00  0.45599509008E+02  0.45599509008E+02  0.00000000000E+00 0. -1.
         21   -1    0    0  502  503 -0.00000000000E+00 -0.00000000000E+00 -0.10336760928E+04  0.10336760928E+04  0.00000000000E+00 0. -1.
          6    1    1    2  501    0 -0.12571621681E+03 -0.28179343301E+02 -0.55530096555E+03  0.59572376560E+03  0.17300000000E+03 0. -1.
         -6    1    1    2    0  503  0.12571621681E+03  0.28179343301E+02 -0.43277561825E+03  0.48355183622E+03  0.17300000000E+03 0. -1.
<mgrwt>
<rscale>  2 0.21570267E+03</rscale>
<asrwt>0</asrwt>
<pdfrwt beam="1">  1       21 0.70153097E-02 0.21570267E+03</pdfrwt>
<pdfrwt beam="2">  1       21 0.15902708E+00 0.21570267E+03</pdfrwt>
<totfact> 0.38028696E+04</totfact>
</mgrwt>
</event>
<event>
 4    1  0.3945627E+000  0.2390081E+03  0.7546771E-02  0.1120455E+00
         21   -1    0    0  503  502  0.00000000000E+00  0.00000000000E+00  0.40309576856E+03  0.40309576856E+03  0.00000000000E+00 0. -1.
         21   -1    0    0  501  503 -0.00000000000E+00 -0.00000000000E+00 -0.14328081557E+03  0.14328081557E+03  0.00000000000E+00 0. -1.
          6    1    1    2  501    0  0.13115064008E+03 -0.99976857794E+02  0.10135207633E+03  0.25960952576E+03  0.17300000000E+03 0. -1.
         -6    1    1    2    0  502 -0.13115064008E+03  0.99976857794E+02  0.15846287666E+03  0.28676705837E+03  0.17300000000E+03 0. -1.
<mgrwt>
<rscale>  2 0.23900808E+03</rscale>
<asrwt>0</asrwt>
<pdfrwt beam="1">  1       21 0.62014733E-01 0.23900808E+03</pdfrwt>
<pdfrwt beam="2">  1       21 0.22043203E-01 0.23900808E+03</pdfrwt>
<totfact> 0.45414096E+04</totfact>
</mgrwt>
</event>
<event>
 4    1  0.3945627E+000  0.3511014E+03  0.7546771E-02  0.1062164E+00
         21   -1    0    0  503  502  0.00000000000E+00  0.00000000000E+00  0.19203203304E+04  0.19203203304E+04  0.00000000000E+00 0.  1.
         21   -1    0    0  501  503 -0.00000000000E+00 -0.00000000000E+00 -0.70757851924E+02  0.70757851924E+02  0.00000000000E+00 0. -1.
          6    1    1    2  501    0 -0.14349293433E+03 -0.26972760003E+03  0.12280061699E+04  0.12772123370E+04  0.17300000000E+03 0. -1.
         -6    1    1    2    0  502  0.14349293433E+03  0.26972760003E+03  0.62155630854E+03  0.71386584531E+03  0.17300000000E+03 0.  1.
<mgrwt>
<rscale>  2 0.35110141E+03</rscale>
<asrwt>0</asrwt>
<pdfrwt beam="1">  1       21 0.29543386E+00 0.35110141E+03</pdfrwt>
<pdfrwt beam="2">  1       21 0.10885825E-01 0.35110141E+03</pdfrwt>
<totfact> 0.21961756E+03</totfact>
</mgrwt>
</event>
<event>
 4    1  0.3945627E+000  0.2329895E+03  0.7546771E-02  0.1124553E+00
         21   -1    0    0  503  502  0.00000000000E+00  0.00000000000E+00  0.60128264385E+03  0.60128264385E+03  0.00000000000E+00 0.  1.
         21   -1    0    0  501  503 -0.00000000000E+00 -0.00000000000E+00 -0.17523161710E+03  0.17523161710E+03  0.00000000000E+00 0. -1.
          6    1    1    2  501    0  0.15598210771E+03  0.49687290686E+01 -0.57306648267E+02  0.23993365360E+03  0.17300000000E+03 0. -1.
         -6    1    1    2    0  502 -0.15598210771E+03 -0.49687290686E+01  0.48335767502E+03  0.53658060736E+03  0.17300000000E+03 0.  1.
<mgrwt>
<rscale>  2 0.23298950E+03</rscale>
<asrwt>0</asrwt>
<pdfrwt beam="1">  1       21 0.92505021E-01 0.23298950E+03</pdfrwt>
<pdfrwt beam="2">  1       21 0.26958711E-01 0.23298950E+03</pdfrwt>
<totfact> 0.12594770E+04</totfact>
</mgrwt>
</event>
<event>
 4    1  0.3945627E+000  0.1917857E+03  0.7546771E-02  0.1156861E+00
         21   -1    0    0  503  502  0.00000000000E+00  0.00000000000E+00  0.32412938167E+03  0.32412938167E+03  0.00000000000E+00 0.  1.
         21   -1    0    0  501  503 -0.00000000000E+00 -0.00000000000E+00 -0.11675130760E+03  0.11675130760E+03  0.00000000000E+00 0.  1.
          6    1    1    2  501    0  0.26002397572E+02  0.78591517395E+02  0.14059641791E+03  0.23780055512E+03  0.17300000000E+03 0.  1.
         -6    1    1    2    0  502 -0.26002397572E+02 -0.78591517395E+02  0.66781656160E+02  0.20308013415E+03  0.17300000000E+03 0.  1.
<mgrwt>
<rscale>  2 0.19178569E+03</rscale>
<asrwt>0</asrwt>
<pdfrwt beam="1">  1       21 0.49866059E-01 0.19178569E+03</pdfrwt>
<pdfrwt beam="2">  1       21 0.17961740E-01 0.19178569E+03</pdfrwt>
<totfact> 0.10804408E+05</totfact>
</mgrwt>
</event>
<event>
 4    1  0.3945627E+000  0.2510349E+03  0.7546771E-02  0.1112653E+00
         21   -1    0    0  501  502  0.00000000000E+00  0.00000000000E+00  0.30723387099E+03  0.30723387099E+03  0.00000000000E+00 0. -1.
         21   -1    0    0  502  503 -0.00000000000E+00 -0.00000000000E+00 -0.37113242693E+03  0.37113242693E+03  0.00000000000E+00 0. -1.
          6    1    1    2  501    0 -0.11224749398E+03 -0.14314343239E+03 -0.25880279717E+03  0.36055156353E+03  0.17300000000E+03 0. -1.
         -6    1    1    2    0  503  0.11224749398E+03  0.14314343239E+03  0.19490424123E+03  0.31781473438E+03  0.17300000000E+03 0. -1.
<mgrwt>
<rscale>  2 0.25103494E+03</rscale>
<asrwt>0</asrwt>
<pdfrwt beam="1">  1       21 0.47266749E-01 0.25103494E+03</pdfrwt>
<pdfrwt beam="2">  1       21 0.57097296E-01 0.25103494E+03</pdfrwt>
<totfact> 0.11911652E+04</totfact>
</mgrwt>
</event>
<event>
 4    1  0.3945627E+000  0.2417040E+03  0.7546771E-02  0.1118663E+00
         21   -1    0    0  503  502  0.00000000000E+00  0.00000000000E+00  0.11508943637E+03  0.11508943637E+03  0.00000000000E+00 0.  1.
         21   -1    0    0  501  503 -0.00000000000E+00 -0.00000000000E+00 -0.64578204894E+03  0.64578204894E+03  0.00000000000E+00 0. -1.
          6    1    1    2  501    0 -0.16870734227E+03 -0.54468914716E+01 -0.89373926962E+02  0.25769853470E+03  0.17300000000E+03 0.  1.
         -6    1    1    2    0  502  0.16870734227E+03  0.54468914716E+01 -0.44131868561E+03  0.50317295062E+03  0.17300000000E+03 0. -1.
<mgrwt>
<rscale>  2 0.24170403E+03</rscale>
<asrwt>0</asrwt>
<pdfrwt beam="1">  1       21 0.17706067E-01 0.24170403E+03</pdfrwt>
<pdfrwt beam="2">  1       21 0.99351087E-01 0.24170403E+03</pdfrwt>
<totfact> 0.23480285E+04</totfact>
</mgrwt>
</event>
<event>
 4    1  0.3945627E+000  0.2042926E+03  0.7546771E-02  0.1146167E+00
         21   -1    0    0  501  502  0.00000000000E+00  0.00000000000E+00  0.26960331367E+03  0.26960331367E+03  0.00000000000E+00 0. -1.
         21   -1    0    0  502  503 -0.00000000000E+00 -0.00000000000E+00 -0.15491988690E+03  0.15491988690E+03  0.00000000000E+00 0. -1.
          6    1    1    2  501    0 -0.37384834013E+01  0.10859317317E+03  0.51516070220E+02  0.21068782359E+03  0.17300000000E+03 0. -1.
         -6    1    1    2    0  503  0.37384834013E+01 -0.10859317317E+03  0.63167356542E+02  0.21383537698E+03  0.17300000000E+03 0. -1.
<mgrwt>
<rscale>  2 0.20429257E+03</rscale>
<asrwt>0</asrwt>
<pdfrwt beam="1">  1       21 0.41477433E-01 0.20429257E+03</pdfrwt>
<pdfrwt beam="2">  1       21 0.23833829E-01 0.20429257E+03</pdfrwt>
<totfact> 0.92403281E+04</totfact>
</mgrwt>
</event>
<event>
 4    1  0.3945627E+000  0.2613996E+03  0.7546771E-02  0.1106305E+00
         21   -1    0    0  503  502  0.00000000000E+00  0.00000000000E+00  0.36359676750E+03  0.36359676750E+03  0.00000000000E+00 0.  1.
         21   -1    0    0  501  503 -0.00000000000E+00 -0.00000000000E+00 -0.21272019737E+03  0.21272019737E+03  0.00000000000E+00 0. -1.
          6    1    1    2  501    0 -0.19347845965E+03 -0.31094084958E+02 -0.22938073355E+02  0.26240409996E+03  0.17300000000E+03 0. -1.
         -6    1    1    2    0  502  0.19347845965E+03  0.31094084958E+02  0.17381464349E+03  0.31391286491E+03  0.17300000000E+03 0.  1.
<mgrwt>
<rscale>  2 0.26139961E+03</rscale>
<asrwt>0</asrwt>
<pdfrwt beam="1">  1       21 0.55937964E-01 0.26139961E+03</pdfrwt>
<pdfrwt beam="2">  1       21 0.32726184E-01 0.26139961E+03</pdfrwt>
<totfact> 0.26124165E+04</totfact>
</mgrwt>
</event>
<event>
 4    1  0.3945627E+000  0.1932155E+03  0.7546771E-02  0.1155593E+00
         21   -1    0    0  503  502  0.00000000000E+00  0.00000000000E+00  0.23336803866E+04  0.23336803866E+04  0.00000000000E+00 0.  1.
         21   -1    0    0  501  503 -0.00000000000E+00 -0.00000000000E+00 -0.16380185560E+02  0.16380185560E+02  0.00000000000E+00 0.  1.
          6    1    1    2  501    0  0.54736277839E+02 -0.66386597185E+02  0.97896670920E+03  0.99785172151E+03  0.17300000000E+03 0.  1.
         -6    1    1    2    0  502 -0.54736277839E+02  0.66386597185E+02  0.13383334918E+04  0.13522088507E+04  0.17300000000E+03 0.  1.
<mgrwt>
<rscale>  2 0.19321553E+03</rscale>
<asrwt>0</asrwt>
<pdfrwt beam="1">  1       21 0.35902749E+00 0.19321553E+03</pdfrwt>
<pdfrwt beam="2">  1       21 0.25200304E-02 0.19321553E+03</pdfrwt>
<totfact> 0.13030432E+04</totfact>
</mgrwt>
</event>
<event>
 4    1  0.3945627E+000  0.2170907E+03  0.7546771E-02  0.1136071E+00
         21   -1    0    0  503  502  0.00000000000E+00  0.00000000000E+00  0.14214499945E+03  0.14214499945E+03  0.00000000000E+00 0.  1.
         21   -1    0    0  501  503 -0.00000000000E+00 -0.00000000000E+00 -0.33307122793E+03  0.33307122793E+03  0.00000000000E+00 0.  1.
          6    1    1    2  501    0  0.82890598301E+01 -0.13088416107E+03 -0.79412510807E+02  0.23115950987E+03  0.17300000000E+03 0.  1.
         -6    1    1    2    0  502 -0.82890598301E+01  0.13088416107E+03 -0.11151371767E+03  0.24405671751E+03  0.17300000000E+03 0.  1.
<mgrwt>
<rscale>  2 0.21709070E+03</rscale>
<asrwt>0</asrwt>
<pdfrwt beam="1">  1       21 0.21868461E-01 0.21709070E+03</pdfrwt>
<pdfrwt beam="2">  1       21 0.51241727E-01 0.21709070E+03</pdfrwt>
<totfact> 0.69919634E+04</totfact>
</mgrwt>
</event>
<event>
 4    1  0.3945627E+000  0.1901452E+03  0.7546771E-02  0.1158330E+00
         21   -1    0    0  501  502  0.00000000000E+00  0.00000000000E+00  0.14552048902E+03  0.14552048902E+03  0.00000000000E+00 0.  1.
         21   -1    0    0  502  503 -0.00000000000E+00 -0.00000000000E+00 -0.26464157872E+03  0.26464157872E+03  0.00000000000E+00 0. -1.
          6    1    1    2  501    0 -0.18499259353E+02 -0.76707172178E+02 -0.88402945856E+01  0.19035063349E+03  0.17300000000E+03 0.  1.
         -6    1    1    2    0  503  0.18499259353E+02  0.76707172178E+02 -0.11028079511E+03  0.21981143426E+03  0.17300000000E+03 0.  1.
<mgrwt>
<rscale>  2 0.19014524E+03</rscale>
<asrwt>0</asrwt>
<pdfrwt beam="1">  1       21 0.22387768E-01 0.19014524E+03</pdfrwt>
<pdfrwt beam="2">  1       21 0.40714089E-01 0.19014524E+03</pdfrwt>
<totfact> 0.10864911E+05</totfact>
</mgrwt>
</event>
<event>
 4    1  0.3945627E+000  0.2245852E+03  0.7546771E-02  0.1130510E+00
         21   -1    0    0  503  502  0.00000000000E+00  0.00000000000E+00  0.78000555989E+02  0.78000555989E+02  0.00000000000E+00 0. -1.
         21   -1    0    0  501  503 -0.00000000000E+00 -0.00000000000E+00 -0.64765844052E+03  0.64765844052E+03  0.00000000000E+00 0. -1.
          6    1    1    2  501    0 -0.87443960908E+02  0.11341545932E+03 -0.27046217512E+03  0.35155127775E+03  0.17300000000E+03 0. -1.
         -6    1    1    2    0  502  0.87443960908E+02 -0.11341545932E+03 -0.29919570941E+03  0.37410771877E+03  0.17300000000E+03 0. -1.
<mgrwt>
<rscale>  2 0.22458520E+03</rscale>
<asrwt>0</asrwt>
<pdfrwt beam="1">  1       21 0.12000085E-01 0.22458520E+03</pdfrwt>
<pdfrwt beam="2">  1       21 0.99639763E-01 0.22458520E+03</pdfrwt>
<totfact> 0.47821318E+04</totfact>
</mgrwt>
</event>
<event>
 4    1  0.3945627E+000  0.1971595E+03  0.7546771E-02  0.1152158E+00
         21   -1    0    0  503  502  0.00000000000E+00  0.00000000000E+00  0.53278528356E+02  0.53278528356E+02  0.00000000000E+00 0. -1.
         21   -1    0    0  501  503 -0.00000000000E+00 -0.00000000000E+00 -0.11118026926E+04  0.11118026926E+04  0.00000000000E+00 0. -1.
          6    1    1    2  501    0 -0.60351961846E+02 -0.72804636541E+02 -0.87081713037E+03  0.89285740684E+03  0.17300000000E+03 0. -1.
         -6    1    1    2    0  502  0.60351961846E+02  0.72804636541E+02 -0.18770703383E+03  0.27222381408E+03  0.17300000000E+03 0. -1.
<mgrwt>
<rscale>  2 0.19715952E+03</rscale>
<asrwt>0</asrwt>
<pdfrwt beam="1">  1       21 0.81966978E-02 0.19715952E+03</pdfrwt>
<pdfrwt beam="2">  1       21 0.17104654E+00 0.19715952E+03</pdfrwt>
<totfact> 0.24059235E+04</totfact>
</mgrwt>
</event>
<event>
 4    1  0.3945627E+000  0.2181498E+03  0.7546771E-02  0.1135270E+00
         21   -1    0    0  501  502  0.00000000000E+00  0.00000000000E+00  0.96882867272E+03  0.96882867272E+03  0.00000000000E+00 0. -1.
         21   -1    0    0  502  503 -0.00000000000E+00 -0.00000000000E+00 -0.72971323150E+02  0.72971323150E+02  0.00000000000E+00 0. -1.
          6    1    1    2  501    0 -0.13158296377E+03 -0.18608211481E+02  0.74573231108E+03  0.77698521329E+03  0.17300000000E+03 0. -1.
         -6    1    1    2    0  503  0.13158296377E+03  0.18608211481E+02  0.15012503849E+03  0.26481478257E+03  0.17300000000E+03 0. -1.
<mgrwt>
<rscale>  2 0.21814982E+03</rscale>
<asrwt>0</asrwt>
<pdfrwt beam="1">  1       21 0.14905056E+00 0.21814982E+03</pdfrwt>
<pdfrwt beam="2">  1       21 0.11226358E-01 0.21814982E+03</pdfrwt>
<totfact> 0.19755264E+04</totfact>
</mgrwt>
</event>
<event>
 4    1  0.3945627E+000  0.1970362E+03  0.7546771E-02  0.1152264E+00
         21   -1    0    0  501  502  0.00000000000E+00  0.00000000000E+00  0.52013472013E+03  0.52013472013E+03  0.00000000000E+00 0.  1.
         21   -1    0    0  502  503 -0.00000000000E+00 -0.00000000000E+00 -0.75104507225E+02  0.75104507225E+02  0.00000000000E+00 0.  1.
          6    1    1    2  501    0  0.93871714810E+02 -0.90745209173E+01  0.19912814776E+03  0.28013436955E+03  0.17300000000E+03 0.  1.
         -6    1    1    2    0  503 -0.93871714810E+02  0.90745209173E+01  0.24590206514E+03  0.31510485780E+03  0.17300000000E+03 0.  1.
<mgrwt>
<rscale>  2 0.19703615E+03</rscale>
<asrwt>0</asrwt>
<pdfrwt beam="1">  1       21 0.80020724E-01 0.19703615E+03</pdfrwt>
<pdfrwt beam="2">  1       21 0.11554540E-01 0.19703615E+03</pdfrwt>
<totfact> 0.86138168E+04</totfact>
</mgrwt>
</event>
<event>
 4    1  0.3945627E+000  0.2509155E+03  0.7546771E-02  0.1112728E+00
         21   -1    0    0  503  502  0.00000000000E+00  0.00000000000E+00  0.10051696316E+04  0.10051696316E+04  0.00000000000E+00 0. -1.
         21   -1    0    0  501  503 -0.00000000000E+00 -0.00000000000E+00 -0.73300146015E+02  0.73300146015E+02  0.00000000000E+00 0. -1.
          6    1    1    2  501    0  0.12869869209E+03  0.12832084958E+03  0.26024476040E+03  0.36150508862E+03  0.17300000000E+03 0. -1.
         -6    1    1    2    0  502 -0.12869869209E+03 -0.12832084958E+03  0.67162472514E+03  0.71696468895E+03  0.17300000000E+03 0. -1.
<mgrwt>
<rscale>  2 0.25091551E+03</rscale>
<asrwt>0</asrwt>
<pdfrwt beam="1">  1       21 0.15464147E+00 0.25091551E+03</pdfrwt>
<pdfrwt beam="2">  1       21 0.11276946E-01 0.25091551E+03</pdfrwt>
<totfact> 0.17429517E+04</totfact>
</mgrwt>
</event>
<event>
 4    1  0.3945627E+000  0.2482291E+03  0.7546771E-02  0.1114429E+00
         21   -1    0    0  501  502  0.00000000000E+00  0.00000000000E+00  0.26176194906E+04  0.26176194906E+04  0.00000000000E+00 0.  1.
         21   -1    0    0  502  503 -0.00000000000E+00 -0.00000000000E+00 -0.23699267500E+02  0.23699267500E+02  0.00000000000E+00 0.  1.
          6    1    1    2  501    0  0.13599020154E+03  0.11487094151E+03  0.14053668736E+04  0.14271207789E+04  0.17300000000E+03 0.  1.
         -6    1    1    2    0  503 -0.13599020154E+03 -0.11487094151E+03  0.11885533495E+04  0.12141979792E+04  0.17300000000E+03 0.  1.
<mgrwt>
<rscale>  2 0.24822906E+03</rscale>
<asrwt>0</asrwt>
<pdfrwt beam="1">  1       21 0.40271046E+00 0.24822906E+03</pdfrwt>
<pdfrwt beam="2">  1       21 0.36460432E-02 0.24822906E+03</pdfrwt>
<totfact> 0.35804833E+03</totfact>
</mgrwt>
</event>
<event>
 4    1  0.3945627E+000  0.1826872E+03  0.7546771E-02  0.1165227E+00
         21   -1    0    0  503  502  0.00000000000E+00  0.00000000000E+00  0.77846103003E+03  0.77846103003E+03  0.00000000000E+00 0. -1.
         21   -1    0    0  501  503 -0.00000000000E+00 -0.00000000000E+00 -0.45204223884E+02  0.45204223884E+02  0.00000000000E+00 0. -1.
          6    1    1    2  501    0 -0.58563315470E+02  0.39932940382E+01  0.27309531367E+03  0.32856606439E+03  0.17300000000E+03 0. -1.
         -6    1    1    2    0  502  0.58563315470E+02 -0.39932940382E+01  0.46016149247E+03  0.49509918953E+03  0.17300000000E+03 0. -1.
<mgrwt>
<rscale>  2 0.18268719E+03</rscale>
<asrwt>0</asrwt>
<pdfrwt beam="1">  1       21 0.11976323E+00 0.18268719E+03</pdfrwt>
<pdfrwt beam="2">  1       21 0.69544966E-02 0.18268719E+03</pdfrwt>
<totfact> 0.81554905E+04</totfact>
</mgrwt>
</event>
<event>
 4    1  0.3945627E+000  0.1802436E+03  0.7546771E-02  0.1167568E+00
         21   -1    0    0  501  502  0.00000000000E+00  0.00000000000E+00  0.54605912056E+02  0.54605912056E+02  0.00000000000E+00 0.  1.
         21   -1    0    0  502  503 -0.00000000000E+00 -0.00000000000E+00 -0.20363715505E+04  0.20363715505E+04  0.00000000000E+00 0.  1.
          6    1    1    2  501    0 -0.42812666659E+02 -0.26940947490E+02 -0.11128025989E+03  0.21182784359E+03  0.17300000000E+03 0.  1.
         -6    1    1    2    0  503  0.42812666659E+02  0.26940947490E+02 -0.18704853786E+04  0.18791496190E+04  0.17300000000E+03 0.  1.
<mgrwt>
<rscale>  2 0.18024355E+03</rscale>
<asrwt>0</asrwt>
<pdfrwt beam="1">  1       21 0.84009113E-02 0.18024355E+03</pdfrwt>
<pdfrwt beam="2">  1       21 0.31328786E+00 0.18024355E+03</pdfrwt>
<totfact> 0.32043418E+03</totfact>
</mgrwt>
</event>
<event>
 4    1  0.3945627E+000  0.2362465E+03  0.7546771E-02  0.1122319E+00
         21   -1    0    0  503  502  0.00000000000E+00  0.00000000000E+00  0.86081828782E+03  0.86081828782E+03  0.00000000000E+00 0.  1.
         21   -1    0    0  501  503 -0.00000000000E+00 -0.00000000000E+00 -0.82599606468E+02  0.82599606468E+02  0.00000000000E+00 0. -1.
          6    1    1    2  501    0  0.60611370715E+01 -0.16076896703E+03  0.17036075769E+03  0.29126480375E+03  0.17300000000E+03 0. -1.
         -6    1    1    2    0  502 -0.60611370715E+01  0.16076896703E+03  0.60785792366E+03  0.65215309054E+03  0.17300000000E+03 0.  1.
<mgrwt>
<rscale>  2 0.23624648E+03</rscale>
<asrwt>0</asrwt>
<pdfrwt beam="1">  1       21 0.13243358E+00 0.23624648E+03</pdfrwt>
<pdfrwt beam="2">  1       21 0.12707632E-01 0.23624648E+03</pdfrwt>
<totfact> 0.21273602E+04</totfact>
</mgrwt>
</event>
<event>
 4    1  0.3945627E+000  0.2319043E+03  0.7546771E-02  0.1125307E+00
         21   -1    0    0  501  502  0.00000000000E+00  0.00000000000E+00  0.26048922128E+03  0.26048922128E+03  0.00000000000E+00 0.  1.
         21   -1    0    0  502  503 -0.00000000000E+00 -0.00000000000E+00 -0.39140687094E+03  0.39140687094E+03  0.00000000000E+00 0. -1.
          6    1    1    2  501    0  0.78502149440E+02 -0.13299626214E+03  0.15860008168E+03  0.28095120416E+03  0.17300000000E+03 0.  1.
         -6    1    1    2    0  503 -0.78502149440E+02  0.13299626214E+03 -0.28951773135E+03  0.37094488806E+03  0.17300000000E+03 0. -1.
<mgrwt>
<rscale>  2 0.23190428E+03</rscale>
<asrwt>0</asrwt>
<pdfrwt beam="1">  1       21 0.40075265E-01 0.23190428E+03</pdfrwt>
<pdfrwt beam="2">  1       21 0.60216441E-01 0.23190428E+03</pdfrwt>
<totfact> 0.15068927E+04</totfact>
</mgrwt>
</event>
<event>
 4    1  0.3945627E+000  0.1735677E+03  0.7546771E-02  0.1174178E+00
         21   -1    0    0  503  502  0.00000000000E+00  0.00000000000E+00  0.23137683555E+02  0.23137683555E+02  0.00000000000E+00 0. -1.
         21   -1    0    0  501  503 -0.00000000000E+00 -0.00000000000E+00 -0.14347887374E+04  0.14347887374E+04  0.00000000000E+00 0. -1.
          6    1    1    2  501    0  0.27040990387E+00  0.14024071574E+02 -0.92757268472E+03  0.94367199447E+03  0.17300000000E+03 0. -1.
         -6    1    1    2    0  502 -0.27040990387E+00 -0.14024071574E+02 -0.48407836910E+03  0.51425442646E+03  0.17300000000E+03 0. -1.
<mgrwt>
<rscale>  2 0.17356770E+03</rscale>
<asrwt>0</asrwt>
<pdfrwt beam="1">  1       21 0.35596423E-02 0.17356770E+03</pdfrwt>
<pdfrwt beam="2">  1       21 0.22073681E+00 0.17356770E+03</pdfrwt>
<totfact> 0.48070223E+04</totfact>
</mgrwt>
</event>
<event>
 4    1  0.3945627E+000  0.2633215E+03  0.7546771E-02  0.1105164E+00
         21   -1    0    0  501  502  0.00000000000E+00  0.00000000000E+00  0.94104385359E+03  0.94104385359E+03  0.00000000000E+00 0.  1.
         21   -1    0    0  502  503 -0.00000000000E+00 -0.00000000000E+00 -0.92329710715E+02  0.92329710715E+02  0.00000000000E+00 0.  1.
          6    1    1    2  501    0  0.15218361088E+03 -0.12747306199E+03  0.65655931375E+03  0.70739548021E+03  0.17300000000E+03 0.  1.
         -6    1    1    2    0  503 -0.15218361088E+03  0.12747306199E+03  0.19215482913E+03  0.32597808410E+03  0.17300000000E+03 0.  1.
<mgrwt>
<rscale>  2 0.26332154E+03</rscale>
<asrwt>0</asrwt>
<pdfrwt beam="1">  1       21 0.14477597E+00 0.26332154E+03</pdfrwt>
<pdfrwt beam="2">  1       21 0.14204572E-01 0.26332154E+03</pdfrwt>
<totfact> 0.13589581E+04</totfact>
</mgrwt>
</event>
<event>
 4    1  0.3945627E+000  0.1914309E+03  0.7546771E-02  0.1157177E+00
         21   -1    0    0  501  502  0.00000000000E+00  0.00000000000E+00  0.62637837717E+02  0.62637837717E+02  0.00000000000E+00 0. -1.
         21   -1    0    0  502  503 -0.00000000000E+00 -0.00000000000E+00 -0.61552405259E+03  0.61552405259E+03  0.00000000000E+00 0. -1.
          6    1    1    2  501    0 -0.31746952858E+02 -0.75557342449E+02 -0.20098580928E+03  0.27756274344E+03  0.17300000000E+03 0. -1.
         -6    1    1    2    0  503  0.31746952858E+02  0.75557342449E+02 -0.35190040559E+03  0.40059914687E+03  0.17300000000E+03 0. -1.
<mgrwt>
<rscale>  2 0.19143088E+03</rscale>
<asrwt>0</asrwt>
<pdfrwt beam="1">  1       21 0.96365902E-02 0.19143088E+03</pdfrwt>
<pdfrwt beam="2">  1       21 0.94696010E-01 0.19143088E+03</pdfrwt>
<totfact> 0.80891869E+04</totfact>
</mgrwt>
</event>
<event>
 4    1  0.3945627E+000  0.1757846E+03  0.7546771E-02  0.1171946E+00
         21   -1    0    0  503  502  0.00000000000E+00  0.00000000000E+00  0.36857002695E+03  0.36857002695E+03  0.00000000000E+00 0. -1.
         21   -1    0    0  501  503 -0.00000000000E+00 -0.00000000000E+00 -0.14598295233E+03  0.14598295233E+03  0.00000000000E+00 0. -1.
          6    1    1    2  501    0  0.18713199389E+02 -0.24920926367E+02 -0.56568066218E+02  0.18466234732E+03  0.17300000000E+03 0. -1.
         -6    1    1    2    0  502 -0.18713199389E+02  0.24920926367E+02  0.27915514083E+03  0.32989063196E+03  0.17300000000E+03 0. -1.
<mgrwt>
<rscale>  2 0.17578463E+03</rscale>
<asrwt>0</asrwt>
<pdfrwt beam="1">  1       21 0.56703081E-01 0.17578463E+03</pdfrwt>
<pdfrwt beam="2">  1       21 0.22458916E-01 0.17578463E+03</pdfrwt>
<totfact> 0.54710727E+04</totfact>
</mgrwt>
</event>
<event>
 4    1  0.3945627E+000  0.1772924E+03  0.7546771E-02  0.1170449E+00
         21   -1    0    0  503  502  0.00000000000E+00  0.00000000000E+00  0.19893742718E+03  0.19893742718E+03  0.00000000000E+00 0.  1.
         21   -1    0    0  501  503 -0.00000000000E+00 -0.00000000000E+00 -0.39587757341E+03  0.39587757341E+03  0.00000000000E+00 0.  1.
          6    1    1    2  501    0 -0.38404035415E+02 -0.53602582088E+01 -0.32900990589E+03  0.37373803724E+03  0.17300000000E+03 0.  1.
         -6    1    1    2    0  502  0.38404035415E+02  0.53602582088E+01  0.13206975967E+03  0.22107696335E+03  0.17300000000E+03 0.  1.
<mgrwt>
<rscale>  2 0.17729242E+03</rscale>
<asrwt>0</asrwt>
<pdfrwt beam="1">  1       21 0.30605759E-01 0.17729242E+03</pdfrwt>
<pdfrwt beam="2">  1       21 0.60904241E-01 0.17729242E+03</pdfrwt>
<totfact> 0.25940142E+04</totfact>
</mgrwt>
</event>
<event>
 4    1  0.3945627E+000  0.2075826E+03  0.7546771E-02  0.1143495E+00
         21   -1    0    0  503  502  0.00000000000E+00  0.00000000000E+00  0.84549206293E+02  0.84549206293E+02  0.00000000000E+00 0. -1.
         21   -1    0    0  501  503 -0.00000000000E+00 -0.00000000000E+00 -0.51225849780E+03  0.51225849780E+03  0.00000000000E+00 0. -1.
          6    1    1    2  501    0 -0.10038889102E+03 -0.55530214518E+02 -0.19256225744E+03  0.28314441043E+03  0.17300000000E+03 0. -1.
         -6    1    1    2    0  502  0.10038889102E+03  0.55530214518E+02 -0.23514703406E+03  0.31366329367E+03  0.17300000000E+03 0. -1.
<mgrwt>
<rscale>  2 0.20758260E+03</rscale>
<asrwt>0</asrwt>
<pdfrwt beam="1">  1       21 0.13007570E-01 0.20758260E+03</pdfrwt>
<pdfrwt beam="2">  1       21 0.78808999E-01 0.20758260E+03</pdfrwt>
<totfact> 0.71753838E+04</totfact>
</mgrwt>
</event>
<event>
 4    1  0.3945627E+000  0.1846629E+03  0.7546771E-02  0.1163365E+00
         21   -1    0    0  501  502  0.00000000000E+00  0.00000000000E+00  0.81137123298E+02  0.81137123298E+02  0.00000000000E+00 0. -1.
         21   -1    0    0  502  503 -0.00000000000E+00 -0.00000000000E+00 -0.50293080975E+03  0.50293080975E+03  0.00000000000E+00 0.  1.
          6    1    1    2  501    0 -0.13713162041E+02  0.63113647713E+02 -0.92510819531E+02  0.20653966949E+03  0.17300000000E+03 0. -1.
         -6    1    1    2    0  503  0.13713162041E+02 -0.63113647713E+02 -0.32928286692E+03  0.37752826356E+03  0.17300000000E+03 0.  1.
<mgrwt>
<rscale>  2 0.18466289E+03</rscale>
<asrwt>0</asrwt>
<pdfrwt beam="1">  1       21 0.12482635E-01 0.18466289E+03</pdfrwt>
<pdfrwt beam="2">  1       21 0.77373969E-01 0.18466289E+03</pdfrwt>
<totfact> 0.81346898E+04</totfact>
</mgrwt>
</event>
<event>
 4    1  0.3945627E+000  0.1778002E+03  0.7546771E-02  0.1169949E+00
         21   -1    0    0  503  502  0.00000000000E+00  0.00000000000E+00  0.30787129995E+02  0.30787129995E+02  0.00000000000E+00 0.  1.
         21   -1    0    0  501  503 -0.00000000000E+00 -0.00000000000E+00 -0.12709196401E+04  0.12709196401E+04  0.00000000000E+00 0.  1.
          6    1    1    2  501    0  0.26823773466E+02 -0.31054449963E+02 -0.90530345495E+03  0.92259809193E+03  0.17300000000E+03 0.  1.
         -6    1    1    2    0  502 -0.26823773466E+02  0.31054449963E+02 -0.33482905516E+03  0.37910867817E+03  0.17300000000E+03 0.  1.
<mgrwt>
<rscale>  2 0.17780015E+03</rscale>
<asrwt>0</asrwt>
<pdfrwt beam="1">  1       21 0.47364811E-02 0.17780015E+03</pdfrwt>
<pdfrwt beam="2">  1       21 0.19552612E+00 0.17780015E+03</pdfrwt>
<totfact> 0.42731932E+04</totfact>
</mgrwt>
</event>
<event>
 4    1  0.3945627E+000  0.2015707E+03  0.7546771E-02  0.1148421E+00
         21   -1    0    0  503  502  0.00000000000E+00  0.00000000000E+00  0.10716720103E+04  0.10716720103E+04  0.00000000000E+00 0.  1.
         21   -1    0    0  501  503 -0.00000000000E+00 -0.00000000000E+00 -0.40700993671E+02  0.40700993671E+02  0.00000000000E+00 0.  1.
          6    1    1    2  501    0 -0.12643380833E+02  0.10267371746E+03  0.36992908211E+03  0.42128170282E+03  0.17300000000E+03 0.  1.
         -6    1    1    2    0  502  0.12643380833E+02 -0.10267371746E+03  0.66104193448E+03  0.69109130111E+03  0.17300000000E+03 0.  1.
<mgrwt>
<rscale>  2 0.20157070E+03</rscale>
<asrwt>0</asrwt>
<pdfrwt beam="1">  1       21 0.16487260E+00 0.20157070E+03</pdfrwt>
<pdfrwt beam="2">  1       21 0.62616922E-02 0.20157070E+03</pdfrwt>
<totfact> 0.42294055E+04</totfact>
</mgrwt>
</event>
<event>
 4    1  0.3945627E+000  0.2126578E+03  0.7546771E-02  0.1139478E+00
         21   -1    0    0  503  502  0.00000000000E+00  0.00000000000E+00  0.10414713446E+03  0.10414713446E+03  0.00000000000E+00 0.  1.
         21   -1    0    0  501  503 -0.00000000000E+00 -0.00000000000E+00 -0.54261425371E+03  0.54261425371E+03  0.00000000000E+00 0.  1.
          6    1    1    2  501    0 -0.75001156431E+02  0.98331878970E+02 -0.36376448618E+03  0.42136437117E+03  0.17300000000E+03 0.  1.
         -6    1    1    2    0  502  0.75001156431E+02 -0.98331878970E+02 -0.74702633068E+02  0.22539701701E+03  0.17300000000E+03 0.  1.
<mgrwt>
<rscale>  2 0.21265778E+03</rscale>
<asrwt>0</asrwt>
<pdfrwt beam="1">  1       21 0.16022636E-01 0.21265778E+03</pdfrwt>
<pdfrwt beam="2">  1       21 0.83479115E-01 0.21265778E+03</pdfrwt>
<totfact> 0.42984655E+04</totfact>
</mgrwt>
</event>
<event>
 4    1  0.3945627E+000  0.2330412E+03  0.7546771E-02  0.1124517E+00
         21   -1    0    0  503  502  0.00000000000E+00  0.00000000000E+00  0.69958452041E+02  0.69958452041E+02  0.00000000000E+00 0. -1.
         21   -1    0    0  501  503 -0.00000000000E+00 -0.00000000000E+00 -0.10227694219E+04  0.10227694219E+04  0.00000000000E+00 0. -1.
          6    1    1    2  501    0 -0.30079868225E+02  0.15321363094E+03 -0.74461944002E+03  0.78023478879E+03  0.17300000000E+03 0. -1.
         -6    1    1    2    0  502  0.30079868225E+02 -0.15321363094E+03 -0.20819152986E+03  0.31249308517E+03  0.17300000000E+03 0. -1.
<mgrwt>
<rscale>  2 0.23304123E+03</rscale>
<asrwt>0</asrwt>
<pdfrwt beam="1">  1       21 0.10762840E-01 0.23304123E+03</pdfrwt>
<pdfrwt beam="2">  1       21 0.15734913E+00 0.23304123E+03</pdfrwt>
<totfact> 0.18264253E+04</totfact>
</mgrwt>
</event>
<event>
 4    1  0.3945627E+000  0.1888533E+03  0.7546771E-02  0.1159500E+00
         21   -1    0    0  503  502  0.00000000000E+00  0.00000000000E+00  0.16713673352E+04  0.16713673352E+04  0.00000000000E+00 0. -1.
         21   -1    0    0  501  503 -0.00000000000E+00 -0.00000000000E+00 -0.53683969579E+02  0.53683969579E+02  0.00000000000E+00 0. -1.
          6    1    1    2  501    0  0.75543633766E+02  0.54529073186E+01  0.13933948106E+03  0.23469355718E+03  0.17300000000E+03 0. -1.
         -6    1    1    2    0  502 -0.75543633766E+02 -0.54529073186E+01  0.14783438846E+04  0.14903577476E+04  0.17300000000E+03 0. -1.
<mgrwt>
<rscale>  2 0.18885332E+03</rscale>
<asrwt>0</asrwt>
<pdfrwt beam="1">  1       21 0.25713340E+00 0.18885332E+03</pdfrwt>
<pdfrwt beam="2">  1       21 0.82590735E-02 0.18885332E+03</pdfrwt>
<totfact> 0.68822503E+03</totfact>
</mgrwt>
</event>
<event>
 4    1  0.3945627E+000  0.1816143E+03  0.7546771E-02  0.1166250E+00
         21   -1    0    0  503  502  0.00000000000E+00  0.00000000000E+00  0.93449537023E+03  0.93449537023E+03  0.00000000000E+00 0. -1.
         21   -1    0    0  501  503 -0.00000000000E+00 -0.00000000000E+00 -0.92209028867E+02  0.92209028867E+02  0.00000000000E+00 0. -1.
          6    1    1    2  501    0  0.53295746482E+02  0.14639789249E+02  0.17836576860E+02  0.18248809138E+03  0.17300000000E+03 0. -1.
         -6    1    1    2    0  502 -0.53295746482E+02 -0.14639789249E+02  0.82444976450E+03  0.84421630771E+03  0.17300000000E+03 0. -1.
<mgrwt>
<rscale>  2 0.18161432E+03</rscale>
<asrwt>0</asrwt>
<pdfrwt beam="1">  1       21 0.14376851E+00 0.18161432E+03</pdfrwt>
<pdfrwt beam="2">  1       21 0.14186005E-01 0.18161432E+03</pdfrwt>
<totfact> 0.14614035E+04</totfact>
</mgrwt>
</event>
<event>
 4    1  0.3945627E+000  0.1741916E+03  0.7546771E-02  0.1173546E+00
         21   -1    0    0  503  502  0.00000000000E+00  0.00000000000E+00  0.18335532195E+03  0.18335532195E+03  0.00000000000E+00 0.  1.
         21   -1    0    0  501  503 -0.00000000000E+00 -0.00000000000E+00 -0.11570028117E+04  0.11570028117E+04  0.00000000000E+00 0.  1.
          6    1    1    2  501    0  0.67660131054E+01  0.19181350414E+02 -0.11072265246E+04  0.11208448956E+04  0.17300000000E+03 0.  1.
         -6    1    1    2    0  502 -0.67660131054E+01 -0.19181350414E+02  0.13357903485E+03  0.21951323807E+03  0.17300000000E+03 0.  1.
<mgrwt>
<rscale>  2 0.17419157E+03</rscale>
<asrwt>0</asrwt>
<pdfrwt beam="1">  1       21 0.28208511E-01 0.17419157E+03</pdfrwt>
<pdfrwt beam="2">  1       21 0.17800043E+00 0.17419157E+03</pdfrwt>
<totfact> 0.22981573E+03</totfact>
</mgrwt>
</event>
<event>
 4    1  0.3945627E+000  0.2029825E+03  0.7546771E-02  0.1147247E+00
         21   -1    0    0  503  502  0.00000000000E+00  0.00000000000E+00  0.32876877678E+03  0.32876877678E+03  0.00000000000E+00 0. -1.
         21   -1    0    0  501  503 -0.00000000000E+00 -0.00000000000E+00 -0.22360816563E+03  0.22360816563E+03  0.00000000000E+00 0. -1.
          6    1    1    2  501    0  0.10206892524E+03 -0.29237531344E+02 -0.13052812021E+03  0.24132859114E+03  0.17300000000E+03 0. -1.
         -6    1    1    2    0  502 -0.10206892524E+03  0.29237531344E+02  0.23568873135E+03  0.31104835127E+03  0.17300000000E+03 0. -1.
<mgrwt>
<rscale>  2 0.20298251E+03</rscale>
<asrwt>0</asrwt>
<pdfrwt beam="1">  1       21 0.50579812E-01 0.20298251E+03</pdfrwt>
<pdfrwt beam="2">  1       21 0.34401256E-01 0.20298251E+03</pdfrwt>
<totfact> 0.30119812E+04</totfact>
</mgrwt>
</event>
<event>
 4    1  0.3945627E+000  0.3061628E+03  0.7546771E-02  0.1082200E+00
         21   -1    0    0  501  502  0.00000000000E+00  0.00000000000E+00  0.18017668366E+03  0.18017668366E+03  0.00000000000E+00 0.  1.
         21   -1    0    0  502  503 -0.00000000000E+00 -0.00000000000E+00 -0.69600864878E+03  0.69600864878E+03  0.00000000000E+00 0.  1.
          6    1    1    2  501    0  0.14092821821E+02  0.25220641587E+03 -0.37762534617E+02  0.30848288907E+03  0.17300000000E+03 0.  1.
         -6    1    1    2    0  503 -0.14092821821E+02 -0.25220641587E+03 -0.47806943050E+03  0.56770244337E+03  0.17300000000E+03 0.  1.
<mgrwt>
<rscale>  2 0.30616284E+03</rscale>
<asrwt>0</asrwt>
<pdfrwt beam="1">  1       21 0.27719490E-01 0.30616284E+03</pdfrwt>
<pdfrwt beam="2">  1       21 0.10707825E+00 0.30616284E+03</pdfrwt>
<totfact> 0.80942246E+03</totfact>
</mgrwt>
</event>
<event>
 4    1  0.3945627E+000  0.1757750E+03  0.7546771E-02  0.1171956E+00
         21   -1    0    0  503  502  0.00000000000E+00  0.00000000000E+00  0.16358166440E+03  0.16358166440E+03  0.00000000000E+00 0. -1.
         21   -1    0    0  501  503 -0.00000000000E+00 -0.00000000000E+00 -0.19009087874E+03  0.19009087874E+03  0.00000000000E+00 0. -1.
          6    1    1    2  501    0 -0.16838935080E+02 -0.26158810929E+02 -0.27385105472E+02  0.17789541064E+03  0.17300000000E+03 0.  1.
         -6    1    1    2    0  502  0.16838935080E+02  0.26158810929E+02  0.87589113275E+00  0.17577713250E+03  0.17300000000E+03 0.  1.
<mgrwt>
<rscale>  2 0.17577495E+03</rscale>
<asrwt>0</asrwt>
<pdfrwt beam="1">  1       21 0.25166410E-01 0.17577495E+03</pdfrwt>
<pdfrwt beam="2">  1       21 0.29244750E-01 0.17577495E+03</pdfrwt>
<totfact> 0.16835358E+05</totfact>
</mgrwt>
</event>
<event>
 4    1  0.3945627E+000  0.1919740E+03  0.7546771E-02  0.1156693E+00
         21   -1    0    0  501  502  0.00000000000E+00  0.00000000000E+00  0.21962578553E+03  0.21962578553E+03  0.00000000000E+00 0. -1.
         21   -1    0    0  502  503 -0.00000000000E+00 -0.00000000000E+00 -0.17961362165E+03  0.17961362165E+03  0.00000000000E+00 0.  1.
          6    1    1    2  501    0 -0.19264186673E+02 -0.80956191308E+02  0.71192854915E+02  0.20474969204E+03  0.17300000000E+03 0.  1.
         -6    1    1    2    0  503  0.19264186673E+02  0.80956191308E+02 -0.31180691034E+02  0.19448971513E+03  0.17300000000E+03 0. -1.
<mgrwt>
<rscale>  2 0.19197399E+03</rscale>
<asrwt>0</asrwt>
<pdfrwt beam="1">  1       21 0.33788582E-01 0.19197399E+03</pdfrwt>
<pdfrwt beam="2">  1       21 0.27632865E-01 0.19197399E+03</pdfrwt>
<totfact> 0.10549264E+05</totfact>
</mgrwt>
</event>
<event>
 4    1  0.3945627E+000  0.2212418E+03  0.7546771E-02  0.1132961E+00
         21   -1    0    0  501  502  0.00000000000E+00  0.00000000000E+00  0.13106713692E+03  0.13106713692E+03  0.00000000000E+00 0.  1.
         21   -1    0    0  502  503 -0.00000000000E+00 -0.00000000000E+00 -0.53023732899E+03  0.53023732899E+03  0.00000000000E+00 0.  1.
          6    1    1    2  501    0  0.97747292228E+02  0.97285208513E+02 -0.19788261495E+02  0.22212501036E+03  0.17300000000E+03 0.  1.
         -6    1    1    2    0  503 -0.97747292228E+02 -0.97285208513E+02 -0.37938193058E+03  0.43917945556E+03  0.17300000000E+03 0.  1.
<mgrwt>
<rscale>  2 0.22124182E+03</rscale>
<asrwt>0</asrwt>
<pdfrwt beam="1">  1       21 0.20164175E-01 0.22124182E+03</pdfrwt>
<pdfrwt beam="2">  1       21 0.81574973E-01 0.22124182E+03</pdfrwt>
<totfact> 0.29453250E+04</totfact>
</mgrwt>
</event>
<event>
 4    1  0.3945627E+000  0.2512721E+03  0.7546771E-02  0.1112504E+00
         21   -1    0    0  501  502  0.00000000000E+00  0.00000000000E+00  0.91955914911E+03  0.91955914911E+03  0.00000000000E+00 0.  1.
         21   -1    0    0  502  503 -0.00000000000E+00 -0.00000000000E+00 -0.81237187077E+02  0.81237187077E+02  0.00000000000E+00 0.  1.
          6    1    1    2  501    0 -0.17710490336E+03  0.42924709636E+02  0.61604751792E+03  0.66532114188E+03  0.17300000000E+03 0.  1.
         -6    1    1    2    0  503  0.17710490336E+03 -0.42924709636E+02  0.22227444411E+03  0.33547519431E+03  0.17300000000E+03 0.  1.
<mgrwt>
<rscale>  2 0.25127212E+03</rscale>
<asrwt>0</asrwt>
<pdfrwt beam="1">  1       21 0.14147063E+00 0.25127212E+03</pdfrwt>
<pdfrwt beam="2">  1       21 0.12498029E-01 0.25127212E+03</pdfrwt>
<totfact> 0.18336198E+04</totfact>
</mgrwt>
</event>
<event>
 4    1  0.3945627E+000  0.1792446E+03  0.7546771E-02  0.1168536E+00
         21   -1    0    0  501  502  0.00000000000E+00  0.00000000000E+00  0.85674994140E+03  0.85674994140E+03  0.00000000000E+00 0.  1.
         21   -1    0    0  502  503 -0.00000000000E+00 -0.00000000000E+00 -0.11315210306E+03  0.11315210306E+03  0.00000000000E+00 0.  1.
          6    1    1    2  501    0 -0.33416111549E+02  0.32908574977E+02  0.76832835470E+03  0.78895948657E+03  0.17300000000E+03 0.  1.
         -6    1    1    2    0  503  0.33416111549E+02 -0.32908574977E+02 -0.24730516361E+02  0.18094255789E+03  0.17300000000E+03 0.  1.
<mgrwt>
<rscale>  2 0.17924456E+03</rscale>
<asrwt>0</asrwt>
<pdfrwt beam="1">  1       21 0.13180768E+00 0.17924456E+03</pdfrwt>
<pdfrwt beam="2">  1       21 0.17408016E-01 0.17924456E+03</pdfrwt>
<totfact> 0.12585862E+04</totfact>
</mgrwt>
</event>
<event>
 4    1  0.3945627E+000  0.1787706E+03  0.7546771E-02  0.1168998E+00
         21   -1    0    0  503  502  0.00000000000E+00  0.00000000000E+00  0.24897291552E+03  0.24897291552E+03  0.00000000000E+00 0.  1.
         21   -1    0    0  501  503 -0.00000000000E+00 -0.00000000000E+00 -0.14939475614E+03  0.14939475614E+03  0.00000000000E+00 0.  1.
          6    1    1    2  501    0 -0.33448108639E+02 -0.30185553008E+02 -0.24945708097E+02  0.18050272002E+03  0.17300000000E+03 0.  1.
         -6    1    1    2    0  502  0.33448108639E+02  0.30185553008E+02  0.12452386747E+03  0.21786495164E+03  0.17300000000E+03 0.  1.
<mgrwt>
<rscale>  2 0.17877065E+03</rscale>
<asrwt>0</asrwt>
<pdfrwt beam="1">  1       21 0.38303526E-01 0.17877065E+03</pdfrwt>
<pdfrwt beam="2">  1       21 0.22983809E-01 0.17877065E+03</pdfrwt>
<totfact> 0.11739059E+05</totfact>
</mgrwt>
</event>
<event>
 4    1  0.3945627E+000  0.2182908E+03  0.7546771E-02  0.1135164E+00
         21   -1    0    0  501  502  0.00000000000E+00  0.00000000000E+00  0.11569064893E+03  0.11569064893E+03  0.00000000000E+00 0. -1.
         21   -1    0    0  502  503 -0.00000000000E+00 -0.00000000000E+00 -0.54272272169E+03  0.54272272169E+03  0.00000000000E+00 0.  1.
          6    1    1    2  501    0 -0.12724974889E+03  0.39106972576E+02 -0.51874968341E+02  0.22436993167E+03  0.17300000000E+03 0. -1.
         -6    1    1    2    0  503  0.12724974889E+03 -0.39106972576E+02 -0.37515710443E+03  0.43404343895E+03  0.17300000000E+03 0.  1.
<mgrwt>
<rscale>  2 0.21829076E+03</rscale>
<asrwt>0</asrwt>
<pdfrwt beam="1">  1       21 0.17798561E-01 0.21829076E+03</pdfrwt>
<pdfrwt beam="2">  1       21 0.83495805E-01 0.21829076E+03</pdfrwt>
<totfact> 0.35296669E+04</totfact>
</mgrwt>
</event>
<event>
 4    1  0.3945627E+000  0.2330299E+03  0.7546771E-02  0.1124525E+00
         21   -1    0    0  501  502  0.00000000000E+00  0.00000000000E+00  0.58066187362E+02  0.58066187362E+02  0.00000000000E+00 0. -1.
         21   -1    0    0  502  503 -0.00000000000E+00 -0.00000000000E+00 -0.96806339485E+03  0.96806339485E+03  0.00000000000E+00 0.  1.
          6    1    1    2  501    0 -0.15612097510E+03  0.43377633216E+00 -0.36045345239E+03  0.42921980193E+03  0.17300000000E+03 0. -1.
         -6    1    1    2    0  503  0.15612097510E+03 -0.43377633216E+00 -0.54954375510E+03  0.59690978028E+03  0.17300000000E+03 0.  1.
<mgrwt>
<rscale>  2 0.23302993E+03</rscale>
<asrwt>0</asrwt>
<pdfrwt beam="1">  1       21 0.89332596E-02 0.23302993E+03</pdfrwt>
<pdfrwt beam="2">  1       21 0.14893283E+00 0.23302993E+03</pdfrwt>
<totfact> 0.29428038E+04</totfact>
</mgrwt>
</event>
<event>
 4    1  0.3945627E+000  0.1791806E+03  0.7546771E-02  0.1168598E+00
         21   -1    0    0  501  502  0.00000000000E+00  0.00000000000E+00  0.81681100546E+02  0.81681100546E+02  0.00000000000E+00 0. -1.
         21   -1    0    0  502  503 -0.00000000000E+00 -0.00000000000E+00 -0.55833298611E+03  0.55833298611E+03  0.00000000000E+00 0. -1.
          6    1    1    2  501    0 -0.69249571078E+01 -0.46138249864E+02 -0.64220677743E+02  0.19034176783E+03  0.17300000000E+03 0. -1.
         -6    1    1    2    0  503  0.69249571078E+01  0.46138249864E+02 -0.41243120782E+03  0.44967231882E+03  0.17300000000E+03 0. -1.
<mgrwt>
<rscale>  2 0.17918062E+03</rscale>
<asrwt>0</asrwt>
<pdfrwt beam="1">  1       21 0.12566323E-01 0.17918062E+03</pdfrwt>
<pdfrwt beam="2">  1       21 0.85897382E-01 0.17918062E+03</pdfrwt>
<totfact> 0.63591022E+04</totfact>
</mgrwt>
</event>
<event>
 4    1  0.3945627E+000  0.1812608E+03  0.7546771E-02  0.1166588E+00
         21   -1    0    0  503  502  0.00000000000E+00  0.00000000000E+00  0.15780926893E+03  0.15780926893E+03  0.00000000000E+00 0.  1.
         21   -1    0    0  501  503 -0.00000000000E+00 -0.00000000000E+00 -0.27216809157E+03  0.27216809157E+03  0.00000000000E+00 0.  1.
          6    1    1    2  501    0  0.46711072399E+02 -0.27286601578E+02 -0.16140813961E+03  0.24270984826E+03  0.17300000000E+03 0.  1.
         -6    1    1    2    0  502 -0.46711072399E+02  0.27286601578E+02  0.47049316975E+02  0.18726751223E+03  0.17300000000E+03 0.  1.
<mgrwt>
<rscale>  2 0.18126081E+03</rscale>
<asrwt>0</asrwt>
<pdfrwt beam="1">  1       21 0.24278349E-01 0.18126081E+03</pdfrwt>
<pdfrwt beam="2">  1       21 0.41872014E-01 0.18126081E+03</pdfrwt>
<totfact> 0.88327988E+04</totfact>
</mgrwt>
</event>
<event>
 4    1  0.3945627E+000  0.1771320E+03  0.7546771E-02  0.1170608E+00
         21   -1    0    0  501  502  0.00000000000E+00  0.00000000000E+00  0.72809648320E+03  0.72809648320E+03  0.00000000000E+00 0.  1.
         21   -1    0    0  502  503 -0.00000000000E+00 -0.00000000000E+00 -0.59371044021E+02  0.59371044021E+02  0.00000000000E+00 0.  1.
          6    1    1    2  501    0 -0.55252326343E+01 -0.37632718251E+02  0.54052939983E+03  0.56881260689E+03  0.17300000000E+03 0.  1.
         -6    1    1    2    0  503  0.55252326343E+01  0.37632718251E+02  0.12819603935E+03  0.21865492033E+03  0.17300000000E+03 0.  1.
<mgrwt>
<rscale>  2 0.17713201E+03</rscale>
<asrwt>0</asrwt>
<pdfrwt beam="1">  1       21 0.11201484E+00 0.17713201E+03</pdfrwt>
<pdfrwt beam="2">  1       21 0.91340073E-02 0.17713201E+03</pdfrwt>
<totfact> 0.59942741E+04</totfact>
</mgrwt>
</event>
<event>
 4    1  0.3945627E+000  0.1775232E+03  0.7546771E-02  0.1170222E+00
         21   -1    0    0  501  502  0.00000000000E+00  0.00000000000E+00  0.11680121897E+03  0.11680121897E+03  0.00000000000E+00 0.  1.
         21   -1    0    0  502  503 -0.00000000000E+00 -0.00000000000E+00 -0.40518237287E+03  0.40518237287E+03  0.00000000000E+00 0.  1.
          6    1    1    2  501    0  0.39414857312E+02 -0.56528833013E+01  0.66651525867E+01  0.17764827701E+03  0.17300000000E+03 0.  1.
         -6    1    1    2    0  503 -0.39414857312E+02  0.56528833013E+01 -0.29504630649E+03  0.34433531483E+03  0.17300000000E+03 0.  1.
<mgrwt>
<rscale>  2 0.17752320E+03</rscale>
<asrwt>0</asrwt>
<pdfrwt beam="1">  1       21 0.17969418E-01 0.17752320E+03</pdfrwt>
<pdfrwt beam="2">  1       21 0.62335751E-01 0.17752320E+03</pdfrwt>
<totfact> 0.67661585E+04</totfact>
</mgrwt>
</event>
<event>
 4    1  0.3945627E+000  0.2098567E+03  0.7546771E-02  0.1141679E+00
         21   -1    0    0  501  502  0.00000000000E+00  0.00000000000E+00  0.16113587085E+04  0.16113587085E+04  0.00000000000E+00 0. -1.
         21   -1    0    0  502  503 -0.00000000000E+00 -0.00000000000E+00 -0.35318186990E+02  0.35318186990E+02  0.00000000000E+00 0. -1.
          6    1    1    2  501    0 -0.11742006377E+02  0.11820734344E+03  0.39647732173E+03  0.44859125872E+03  0.17300000000E+03 0. -1.
         -6    1    1    2    0  503  0.11742006377E+02 -0.11820734344E+03  0.11795631998E+04  0.11980856368E+04  0.17300000000E+03 0. -1.
<mgrwt>
<rscale>  2 0.20985674E+03</rscale>
<asrwt>0</asrwt>
<pdfrwt beam="1">  1       21 0.24790128E+00 0.20985674E+03</pdfrwt>
<pdfrwt beam="2">  1       21 0.54335685E-02 0.20985674E+03</pdfrwt>
<totfact> 0.15739359E+04</totfact>
</mgrwt>
</event>
<event>
 4    1  0.3945627E+000  0.2840009E+03  0.7546771E-02  0.1093524E+00
         21   -1    0    0  503  502  0.00000000000E+00  0.00000000000E+00  0.10419818754E+03  0.10419818754E+03  0.00000000000E+00 0. -1.
         21   -1    0    0  501  503 -0.00000000000E+00 -0.00000000000E+00 -0.92121042123E+03  0.92121042123E+03  0.00000000000E+00 0.  1.
          6    1    1    2  501    0 -0.11111497549E+03 -0.19591062904E+03 -0.20359945859E+03  0.34944134255E+03  0.17300000000E+03 0. -1.
         -6    1    1    2    0  502  0.11111497549E+03  0.19591062904E+03 -0.61341277510E+03  0.67596726622E+03  0.17300000000E+03 0. -1.
<mgrwt>
<rscale>  2 0.28400090E+03</rscale>
<asrwt>0</asrwt>
<pdfrwt beam="1">  1       21 0.16030490E-01 0.28400090E+03</pdfrwt>
<pdfrwt beam="2">  1       21 0.14172468E+00 0.28400090E+03</pdfrwt>
<totfact> 0.11386618E+04</totfact>
</mgrwt>
</event>
<event>
 4    1  0.3945627E+000  0.2882880E+03  0.7546771E-02  0.1091246E+00
         21   -1    0    0  503  502  0.00000000000E+00  0.00000000000E+00  0.97566200019E+03  0.97566200019E+03  0.00000000000E+00 0. -1.
         21   -1    0    0  501  503 -0.00000000000E+00 -0.00000000000E+00 -0.21422501763E+03  0.21422501763E+03  0.00000000000E+00 0.  1.
          6    1    1    2  501    0 -0.10459573758E+03 -0.20552538783E+03 -0.81030518436E+02  0.29945934328E+03  0.17300000000E+03 0.  1.
         -6    1    1    2    0  502  0.10459573758E+03  0.20552538783E+03  0.84246750099E+03  0.89042767454E+03  0.17300000000E+03 0. -1.
<mgrwt>
<rscale>  2 0.28828797E+03</rscale>
<asrwt>0</asrwt>
<pdfrwt beam="1">  1       21 0.15010184E+00 0.28828797E+03</pdfrwt>
<pdfrwt beam="2">  1       21 0.32957696E-01 0.28828797E+03</pdfrwt>
<totfact> 0.24568230E+03</totfact>
</mgrwt>
</event>
<event>
 4    1  0.3945627E+000  0.2014463E+03  0.7546771E-02  0.1148524E+00
         21   -1    0    0  503  502  0.00000000000E+00  0.00000000000E+00  0.98946977704E+03  0.98946977704E+03  0.00000000000E+00 0. -1.
         21   -1    0    0  501  503 -0.00000000000E+00 -0.00000000000E+00 -0.60951665762E+02  0.60951665762E+02  0.00000000000E+00 0. -1.
          6    1    1    2  501    0 -0.27537339901E+02 -0.99465102449E+02  0.16386282532E+03  0.25967602357E+03  0.17300000000E+03 0. -1.
         -6    1    1    2    0  502  0.27537339901E+02  0.99465102449E+02  0.76465528596E+03  0.79074541924E+03  0.17300000000E+03 0. -1.
<mgrwt>
<rscale>  2 0.20144630E+03</rscale>
<asrwt>0</asrwt>
<pdfrwt beam="1">  1       21 0.15222611E+00 0.20144630E+03</pdfrwt>
<pdfrwt beam="2">  1       21 0.93771801E-02 0.20144630E+03</pdfrwt>
<totfact> 0.25982111E+04</totfact>
</mgrwt>
</event>
<event>
 4    1  0.3945627E+000  0.1778664E+03  0.7546771E-02  0.1169884E+00
         21   -1    0    0  501  502  0.00000000000E+00  0.00000000000E+00  0.34928435318E+03  0.34928435318E+03  0.00000000000E+00 0.  1.
         21   -1    0    0  502  503 -0.00000000000E+00 -0.00000000000E+00 -0.90765555028E+02  0.90765555028E+02  0.00000000000E+00 0.  1.
          6    1    1    2  501    0  0.39975082881E+02 -0.10462414789E+02  0.13933785630E+03  0.22594580672E+03  0.17300000000E+03 0.  1.
         -6    1    1    2    0  503 -0.39975082881E+02  0.10462414789E+02  0.11918094185E+03  0.21410410149E+03  0.17300000000E+03 0.  1.
<mgrwt>
<rscale>  2 0.17786644E+03</rscale>
<asrwt>0</asrwt>
<pdfrwt beam="1">  1       21 0.53736054E-01 0.17786644E+03</pdfrwt>
<pdfrwt beam="2">  1       21 0.13963932E-01 0.17786644E+03</pdfrwt>
<totfact> 0.14707074E+05</totfact>
</mgrwt>
</event>
<event>
 4    1  0.3945627E+000  0.1782460E+03  0.7546771E-02  0.1169511E+00
         21   -1    0    0  503  502  0.00000000000E+00  0.00000000000E+00  0.13532912291E+03  0.13532912291E+03  0.00000000000E+00 0.  1.
         21   -1    0    0  501  503 -0.00000000000E+00 -0.00000000000E+00 -0.23482818901E+03  0.23482818901E+03  0.00000000000E+00 0.  1.
          6    1    1    2  501    0  0.15256352848E+02 -0.40123221316E+02 -0.52585894436E+02  0.18584107588E+03  0.17300000000E+03 0. -1.
         -6    1    1    2    0  502 -0.15256352848E+02  0.40123221316E+02 -0.46913171664E+02  0.18431623604E+03  0.17300000000E+03 0. -1.
<mgrwt>
<rscale>  2 0.17824598E+03</rscale>
<asrwt>0</asrwt>
<pdfrwt beam="1">  1       21 0.20819865E-01 0.17824598E+03</pdfrwt>
<pdfrwt beam="2">  1       21 0.36127414E-01 0.17824598E+03</pdfrwt>
<totfact> 0.15891599E+05</totfact>
</mgrwt>
</event>
<event>
 4    1  0.3945627E+000  0.2660679E+03  0.7546771E-02  0.1103551E+00
         21   -1    0    0  503  502  0.00000000000E+00  0.00000000000E+00  0.12217988175E+03  0.12217988175E+03  0.00000000000E+00 0.  1.
         21   -1    0    0  501  503 -0.00000000000E+00 -0.00000000000E+00 -0.75559772072E+03  0.75559772072E+03  0.00000000000E+00 0. -1.
          6    1    1    2  501    0  0.20126345299E+03  0.18871322487E+02 -0.52864183879E+03  0.59182286036E+03  0.17300000000E+03 0. -1.
         -6    1    1    2    0  502 -0.20126345299E+03 -0.18871322487E+02 -0.10477600018E+03  0.28595474211E+03  0.17300000000E+03 0.  1.
<mgrwt>
<rscale>  2 0.26606786E+03</rscale>
<asrwt>0</asrwt>
<pdfrwt beam="1">  1       21 0.18796905E-01 0.26606786E+03</pdfrwt>
<pdfrwt beam="2">  1       21 0.11624580E+00 0.26606786E+03</pdfrwt>
<totfact> 0.14166954E+04</totfact>
</mgrwt>
</event>
<event>
 4    1  0.3945627E+000  0.2323368E+03  0.7546771E-02  0.1125006E+00
         21   -1    0    0  503  502  0.00000000000E+00  0.00000000000E+00  0.87066677398E+03  0.87066677398E+03  0.00000000000E+00 0. -1.
         21   -1    0    0  501  503 -0.00000000000E+00 -0.00000000000E+00 -0.85561690168E+02  0.85561690168E+02  0.00000000000E+00 0.  1.
          6    1    1    2  501    0  0.46353401102E+02  0.14799575999E+03  0.14164983515E+03  0.27211221687E+03  0.17300000000E+03 0.  1.
         -6    1    1    2    0  502 -0.46353401102E+02 -0.14799575999E+03  0.64345524866E+03  0.68411624728E+03  0.17300000000E+03 0. -1.
<mgrwt>
<rscale>  2 0.23233679E+03</rscale>
<asrwt>0</asrwt>
<pdfrwt beam="1">  1       21 0.13394873E+00 0.23233679E+03</pdfrwt>
<pdfrwt beam="2">  1       21 0.13163338E-01 0.23233679E+03</pdfrwt>
<totfact> 0.19431308E+04</totfact>
</mgrwt>
</event>
<event>
 4    1  0.3945627E+000  0.2890568E+03  0.7546771E-02  0.1090843E+00
         21   -1    0    0  501  502  0.00000000000E+00  0.00000000000E+00  0.87160990135E+03  0.87160990135E+03  0.00000000000E+00 0. -1.
         21   -1    0    0  502  503 -0.00000000000E+00 -0.00000000000E+00 -0.12379635761E+03  0.12379635761E+03  0.00000000000E+00 0.  1.
          6    1    1    2  501    0 -0.10119374750E+03  0.20828986337E+03  0.61032969760E+03  0.67531931817E+03  0.17300000000E+03 0. -1.
         -6    1    1    2    0  503  0.10119374750E+03 -0.20828986337E+03  0.13748384613E+03  0.32008694079E+03  0.17300000000E+03 0.  1.
<mgrwt>
<rscale>  2 0.28905681E+03</rscale>
<asrwt>0</asrwt>
<pdfrwt beam="1">  1       21 0.13409383E+00 0.28905681E+03</pdfrwt>
<pdfrwt beam="2">  1       21 0.19045594E-01 0.28905681E+03</pdfrwt>
<totfact> 0.95191661E+03</totfact>
</mgrwt>
</event>
<event>
 4    1  0.3945627E+000  0.2183219E+03  0.7546771E-02  0.1135140E+00
         21   -1    0    0  501  502  0.00000000000E+00  0.00000000000E+00  0.29983970442E+03  0.29983970442E+03  0.00000000000E+00 0.  1.
         21   -1    0    0  502  503 -0.00000000000E+00 -0.00000000000E+00 -0.15951649497E+03  0.15951649497E+03  0.00000000000E+00 0.  1.
          6    1    1    2  501    0 -0.22111100977E+02  0.13132617498E+03  0.83648145218E+02  0.23379794101E+03  0.17300000000E+03 0.  1.
         -6    1    1    2    0  503  0.22111100977E+02 -0.13132617498E+03  0.56675064229E+02  0.22555825839E+03  0.17300000000E+03 0.  1.
<mgrwt>
<rscale>  2 0.21832193E+03</rscale>
<asrwt>0</asrwt>
<pdfrwt beam="1">  1       21 0.46129185E-01 0.21832193E+03</pdfrwt>
<pdfrwt beam="2">  1       21 0.24540999E-01 0.21832193E+03</pdfrwt>
<totfact> 0.69874189E+04</totfact>
</mgrwt>
</event>
<event>
 4    1  0.3945627E+000  0.2126788E+03  0.7546771E-02  0.1139462E+00
         21   -1    0    0  501  502  0.00000000000E+00  0.00000000000E+00  0.38447890020E+03  0.38447890020E+03  0.00000000000E+00 0. -1.
         21   -1    0    0  502  503 -0.00000000000E+00 -0.00000000000E+00 -0.13570695398E+03  0.13570695398E+03  0.00000000000E+00 0. -1.
          6    1    1    2  501    0  0.46121817857E+02  0.11478695774E+03  0.21927196816E+03  0.30547088858E+03  0.17300000000E+03 0. -1.
         -6    1    1    2    0  503 -0.46121817857E+02 -0.11478695774E+03  0.29499978059E+02  0.21471496560E+03  0.17300000000E+03 0. -1.
<mgrwt>
<rscale>  2 0.21267879E+03</rscale>
<asrwt>0</asrwt>
<pdfrwt beam="1">  1       21 0.59150600E-01 0.21267879E+03</pdfrwt>
<pdfrwt beam="2">  1       21 0.20877993E-01 0.21267879E+03</pdfrwt>
<totfact> 0.56372482E+04</totfact>
</mgrwt>
</event>
<event>
 4    1  0.3945627E+000  0.1853425E+03  0.7546771E-02  0.1162730E+00
         21   -1    0    0  503  502  0.00000000000E+00  0.00000000000E+00  0.34714341684E+03  0.34714341684E+03  0.00000000000E+00 0. -1.
         21   -1    0    0  501  503 -0.00000000000E+00 -0.00000000000E+00 -0.11823510749E+03  0.11823510749E+03  0.00000000000E+00 0. -1.
          6    1    1    2  501    0  0.26781163870E+02  0.60873699239E+02  0.20492778572E+02  0.18647196028E+03  0.17300000000E+03 0. -1.
         -6    1    1    2    0  502 -0.26781163870E+02 -0.60873699239E+02  0.20841553078E+03  0.27890656405E+03  0.17300000000E+03 0. -1.
<mgrwt>
<rscale>  2 0.18534249E+03</rscale>
<asrwt>0</asrwt>
<pdfrwt beam="1">  1       21 0.53406679E-01 0.18534249E+03</pdfrwt>
<pdfrwt beam="2">  1       21 0.18190017E-01 0.18534249E+03</pdfrwt>
<totfact> 0.91647542E+04</totfact>
</mgrwt>
</event>
<event>
 4    1  0.3945627E+000  0.2803444E+03  0.7546771E-02  0.1095501E+00
         21   -1    0    0  503  502  0.00000000000E+00  0.00000000000E+00  0.60504270493E+03  0.60504270493E+03  0.00000000000E+00 0.  1.
         21   -1    0    0  501  503 -0.00000000000E+00 -0.00000000000E+00 -0.15576355648E+03  0.15576355648E+03  0.00000000000E+00 0. -1.
          6    1    1    2  501    0 -0.11377698481E+03  0.18899418440E+03  0.69621038570E+02  0.28885998861E+03  0.17300000000E+03 0. -1.
         -6    1    1    2    0  502  0.11377698481E+03 -0.18899418440E+03  0.37965810989E+03  0.47194627280E+03  0.17300000000E+03 0.  1.
<mgrwt>
<rscale>  2 0.28034444E+03</rscale>
<asrwt>0</asrwt>
<pdfrwt beam="1">  1       21 0.93083491E-01 0.28034444E+03</pdfrwt>
<pdfrwt beam="2">  1       21 0.23963625E-01 0.28034444E+03</pdfrwt>
<totfact> 0.15195709E+04</totfact>
</mgrwt>
</event>
<event>
 4    1  0.3945627E+000  0.5459349E+03  0.7546771E-02  0.1002439E+00
         21   -1    0    0  501  502  0.00000000000E+00  0.00000000000E+00  0.14638486398E+04  0.14638486398E+04  0.00000000000E+00 0.  1.
         21   -1    0    0  502  503 -0.00000000000E+00 -0.00000000000E+00 -0.38684246519E+03  0.38684246519E+03  0.00000000000E+00 0.  1.
          6    1    1    2  501    0  0.48393583513E+03 -0.18417927688E+03 -0.98359344243E+02  0.55472466968E+03  0.17300000000E+03 0.  1.
         -6    1    1    2    0  503 -0.48393583513E+03  0.18417927688E+03  0.11753655189E+04  0.12959664353E+04  0.17300000000E+03 0.  1.
<mgrwt>
<rscale>  2 0.54593488E+03</rscale>
<asrwt>0</asrwt>
<pdfrwt beam="1">  1       21 0.22520748E+00 0.54593488E+03</pdfrwt>
<pdfrwt beam="2">  1       21 0.59514226E-01 0.54593488E+03</pdfrwt>
<totfact> 0.18855255E+02</totfact>
</mgrwt>
</event>
<event>
 4    1  0.3945627E+000  0.2319310E+03  0.7546771E-02  0.1125288E+00
         21   -1    0    0  503  502  0.00000000000E+00  0.00000000000E+00  0.20239877258E+04  0.20239877258E+04  0.00000000000E+00 0.  1.
         21   -1    0    0  501  503 -0.00000000000E+00 -0.00000000000E+00 -0.31160132146E+02  0.31160132146E+02  0.00000000000E+00 0. -1.
          6    1    1    2  501    0  0.12464959376E+03 -0.91243925067E+02  0.13904934478E+04  0.14097035162E+04  0.17300000000E+03 0.  1.
         -6    1    1    2    0  502 -0.12464959376E+03  0.91243925067E+02  0.60233414584E+03  0.64544434178E+03  0.17300000000E+03 0. -1.
<mgrwt>
<rscale>  2 0.23193097E+03</rscale>
<asrwt>0</asrwt>
<pdfrwt beam="1">  1       21 0.31138263E+00 0.23193097E+03</pdfrwt>
<pdfrwt beam="2">  1       21 0.47938680E-02 0.23193097E+03</pdfrwt>
<totfact> 0.81373228E+03</totfact>
</mgrwt>
</event>
<event>
 4    1  0.3945627E+000  0.1915288E+03  0.7546771E-02  0.1157090E+00
         21   -1    0    0  503  502  0.00000000000E+00  0.00000000000E+00  0.18749899579E+03  0.18749899579E+03  0.00000000000E+00 0. -1.
         21   -1    0    0  501  503 -0.00000000000E+00 -0.00000000000E+00 -0.48636589764E+03  0.48636589764E+03  0.00000000000E+00 0. -1.
          6    1    1    2  501    0 -0.72638905495E+02  0.38443071027E+02 -0.40992836391E+03  0.45246496421E+03  0.17300000000E+03 0. -1.
         -6    1    1    2    0  502  0.72638905495E+02 -0.38443071027E+02  0.11106146207E+03  0.22139992922E+03  0.17300000000E+03 0. -1.
<mgrwt>
<rscale>  2 0.19152880E+03</rscale>
<asrwt>0</asrwt>
<pdfrwt beam="1">  1       21 0.28845999E-01 0.19152880E+03</pdfrwt>
<pdfrwt beam="2">  1       21 0.74825523E-01 0.19152880E+03</pdfrwt>
<totfact> 0.18394199E+04</totfact>
</mgrwt>
</event>
<event>
 4    1  0.3945627E+000  0.1823336E+03  0.7546771E-02  0.1165563E+00
         21   -1    0    0  503  502  0.00000000000E+00  0.00000000000E+00  0.96500601328E+02  0.96500601328E+02  0.00000000000E+00 0. -1.
         21   -1    0    0  501  503 -0.00000000000E+00 -0.00000000000E+00 -0.39409693948E+03  0.39409693948E+03  0.00000000000E+00 0.  1.
          6    1    1    2  501    0  0.57586885796E+02 -0.55469424877E+00 -0.23580860989E+03  0.29807928073E+03  0.17300000000E+03 0.  1.
         -6    1    1    2    0  502 -0.57586885796E+02  0.55469424877E+00 -0.61787728266E+02  0.19251826008E+03  0.17300000000E+03 0. -1.
<mgrwt>
<rscale>  2 0.18233364E+03</rscale>
<asrwt>0</asrwt>
<pdfrwt beam="1">  1       21 0.14846246E-01 0.18233364E+03</pdfrwt>
<pdfrwt beam="2">  1       21 0.60630298E-01 0.18233364E+03</pdfrwt>
<totfact> 0.10167003E+05</totfact>
</mgrwt>
</event>
<event>
 4    1  0.3945627E+000  0.2838820E+03  0.7546771E-02  0.1093587E+00
         21   -1    0    0  503  502  0.00000000000E+00  0.00000000000E+00  0.17846622750E+04  0.17846622750E+04  0.00000000000E+00 0.  1.
         21   -1    0    0  501  503 -0.00000000000E+00 -0.00000000000E+00 -0.49868462723E+02  0.49868462723E+02  0.00000000000E+00 0. -1.
          6    1    1    2  501    0  0.21611795960E+03  0.62872959905E+02  0.58543785482E+03  0.65063543049E+03  0.17300000000E+03 0.  1.
         -6    1    1    2    0  502 -0.21611795960E+03 -0.62872959905E+02  0.11493559574E+04  0.11838953072E+04  0.17300000000E+03 0. -1.
<mgrwt>
<rscale>  2 0.28388199E+03</rscale>
<asrwt>0</asrwt>
<pdfrwt beam="1">  1       21 0.27456338E+00 0.28388199E+03</pdfrwt>
<pdfrwt beam="2">  1       21 0.76720726E-02 0.28388199E+03</pdfrwt>
<totfact> 0.56907084E+03</totfact>
</mgrwt>
</event>
<event>
 4    1  0.3945627E+000  0.1971197E+03  0.7546771E-02  0.1152192E+00
         21   -1    0    0  503  502  0.00000000000E+00  0.00000000000E+00  0.95333771499E+03  0.95333771499E+03  0.00000000000E+00 0. -1.
         21   -1    0    0  501  503 -0.00000000000E+00 -0.00000000000E+00 -0.49881959271E+02  0.49881959271E+02  0.00000000000E+00 0. -1.
          6    1    1    2  501    0 -0.56530520214E+02  0.75706457203E+02  0.23719925571E+03  0.30841474395E+03  0.17300000000E+03 0. -1.
         -6    1    1    2    0  502  0.56530520214E+02 -0.75706457203E+02  0.66625650000E+03  0.69480493030E+03  0.17300000000E+03 0. -1.
<mgrwt>
<rscale>  2 0.19711968E+03</rscale>
<asrwt>0</asrwt>
<pdfrwt beam="1">  1       21 0.14666733E+00 0.19711968E+03</pdfrwt>
<pdfrwt beam="2">  1       21 0.76741483E-02 0.19711968E+03</pdfrwt>
<totfact> 0.40792831E+04</totfact>
</mgrwt>
</event>
<event>
 4    1  0.3945627E+000  0.1732655E+03  0.7546771E-02  0.1174485E+00
         21   -1    0    0  501  502  0.00000000000E+00  0.00000000000E+00  0.86831778301E+03  0.86831778301E+03  0.00000000000E+00 0. -1.
         21   -1    0    0  502  503 -0.00000000000E+00 -0.00000000000E+00 -0.20563603226E+03  0.20563603226E+03  0.00000000000E+00 0. -1.
          6    1    1    2  501    0  0.74597709443E+01 -0.60238689861E+01  0.82110078299E+03  0.83918259694E+03  0.17300000000E+03 0. -1.
         -6    1    1    2    0  503 -0.74597709443E+01  0.60238689861E+01 -0.15841903224E+03  0.23477121833E+03  0.17300000000E+03 0. -1.
<mgrwt>
<rscale>  2 0.17326550E+03</rscale>
<asrwt>0</asrwt>
<pdfrwt beam="1">  1       21 0.13358735E+00 0.17326550E+03</pdfrwt>
<pdfrwt beam="2">  1       21 0.31636313E-01 0.17326550E+03</pdfrwt>
<totfact> 0.39425400E+03</totfact>
</mgrwt>
</event>
<event>
 4    1  0.3945627E+000  0.2920982E+03  0.7546771E-02  0.1089259E+00
         21   -1    0    0  503  502  0.00000000000E+00  0.00000000000E+00  0.68116523978E+03  0.68116523978E+03  0.00000000000E+00 0.  1.
         21   -1    0    0  501  503 -0.00000000000E+00 -0.00000000000E+00 -0.13065392653E+03  0.13065392653E+03  0.00000000000E+00 0. -1.
          6    1    1    2  501    0 -0.16987918164E+03  0.16289079834E+03  0.19276516985E+03  0.34997108344E+03  0.17300000000E+03 0.  1.
         -6    1    1    2    0  502  0.16987918164E+03 -0.16289079834E+03  0.35774614340E+03  0.46184808287E+03  0.17300000000E+03 0. -1.
<mgrwt>
<rscale>  2 0.29209818E+03</rscale>
<asrwt>0</asrwt>
<pdfrwt beam="1">  1       21 0.10479465E+00 0.29209818E+03</pdfrwt>
<pdfrwt beam="2">  1       21 0.20100604E-01 0.29209818E+03</pdfrwt>
<totfact> 0.15903711E+04</totfact>
</mgrwt>
</event>
<event>
 4    1  0.3945627E+000  0.1935931E+03  0.7546771E-02  0.1155260E+00
         21   -1    0    0  501  502  0.00000000000E+00  0.00000000000E+00  0.18306417146E+04  0.18306417146E+04  0.00000000000E+00 0. -1.
         21   -1    0    0  502  503 -0.00000000000E+00 -0.00000000000E+00 -0.20744316573E+03  0.20744316573E+03  0.00000000000E+00 0. -1.
          6    1    1    2  501    0 -0.17759991657E+02 -0.85052139458E+02  0.17790506445E+04  0.17895528714E+04  0.17300000000E+03 0. -1.
         -6    1    1    2    0  503  0.17759991657E+02  0.85052139458E+02 -0.15585209567E+03  0.24853200892E+03  0.17300000000E+03 0. -1.
<mgrwt>
<rscale>  2 0.19359309E+03</rscale>
<asrwt>0</asrwt>
<pdfrwt beam="1">  1       21 0.28163718E+00 0.19359309E+03</pdfrwt>
<pdfrwt beam="2">  1       21 0.31914334E-01 0.19359309E+03</pdfrwt>
<totfact> 0.41059046E+02</totfact>
</mgrwt>
</event>
<event>
 4    1  0.3945627E+000  0.2399812E+03  0.7546771E-02  0.1119805E+00
         21   -1    0    0  501  502  0.00000000000E+00  0.00000000000E+00  0.49541805125E+02  0.49541805125E+02  0.00000000000E+00 0.  1.
         21   -1    0    0  502  503 -0.00000000000E+00 -0.00000000000E+00 -0.15536392182E+04  0.15536392182E+04  0.00000000000E+00 0.  1.
          6    1    1    2  501    0  0.15837629263E+03  0.50782976467E+02 -0.34983329088E+03  0.42423377067E+03  0.17300000000E+03 0.  1.
         -6    1    1    2    0  503 -0.15837629263E+03 -0.50782976467E+02 -0.11542641222E+04  0.11789472527E+04  0.17300000000E+03 0.  1.
<mgrwt>
<rscale>  2 0.23998117E+03</rscale>
<asrwt>0</asrwt>
<pdfrwt beam="1">  1       21 0.76218172E-02 0.23998117E+03</pdfrwt>
<pdfrwt beam="2">  1       21 0.23902139E+00 0.23998117E+03</pdfrwt>
<totfact> 0.96810142E+03</totfact>
</mgrwt>
</event>
<event>
 4    1  0.3945627E+000  0.4369798E+03  0.7546771E-02  0.1031678E+00
         21   -1    0    0  501  502  0.00000000000E+00  0.00000000000E+00  0.38591875752E+03  0.38591875752E+03  0.00000000000E+00 0.  1.
         21   -1    0    0  502  503 -0.00000000000E+00 -0.00000000000E+00 -0.49617427211E+03  0.49617427211E+03  0.00000000000E+00 0. -1.
          6    1    1    2  501    0  0.10813433293E+03  0.38643155045E+03 -0.78366051438E+02  0.44395114051E+03  0.17300000000E+03 0. -1.
         -6    1    1    2    0  503 -0.10813433293E+03 -0.38643155045E+03 -0.31889463153E+02  0.43814188912E+03  0.17300000000E+03 0. -1.
<mgrwt>
<rscale>  2 0.43697984E+03</rscale>
<asrwt>0</asrwt>
<pdfrwt beam="1">  1       21 0.59372117E-01 0.43697984E+03</pdfrwt>
<pdfrwt beam="2">  1       21 0.76334503E-01 0.43697984E+03</pdfrwt>
<totfact> 0.35557829E+03</totfact>
</mgrwt>
</event>
<event>
 4    1  0.3945627E+000  0.2847436E+03  0.7546771E-02  0.1093126E+00
         21   -1    0    0  503  502  0.00000000000E+00  0.00000000000E+00  0.15078070269E+03  0.15078070269E+03  0.00000000000E+00 0. -1.
         21   -1    0    0  501  503 -0.00000000000E+00 -0.00000000000E+00 -0.76515851433E+03  0.76515851433E+03  0.00000000000E+00 0.  1.
          6    1    1    2  501    0  0.14526674729E+03  0.17334204640E+03 -0.55687021444E+03  0.62544650342E+03  0.17300000000E+03 0. -1.
         -6    1    1    2    0  502 -0.14526674729E+03 -0.17334204640E+03 -0.57507597206E+02  0.29049271360E+03  0.17300000000E+03 0.  1.
<mgrwt>
<rscale>  2 0.28474356E+03</rscale>
<asrwt>0</asrwt>
<pdfrwt beam="1">  1       21 0.23197031E-01 0.28474356E+03</pdfrwt>
<pdfrwt beam="2">  1       21 0.11771669E+00 0.28474356E+03</pdfrwt>
<totfact> 0.91385560E+03</totfact>
</mgrwt>
</event>
<event>
 4    1  0.3945627E+000  0.2547679E+03  0.7546771E-02  0.1110328E+00
         21   -1    0    0  501  502  0.00000000000E+00  0.00000000000E+00  0.78116098440E+02  0.78116098440E+02  0.00000000000E+00 0. -1.
         21   -1    0    0  502  503 -0.00000000000E+00 -0.00000000000E+00 -0.86080500586E+03  0.86080500586E+03  0.00000000000E+00 0.  1.
          6    1    1    2  501    0 -0.15720825656E+03 -0.10130757821E+03 -0.30384222575E+03  0.39651829653E+03  0.17300000000E+03 0. -1.
         -6    1    1    2    0  503  0.15720825656E+03  0.10130757821E+03 -0.47884668167E+03  0.54240280778E+03  0.17300000000E+03 0. -1.
<mgrwt>
<rscale>  2 0.25476786E+03</rscale>
<asrwt>0</asrwt>
<pdfrwt beam="1">  1       21 0.12017860E-01 0.25476786E+03</pdfrwt>
<pdfrwt beam="2">  1       21 0.13243155E+00 0.25476786E+03</pdfrwt>
<totfact> 0.23301327E+04</totfact>
</mgrwt>
</event>
<event>
 4    1  0.3945627E+000  0.2135294E+03  0.7546771E-02  0.1138801E+00
         21   -1    0    0  501  502  0.00000000000E+00  0.00000000000E+00  0.81924363556E+03  0.81924363556E+03  0.00000000000E+00 0. -1.
         21   -1    0    0  502  503 -0.00000000000E+00 -0.00000000000E+00 -0.18192215871E+03  0.18192215871E+03  0.00000000000E+00 0. -1.
          6    1    1    2  501    0 -0.25072928926E+02 -0.12262607950E+03  0.73570180773E+03  0.76606263258E+03  0.17300000000E+03 0. -1.
         -6    1    1    2    0  503  0.25072928926E+02  0.12262607950E+03 -0.98380330875E+02  0.23510316170E+03  0.17300000000E+03 0. -1.
<mgrwt>
<rscale>  2 0.21352941E+03</rscale>
<asrwt>0</asrwt>
<pdfrwt beam="1">  1       21 0.12603748E+00 0.21352941E+03</pdfrwt>
<pdfrwt beam="2">  1       21 0.27988025E-01 0.21352941E+03</pdfrwt>
<totfact> 0.56053192E+03</totfact>
</mgrwt>
</event>
<event>
 4    1  0.3945627E+000  0.2448444E+03  0.7546771E-02  0.1116607E+00
         21   -1    0    0  503  502  0.00000000000E+00  0.00000000000E+00  0.56743767699E+03  0.56743767699E+03  0.00000000000E+00 0. -1.
         21   -1    0    0  501  503 -0.00000000000E+00 -0.00000000000E+00 -0.17793534174E+03  0.17793534174E+03  0.00000000000E+00 0.  1.
          6    1    1    2  501    0 -0.49631549539E+02 -0.16600146580E+03 -0.42792275486E+02  0.24855574063E+03  0.17300000000E+03 0.  1.
         -6    1    1    2    0  502  0.49631549539E+02  0.16600146580E+03  0.43229461074E+03  0.49681727811E+03  0.17300000000E+03 0. -1.
<mgrwt>
<rscale>  2 0.24484439E+03</rscale>
<asrwt>0</asrwt>
<pdfrwt beam="1">  1       21 0.87298103E-01 0.24484439E+03</pdfrwt>
<pdfrwt beam="2">  1       21 0.27374668E-01 0.24484439E+03</pdfrwt>
<totfact> 0.13900996E+04</totfact>
</mgrwt>
</event>
<event>
 4    1  0.3945627E+000  0.1872638E+03  0.7546771E-02  0.1160953E+00
         21   -1    0    0  501  502  0.00000000000E+00  0.00000000000E+00  0.31476542557E+03  0.31476542557E+03  0.00000000000E+00 0.  1.
         21   -1    0    0  502  503 -0.00000000000E+00 -0.00000000000E+00 -0.12287085114E+03  0.12287085114E+03  0.00000000000E+00 0.  1.
          6    1    1    2  501    0 -0.55225928839E+02 -0.45703752753E+02  0.16277924210E+03  0.24812258642E+03  0.17300000000E+03 0.  1.
         -6    1    1    2    0  503  0.55225928839E+02  0.45703752753E+02  0.29115332332E+02  0.18951369029E+03  0.17300000000E+03 0.  1.
<mgrwt>
<rscale>  2 0.18726381E+03</rscale>
<asrwt>0</asrwt>
<pdfrwt beam="1">  1       21 0.48425450E-01 0.18726381E+03</pdfrwt>
<pdfrwt beam="2">  1       21 0.18903208E-01 0.18726381E+03</pdfrwt>
<totfact> 0.10463544E+05</totfact>
</mgrwt>
</event>
<event>
 4    1  0.3945627E+000  0.1814423E+03  0.7546771E-02  0.1166414E+00
         21   -1    0    0  501  502  0.00000000000E+00  0.00000000000E+00  0.97226571109E+02  0.97226571109E+02  0.00000000000E+00 0. -1.
         21   -1    0    0  502  503 -0.00000000000E+00 -0.00000000000E+00 -0.35482533818E+03  0.35482533818E+03  0.00000000000E+00 0. -1.
          6    1    1    2  501    0  0.18956017162E+02  0.51312685432E+02 -0.17712663347E+03  0.25356491587E+03  0.17300000000E+03 0.  1.
         -6    1    1    2    0  503 -0.18956017162E+02 -0.51312685432E+02 -0.80472133600E+02  0.19848699343E+03  0.17300000000E+03 0.  1.
<mgrwt>
<rscale>  2 0.18144234E+03</rscale>
<asrwt>0</asrwt>
<pdfrwt beam="1">  1       21 0.14957934E-01 0.18144234E+03</pdfrwt>
<pdfrwt beam="2">  1       21 0.54588513E-01 0.18144234E+03</pdfrwt>
<totfact> 0.12544719E+05</totfact>
</mgrwt>
</event>
<event>
 4    1  0.3945627E+000  0.1912621E+03  0.7546771E-02  0.1157328E+00
         21   -1    0    0  501  502  0.00000000000E+00  0.00000000000E+00  0.69978852277E+03  0.69978852277E+03  0.00000000000E+00 0.  1.
         21   -1    0    0  502  503 -0.00000000000E+00 -0.00000000000E+00 -0.12621795346E+03  0.12621795346E+03  0.00000000000E+00 0.  1.
          6    1    1    2  501    0 -0.70027959081E+02  0.41812505734E+02  0.60289825215E+03  0.63250889570E+03  0.17300000000E+03 0.  1.
         -6    1    1    2    0  503  0.70027959081E+02 -0.41812505734E+02 -0.29327682841E+02  0.19349758053E+03  0.17300000000E+03 0.  1.
<mgrwt>
<rscale>  2 0.19126213E+03</rscale>
<asrwt>0</asrwt>
<pdfrwt beam="1">  1       21 0.10765977E+00 0.19126213E+03</pdfrwt>
<pdfrwt beam="2">  1       21 0.19418147E-01 0.19126213E+03</pdfrwt>
<totfact> 0.16794207E+04</totfact>
</mgrwt>
</event>
<event>
 4    1  0.3945627E+000  0.2033252E+03  0.7546771E-02  0.1146964E+00
         21   -1    0    0  501  502  0.00000000000E+00  0.00000000000E+00  0.24845435696E+03  0.24845435696E+03  0.00000000000E+00 0. -1.
         21   -1    0    0  502  503 -0.00000000000E+00 -0.00000000000E+00 -0.20204427919E+03  0.20204427919E+03  0.00000000000E+00 0. -1.
          6    1    1    2  501    0 -0.52438402666E+02 -0.93071689885E+02 -0.71413513763E+02  0.21550177605E+03  0.17300000000E+03 0. -1.
         -6    1    1    2    0  503  0.52438402666E+02  0.93071689885E+02  0.11782359154E+03  0.23499686010E+03  0.17300000000E+03 0. -1.
<mgrwt>
<rscale>  2 0.20332517E+03</rscale>
<asrwt>0</asrwt>
<pdfrwt beam="1">  1       21 0.38223747E-01 0.20332517E+03</pdfrwt>
<pdfrwt beam="2">  1       21 0.31083735E-01 0.20332517E+03</pdfrwt>
<totfact> 0.65308034E+04</totfact>
</mgrwt>
</event>
<event>
 4    1  0.3945627E+000  0.1844854E+03  0.7546771E-02  0.1163531E+00
         21   -1    0    0  501  502  0.00000000000E+00  0.00000000000E+00  0.25381491953E+02  0.25381491953E+02  0.00000000000E+00 0.  1.
         21   -1    0    0  502  503 -0.00000000000E+00 -0.00000000000E+00 -0.13477640263E+04  0.13477640263E+04  0.00000000000E+00 0. -1.
          6    1    1    2  501    0 -0.14085364902E+02 -0.62509692535E+02 -0.61230927520E+03  0.63949785587E+03  0.17300000000E+03 0.  1.
         -6    1    1    2    0  503  0.14085364902E+02  0.62509692535E+02 -0.71007325916E+03  0.73364766239E+03  0.17300000000E+03 0. -1.
<mgrwt>
<rscale>  2 0.18448539E+03</rscale>
<asrwt>0</asrwt>
<pdfrwt beam="1">  1       21 0.39048445E-02 0.18448539E+03</pdfrwt>
<pdfrwt beam="2">  1       21 0.20734833E+00 0.18448539E+03</pdfrwt>
<totfact> 0.49463814E+04</totfact>
</mgrwt>
</event>
<event>
 4    1  0.3945627E+000  0.1980336E+03  0.7546771E-02  0.1151409E+00
         21   -1    0    0  503  502  0.00000000000E+00  0.00000000000E+00  0.68891381399E+02  0.68891381399E+02  0.00000000000E+00 0. -1.
         21   -1    0    0  501  503 -0.00000000000E+00 -0.00000000000E+00 -0.63795049739E+03  0.63795049739E+03  0.00000000000E+00 0. -1.
          6    1    1    2  501    0 -0.71954377547E+02 -0.64116202982E+02 -0.40049734821E+03  0.44678344403E+03  0.17300000000E+03 0. -1.
         -6    1    1    2    0  502  0.71954377547E+02  0.64116202982E+02 -0.16856176778E+03  0.26005843476E+03  0.17300000000E+03 0. -1.
<mgrwt>
<rscale>  2 0.19803363E+03</rscale>
<asrwt>0</asrwt>
<pdfrwt beam="1">  1       21 0.10598674E-01 0.19803363E+03</pdfrwt>
<pdfrwt beam="2">  1       21 0.98146230E-01 0.19803363E+03</pdfrwt>
<totfact> 0.62655935E+04</totfact>
</mgrwt>
</event>
<event>
 4    1  0.3945627E+000  0.2861000E+03  0.7546771E-02  0.1092403E+00
         21   -1    0    0  501  502  0.00000000000E+00  0.00000000000E+00  0.30620501785E+03  0.30620501785E+03  0.00000000000E+00 0. -1.
         21   -1    0    0  502  503 -0.00000000000E+00 -0.00000000000E+00 -0.11597918346E+04  0.11597918346E+04  0.00000000000E+00 0. -1.
          6    1    1    2  501    0 -0.21344997760E+03 -0.79770424007E+02  0.21620734194E+03  0.35860678771E+03  0.17300000000E+03 0. -1.
         -6    1    1    2    0  503  0.21344997760E+03  0.79770424007E+02 -0.10697941587E+04  0.11073900647E+04  0.17300000000E+03 0. -1.
<mgrwt>
<rscale>  2 0.28610001E+03</rscale>
<asrwt>0</asrwt>
<pdfrwt beam="1">  1       21 0.47108465E-01 0.28610001E+03</pdfrwt>
<pdfrwt beam="2">  1       21 0.17842951E+00 0.28610001E+03</pdfrwt>
<totfact> 0.73739474E+02</totfact>
</mgrwt>
</event>
<event>
 4    1  0.3945627E+000  0.1875211E+03  0.7546771E-02  0.1160716E+00
         21   -1    0    0  503  502  0.00000000000E+00  0.00000000000E+00  0.11936010365E+03  0.11936010365E+03  0.00000000000E+00 0.  1.
         21   -1    0    0  501  503 -0.00000000000E+00 -0.00000000000E+00 -0.29607917210E+03  0.29607917210E+03  0.00000000000E+00 0.  1.
          6    1    1    2  501    0  0.66142344064E+02 -0.29331659347E+02 -0.10301359975E+03  0.21395316696E+03  0.17300000000E+03 0.  1.
         -6    1    1    2    0  502 -0.66142344064E+02  0.29331659347E+02 -0.73705468708E+02  0.20148610879E+03  0.17300000000E+03 0.  1.
<mgrwt>
<rscale>  2 0.18752108E+03</rscale>
<asrwt>0</asrwt>
<pdfrwt beam="1">  1       21 0.18363093E-01 0.18752108E+03</pdfrwt>
<pdfrwt beam="2">  1       21 0.45550642E-01 0.18752108E+03</pdfrwt>
<totfact> 0.12527214E+05</totfact>
</mgrwt>
</event>
<event>
 4    1  0.3945627E+000  0.2088802E+03  0.7546771E-02  0.1142456E+00
         21   -1    0    0  503  502  0.00000000000E+00  0.00000000000E+00  0.15913972917E+03  0.15913972917E+03  0.00000000000E+00 0. -1.
         21   -1    0    0  501  503 -0.00000000000E+00 -0.00000000000E+00 -0.34102679979E+03  0.34102679979E+03  0.00000000000E+00 0. -1.
          6    1    1    2  501    0  0.11305704684E+03  0.30332157979E+02 -0.20167509328E+03  0.29035113036E+03  0.17300000000E+03 0. -1.
         -6    1    1    2    0  502 -0.11305704684E+03 -0.30332157979E+02  0.19788022661E+02  0.20981539860E+03  0.17300000000E+03 0. -1.
<mgrwt>
<rscale>  2 0.20888019E+03</rscale>
<asrwt>0</asrwt>
<pdfrwt beam="1">  1       21 0.24483036E-01 0.20888019E+03</pdfrwt>
<pdfrwt beam="2">  1       21 0.52465661E-01 0.20888019E+03</pdfrwt>
<totfact> 0.53888167E+04</totfact>
</mgrwt>
</event>
<event>
 4    1  0.3945627E+000  0.1912996E+03  0.7546771E-02  0.1157294E+00
         21   -1    0    0  503  502  0.00000000000E+00  0.00000000000E+00  0.34769912613E+02  0.34769912613E+02  0.00000000000E+00 0.  1.
         21   -1    0    0  501  503 -0.00000000000E+00 -0.00000000000E+00 -0.10888703518E+04  0.10888703518E+04  0.00000000000E+00 0.  1.
          6    1    1    2  501    0  0.36611637062E+02 -0.72980301878E+02 -0.62972127634E+03  0.65813708474E+03  0.17300000000E+03 0.  1.
         -6    1    1    2    0  502 -0.36611637062E+02  0.72980301878E+02 -0.42437916286E+03  0.46550317969E+03  0.17300000000E+03 0.  1.
<mgrwt>
<rscale>  2 0.19129960E+03</rscale>
<asrwt>0</asrwt>
<pdfrwt beam="1">  1       21 0.53492180E-02 0.19129960E+03</pdfrwt>
<pdfrwt beam="2">  1       21 0.16751849E+00 0.19129960E+03</pdfrwt>
<totfact> 0.53330122E+04</totfact>
</mgrwt>
</event>
<event>
 4    1  0.3945627E+000  0.2181645E+03  0.7546771E-02  0.1135259E+00
         21   -1    0    0  503  502  0.00000000000E+00  0.00000000000E+00  0.36567206578E+03  0.36567206578E+03  0.00000000000E+00 0.  1.
         21   -1    0    0  501  503 -0.00000000000E+00 -0.00000000000E+00 -0.26480418709E+03  0.26480418709E+03  0.00000000000E+00 0.  1.
          6    1    1    2  501    0 -0.13278297850E+03 -0.59534637920E+01 -0.17435276305E+03  0.27927522105E+03  0.17300000000E+03 0.  1.
         -6    1    1    2    0  502  0.13278297850E+03  0.59534637920E+01  0.27522064174E+03  0.35120103181E+03  0.17300000000E+03 0.  1.
<mgrwt>
<rscale>  2 0.21816453E+03</rscale>
<asrwt>0</asrwt>
<pdfrwt beam="1">  1       21 0.56257241E-01 0.21816453E+03</pdfrwt>
<pdfrwt beam="2">  1       21 0.40739106E-01 0.21816453E+03</pdfrwt>
<totfact> 0.16994240E+04</totfact>
</mgrwt>
</event>
<event>
 4    1  0.3945627E+000  0.1757633E+03  0.7546771E-02  0.1171967E+00
         21   -1    0    0  501  502  0.00000000000E+00  0.00000000000E+00  0.45017813362E+03  0.45017813362E+03  0.00000000000E+00 0. -1.
         21   -1    0    0  502  503 -0.00000000000E+00 -0.00000000000E+00 -0.72890949851E+02  0.72890949851E+02  0.00000000000E+00 0. -1.
          6    1    1    2  501    0  0.29683886208E+02  0.90888995360E+01  0.25192600258E+03  0.30717983653E+03  0.17300000000E+03 0. -1.
         -6    1    1    2    0  503 -0.29683886208E+02 -0.90888995360E+01  0.12536118119E+03  0.21588924694E+03  0.17300000000E+03 0. -1.
<mgrwt>
<rscale>  2 0.17576331E+03</rscale>
<asrwt>0</asrwt>
<pdfrwt beam="1">  1       21 0.69258173E-01 0.17576331E+03</pdfrwt>
<pdfrwt beam="2">  1       21 0.11213993E-01 0.17576331E+03</pdfrwt>
<totfact> 0.12638674E+05</totfact>
</mgrwt>
</event>
<event>
 4    1  0.3945627E+000  0.1909436E+03  0.7546771E-02  0.1157613E+00
         21   -1    0    0  503  502  0.00000000000E+00  0.00000000000E+00  0.80534035250E+02  0.80534035250E+02  0.00000000000E+00 0. -1.
         21   -1    0    0  501  503 -0.00000000000E+00 -0.00000000000E+00 -0.79580669071E+03  0.79580669071E+03  0.00000000000E+00 0.  1.
          6    1    1    2  501    0 -0.21934208199E+02 -0.77777448284E+02 -0.64533679805E+03  0.67299258827E+03  0.17300000000E+03 0.  1.
         -6    1    1    2    0  502  0.21934208199E+02  0.77777448284E+02 -0.69935857413E+02  0.20334813769E+03  0.17300000000E+03 0. -1.
<mgrwt>
<rscale>  2 0.19094355E+03</rscale>
<asrwt>0</asrwt>
<pdfrwt beam="1">  1       21 0.12389852E-01 0.19094355E+03</pdfrwt>
<pdfrwt beam="2">  1       21 0.12243180E+00 0.19094355E+03</pdfrwt>
<totfact> 0.27870311E+04</totfact>
</mgrwt>
</event>
<event>
 4    1  0.3945627E+000  0.2277107E+03  0.7546771E-02  0.1128262E+00
         21   -1    0    0  503  502  0.00000000000E+00  0.00000000000E+00  0.15188526767E+04  0.15188526767E+04  0.00000000000E+00 0.  1.
         21   -1    0    0  501  503 -0.00000000000E+00 -0.00000000000E+00 -0.49538443999E+02  0.49538443999E+02  0.00000000000E+00 0. -1.
          6    1    1    2  501    0 -0.10146868499E+03 -0.10782975352E+03  0.29743173631E+03  0.37459015943E+03  0.17300000000E+03 0. -1.
         -6    1    1    2    0  502  0.10146868499E+03  0.10782975352E+03  0.11718824963E+04  0.11938009612E+04  0.17300000000E+03 0.  1.
<mgrwt>
<rscale>  2 0.22771067E+03</rscale>
<asrwt>0</asrwt>
<pdfrwt beam="1">  1       21 0.23366961E+00 0.22771067E+03</pdfrwt>
<pdfrwt beam="2">  1       21 0.76213002E-02 0.22771067E+03</pdfrwt>
<totfact> 0.10530057E+04</totfact>
</mgrwt>
</event>
<event>
 4    1  0.3945627E+000  0.1988530E+03  0.7546771E-02  0.1150710E+00
         21   -1    0    0  501  502  0.00000000000E+00  0.00000000000E+00  0.33653667522E+03  0.33653667522E+03  0.00000000000E+00 0.  1.
         21   -1    0    0  502  503 -0.00000000000E+00 -0.00000000000E+00 -0.11947618585E+03  0.11947618585E+03  0.00000000000E+00 0.  1.
          6    1    1    2  501    0 -0.94033158261E+02  0.27771728400E+02  0.79194194413E+02  0.21404257562E+03  0.17300000000E+03 0.  1.
         -6    1    1    2    0  503  0.94033158261E+02 -0.27771728400E+02  0.13786629496E+03  0.24197028544E+03  0.17300000000E+03 0.  1.
<mgrwt>
<rscale>  2 0.19885297E+03</rscale>
<asrwt>0</asrwt>
<pdfrwt beam="1">  1       21 0.51774872E-01 0.19885297E+03</pdfrwt>
<pdfrwt beam="2">  1       21 0.18380952E-01 0.19885297E+03</pdfrwt>
<totfact> 0.95432705E+04</totfact>
</mgrwt>
</event>
<event>
 4    1  0.3945627E+000  0.1933928E+03  0.7546771E-02  0.1155436E+00
         21   -1    0    0  503  502  0.00000000000E+00  0.00000000000E+00  0.50064311525E+02  0.50064311525E+02  0.00000000000E+00 0. -1.
         21   -1    0    0  501  503 -0.00000000000E+00 -0.00000000000E+00 -0.99321696503E+03  0.99321696503E+03  0.00000000000E+00 0. -1.
          6    1    1    2  501    0 -0.74385754350E+02 -0.44028621589E+02 -0.73126943958E+03  0.75640977864E+03  0.17300000000E+03 0. -1.
         -6    1    1    2    0  502  0.74385754350E+02  0.44028621589E+02 -0.21188321393E+03  0.28687149791E+03  0.17300000000E+03 0. -1.
<mgrwt>
<rscale>  2 0.19339276E+03</rscale>
<asrwt>0</asrwt>
<pdfrwt beam="1">  1       21 0.77022017E-02 0.19339276E+03</pdfrwt>
<pdfrwt beam="2">  1       21 0.15280261E+00 0.19339276E+03</pdfrwt>
<totfact> 0.36473180E+04</totfact>
</mgrwt>
</event>
<event>
 4    1  0.3945627E+000  0.1911749E+03  0.7546771E-02  0.1157406E+00
         21   -1    0    0  503  502  0.00000000000E+00  0.00000000000E+00  0.25394348326E+02  0.25394348326E+02  0.00000000000E+00 0. -1.
         21   -1    0    0  501  503 -0.00000000000E+00 -0.00000000000E+00 -0.14392284751E+04  0.14392284751E+04  0.00000000000E+00 0. -1.
          6    1    1    2  501    0 -0.81340263641E+02  0.16135746715E+01 -0.70942045653E+03  0.73472799474E+03  0.17300000000E+03 0.  1.
         -6    1    1    2    0  502  0.81340263641E+02 -0.16135746715E+01 -0.70441367019E+03  0.72989482863E+03  0.17300000000E+03 0.  1.
<mgrwt>
<rscale>  2 0.19117490E+03</rscale>
<asrwt>0</asrwt>
<pdfrwt beam="1">  1       21 0.39068222E-02 0.19117490E+03</pdfrwt>
<pdfrwt beam="2">  1       21 0.22141980E+00 0.19117490E+03</pdfrwt>
<totfact> 0.40237246E+04</totfact>
</mgrwt>
</event>
<event>
 4    1  0.3945627E+000  0.1853177E+03  0.7546771E-02  0.1162754E+00
         21   -1    0    0  503  502  0.00000000000E+00  0.00000000000E+00  0.17420438701E+03  0.17420438701E+03  0.00000000000E+00 0. -1.
         21   -1    0    0  501  503 -0.00000000000E+00 -0.00000000000E+00 -0.19719121160E+03  0.19719121160E+03  0.00000000000E+00 0. -1.
          6    1    1    2  501    0 -0.17125318161E+02  0.64190080759E+02 -0.14487656043E+02  0.18588312233E+03  0.17300000000E+03 0. -1.
         -6    1    1    2    0  502  0.17125318161E+02 -0.64190080759E+02 -0.84991685461E+01  0.18551247628E+03  0.17300000000E+03 0. -1.
<mgrwt>
<rscale>  2 0.18531768E+03</rscale>
<asrwt>0</asrwt>
<pdfrwt beam="1">  1       21 0.26800675E-01 0.18531768E+03</pdfrwt>
<pdfrwt beam="2">  1       21 0.30337110E-01 0.18531768E+03</pdfrwt>
<totfact> 0.13855821E+05</totfact>
</mgrwt>
</event>
<event>
 4    1  0.3945627E+000  0.3735332E+03  0.7546771E-02  0.1053350E+00
         21   -1    0    0  503  502  0.00000000000E+00  0.00000000000E+00  0.33801843166E+03  0.33801843166E+03  0.00000000000E+00 0. -1.
         21   -1    0    0  501  503 -0.00000000000E+00 -0.00000000000E+00 -0.41292128405E+03  0.41292128405E+03  0.00000000000E+00 0.  1.
          6    1    1    2  501    0  0.31817357677E+03 -0.91452747105E+02 -0.44412534737E+02  0.37616419706E+03  0.17300000000E+03 0. -1.
         -6    1    1    2    0  502 -0.31817357677E+03  0.91452747105E+02 -0.30490317647E+02  0.37477551865E+03  0.17300000000E+03 0.  1.
<mgrwt>
<rscale>  2 0.37353317E+03</rscale>
<asrwt>0</asrwt>
<pdfrwt beam="1">  1       21 0.52002836E-01 0.37353317E+03</pdfrwt>
<pdfrwt beam="2">  1       21 0.63526352E-01 0.37353317E+03</pdfrwt>
<totfact> 0.73161350E+03</totfact>
</mgrwt>
</event>
<event>
 4    1  0.3945627E+000  0.1793447E+03  0.7546771E-02  0.1168439E+00
         21   -1    0    0  503  502  0.00000000000E+00  0.00000000000E+00  0.31667684366E+03  0.31667684366E+03  0.00000000000E+00 0. -1.
         21   -1    0    0  501  503 -0.00000000000E+00 -0.00000000000E+00 -0.15491659802E+03  0.15491659802E+03  0.00000000000E+00 0. -1.
          6    1    1    2  501    0 -0.22057601909E+02  0.41820975534E+02 -0.57491316636E+02  0.18833423291E+03  0.17300000000E+03 0. -1.
         -6    1    1    2    0  502  0.22057601909E+02 -0.41820975534E+02  0.21925156227E+03  0.28325920878E+03  0.17300000000E+03 0. -1.
<mgrwt>
<rscale>  2 0.17934473E+03</rscale>
<asrwt>0</asrwt>
<pdfrwt beam="1">  1       21 0.48719514E-01 0.17934473E+03</pdfrwt>
<pdfrwt beam="2">  1       21 0.23833323E-01 0.17934473E+03</pdfrwt>
<totfact> 0.67106774E+04</totfact>
</mgrwt>
</event>
<event>
 4    1  0.3945627E+000  0.1986770E+03  0.7546771E-02  0.1150860E+00
         21   -1    0    0  501  502  0.00000000000E+00  0.00000000000E+00  0.10828457761E+03  0.10828457761E+03  0.00000000000E+00 0.  1.
         21   -1    0    0  502  503 -0.00000000000E+00 -0.00000000000E+00 -0.61089617255E+03  0.61089617255E+03  0.00000000000E+00 0.  1.
          6    1    1    2  501    0  0.88732302617E+02  0.40867159067E+02 -0.22946655803E+02  0.19999773806E+03  0.17300000000E+03 0.  1.
         -6    1    1    2    0  503 -0.88732302617E+02 -0.40867159067E+02 -0.47966493913E+03  0.51918301209E+03  0.17300000000E+03 0.  1.
<mgrwt>
<rscale>  2 0.19867699E+03</rscale>
<asrwt>0</asrwt>
<pdfrwt beam="1">  1       21 0.16659166E-01 0.19867699E+03</pdfrwt>
<pdfrwt beam="2">  1       21 0.93984027E-01 0.19867699E+03</pdfrwt>
<totfact> 0.30654294E+04</totfact>
</mgrwt>
</event>
<event>
 4    1  0.3945627E+000  0.2285687E+03  0.7546771E-02  0.1127651E+00
         21   -1    0    0  501  502  0.00000000000E+00  0.00000000000E+00  0.26882900545E+02  0.26882900545E+02  0.00000000000E+00 0.  1.
         21   -1    0    0  502  503 -0.00000000000E+00 -0.00000000000E+00 -0.21562231160E+04  0.21562231160E+04  0.00000000000E+00 0. -1.
          6    1    1    2  501    0 -0.17031862436E+01 -0.14937124671E+03 -0.72172186171E+03  0.75705093346E+03  0.17300000000E+03 0. -1.
         -6    1    1    2    0  503  0.17031862436E+01  0.14937124671E+03 -0.14076183537E+04  0.14260550830E+04  0.17300000000E+03 0. -1.
<mgrwt>
<rscale>  2 0.22856874E+03</rscale>
<asrwt>0</asrwt>
<pdfrwt beam="1">  1       21 0.41358311E-02 0.22856874E+03</pdfrwt>
<pdfrwt beam="2">  1       21 0.33172661E+00 0.22856874E+03</pdfrwt>
<totfact> 0.79703159E+03</totfact>
</mgrwt>
</event>
<event>
 4    1  0.3945627E+000  0.2291432E+03  0.7546771E-02  0.1127244E+00
         21   -1    0    0  503  502  0.00000000000E+00  0.00000000000E+00  0.24786502459E+03  0.24786502459E+03  0.00000000000E+00 0.  1.
         21   -1    0    0  501  503 -0.00000000000E+00 -0.00000000000E+00 -0.28610238841E+03  0.28610238841E+03  0.00000000000E+00 0. -1.
          6    1    1    2  501    0  0.12905804345E+03 -0.76952056139E+02 -0.15514464030E+03  0.27672451452E+03  0.17300000000E+03 0. -1.
         -6    1    1    2    0  502 -0.12905804345E+03  0.76952056139E+02  0.11690727649E+03  0.25724289848E+03  0.17300000000E+03 0.  1.
<mgrwt>
<rscale>  2 0.22914318E+03</rscale>
<asrwt>0</asrwt>
<pdfrwt beam="1">  1       21 0.38133081E-01 0.22914318E+03</pdfrwt>
<pdfrwt beam="2">  1       21 0.44015752E-01 0.22914318E+03</pdfrwt>
<totfact> 0.32272084E+04</totfact>
</mgrwt>
</event>
<event>
 4    1  0.3945627E+000  0.1732382E+03  0.7546771E-02  0.1174512E+00
         21   -1    0    0  501  502  0.00000000000E+00  0.00000000000E+00  0.36370041759E+02  0.36370041759E+02  0.00000000000E+00 0. -1.
         21   -1    0    0  502  503 -0.00000000000E+00 -0.00000000000E+00 -0.10753229917E+04  0.10753229917E+04  0.00000000000E+00 0. -1.
          6    1    1    2  501    0  0.90767394331E+01  0.27817276500E+00 -0.25138170638E+03  0.30529367318E+03  0.17300000000E+03 0.  1.
         -6    1    1    2    0  503 -0.90767394331E+01 -0.27817276500E+00 -0.78757124351E+03  0.80639936024E+03  0.17300000000E+03 0.  1.
<mgrwt>
<rscale>  2 0.17323817E+03</rscale>
<asrwt>0</asrwt>
<pdfrwt beam="1">  1       21 0.55953912E-02 0.17323817E+03</pdfrwt>
<pdfrwt beam="2">  1       21 0.16543430E+00 0.17323817E+03</pdfrwt>
<totfact> 0.51665148E+04</totfact>
</mgrwt>
</event>
<event>
 4    1  0.3945627E+000  0.2360058E+03  0.7546771E-02  0.1122483E+00
         21   -1    0    0  503  502  0.00000000000E+00  0.00000000000E+00  0.45003876831E+03  0.45003876831E+03  0.00000000000E+00 0.  1.
         21   -1    0    0  501  503 -0.00000000000E+00 -0.00000000000E+00 -0.19628911428E+03  0.19628911428E+03  0.00000000000E+00 0. -1.
          6    1    1    2  501    0  0.12681190460E+03  0.98430073651E+02  0.32330946242E+03  0.40028458256E+03  0.17300000000E+03 0.  1.
         -6    1    1    2    0  502 -0.12681190460E+03 -0.98430073651E+02 -0.69559808386E+02  0.24604330003E+03  0.17300000000E+03 0. -1.
<mgrwt>
<rscale>  2 0.23600580E+03</rscale>
<asrwt>0</asrwt>
<pdfrwt beam="1">  1       21 0.69236733E-01 0.23600580E+03</pdfrwt>
<pdfrwt beam="2">  1       21 0.30198325E-01 0.23600580E+03</pdfrwt>
<totfact> 0.19482549E+04</totfact>
</mgrwt>
</event>
<event>
 4    1  0.3945627E+000  0.2587986E+03  0.7546771E-02  0.1107867E+00
         21   -1    0    0  501  502  0.00000000000E+00  0.00000000000E+00  0.27438593224E+03  0.27438593224E+03  0.00000000000E+00 0.  1.
         21   -1    0    0  502  503 -0.00000000000E+00 -0.00000000000E+00 -0.49150397927E+03  0.49150397927E+03  0.00000000000E+00 0. -1.
          6    1    1    2  501    0 -0.15931492405E+03 -0.10801133036E+03  0.16313438150E+03  0.30592404113E+03  0.17300000000E+03 0.  1.
         -6    1    1    2    0  503  0.15931492405E+03  0.10801133036E+03 -0.38025242853E+03  0.45996587038E+03  0.17300000000E+03 0. -1.
<mgrwt>
<rscale>  2 0.25879856E+03</rscale>
<asrwt>0</asrwt>
<pdfrwt beam="1">  1       21 0.42213221E-01 0.25879856E+03</pdfrwt>
<pdfrwt beam="2">  1       21 0.75615996E-01 0.25879856E+03</pdfrwt>
<totfact> 0.80826000E+03</totfact>
</mgrwt>
</event>
<event>
 4    1  0.3945627E+000  0.2504981E+03  0.7546771E-02  0.1112990E+00
         21   -1    0    0  503  502  0.00000000000E+00  0.00000000000E+00  0.77859683532E+02  0.77859683532E+02  0.00000000000E+00 0. -1.
         21   -1    0    0  501  503 -0.00000000000E+00 -0.00000000000E+00 -0.92101595224E+03  0.92101595224E+03  0.00000000000E+00 0.  1.
          6    1    1    2  501    0  0.11982451552E+02  0.18076707371E+03 -0.59812597693E+03  0.64846279644E+03  0.17300000000E+03 0. -1.
         -6    1    1    2    0  502 -0.11982451552E+02 -0.18076707371E+03 -0.24503029177E+03  0.35041283933E+03  0.17300000000E+03 0. -1.
<mgrwt>
<rscale>  2 0.25049813E+03</rscale>
<asrwt>0</asrwt>
<pdfrwt beam="1">  1       21 0.11978413E-01 0.25049813E+03</pdfrwt>
<pdfrwt beam="2">  1       21 0.14169477E+00 0.25049813E+03</pdfrwt>
<totfact> 0.19720998E+04</totfact>
</mgrwt>
</event>
<event>
 4    1  0.3945627E+000  0.1771760E+03  0.7546771E-02  0.1170564E+00
         21   -1    0    0  501  502  0.00000000000E+00  0.00000000000E+00  0.50999819926E+03  0.50999819926E+03  0.00000000000E+00 0.  1.
         21   -1    0    0  502  503 -0.00000000000E+00 -0.00000000000E+00 -0.66441760781E+02  0.66441760781E+02  0.00000000000E+00 0.  1.
          6    1    1    2  501    0  0.23220507060E+02  0.30383384766E+02  0.14358786692E+03  0.22805441794E+03  0.17300000000E+03 0. -1.
         -6    1    1    2    0  503 -0.23220507060E+02 -0.30383384766E+02  0.29996857156E+03  0.34838554210E+03  0.17300000000E+03 0. -1.
<mgrwt>
<rscale>  2 0.17717602E+03</rscale>
<asrwt>0</asrwt>
<pdfrwt beam="1">  1       21 0.78461259E-01 0.17717602E+03</pdfrwt>
<pdfrwt beam="2">  1       21 0.10221810E-01 0.17717602E+03</pdfrwt>
<totfact> 0.11282682E+05</totfact>
</mgrwt>
</event>
<event>
 4    1  0.3945627E+000  0.1859508E+03  0.7546771E-02  0.1162165E+00
         21   -1    0    0  501  502  0.00000000000E+00  0.00000000000E+00  0.41992800013E+03  0.41992800013E+03  0.00000000000E+00 0.  1.
         21   -1    0    0  502  503 -0.00000000000E+00 -0.00000000000E+00 -0.17415126657E+03  0.17415126657E+03  0.00000000000E+00 0.  1.
          6    1    1    2  501    0 -0.61678884427E+02  0.29058914454E+02  0.33856066924E+03  0.38626549426E+03  0.17300000000E+03 0.  1.
         -6    1    1    2    0  503  0.61678884427E+02 -0.29058914454E+02 -0.92783935683E+02  0.20781377244E+03  0.17300000000E+03 0.  1.
<mgrwt>
<rscale>  2 0.18595081E+03</rscale>
<asrwt>0</asrwt>
<pdfrwt beam="1">  1       21 0.64604308E-01 0.18595081E+03</pdfrwt>
<pdfrwt beam="2">  1       21 0.26792503E-01 0.18595081E+03</pdfrwt>
<totfact> 0.29403688E+04</totfact>
</mgrwt>
</event>
<event>
 4    1  0.3945627E+000  0.2634898E+03  0.7546771E-02  0.1105064E+00
         21   -1    0    0  503  502  0.00000000000E+00  0.00000000000E+00  0.34066490034E+04  0.34066490034E+04  0.00000000000E+00 0. -1.
         21   -1    0    0  501  503 -0.00000000000E+00 -0.00000000000E+00 -0.24628739353E+02  0.24628739353E+02  0.00000000000E+00 0. -1.
          6    1    1    2  501    0  0.48210746841E+02 -0.19280462646E+03  0.97841322801E+03  0.10132716047E+04  0.17300000000E+03 0. -1.
         -6    1    1    2    0  502 -0.48210746841E+02  0.19280462646E+03  0.24036070360E+04  0.24180061380E+04  0.17300000000E+03 0. -1.
<mgrwt>
<rscale>  2 0.26348985E+03</rscale>
<asrwt>0</asrwt>
<pdfrwt beam="1">  1       21 0.52409947E+00 0.26348985E+03</pdfrwt>
<pdfrwt beam="2">  1       21 0.37890395E-02 0.26348985E+03</pdfrwt>
<totfact> 0.49472450E+02</totfact>
</mgrwt>
</event>
<event>
 4    1  0.3945627E+000  0.4233503E+03  0.7546771E-02  0.1035981E+00
         21   -1    0    0  501  502  0.00000000000E+00  0.00000000000E+00  0.76298546037E+03  0.76298546037E+03  0.00000000000E+00 0. -1.
         21   -1    0    0  502  503 -0.00000000000E+00 -0.00000000000E+00 -0.51303522316E+03  0.51303522316E+03  0.00000000000E+00 0.  1.
          6    1    1    2  501    0  0.36027646402E+03 -0.13963295721E+03  0.59474147366E+03  0.73002939239E+03  0.17300000000E+03 0. -1.
         -6    1    1    2    0  503 -0.36027646402E+03  0.13963295721E+03 -0.34479123646E+03  0.54599129114E+03  0.17300000000E+03 0.  1.
<mgrwt>
<rscale>  2 0.42335032E+03</rscale>
<asrwt>0</asrwt>
<pdfrwt beam="1">  1       21 0.11738238E+00 0.42335032E+03</pdfrwt>
<pdfrwt beam="2">  1       21 0.78928496E-01 0.42335032E+03</pdfrwt>
<totfact> 0.67350346E+02</totfact>
</mgrwt>
</event>
<event>
 4    1  0.3945627E+000  0.2932067E+03  0.7546771E-02  0.1088687E+00
         21   -1    0    0  503  502  0.00000000000E+00  0.00000000000E+00  0.10488211648E+03  0.10488211648E+03  0.00000000000E+00 0. -1.
         21   -1    0    0  501  503 -0.00000000000E+00 -0.00000000000E+00 -0.82143261817E+03  0.82143261817E+03  0.00000000000E+00 0.  1.
          6    1    1    2  501    0  0.23167895872E+03  0.48641934277E+02 -0.37964541976E+03  0.47968825546E+03  0.17300000000E+03 0.  1.
         -6    1    1    2    0  502 -0.23167895872E+03 -0.48641934277E+02 -0.33690508193E+03  0.44662647920E+03  0.17300000000E+03 0. -1.
<mgrwt>
<rscale>  2 0.29320671E+03</rscale>
<asrwt>0</asrwt>
<pdfrwt beam="1">  1       21 0.16135711E-01 0.29320671E+03</pdfrwt>
<pdfrwt beam="2">  1       21 0.12637425E+00 0.29320671E+03</pdfrwt>
<totfact> 0.15057767E+04</totfact>
</mgrwt>
</event>
<event>
 4    1  0.3945627E+000  0.1868554E+03  0.7546771E-02  0.1161329E+00
         21   -1    0    0  503  502  0.00000000000E+00  0.00000000000E+00  0.44737899737E+03  0.44737899737E+03  0.00000000000E+00 0. -1.
         21   -1    0    0  501  503 -0.00000000000E+00 -0.00000000000E+00 -0.84558899311E+02  0.84558899311E+02  0.00000000000E+00 0. -1.
          6    1    1    2  501    0 -0.46107720551E+02  0.53479064274E+02  0.10758078462E+03  0.21561205307E+03  0.17300000000E+03 0. -1.
         -6    1    1    2    0  502  0.46107720551E+02 -0.53479064274E+02  0.25523931344E+03  0.31632584361E+03  0.17300000000E+03 0. -1.
<mgrwt>
<rscale>  2 0.18685538E+03</rscale>
<asrwt>0</asrwt>
<pdfrwt beam="1">  1       21 0.68827537E-01 0.18685538E+03</pdfrwt>
<pdfrwt beam="2">  1       21 0.13009062E-01 0.18685538E+03</pdfrwt>
<totfact> 0.97851398E+04</totfact>
</mgrwt>
</event>
<event>
 4    1  0.3945627E+000  0.1847065E+03  0.7546771E-02  0.1163324E+00
         21   -1    0    0  503  502  0.00000000000E+00  0.00000000000E+00  0.19086581868E+03  0.19086581868E+03  0.00000000000E+00 0. -1.
         21   -1    0    0  501  503 -0.00000000000E+00 -0.00000000000E+00 -0.22877266486E+03  0.22877266486E+03  0.00000000000E+00 0. -1.
          6    1    1    2  501    0  0.29176783349E+01 -0.64645140154E+02 -0.11707034179E+03  0.21868235393E+03  0.17300000000E+03 0. -1.
         -6    1    1    2    0  502 -0.29176783349E+01  0.64645140154E+02  0.79163495602E+02  0.20095612961E+03  0.17300000000E+03 0. -1.
<mgrwt>
<rscale>  2 0.18470654E+03</rscale>
<asrwt>0</asrwt>
<pdfrwt beam="1">  1       21 0.29363972E-01 0.18470654E+03</pdfrwt>
<pdfrwt beam="2">  1       21 0.35195795E-01 0.18470654E+03</pdfrwt>
<totfact> 0.86736938E+04</totfact>
</mgrwt>
</event>
<event>
 4    1  0.3945627E+000  0.2274344E+03  0.7546771E-02  0.1128459E+00
         21   -1    0    0  503  502  0.00000000000E+00  0.00000000000E+00  0.73196985737E+02  0.73196985737E+02  0.00000000000E+00 0.  1.
         21   -1    0    0  501  503 -0.00000000000E+00 -0.00000000000E+00 -0.11301425700E+04  0.11301425700E+04  0.00000000000E+00 0.  1.
          6    1    1    2  501    0  0.11149144216E+03  0.96783499563E+02 -0.89677329016E+03  0.92516415917E+03  0.17300000000E+03 0.  1.
         -6    1    1    2    0  502 -0.11149144216E+03 -0.96783499563E+02 -0.16017229412E+03  0.27817539659E+03  0.17300000000E+03 0.  1.
<mgrwt>
<rscale>  2 0.22743436E+03</rscale>
<asrwt>0</asrwt>
<pdfrwt beam="1">  1       21 0.11261074E-01 0.22743436E+03</pdfrwt>
<pdfrwt beam="2">  1       21 0.17386810E+00 0.22743436E+03</pdfrwt>
<totfact> 0.12851456E+04</totfact>
</mgrwt>
</event>
<event>
 4    1  0.3945627E+000  0.1979277E+03  0.7546771E-02  0.1151499E+00
         21   -1    0    0  503  502  0.00000000000E+00  0.00000000000E+00  0.39446061475E+02  0.39446061475E+02  0.00000000000E+00 0. -1.
         21   -1    0    0  501  503 -0.00000000000E+00 -0.00000000000E+00 -0.10261531398E+04  0.10261531398E+04  0.00000000000E+00 0. -1.
          6    1    1    2  501    0 -0.51274062726E+02  0.81347058103E+02 -0.39778478796E+03  0.44430632552E+03  0.17300000000E+03 0. -1.
         -6    1    1    2    0  502  0.51274062726E+02 -0.81347058103E+02 -0.58892229041E+03  0.62129287579E+03  0.17300000000E+03 0. -1.
<mgrwt>
<rscale>  2 0.19792770E+03</rscale>
<asrwt>0</asrwt>
<pdfrwt beam="1">  1       21 0.60686246E-02 0.19792770E+03</pdfrwt>
<pdfrwt beam="2">  1       21 0.15786972E+00 0.19792770E+03</pdfrwt>
<totfact> 0.50305582E+04</totfact>
</mgrwt>
</event>
<event>
 4    1  0.3945627E+000  0.2004703E+03  0.7546771E-02  0.1149343E+00
         21   -1    0    0  501  502  0.00000000000E+00  0.00000000000E+00  0.82600406541E+02  0.82600406541E+02  0.00000000000E+00 0.  1.
         21   -1    0    0  502  503 -0.00000000000E+00 -0.00000000000E+00 -0.74015367805E+03  0.74015367805E+03  0.00000000000E+00 0.  1.
          6    1    1    2  501    0  0.39561192852E+01  0.10121109162E+03 -0.87971292441E+02  0.21892300985E+03  0.17300000000E+03 0.  1.
         -6    1    1    2    0  503 -0.39561192852E+01 -0.10121109162E+03 -0.56958197907E+03  0.60383107475E+03  0.17300000000E+03 0.  1.
<mgrwt>
<rscale>  2 0.20047029E+03</rscale>
<asrwt>0</asrwt>
<pdfrwt beam="1">  1       21 0.12707755E-01 0.20047029E+03</pdfrwt>
<pdfrwt beam="2">  1       21 0.11386980E+00 0.20047029E+03</pdfrwt>
<totfact> 0.31656102E+04</totfact>
</mgrwt>
</event>
<event>
 4    1  0.3945627E+000  0.1935375E+03  0.7546771E-02  0.1155309E+00
         21   -1    0    0  501  502  0.00000000000E+00  0.00000000000E+00  0.11462853691E+04  0.11462853691E+04  0.00000000000E+00 0.  1.
         21   -1    0    0  502  503 -0.00000000000E+00 -0.00000000000E+00 -0.32699409884E+02  0.32699409884E+02  0.00000000000E+00 0.  1.
          6    1    1    2  501    0 -0.38654954554E+02  0.77676094336E+02  0.57234065949E+03  0.60417763253E+03  0.17300000000E+03 0.  1.
         -6    1    1    2    0  503  0.38654954554E+02 -0.77676094336E+02  0.54124529975E+03  0.57480714648E+03  0.17300000000E+03 0.  1.
<mgrwt>
<rscale>  2 0.19353754E+03</rscale>
<asrwt>0</asrwt>
<pdfrwt beam="1">  1       21 0.17635156E+00 0.19353754E+03</pdfrwt>
<pdfrwt beam="2">  1       21 0.50306793E-02 0.19353754E+03</pdfrwt>
<totfact> 0.51283119E+04</totfact>
</mgrwt>
</event>
<event>
 4    1  0.3945627E+000  0.2306589E+03  0.7546771E-02  0.1126177E+00
         21   -1    0    0  501  502  0.00000000000E+00  0.00000000000E+00  0.15269260227E+03  0.15269260227E+03  0.00000000000E+00 0. -1.
         21   -1    0    0  502  503 -0.00000000000E+00 -0.00000000000E+00 -0.36437462066E+03  0.36437462066E+03  0.00000000000E+00 0. -1.
          6    1    1    2  501    0 -0.29577745397E+01 -0.15253120634E+03 -0.51768607891E+02  0.23639692490E+03  0.17300000000E+03 0.  1.
         -6    1    1    2    0  503  0.29577745397E+01  0.15253120634E+03 -0.15991341050E+03  0.28067029803E+03  0.17300000000E+03 0.  1.
<mgrwt>
<rscale>  2 0.23065888E+03</rscale>
<asrwt>0</asrwt>
<pdfrwt beam="1">  1       21 0.23491170E-01 0.23065888E+03</pdfrwt>
<pdfrwt beam="2">  1       21 0.56057633E-01 0.23065888E+03</pdfrwt>
<totfact> 0.50189043E+04</totfact>
</mgrwt>
</event>
<event>
 4    1  0.3945627E+000  0.2035815E+03  0.7546771E-02  0.1146752E+00
         21   -1    0    0  501  502  0.00000000000E+00  0.00000000000E+00  0.88704364439E+03  0.88704364439E+03  0.00000000000E+00 0. -1.
         21   -1    0    0  502  503 -0.00000000000E+00 -0.00000000000E+00 -0.17381673946E+03  0.17381673946E+03  0.00000000000E+00 0. -1.
          6    1    1    2  501    0  0.91951781130E+02 -0.55328877062E+02  0.81018350503E+03  0.83536981422E+03  0.17300000000E+03 0. -1.
         -6    1    1    2    0  503 -0.91951781130E+02  0.55328877062E+02 -0.96956600095E+02  0.22549056963E+03  0.17300000000E+03 0. -1.
<mgrwt>
<rscale>  2 0.20358147E+03</rscale>
<asrwt>0</asrwt>
<pdfrwt beam="1">  1       21 0.13646825E+00 0.20358147E+03</pdfrwt>
<pdfrwt beam="2">  1       21 0.26741037E-01 0.20358147E+03</pdfrwt>
<totfact> 0.50426287E+03</totfact>
</mgrwt>
</event>
<event>
 4    1  0.3945627E+000  0.2104939E+03  0.7546771E-02  0.1141175E+00
         21   -1    0    0  503  502  0.00000000000E+00  0.00000000000E+00  0.57387140899E+03  0.57387140899E+03  0.00000000000E+00 0. -1.
         21   -1    0    0  501  503 -0.00000000000E+00 -0.00000000000E+00 -0.80607592516E+02  0.80607592516E+02  0.00000000000E+00 0. -1.
          6    1    1    2  501    0 -0.11427043637E+03 -0.36344785376E+02  0.17943217541E+03  0.27659280834E+03  0.17300000000E+03 0. -1.
         -6    1    1    2    0  502  0.11427043637E+03  0.36344785376E+02  0.31383164106E+03  0.37788619317E+03  0.17300000000E+03 0. -1.
<mgrwt>
<rscale>  2 0.21049389E+03</rscale>
<asrwt>0</asrwt>
<pdfrwt beam="1">  1       21 0.88287907E-01 0.21049389E+03</pdfrwt>
<pdfrwt beam="2">  1       21 0.12401168E-01 0.21049389E+03</pdfrwt>
<totfact> 0.60244879E+04</totfact>
</mgrwt>
</event>
<event>
 4    1  0.3945627E+000  0.1783401E+03  0.7546771E-02  0.1169419E+00
         21   -1    0    0  501  502  0.00000000000E+00  0.00000000000E+00  0.16362756241E+03  0.16362756241E+03  0.00000000000E+00 0.  1.
         21   -1    0    0  502  503 -0.00000000000E+00 -0.00000000000E+00 -0.32697139561E+03  0.32697139561E+03  0.00000000000E+00 0.  1.
          6    1    1    2  501    0  0.43113494485E+02 -0.41730852218E+01  0.74537351637E+02  0.19328995017E+03  0.17300000000E+03 0.  1.
         -6    1    1    2    0  503 -0.43113494485E+02  0.41730852218E+01 -0.23788118484E+03  0.29730900785E+03  0.17300000000E+03 0.  1.
<mgrwt>
<rscale>  2 0.17834009E+03</rscale>
<asrwt>0</asrwt>
<pdfrwt beam="1">  1       21 0.25173471E-01 0.17834009E+03</pdfrwt>
<pdfrwt beam="2">  1       21 0.50303291E-01 0.17834009E+03</pdfrwt>
<totfact> 0.56612767E+04</totfact>
</mgrwt>
</event>
<event>
 4    1  0.3945627E+000  0.1937649E+03  0.7546771E-02  0.1155109E+00
         21   -1    0    0  501  502  0.00000000000E+00  0.00000000000E+00  0.21067799751E+03  0.21067799751E+03  0.00000000000E+00 0. -1.
         21   -1    0    0  502  503 -0.00000000000E+00 -0.00000000000E+00 -0.30625945370E+03  0.30625945370E+03  0.00000000000E+00 0. -1.
          6    1    1    2  501    0  0.30301911270E+02 -0.81838971658E+02  0.11933870592E+03  0.22756658331E+03  0.17300000000E+03 0. -1.
         -6    1    1    2    0  503 -0.30301911270E+02  0.81838971658E+02 -0.21492016210E+03  0.28937086790E+03  0.17300000000E+03 0. -1.
<mgrwt>
<rscale>  2 0.19376487E+03</rscale>
<asrwt>0</asrwt>
<pdfrwt beam="1">  1       21 0.32412000E-01 0.19376487E+03</pdfrwt>
<pdfrwt beam="2">  1       21 0.47116839E-01 0.19376487E+03</pdfrwt>
<totfact> 0.39459828E+04</totfact>
</mgrwt>
</event>
<event>
 4    1  0.3945627E+000  0.3781904E+03  0.7546771E-02  0.1051605E+00
         21   -1    0    0  501  502  0.00000000000E+00  0.00000000000E+00  0.13605050761E+03  0.13605050761E+03  0.00000000000E+00 0. -1.
         21   -1    0    0  502  503 -0.00000000000E+00 -0.00000000000E+00 -0.12175614867E+04  0.12175614867E+04  0.00000000000E+00 0.  1.
          6    1    1    2  501    0  0.71239352288E+01  0.33622646870E+03 -0.29064442117E+03  0.47697187366E+03  0.17300000000E+03 0. -1.
         -6    1    1    2    0  503 -0.71239352288E+01 -0.33622646870E+03 -0.79086655792E+03  0.87664012065E+03  0.17300000000E+03 0.  1.
<mgrwt>
<rscale>  2 0.37819041E+03</rscale>
<asrwt>0</asrwt>
<pdfrwt beam="1">  1       21 0.20930847E-01 0.37819041E+03</pdfrwt>
<pdfrwt beam="2">  1       21 0.18731716E+00 0.37819041E+03</pdfrwt>
<totfact> 0.30383743E+03</totfact>
</mgrwt>
</event>
<event>
 4    1  0.3945627E+000  0.1892860E+03  0.7546771E-02  0.1159107E+00
         21   -1    0    0  503  502  0.00000000000E+00  0.00000000000E+00  0.23405300468E+03  0.23405300468E+03  0.00000000000E+00 0. -1.
         21   -1    0    0  501  503 -0.00000000000E+00 -0.00000000000E+00 -0.20413537213E+03  0.20413537213E+03  0.00000000000E+00 0. -1.
          6    1    1    2  501    0  0.59064601919E+02 -0.49107689062E+02 -0.94609739209E+02  0.21161331498E+03  0.17300000000E+03 0. -1.
         -6    1    1    2    0  502 -0.59064601919E+02  0.49107689062E+02  0.12452737177E+03  0.22657506183E+03  0.17300000000E+03 0. -1.
<mgrwt>
<rscale>  2 0.18928601E+03</rscale>
<asrwt>0</asrwt>
<pdfrwt beam="1">  1       21 0.36008155E-01 0.18928601E+03</pdfrwt>
<pdfrwt beam="2">  1       21 0.31405442E-01 0.18928601E+03</pdfrwt>
<totfact> 0.72574550E+04</totfact>
</mgrwt>
</event>
<event>
 4    1  0.3945627E+000  0.2805045E+03  0.7546771E-02  0.1095414E+00
         21   -1    0    0  501  502  0.00000000000E+00  0.00000000000E+00  0.95990544750E+02  0.95990544750E+02  0.00000000000E+00 0. -1.
         21   -1    0    0  502  503 -0.00000000000E+00 -0.00000000000E+00 -0.82375859340E+03  0.82375859340E+03  0.00000000000E+00 0. -1.
          6    1    1    2  501    0  0.13495184698E+03 -0.17476209530E+03 -0.33157722360E+03  0.43431123191E+03  0.17300000000E+03 0. -1.
         -6    1    1    2    0  503 -0.13495184698E+03  0.17476209530E+03 -0.39619082505E+03  0.48543790624E+03  0.17300000000E+03 0. -1.
<mgrwt>
<rscale>  2 0.28050453E+03</rscale>
<asrwt>0</asrwt>
<pdfrwt beam="1">  1       21 0.14767777E-01 0.28050453E+03</pdfrwt>
<pdfrwt beam="2">  1       21 0.12673209E+00 0.28050453E+03</pdfrwt>
<totfact> 0.17702425E+04</totfact>
</mgrwt>
</event>
<event>
 4    1  0.3945627E+000  0.2447698E+03  0.7546771E-02  0.1116655E+00
         21   -1    0    0  503  502  0.00000000000E+00  0.00000000000E+00  0.17518324481E+04  0.17518324481E+04  0.00000000000E+00 0.  1.
         21   -1    0    0  501  503 -0.00000000000E+00 -0.00000000000E+00 -0.66855960788E+02  0.66855960788E+02  0.00000000000E+00 0. -1.
          6    1    1    2  501    0  0.28044712015E+02  0.17087060407E+03  0.20695102467E+03  0.32053236314E+03  0.17300000000E+03 0. -1.
         -6    1    1    2    0  502 -0.28044712015E+02 -0.17087060407E+03  0.14780254626E+04  0.14981560457E+04  0.17300000000E+03 0.  1.
<mgrwt>
<rscale>  2 0.24476983E+03</rscale>
<asrwt>0</asrwt>
<pdfrwt beam="1">  1       21 0.26951265E+00 0.24476983E+03</pdfrwt>
<pdfrwt beam="2">  1       21 0.10285534E-01 0.24476983E+03</pdfrwt>
<totfact> 0.37490714E+03</totfact>
</mgrwt>
</event>
<event>
 4    1  0.3945627E+000  0.1925268E+03  0.7546771E-02  0.1156202E+00
         21   -1    0    0  501  502  0.00000000000E+00  0.00000000000E+00  0.22269387331E+03  0.22269387331E+03  0.00000000000E+00 0. -1.
         21   -1    0    0  502  503 -0.00000000000E+00 -0.00000000000E+00 -0.17765289459E+03  0.17765289459E+03  0.00000000000E+00 0. -1.
          6    1    1    2  501    0 -0.58259045641E+02  0.61183853540E+02  0.72795969507E+02  0.20582962253E+03  0.17300000000E+03 0. -1.
         -6    1    1    2    0  503  0.58259045641E+02 -0.61183853540E+02 -0.27754990789E+02  0.19451714538E+03  0.17300000000E+03 0. -1.
<mgrwt>
<rscale>  2 0.19252683E+03</rscale>
<asrwt>0</asrwt>
<pdfrwt beam="1">  1       21 0.34260596E-01 0.19252683E+03</pdfrwt>
<pdfrwt beam="2">  1       21 0.27331214E-01 0.19252683E+03</pdfrwt>
<totfact> 0.10481417E+05</totfact>
</mgrwt>
</event>
<event>
 4    1  0.3945627E+000  0.1779345E+03  0.7546771E-02  0.1169817E+00
         21   -1    0    0  501  502  0.00000000000E+00  0.00000000000E+00  0.46690914045E+02  0.46690914045E+02  0.00000000000E+00 0. -1.
         21   -1    0    0  502  503 -0.00000000000E+00 -0.00000000000E+00 -0.85476626590E+03  0.85476626590E+03  0.00000000000E+00 0. -1.
          6    1    1    2  501    0  0.33686797916E+02  0.24431204030E+02 -0.19912000313E+03  0.26703831135E+03  0.17300000000E+03 0. -1.
         -6    1    1    2    0  503 -0.33686797916E+02 -0.24431204030E+02 -0.60895534873E+03  0.63441886859E+03  0.17300000000E+03 0. -1.
<mgrwt>
<rscale>  2 0.17793449E+03</rscale>
<asrwt>0</asrwt>
<pdfrwt beam="1">  1       21 0.71832173E-02 0.17793449E+03</pdfrwt>
<pdfrwt beam="2">  1       21 0.13150251E+00 0.17793449E+03</pdfrwt>
<totfact> 0.61198922E+04</totfact>
</mgrwt>
</event>
<event>
 4    1  0.3945627E+000  0.1842267E+03  0.7546771E-02  0.1163774E+00
         21   -1    0    0  503  502  0.00000000000E+00  0.00000000000E+00  0.76600291435E+02  0.76600291435E+02  0.00000000000E+00 0.  1.
         21   -1    0    0  501  503 -0.00000000000E+00 -0.00000000000E+00 -0.47525589693E+03  0.47525589693E+03  0.00000000000E+00 0.  1.
          6    1    1    2  501    0  0.49102040639E+02  0.39993125299E+02 -0.27113203732E+03  0.32779878298E+03  0.17300000000E+03 0.  1.
         -6    1    1    2    0  502 -0.49102040639E+02 -0.39993125299E+02 -0.12752356818E+03  0.22405740539E+03  0.17300000000E+03 0.  1.
<mgrwt>
<rscale>  2 0.18422666E+03</rscale>
<asrwt>0</asrwt>
<pdfrwt beam="1">  1       21 0.11784660E-01 0.18422666E+03</pdfrwt>
<pdfrwt beam="2">  1       21 0.73116293E-01 0.18422666E+03</pdfrwt>
<totfact> 0.10231921E+05</totfact>
</mgrwt>
</event>
<event>
 4    1  0.3945627E+000  0.2247797E+03  0.7546771E-02  0.1130369E+00
         21   -1    0    0  501  502  0.00000000000E+00  0.00000000000E+00  0.16997654912E+04  0.16997654912E+04  0.00000000000E+00 0. -1.
         21   -1    0    0  502  503 -0.00000000000E+00 -0.00000000000E+00 -0.11655144598E+03  0.11655144598E+03  0.00000000000E+00 0. -1.
          6    1    1    2  501    0 -0.13632205275E+03 -0.44868881604E+02  0.15754485052E+04  0.15914031265E+04  0.17300000000E+03 0. -1.
         -6    1    1    2    0  503  0.13632205275E+03  0.44868881604E+02  0.77655400049E+01  0.22491381064E+03  0.17300000000E+03 0. -1.
<mgrwt>
<rscale>  2 0.22477971E+03</rscale>
<asrwt>0</asrwt>
<pdfrwt beam="1">  1       21 0.26150237E+00 0.22477971E+03</pdfrwt>
<pdfrwt beam="2">  1       21 0.17930993E-01 0.22477971E+03</pdfrwt>
<totfact> 0.15527379E+03</totfact>
</mgrwt>
</event>
<event>
 4    1  0.3945627E+000  0.1823124E+03  0.7546771E-02  0.1165584E+00
         21   -1    0    0  501  502  0.00000000000E+00  0.00000000000E+00  0.30485986290E+02  0.30485986290E+02  0.00000000000E+00 0.  1.
         21   -1    0    0  502  503 -0.00000000000E+00 -0.00000000000E+00 -0.11048752528E+04  0.11048752528E+04  0.00000000000E+00 0.  1.
          6    1    1    2  501    0 -0.38638230027E+02 -0.42613349567E+02 -0.60247357759E+03  0.62945390782E+03  0.17300000000E+03 0.  1.
         -6    1    1    2    0  503  0.38638230027E+02  0.42613349567E+02 -0.47191568894E+03  0.50590733129E+03  0.17300000000E+03 0.  1.
<mgrwt>
<rscale>  2 0.18231240E+03</rscale>
<asrwt>0</asrwt>
<pdfrwt beam="1">  1       21 0.46901520E-02 0.18231240E+03</pdfrwt>
<pdfrwt beam="2">  1       21 0.16998080E+00 0.18231240E+03</pdfrwt>
<totfact> 0.64355894E+04</totfact>
</mgrwt>
</event>
<event>
 4    1  0.3945627E+000  0.1858139E+03  0.7546771E-02  0.1162292E+00
         21   -1    0    0  501  502  0.00000000000E+00  0.00000000000E+00  0.73442973281E+02  0.73442973281E+02  0.00000000000E+00 0.  1.
         21   -1    0    0  502  503 -0.00000000000E+00 -0.00000000000E+00 -0.49712737830E+03  0.49712737830E+03  0.00000000000E+00 0.  1.
          6    1    1    2  501    0 -0.60871032713E+02 -0.29874968406E+02 -0.14534398090E+03  0.23590606000E+03  0.17300000000E+03 0. -1.
         -6    1    1    2    0  503  0.60871032713E+02  0.29874968406E+02 -0.27834042412E+03  0.33466429159E+03  0.17300000000E+03 0. -1.
<mgrwt>
<rscale>  2 0.18581388E+03</rscale>
<asrwt>0</asrwt>
<pdfrwt beam="1">  1       21 0.11298919E-01 0.18581388E+03</pdfrwt>
<pdfrwt beam="2">  1       21 0.76481133E-01 0.18581388E+03</pdfrwt>
<totfact> 0.99704893E+04</totfact>
</mgrwt>
</event>
<event>
 4    1  0.3945627E+000  0.2154099E+03  0.7546771E-02  0.1137352E+00
         21   -1    0    0  503  502  0.00000000000E+00  0.00000000000E+00  0.25591847432E+03  0.25591847432E+03  0.00000000000E+00 0. -1.
         21   -1    0    0  501  503 -0.00000000000E+00 -0.00000000000E+00 -0.27740657181E+03  0.27740657181E+03  0.00000000000E+00 0.  1.
          6    1    1    2  501    0  0.30847842807E+02  0.12458261599E+03 -0.16769001209E+03  0.27298600288E+03  0.17300000000E+03 0.  1.
         -6    1    1    2    0  502 -0.30847842807E+02 -0.12458261599E+03  0.14620191459E+03  0.26033904326E+03  0.17300000000E+03 0. -1.
<mgrwt>
<rscale>  2 0.21540988E+03</rscale>
<asrwt>0</asrwt>
<pdfrwt beam="1">  1       21 0.39372073E-01 0.21540988E+03</pdfrwt>
<pdfrwt beam="2">  1       21 0.42677934E-01 0.21540988E+03</pdfrwt>
<totfact> 0.32450546E+04</totfact>
</mgrwt>
</event>
<event>
 4    1  0.3945627E+000  0.1893702E+03  0.7546771E-02  0.1159031E+00
         21   -1    0    0  503  502  0.00000000000E+00  0.00000000000E+00  0.15082064479E+03  0.15082064479E+03  0.00000000000E+00 0.  1.
         21   -1    0    0  501  503 -0.00000000000E+00 -0.00000000000E+00 -0.32054622191E+03  0.32054622191E+03  0.00000000000E+00 0. -1.
          6    1    1    2  501    0  0.30409078069E+02  0.70762740471E+02 -0.20462743865E+03  0.27880722034E+03  0.17300000000E+03 0. -1.
         -6    1    1    2    0  502 -0.30409078069E+02 -0.70762740471E+02  0.34901861523E+02  0.19255964636E+03  0.17300000000E+03 0.  1.
<mgrwt>
<rscale>  2 0.18937021E+03</rscale>
<asrwt>0</asrwt>
<pdfrwt beam="1">  1       21 0.23203176E-01 0.18937021E+03</pdfrwt>
<pdfrwt beam="2">  1       21 0.49314803E-01 0.18937021E+03</pdfrwt>
<totfact> 0.68548773E+04</totfact>
</mgrwt>
</event>
<event>
 4    1  0.3945627E+000  0.1990198E+03  0.7546771E-02  0.1150569E+00
         21   -1    0    0  501  502  0.00000000000E+00  0.00000000000E+00  0.26064419406E+02  0.26064419406E+02  0.00000000000E+00 0. -1.
         21   -1    0    0  502  503 -0.00000000000E+00 -0.00000000000E+00 -0.20399176325E+04  0.20399176325E+04  0.00000000000E+00 0. -1.
          6    1    1    2  501    0 -0.20717357562E+02 -0.96180464975E+02 -0.48524911058E+03  0.52447649143E+03  0.17300000000E+03 0. -1.
         -6    1    1    2    0  503  0.20717357562E+02  0.96180464975E+02 -0.15286041025E+04  0.15415055605E+04  0.17300000000E+03 0. -1.
<mgrwt>
<rscale>  2 0.19901983E+03</rscale>
<asrwt>0</asrwt>
<pdfrwt beam="1">  1       21 0.40099097E-02 0.19901983E+03</pdfrwt>
<pdfrwt beam="2">  1       21 0.31383355E+00 0.19901983E+03</pdfrwt>
<totfact> 0.11010326E+04</totfact>
</mgrwt>
</event>
<event>
 4    1  0.3945627E+000  0.1907229E+03  0.7546771E-02  0.1157811E+00
         21   -1    0    0  501  502  0.00000000000E+00  0.00000000000E+00  0.28491239745E+03  0.28491239745E+03  0.00000000000E+00 0. -1.
         21   -1    0    0  502  503 -0.00000000000E+00 -0.00000000000E+00 -0.12767479673E+03  0.12767479673E+03  0.00000000000E+00 0. -1.
          6    1    1    2  501    0  0.78641893581E+02 -0.16176223404E+02  0.77584275402E+02  0.20589933807E+03  0.17300000000E+03 0.  1.
         -6    1    1    2    0  503 -0.78641893581E+02  0.16176223404E+02  0.79653325317E+02  0.20668785611E+03  0.17300000000E+03 0.  1.
<mgrwt>
<rscale>  2 0.19072288E+03</rscale>
<asrwt>0</asrwt>
<pdfrwt beam="1">  1       21 0.43832676E-01 0.19072288E+03</pdfrwt>
<pdfrwt beam="2">  1       21 0.19642276E-01 0.19072288E+03</pdfrwt>
<totfact> 0.11947757E+05</totfact>
</mgrwt>
</event>
<event>
 4    1  0.3945627E+000  0.1774448E+03  0.7546771E-02  0.1170299E+00
         21   -1    0    0  501  502  0.00000000000E+00  0.00000000000E+00  0.17030421109E+03  0.17030421109E+03  0.00000000000E+00 0.  1.
         21   -1    0    0  502  503 -0.00000000000E+00 -0.00000000000E+00 -0.64946328277E+03  0.64946328277E+03  0.00000000000E+00 0.  1.
          6    1    1    2  501    0  0.39337902255E+02  0.31896137880E+01  0.10708784957E+03  0.20725455777E+03  0.17300000000E+03 0.  1.
         -6    1    1    2    0  503 -0.39337902255E+02 -0.31896137880E+01 -0.58624692126E+03  0.61251293609E+03  0.17300000000E+03 0.  1.
<mgrwt>
<rscale>  2 0.17744476E+03</rscale>
<asrwt>0</asrwt>
<pdfrwt beam="1">  1       21 0.26200648E-01 0.17744476E+03</pdfrwt>
<pdfrwt beam="2">  1       21 0.99917429E-01 0.17744476E+03</pdfrwt>
<totfact> 0.11510957E+04</totfact>
</mgrwt>
</event>
<event>
 4    1  0.3945627E+000  0.1960683E+03  0.7546771E-02  0.1153099E+00
         21   -1    0    0  501  502  0.00000000000E+00  0.00000000000E+00  0.46257843720E+03  0.46257843720E+03  0.00000000000E+00 0.  1.
         21   -1    0    0  502  503 -0.00000000000E+00 -0.00000000000E+00 -0.83776933664E+02  0.83776933664E+02  0.00000000000E+00 0. -1.
          6    1    1    2  501    0 -0.81958509287E+02 -0.42386308143E+02  0.16494417332E+03  0.25622134313E+03  0.17300000000E+03 0. -1.
         -6    1    1    2    0  503  0.81958509287E+02  0.42386308143E+02  0.21385733021E+03  0.29013402773E+03  0.17300000000E+03 0.  1.
<mgrwt>
<rscale>  2 0.19606835E+03</rscale>
<asrwt>0</asrwt>
<pdfrwt beam="1">  1       21 0.71165912E-01 0.19606835E+03</pdfrwt>
<pdfrwt beam="2">  1       21 0.12888759E-01 0.19606835E+03</pdfrwt>
<totfact> 0.92096898E+04</totfact>
</mgrwt>
</event>
<event>
 4    1  0.3945627E+000  0.1798146E+03  0.7546771E-02  0.1167983E+00
         21   -1    0    0  501  502  0.00000000000E+00  0.00000000000E+00  0.16099171978E+03  0.16099171978E+03  0.00000000000E+00 0.  1.
         21   -1    0    0  502  503 -0.00000000000E+00 -0.00000000000E+00 -0.20277579391E+03  0.20277579391E+03  0.00000000000E+00 0. -1.
          6    1    1    2  501    0  0.48004748588E+02 -0.99924341190E+01 -0.38670946575E+02  0.18392592731E+03  0.17300000000E+03 0. -1.
         -6    1    1    2    0  503 -0.48004748588E+02  0.99924341190E+01 -0.31131275546E+01  0.17984158637E+03  0.17300000000E+03 0.  1.
<mgrwt>
<rscale>  2 0.17981464E+03</rscale>
<asrwt>0</asrwt>
<pdfrwt beam="1">  1       21 0.24767957E-01 0.17981464E+03</pdfrwt>
<pdfrwt beam="2">  1       21 0.31196276E-01 0.17981464E+03</pdfrwt>
<totfact> 0.15284558E+05</totfact>
</mgrwt>
</event>
<event>
 4    1  0.3945627E+000  0.2402601E+03  0.7546771E-02  0.1119620E+00
         21   -1    0    0  503  502  0.00000000000E+00  0.00000000000E+00  0.73482128548E+02  0.73482128548E+02  0.00000000000E+00 0.  1.
         21   -1    0    0  501  503 -0.00000000000E+00 -0.00000000000E+00 -0.78821426317E+03  0.78821426317E+03  0.00000000000E+00 0. -1.
          6    1    1    2  501    0 -0.11507567850E+03  0.12063796293E+03 -0.33238391502E+03  0.41012680581E+03  0.17300000000E+03 0. -1.
         -6    1    1    2    0  502  0.11507567850E+03 -0.12063796293E+03 -0.38234821960E+03  0.45156958590E+03  0.17300000000E+03 0.  1.
<mgrwt>
<rscale>  2 0.24026013E+03</rscale>
<asrwt>0</asrwt>
<pdfrwt beam="1">  1       21 0.11304943E-01 0.24026013E+03</pdfrwt>
<pdfrwt beam="2">  1       21 0.12126373E+00 0.24026013E+03</pdfrwt>
<totfact> 0.32734469E+04</totfact>
</mgrwt>
</event>
<event>
 4    1  0.3945627E+000  0.2172709E+03  0.7546771E-02  0.1135934E+00
         21   -1    0    0  501  502  0.00000000000E+00  0.00000000000E+00  0.39911758075E+03  0.39911758075E+03  0.00000000000E+00 0. -1.
         21   -1    0    0  502  503 -0.00000000000E+00 -0.00000000000E+00 -0.15108395859E+03  0.15108395859E+03  0.00000000000E+00 0.  1.
          6    1    1    2  501    0 -0.23648493587E+02  0.12929964134E+03  0.25220912626E+03  0.33289051033E+03  0.17300000000E+03 0. -1.
         -6    1    1    2    0  503  0.23648493587E+02 -0.12929964134E+03 -0.41755041000E+01  0.21731102902E+03  0.17300000000E+03 0.  1.
<mgrwt>
<rscale>  2 0.21727091E+03</rscale>
<asrwt>0</asrwt>
<pdfrwt beam="1">  1       21 0.61402704E-01 0.21727091E+03</pdfrwt>
<pdfrwt beam="2">  1       21 0.23243686E-01 0.21727091E+03</pdfrwt>
<totfact> 0.42370322E+04</totfact>
</mgrwt>
</event>
<event>
 4    1  0.3945627E+000  0.1920193E+03  0.7546771E-02  0.1156653E+00
         21   -1    0    0  501  502  0.00000000000E+00  0.00000000000E+00  0.93840111750E+02  0.93840111750E+02  0.00000000000E+00 0.  1.
         21   -1    0    0  502  503 -0.00000000000E+00 -0.00000000000E+00 -0.82703509373E+03  0.82703509373E+03  0.00000000000E+00 0.  1.
          6    1    1    2  501    0  0.10029648965E+02 -0.82715283642E+02 -0.33007845145E+02  0.19483564830E+03  0.17300000000E+03 0.  1.
         -6    1    1    2    0  503 -0.10029648965E+02  0.82715283642E+02 -0.70018713684E+03  0.72603955719E+03  0.17300000000E+03 0.  1.
<mgrwt>
<rscale>  2 0.19201930E+03</rscale>
<asrwt>0</asrwt>
<pdfrwt beam="1">  1       21 0.14436941E-01 0.19201930E+03</pdfrwt>
<pdfrwt beam="2">  1       21 0.12723616E+00 0.19201930E+03</pdfrwt>
<totfact> 0.19197232E+04</totfact>
</mgrwt>
</event>
<event>
 4    1  0.3945627E+000  0.2213912E+03  0.7546771E-02  0.1132850E+00
         21   -1    0    0  501  502  0.00000000000E+00  0.00000000000E+00  0.94761766823E+02  0.94761766823E+02  0.00000000000E+00 0.  1.
         21   -1    0    0  502  503 -0.00000000000E+00 -0.00000000000E+00 -0.63371621614E+03  0.63371621614E+03  0.00000000000E+00 0.  1.
          6    1    1    2  501    0  0.10088189345E+03  0.94381771201E+02 -0.11331804824E+03  0.24870676553E+03  0.17300000000E+03 0.  1.
         -6    1    1    2    0  503 -0.10088189345E+03 -0.94381771201E+02 -0.42563640107E+03  0.47977121743E+03  0.17300000000E+03 0.  1.
<mgrwt>
<rscale>  2 0.22139123E+03</rscale>
<asrwt>0</asrwt>
<pdfrwt beam="1">  1       21 0.14578733E-01 0.22139123E+03</pdfrwt>
<pdfrwt beam="2">  1       21 0.97494804E-01 0.22139123E+03</pdfrwt>
<totfact> 0.35463498E+04</totfact>
</mgrwt>
</event>
<event>
 4    1  0.3945627E+000  0.2092771E+03  0.7546771E-02  0.1142140E+00
         21   -1    0    0  501  502  0.00000000000E+00  0.00000000000E+00  0.11525118280E+03  0.11525118280E+03  0.00000000000E+00 0.  1.
         21   -1    0    0  502  503 -0.00000000000E+00 -0.00000000000E+00 -0.10559051714E+04  0.10559051714E+04  0.00000000000E+00 0.  1.
          6    1    1    2  501    0  0.60652898029E+02  0.10094124699E+03 -0.18252200559E+01  0.20928507069E+03  0.17300000000E+03 0.  1.
         -6    1    1    2    0  503 -0.60652898029E+02 -0.10094124699E+03 -0.93882876851E+03  0.96187128347E+03  0.17300000000E+03 0.  1.
<mgrwt>
<rscale>  2 0.20927711E+03</rscale>
<asrwt>0</asrwt>
<pdfrwt beam="1">  1       21 0.17730951E-01 0.20927711E+03</pdfrwt>
<pdfrwt beam="2">  1       21 0.16244695E+00 0.20927711E+03</pdfrwt>
<totfact> 0.68807366E+03</totfact>
</mgrwt>
</event>
<event>
 4    1  0.3945627E+000  0.2266482E+03  0.7546771E-02  0.1129021E+00
         21   -1    0    0  503  502  0.00000000000E+00  0.00000000000E+00  0.27349199230E+03  0.27349199230E+03  0.00000000000E+00 0.  1.
         21   -1    0    0  501  503 -0.00000000000E+00 -0.00000000000E+00 -0.32465124308E+03  0.32465124308E+03  0.00000000000E+00 0. -1.
          6    1    1    2  501    0  0.13337079656E+03  0.60437179857E+02 -0.21973382534E+03  0.31567764584E+03  0.17300000000E+03 0.  1.
         -6    1    1    2    0  502 -0.13337079656E+03 -0.60437179857E+02  0.16857457456E+03  0.28246558954E+03  0.17300000000E+03 0.  1.
<mgrwt>
<rscale>  2 0.22664823E+03</rscale>
<asrwt>0</asrwt>
<pdfrwt beam="1">  1       21 0.42075691E-01 0.22664823E+03</pdfrwt>
<pdfrwt beam="2">  1       21 0.49946345E-01 0.22664823E+03</pdfrwt>
<totfact> 0.20361101E+04</totfact>
</mgrwt>
</event>
<event>
 4    1  0.3945627E+000  0.2163918E+03  0.7546771E-02  0.1136602E+00
         21   -1    0    0  501  502  0.00000000000E+00  0.00000000000E+00  0.78062695453E+03  0.78062695453E+03  0.00000000000E+00 0. -1.
         21   -1    0    0  502  503 -0.00000000000E+00 -0.00000000000E+00 -0.80855361003E+02  0.80855361003E+02  0.00000000000E+00 0.  1.
          6    1    1    2  501    0 -0.94897720723E+02 -0.88830370695E+02  0.56872924462E+03  0.60850502532E+03  0.17300000000E+03 0. -1.
         -6    1    1    2    0  503  0.94897720723E+02  0.88830370695E+02  0.13104234891E+03  0.25297729021E+03  0.17300000000E+03 0. -1.
<mgrwt>
<rscale>  2 0.21639180E+03</rscale>
<asrwt>0</asrwt>
<pdfrwt beam="1">  1       21 0.12009645E+00 0.21639180E+03</pdfrwt>
<pdfrwt beam="2">  1       21 0.12439287E-01 0.21639180E+03</pdfrwt>
<totfact> 0.28600806E+04</totfact>
</mgrwt>
</event>
<event>
 4    1  0.3945627E+000  0.1791683E+03  0.7546771E-02  0.1168610E+00
         21   -1    0    0  501  502  0.00000000000E+00  0.00000000000E+00  0.37311570563E+02  0.37311570563E+02  0.00000000000E+00 0.  1.
         21   -1    0    0  502  503 -0.00000000000E+00 -0.00000000000E+00 -0.16277376818E+04  0.16277376818E+04  0.00000000000E+00 0.  1.
          6    1    1    2  501    0 -0.31317464419E+02  0.34518023126E+02 -0.22358931022E+03  0.28651955805E+03  0.17300000000E+03 0.  1.
         -6    1    1    2    0  503  0.31317464419E+02 -0.34518023126E+02 -0.13668368010E+04  0.13785296943E+04  0.17300000000E+03 0.  1.
<mgrwt>
<rscale>  2 0.17916829E+03</rscale>
<asrwt>0</asrwt>
<pdfrwt beam="1">  1       21 0.57402410E-02 0.17916829E+03</pdfrwt>
<pdfrwt beam="2">  1       21 0.25042121E+00 0.17916829E+03</pdfrwt>
<totfact> 0.14240426E+04</totfact>
</mgrwt>
</event>
<event>
 4    1  0.3945627E+000  0.2688695E+03  0.7546771E-02  0.1101928E+00
         21   -1    0    0  503  502  0.00000000000E+00  0.00000000000E+00  0.62604371139E+03  0.62604371139E+03  0.00000000000E+00 0.  1.
         21   -1    0    0  501  503 -0.00000000000E+00 -0.00000000000E+00 -0.15639546958E+03  0.15639546958E+03  0.00000000000E+00 0. -1.
          6    1    1    2  501    0 -0.18518013560E+03 -0.89833845220E+02  0.34703272489E+02  0.27109983307E+03  0.17300000000E+03 0. -1.
         -6    1    1    2    0  502  0.18518013560E+03  0.89833845220E+02  0.43494496932E+03  0.51133934789E+03  0.17300000000E+03 0.  1.
<mgrwt>
<rscale>  2 0.26886949E+03</rscale>
<asrwt>0</asrwt>
<pdfrwt beam="1">  1       21 0.96314416E-01 0.26886949E+03</pdfrwt>
<pdfrwt beam="2">  1       21 0.24060842E-01 0.26886949E+03</pdfrwt>
<totfact> 0.13986534E+04</totfact>
</mgrwt>
</event>
<event>
 4    1  0.3945627E+000  0.2283255E+03  0.7546771E-02  0.1127824E+00
         21   -1    0    0  501  502  0.00000000000E+00  0.00000000000E+00  0.34381121092E+03  0.34381121092E+03  0.00000000000E+00 0.  1.
         21   -1    0    0  502  503 -0.00000000000E+00 -0.00000000000E+00 -0.33187442981E+03  0.33187442981E+03  0.00000000000E+00 0. -1.
          6    1    1    2  501    0  0.11684188025E+03  0.92474492126E+02  0.25494417105E+03  0.34224127020E+03  0.17300000000E+03 0.  1.
         -6    1    1    2    0  503 -0.11684188025E+03 -0.92474492126E+02 -0.24300738994E+03  0.33344437053E+03  0.17300000000E+03 0. -1.
<mgrwt>
<rscale>  2 0.22832555E+03</rscale>
<asrwt>0</asrwt>
<pdfrwt beam="1">  1       21 0.52894033E-01 0.22832555E+03</pdfrwt>
<pdfrwt beam="2">  1       21 0.51057604E-01 0.22832555E+03</pdfrwt>
<totfact> 0.12078224E+04</totfact>
</mgrwt>
</event>
<event>
 4    1  0.3945627E+000  0.1755227E+03  0.7546771E-02  0.1172208E+00
         21   -1    0    0  503  502  0.00000000000E+00  0.00000000000E+00  0.32662872641E+03  0.32662872641E+03  0.00000000000E+00 0. -1.
         21   -1    0    0  501  503 -0.00000000000E+00 -0.00000000000E+00 -0.97950530369E+02  0.97950530369E+02  0.00000000000E+00 0. -1.
          6    1    1    2  501    0 -0.21964009165E+02  0.19920166216E+02  0.15519914161E+03  0.23429682942E+03  0.17300000000E+03 0. -1.
         -6    1    1    2    0  502  0.21964009165E+02 -0.19920166216E+02  0.73479054432E+02  0.19028242736E+03  0.17300000000E+03 0. -1.
<mgrwt>
<rscale>  2 0.17552274E+03</rscale>
<asrwt>0</asrwt>
<pdfrwt beam="1">  1       21 0.50250573E-01 0.17552274E+03</pdfrwt>
<pdfrwt beam="2">  1       21 0.15069312E-01 0.17552274E+03</pdfrwt>
<totfact> 0.14752226E+05</totfact>
</mgrwt>
</event>
<event>
 4    1  0.3945627E+000  0.1947028E+03  0.7546771E-02  0.1154287E+00
         21   -1    0    0  501  502  0.00000000000E+00  0.00000000000E+00  0.20787008171E+03  0.20787008171E+03  0.00000000000E+00 0. -1.
         21   -1    0    0  502  503 -0.00000000000E+00 -0.00000000000E+00 -0.61102104154E+03  0.61102104154E+03  0.00000000000E+00 0. -1.
          6    1    1    2  501    0  0.88809007826E+01  0.88889336657E+02  0.14136616509E+03  0.24061084182E+03  0.17300000000E+03 0.  1.
         -6    1    1    2    0  503 -0.88809007826E+01 -0.88889336657E+02 -0.54451712492E+03  0.57828028144E+03  0.17300000000E+03 0.  1.
<mgrwt>
<rscale>  2 0.19470281E+03</rscale>
<asrwt>0</asrwt>
<pdfrwt beam="1">  1       21 0.31980012E-01 0.19470281E+03</pdfrwt>
<pdfrwt beam="2">  1       21 0.94003238E-01 0.19470281E+03</pdfrwt>
<totfact> 0.89159617E+03</totfact>
</mgrwt>
</event>
<event>
 4    1  0.3945627E+000  0.2813363E+03  0.7546771E-02  0.1094961E+00
         21   -1    0    0  503  502  0.00000000000E+00  0.00000000000E+00  0.24089097278E+04  0.24089097278E+04  0.00000000000E+00 0. -1.
         21   -1    0    0  501  503 -0.00000000000E+00 -0.00000000000E+00 -0.46546123892E+02  0.46546123892E+02  0.00000000000E+00 0.  1.
          6    1    1    2  501    0  0.15460016650E+03  0.15912229186E+03  0.51538077855E+03  0.58716902349E+03  0.17300000000E+03 0.  1.
         -6    1    1    2    0  502 -0.15460016650E+03 -0.15912229186E+03  0.18469828254E+04  0.18682868282E+04  0.17300000000E+03 0. -1.
<mgrwt>
<rscale>  2 0.28133630E+03</rscale>
<asrwt>0</asrwt>
<pdfrwt beam="1">  1       21 0.37060140E+00 0.28133630E+03</pdfrwt>
<pdfrwt beam="2">  1       21 0.71609440E-02 0.28133630E+03</pdfrwt>
<totfact> 0.17270826E+03</totfact>
</mgrwt>
</event>
<event>
 4    1  0.3945627E+000  0.2807422E+03  0.7546771E-02  0.1095284E+00
         21   -1    0    0  501  502  0.00000000000E+00  0.00000000000E+00  0.79251869701E+03  0.79251869701E+03  0.00000000000E+00 0. -1.
         21   -1    0    0  502  503 -0.00000000000E+00 -0.00000000000E+00 -0.11543909792E+03  0.11543909792E+03  0.00000000000E+00 0. -1.
          6    1    1    2  501    0 -0.10209497809E+03  0.19612183780E+03  0.50749368315E+03  0.57997068741E+03  0.17300000000E+03 0. -1.
         -6    1    1    2    0  503  0.10209497809E+03 -0.19612183780E+03  0.16958591594E+03  0.32798710752E+03  0.17300000000E+03 0. -1.
<mgrwt>
<rscale>  2 0.28074216E+03</rscale>
<asrwt>0</asrwt>
<pdfrwt beam="1">  1       21 0.12192595E+00 0.28074216E+03</pdfrwt>
<pdfrwt beam="2">  1       21 0.17759862E-01 0.28074216E+03</pdfrwt>
<totfact> 0.13879851E+04</totfact>
</mgrwt>
</event>
<event>
 4    1  0.3945627E+000  0.2714266E+03  0.7546771E-02  0.1100466E+00
         21   -1    0    0  501  502  0.00000000000E+00  0.00000000000E+00  0.16556751715E+03  0.16556751715E+03  0.00000000000E+00 0. -1.
         21   -1    0    0  502  503 -0.00000000000E+00 -0.00000000000E+00 -0.50047844271E+03  0.50047844271E+03  0.00000000000E+00 0.  1.
          6    1    1    2  501    0  0.14125339239E+03 -0.15424288498E+03 -0.56546787497E+02  0.27725426526E+03  0.17300000000E+03 0. -1.
         -6    1    1    2    0  503 -0.14125339239E+03  0.15424288498E+03 -0.27836413806E+03  0.38879169460E+03  0.17300000000E+03 0.  1.
<mgrwt>
<rscale>  2 0.27142658E+03</rscale>
<asrwt>0</asrwt>
<pdfrwt beam="1">  1       21 0.25471926E-01 0.27142658E+03</pdfrwt>
<pdfrwt beam="2">  1       21 0.76996683E-01 0.27142658E+03</pdfrwt>
<totfact> 0.21026564E+04</totfact>
</mgrwt>
</event>
<event>
 4    1  0.3945627E+000  0.1981439E+03  0.7546771E-02  0.1151315E+00
         21   -1    0    0  501  502  0.00000000000E+00  0.00000000000E+00  0.80894131313E+03  0.80894131313E+03  0.00000000000E+00 0.  1.
         21   -1    0    0  502  503 -0.00000000000E+00 -0.00000000000E+00 -0.48560627324E+02  0.48560627324E+02  0.00000000000E+00 0.  1.
          6    1    1    2  501    0 -0.96596853396E+02 -0.10220176622E+01  0.39026765284E+03  0.43768691717E+03  0.17300000000E+03 0.  1.
         -6    1    1    2    0  503  0.96596853396E+02  0.10220176622E+01  0.37011303297E+03  0.41981502329E+03  0.17300000000E+03 0.  1.
<mgrwt>
<rscale>  2 0.19814388E+03</rscale>
<asrwt>0</asrwt>
<pdfrwt beam="1">  1       21 0.12445250E+00 0.19814388E+03</pdfrwt>
<pdfrwt beam="2">  1       21 0.74708663E-02 0.19814388E+03</pdfrwt>
<totfact> 0.65001150E+04</totfact>
</mgrwt>
</event>
<event>
 4    1  0.3945627E+000  0.2237160E+03  0.7546771E-02  0.1131143E+00
         21   -1    0    0  501  502  0.00000000000E+00  0.00000000000E+00  0.39528415191E+03  0.39528415191E+03  0.00000000000E+00 0. -1.
         21   -1    0    0  502  503 -0.00000000000E+00 -0.00000000000E+00 -0.13122420484E+03  0.13122420484E+03  0.00000000000E+00 0. -1.
          6    1    1    2  501    0  0.46214946870E+02  0.13410459499E+03  0.82691470037E+02  0.23850941895E+03  0.17300000000E+03 0. -1.
         -6    1    1    2    0  503 -0.46214946870E+02 -0.13410459499E+03  0.18136847704E+03  0.28799893780E+03  0.17300000000E+03 0. -1.
<mgrwt>
<rscale>  2 0.22371603E+03</rscale>
<asrwt>0</asrwt>
<pdfrwt beam="1">  1       21 0.60812946E-01 0.22371603E+03</pdfrwt>
<pdfrwt beam="2">  1       21 0.20188339E-01 0.22371603E+03</pdfrwt>
<totfact> 0.56288188E+04</totfact>
</mgrwt>
</event>
<event>
 4    1  0.3945627E+000  0.1769715E+03  0.7546771E-02  0.1170767E+00
         21   -1    0    0  503  502  0.00000000000E+00  0.00000000000E+00  0.34005426182E+02  0.34005426182E+02  0.00000000000E+00 0.  1.
         21   -1    0    0  501  503 -0.00000000000E+00 -0.00000000000E+00 -0.10793207688E+04  0.10793207688E+04  0.00000000000E+00 0.  1.
          6    1    1    2  501    0  0.18156142976E+02 -0.32561508220E+02 -0.30945622328E+03  0.35648569602E+03  0.17300000000E+03 0.  1.
         -6    1    1    2    0  502 -0.18156142976E+02  0.32561508220E+02 -0.73585911937E+03  0.75684049899E+03  0.17300000000E+03 0.  1.
<mgrwt>
<rscale>  2 0.17697146E+03</rscale>
<asrwt>0</asrwt>
<pdfrwt beam="1">  1       21 0.52316051E-02 0.17697146E+03</pdfrwt>
<pdfrwt beam="2">  1       21 0.16604931E+00 0.17697146E+03</pdfrwt>
<totfact> 0.57204191E+04</totfact>
</mgrwt>
</event>
<event>
 4    1  0.3945627E+000  0.1829678E+03  0.7546771E-02  0.1164961E+00
         21   -1    0    0  501  502  0.00000000000E+00  0.00000000000E+00  0.78180868173E+02  0.78180868173E+02  0.00000000000E+00 0.  1.
         21   -1    0    0  502  503 -0.00000000000E+00 -0.00000000000E+00 -0.55618821819E+03  0.55618821819E+03  0.00000000000E+00 0.  1.
          6    1    1    2  501    0  0.17817146789E+02 -0.56839682494E+02 -0.86849872430E+02  0.20253419604E+03  0.17300000000E+03 0.  1.
         -6    1    1    2    0  503 -0.17817146789E+02  0.56839682494E+02 -0.39115747759E+03  0.43183489032E+03  0.17300000000E+03 0.  1.
<mgrwt>
<rscale>  2 0.18296776E+03</rscale>
<asrwt>0</asrwt>
<pdfrwt beam="1">  1       21 0.12027826E-01 0.18296776E+03</pdfrwt>
<pdfrwt beam="2">  1       21 0.85567419E-01 0.18296776E+03</pdfrwt>
<totfact> 0.69263596E+04</totfact>
</mgrwt>
</event>
<event>
 4    1  0.3945627E+000  0.2113896E+03  0.7546771E-02  0.1140470E+00
         21   -1    0    0  501  502  0.00000000000E+00  0.00000000000E+00  0.11552493355E+04  0.11552493355E+04  0.00000000000E+00 0. -1.
         21   -1    0    0  502  503 -0.00000000000E+00 -0.00000000000E+00 -0.74306201577E+02  0.74306201577E+02  0.00000000000E+00 0.  1.
          6    1    1    2  501    0  0.11033587952E+02  0.12097444060E+03  0.96615592061E+03  0.98901103041E+03  0.17300000000E+03 0.  1.
         -6    1    1    2    0  503 -0.11033587952E+02 -0.12097444060E+03  0.11478721329E+03  0.24054450664E+03  0.17300000000E+03 0.  1.
<mgrwt>
<rscale>  2 0.21138958E+03</rscale>
<asrwt>0</asrwt>
<pdfrwt beam="1">  1       21 0.17773065E+00 0.21138958E+03</pdfrwt>
<pdfrwt beam="2">  1       21 0.11431724E-01 0.21138958E+03</pdfrwt>
<totfact> 0.11895729E+04</totfact>
</mgrwt>
</event>
<event>
 4    1  0.3945627E+000  0.2151814E+03  0.7546771E-02  0.1137527E+00
         21   -1    0    0  503  502  0.00000000000E+00  0.00000000000E+00  0.67401125911E+02  0.67401125911E+02  0.00000000000E+00 0.  1.
         21   -1    0    0  501  503 -0.00000000000E+00 -0.00000000000E+00 -0.23995414334E+04  0.23995414334E+04  0.00000000000E+00 0.  1.
          6    1    1    2  501    0 -0.72060162853E+02 -0.10574207233E+03 -0.22081195815E+04  0.22185795319E+04  0.17300000000E+03 0.  1.
         -6    1    1    2    0  502  0.72060162853E+02  0.10574207233E+03 -0.12402072596E+03  0.24836302744E+03  0.17300000000E+03 0.  1.
<mgrwt>
<rscale>  2 0.21518144E+03</rscale>
<asrwt>0</asrwt>
<pdfrwt beam="1">  1       21 0.10369404E-01 0.21518144E+03</pdfrwt>
<pdfrwt beam="2">  1       21 0.36916024E+00 0.21518144E+03</pdfrwt>
<totfact> 0.99112491E+02</totfact>
</mgrwt>
</event>
<event>
 4    1  0.3945627E+000  0.1863900E+03  0.7546771E-02  0.1161758E+00
         21   -1    0    0  503  502  0.00000000000E+00  0.00000000000E+00  0.29510585191E+03  0.29510585191E+03  0.00000000000E+00 0.  1.
         21   -1    0    0  501  503 -0.00000000000E+00 -0.00000000000E+00 -0.13566271928E+03  0.13566271928E+03  0.00000000000E+00 0.  1.
          6    1    1    2  501    0 -0.55486001191E+02  0.41635898370E+02  0.14018433232E+01  0.18639530446E+03  0.17300000000E+03 0.  1.
         -6    1    1    2    0  502  0.55486001191E+02 -0.41635898370E+02  0.15804128931E+03  0.24437326672E+03  0.17300000000E+03 0.  1.
<mgrwt>
<rscale>  2 0.18639003E+03</rscale>
<asrwt>0</asrwt>
<pdfrwt beam="1">  1       21 0.45400900E-01 0.18639003E+03</pdfrwt>
<pdfrwt beam="2">  1       21 0.20871188E-01 0.18639003E+03</pdfrwt>
<totfact> 0.99403375E+04</totfact>
</mgrwt>
</event>
<event>
 4    1  0.3945627E+000  0.2011660E+03  0.7546771E-02  0.1148759E+00
         21   -1    0    0  503  502  0.00000000000E+00  0.00000000000E+00  0.23250495021E+03  0.23250495021E+03  0.00000000000E+00 0. -1.
         21   -1    0    0  501  503 -0.00000000000E+00 -0.00000000000E+00 -0.21271042530E+03  0.21271042530E+03  0.00000000000E+00 0. -1.
          6    1    1    2  501    0 -0.21913973795E+02 -0.10029224863E+03 -0.85004120735E+02  0.21838831911E+03  0.17300000000E+03 0. -1.
         -6    1    1    2    0  502  0.21913973795E+02  0.10029224863E+03  0.10479864564E+03  0.22682705639E+03  0.17300000000E+03 0. -1.
<mgrwt>
<rscale>  2 0.20116599E+03</rscale>
<asrwt>0</asrwt>
<pdfrwt beam="1">  1       21 0.35769992E-01 0.20116599E+03</pdfrwt>
<pdfrwt beam="2">  1       21 0.32724681E-01 0.20116599E+03</pdfrwt>
<totfact> 0.67474402E+04</totfact>
</mgrwt>
</event>
<event>
 4    1  0.3945627E+000  0.2304288E+03  0.7546771E-02  0.1126338E+00
         21   -1    0    0  501  502  0.00000000000E+00  0.00000000000E+00  0.36076068412E+03  0.36076068412E+03  0.00000000000E+00 0. -1.
         21   -1    0    0  502  503 -0.00000000000E+00 -0.00000000000E+00 -0.15109359679E+03  0.15109359679E+03  0.00000000000E+00 0.  1.
          6    1    1    2  501    0  0.11976623958E+02 -0.15173985679E+03  0.14601283537E+03  0.27279510947E+03  0.17300000000E+03 0. -1.
         -6    1    1    2    0  503 -0.11976623958E+02  0.15173985679E+03  0.63654251961E+02  0.23905917145E+03  0.17300000000E+03 0.  1.
<mgrwt>
<rscale>  2 0.23042878E+03</rscale>
<asrwt>0</asrwt>
<pdfrwt beam="1">  1       21 0.55501644E-01 0.23042878E+03</pdfrwt>
<pdfrwt beam="2">  1       21 0.23245169E-01 0.23042878E+03</pdfrwt>
<totfact> 0.52309187E+04</totfact>
</mgrwt>
</event>
<event>
 4    1  0.3945627E+000  0.2060433E+03  0.7546771E-02  0.1144738E+00
         21   -1    0    0  503  502  0.00000000000E+00  0.00000000000E+00  0.28337054593E+03  0.28337054593E+03  0.00000000000E+00 0. -1.
         21   -1    0    0  501  503 -0.00000000000E+00 -0.00000000000E+00 -0.15138029698E+03  0.15138029698E+03  0.00000000000E+00 0.  1.
          6    1    1    2  501    0  0.64439473024E+02 -0.91500838783E+02  0.43908178757E+02  0.21066983017E+03  0.17300000000E+03 0. -1.
         -6    1    1    2    0  502 -0.64439473024E+02  0.91500838783E+02  0.88082070188E+02  0.22408101274E+03  0.17300000000E+03 0. -1.
<mgrwt>
<rscale>  2 0.20604332E+03</rscale>
<asrwt>0</asrwt>
<pdfrwt beam="1">  1       21 0.43595468E-01 0.20604332E+03</pdfrwt>
<pdfrwt beam="2">  1       21 0.23289277E-01 0.20604332E+03</pdfrwt>
<totfact> 0.87159081E+04</totfact>
</mgrwt>
</event>
<event>
 4    1  0.3945627E+000  0.1947607E+03  0.7546771E-02  0.1154236E+00
         21   -1    0    0  503  502  0.00000000000E+00  0.00000000000E+00  0.41319073117E+03  0.41319073117E+03  0.00000000000E+00 0.  1.
         21   -1    0    0  501  503 -0.00000000000E+00 -0.00000000000E+00 -0.16407522219E+03  0.16407522219E+03  0.00000000000E+00 0.  1.
          6    1    1    2  501    0 -0.11186073024E+02  0.88755811670E+02 -0.67005961185E+02  0.20596485421E+03  0.17300000000E+03 0.  1.
         -6    1    1    2    0  502  0.11186073024E+02 -0.88755811670E+02  0.31612147016E+03  0.37130109915E+03  0.17300000000E+03 0.  1.
<mgrwt>
<rscale>  2 0.19476068E+03</rscale>
<asrwt>0</asrwt>
<pdfrwt beam="1">  1       21 0.63567804E-01 0.19476068E+03</pdfrwt>
<pdfrwt beam="2">  1       21 0.25242342E-01 0.19476068E+03</pdfrwt>
<totfact> 0.33979611E+04</totfact>
</mgrwt>
</event>
<event>
 4    1  0.3945627E+000  0.1769138E+03  0.7546771E-02  0.1170824E+00
         21   -1    0    0  503  502  0.00000000000E+00  0.00000000000E+00  0.30006274934E+03  0.30006274934E+03  0.00000000000E+00 0.  1.
         21   -1    0    0  501  503 -0.00000000000E+00 -0.00000000000E+00 -0.26017722968E+03  0.26017722968E+03  0.00000000000E+00 0.  1.
          6    1    1    2  501    0  0.23588354556E+02  0.28514374317E+02 -0.19687348256E+03  0.26468405344E+03  0.17300000000E+03 0.  1.
         -6    1    1    2    0  502 -0.23588354556E+02 -0.28514374317E+02  0.23675900222E+03  0.29555592558E+03  0.17300000000E+03 0.  1.
<mgrwt>
<rscale>  2 0.17691376E+03</rscale>
<asrwt>0</asrwt>
<pdfrwt beam="1">  1       21 0.46163500E-01 0.17691376E+03</pdfrwt>
<pdfrwt beam="2">  1       21 0.40027266E-01 0.17691376E+03</pdfrwt>
<totfact> 0.27283776E+04</totfact>
</mgrwt>
</event>
<event>
 4    1  0.3945627E+000  0.2584390E+03  0.7546771E-02  0.1108085E+00
         21   -1    0    0  503  502  0.00000000000E+00  0.00000000000E+00  0.62970871115E+03  0.62970871115E+03  0.00000000000E+00 0.  1.
         21   -1    0    0  501  503 -0.00000000000E+00 -0.00000000000E+00 -0.17212829582E+03  0.17212829582E+03  0.00000000000E+00 0. -1.
          6    1    1    2  501    0 -0.16030852408E+03 -0.10565453581E+03 -0.19584114334E+02  0.25917994013E+03  0.17300000000E+03 0. -1.
         -6    1    1    2    0  502  0.16030852408E+03  0.10565453581E+03  0.47716452966E+03  0.54265706684E+03  0.17300000000E+03 0.  1.
<mgrwt>
<rscale>  2 0.25843898E+03</rscale>
<asrwt>0</asrwt>
<pdfrwt beam="1">  1       21 0.96878262E-01 0.25843898E+03</pdfrwt>
<pdfrwt beam="2">  1       21 0.26481277E-01 0.25843898E+03</pdfrwt>
<totfact> 0.11530948E+04</totfact>
</mgrwt>
</event>
<event>
 4    1  0.3945627E+000  0.1787676E+03  0.7546771E-02  0.1169001E+00
         21   -1    0    0  503  502  0.00000000000E+00  0.00000000000E+00  0.14696594603E+04  0.14696594603E+04  0.00000000000E+00 0. -1.
         21   -1    0    0  501  503 -0.00000000000E+00 -0.00000000000E+00 -0.22627471091E+02  0.22627471091E+02  0.00000000000E+00 0. -1.
          6    1    1    2  501    0 -0.24601726767E+02 -0.37730901197E+02  0.57617135846E+03  0.60326718805E+03  0.17300000000E+03 0. -1.
         -6    1    1    2    0  502  0.24601726767E+02  0.37730901197E+02  0.87086063072E+03  0.88901974331E+03  0.17300000000E+03 0. -1.
<mgrwt>
<rscale>  2 0.17876763E+03</rscale>
<asrwt>0</asrwt>
<pdfrwt beam="1">  1       21 0.22610138E+00 0.17876763E+03</pdfrwt>
<pdfrwt beam="2">  1       21 0.34811506E-02 0.17876763E+03</pdfrwt>
<totfact> 0.46104868E+04</totfact>
</mgrwt>
</event>
<event>
 4    1  0.3945627E+000  0.1899988E+03  0.7546771E-02  0.1158462E+00
         21   -1    0    0  503  502  0.00000000000E+00  0.00000000000E+00  0.90862176133E+03  0.90862176133E+03  0.00000000000E+00 0. -1.
         21   -1    0    0  501  503 -0.00000000000E+00 -0.00000000000E+00 -0.94994313647E+02  0.94994313647E+02  0.00000000000E+00 0. -1.
          6    1    1    2  501    0 -0.61689135043E+02 -0.48631191885E+02  0.24067248098E+02  0.19151703485E+03  0.17300000000E+03 0. -1.
         -6    1    1    2    0  502  0.61689135043E+02  0.48631191885E+02  0.78956019959E+03  0.81209904013E+03  0.17300000000E+03 0. -1.
<mgrwt>
<rscale>  2 0.18999880E+03</rscale>
<asrwt>0</asrwt>
<pdfrwt beam="1">  1       21 0.13978796E+00 0.18999880E+03</pdfrwt>
<pdfrwt beam="2">  1       21 0.14614510E-01 0.18999880E+03</pdfrwt>
<totfact> 0.14803041E+04</totfact>
</mgrwt>
</event>
<event>
 4    1  0.3945627E+000  0.1762644E+03  0.7546771E-02  0.1171468E+00
         21   -1    0    0  503  502  0.00000000000E+00  0.00000000000E+00  0.51590419718E+02  0.51590419718E+02  0.00000000000E+00 0. -1.
         21   -1    0    0  501  503 -0.00000000000E+00 -0.00000000000E+00 -0.64622056898E+03  0.64622056898E+03  0.00000000000E+00 0. -1.
          6    1    1    2  501    0  0.25551996342E+02  0.22073729590E+02 -0.38835062590E+03  0.42648020199E+03  0.17300000000E+03 0.  1.
         -6    1    1    2    0  502 -0.25551996342E+02 -0.22073729590E+02 -0.20627952336E+03  0.27133078670E+03  0.17300000000E+03 0.  1.
<mgrwt>
<rscale>  2 0.17626444E+03</rscale>
<asrwt>0</asrwt>
<pdfrwt beam="1">  1       21 0.79369874E-02 0.17626444E+03</pdfrwt>
<pdfrwt beam="2">  1       21 0.99418552E-01 0.17626444E+03</pdfrwt>
<totfact> 0.10195594E+05</totfact>
</mgrwt>
</event>
<event>
 4    1  0.3945627E+000  0.1740027E+03  0.7546771E-02  0.1173737E+00
         21   -1    0    0  503  502  0.00000000000E+00  0.00000000000E+00  0.13700201902E+04  0.13700201902E+04  0.00000000000E+00 0. -1.
         21   -1    0    0  501  503 -0.00000000000E+00 -0.00000000000E+00 -0.33711838246E+02  0.33711838246E+02  0.00000000000E+00 0. -1.
          6    1    1    2  501    0  0.19238802069E+01  0.18553364750E+02  0.25622690065E+03  0.30972431818E+03  0.17300000000E+03 0. -1.
         -6    1    1    2    0  502 -0.19238802069E+01 -0.18553364750E+02  0.10800814513E+04  0.10940077103E+04  0.17300000000E+03 0. -1.
<mgrwt>
<rscale>  2 0.17400267E+03</rscale>
<asrwt>0</asrwt>
<pdfrwt beam="1">  1       21 0.21077229E+00 0.17400267E+03</pdfrwt>
<pdfrwt beam="2">  1       21 0.51864377E-02 0.17400267E+03</pdfrwt>
<totfact> 0.29422110E+04</totfact>
</mgrwt>
</event>
<event>
 4    1  0.3945627E+000  0.2590504E+03  0.7546771E-02  0.1107715E+00
         21   -1    0    0  503  502  0.00000000000E+00  0.00000000000E+00  0.82184697031E+02  0.82184697031E+02  0.00000000000E+00 0. -1.
         21   -1    0    0  501  503 -0.00000000000E+00 -0.00000000000E+00 -0.88879172996E+03  0.88879172996E+03  0.00000000000E+00 0.  1.
          6    1    1    2  501    0  0.96986323779E+01  0.19257223676E+03 -0.54172434624E+03  0.60047680817E+03  0.17300000000E+03 0. -1.
         -6    1    1    2    0  502 -0.96986323779E+01 -0.19257223676E+03 -0.26488268669E+03  0.37049961882E+03  0.17300000000E+03 0. -1.
<mgrwt>
<rscale>  2 0.25905044E+03</rscale>
<asrwt>0</asrwt>
<pdfrwt beam="1">  1       21 0.12643799E-01 0.25905044E+03</pdfrwt>
<pdfrwt beam="2">  1       21 0.13673719E+00 0.25905044E+03</pdfrwt>
<totfact> 0.19542123E+04</totfact>
</mgrwt>
</event>
<event>
 4    1  0.3945627E+000  0.2016420E+03  0.7546771E-02  0.1148361E+00
         21   -1    0    0  503  502  0.00000000000E+00  0.00000000000E+00  0.35704515761E+03  0.35704515761E+03  0.00000000000E+00 0. -1.
         21   -1    0    0  501  503 -0.00000000000E+00 -0.00000000000E+00 -0.29028812721E+03  0.29028812721E+03  0.00000000000E+00 0. -1.
          6    1    1    2  501    0  0.76524384782E+02 -0.69817719573E+02 -0.21893782876E+03  0.29764621330E+03  0.17300000000E+03 0. -1.
         -6    1    1    2    0  502 -0.76524384782E+02  0.69817719573E+02  0.28569485916E+03  0.34968707151E+03  0.17300000000E+03 0. -1.
<mgrwt>
<rscale>  2 0.20164200E+03</rscale>
<asrwt>0</asrwt>
<pdfrwt beam="1">  1       21 0.54930024E-01 0.20164200E+03</pdfrwt>
<pdfrwt beam="2">  1       21 0.44659712E-01 0.20164200E+03</pdfrwt>
<totfact> 0.14967125E+04</totfact>
</mgrwt>
</event>
<event>
 4    1  0.3945627E+000  0.2279181E+03  0.7546771E-02  0.1128114E+00
         21   -1    0    0  501  502  0.00000000000E+00  0.00000000000E+00  0.28703577671E+03  0.28703577671E+03  0.00000000000E+00 0.  1.
         21   -1    0    0  502  503 -0.00000000000E+00 -0.00000000000E+00 -0.22588734695E+03  0.22588734695E+03  0.00000000000E+00 0. -1.
          6    1    1    2  501    0 -0.12445781629E+03  0.80795603699E+02  0.14492860438E+03  0.27009438717E+03  0.17300000000E+03 0.  1.
         -6    1    1    2    0  503  0.12445781629E+03 -0.80795603699E+02 -0.83780174613E+02  0.24282873650E+03  0.17300000000E+03 0. -1.
<mgrwt>
<rscale>  2 0.22791814E+03</rscale>
<asrwt>0</asrwt>
<pdfrwt beam="1">  1       21 0.44159350E-01 0.22791814E+03</pdfrwt>
<pdfrwt beam="2">  1       21 0.34751900E-01 0.22791814E+03</pdfrwt>
<totfact> 0.38630780E+04</totfact>
</mgrwt>
</event>
<event>
 4    1  0.3945627E+000  0.1831635E+03  0.7546771E-02  0.1164776E+00
         21   -1    0    0  501  502  0.00000000000E+00  0.00000000000E+00  0.76952329449E+02  0.76952329449E+02  0.00000000000E+00 0.  1.
         21   -1    0    0  502  503 -0.00000000000E+00 -0.00000000000E+00 -0.44269766719E+03  0.44269766719E+03  0.00000000000E+00 0.  1.
          6    1    1    2  501    0  0.53007658029E+02  0.28461250328E+02 -0.15084085139E+03  0.23728003925E+03  0.17300000000E+03 0.  1.
         -6    1    1    2    0  503 -0.53007658029E+02 -0.28461250328E+02 -0.21490448635E+03  0.28236995738E+03  0.17300000000E+03 0.  1.
<mgrwt>
<rscale>  2 0.18316346E+03</rscale>
<asrwt>0</asrwt>
<pdfrwt beam="1">  1       21 0.11838820E-01 0.18316346E+03</pdfrwt>
<pdfrwt beam="2">  1       21 0.68107333E-01 0.18316346E+03</pdfrwt>
<totfact> 0.11872475E+05</totfact>
</mgrwt>
</event>
<event>
 4    1  0.3945627E+000  0.2508568E+03  0.7546771E-02  0.1112765E+00
         21   -1    0    0  501  502  0.00000000000E+00  0.00000000000E+00  0.27641218786E+02  0.27641218786E+02  0.00000000000E+00 0. -1.
         21   -1    0    0  502  503 -0.00000000000E+00 -0.00000000000E+00 -0.24468164091E+04  0.24468164091E+04  0.00000000000E+00 0. -1.
          6    1    1    2  501    0  0.18037617538E+03  0.21553431342E+02 -0.88330153726E+03  0.91823238930E+03  0.17300000000E+03 0. -1.
         -6    1    1    2    0  503 -0.18037617538E+03 -0.21553431342E+02 -0.15358736531E+04  0.15562252386E+04  0.17300000000E+03 0. -1.
<mgrwt>
<rscale>  2 0.25085676E+03</rscale>
<asrwt>0</asrwt>
<pdfrwt beam="1">  1       21 0.42524943E-02 0.25085676E+03</pdfrwt>
<pdfrwt beam="2">  1       21 0.37643337E+00 0.25085676E+03</pdfrwt>
<totfact> 0.40129158E+03</totfact>
</mgrwt>
</event>
<event>
 4    1  0.3945627E+000  0.1784150E+03  0.7546771E-02  0.1169346E+00
         21   -1    0    0  503  502  0.00000000000E+00  0.00000000000E+00  0.36657116323E+02  0.36657116323E+02  0.00000000000E+00 0.  1.
         21   -1    0    0  501  503 -0.00000000000E+00 -0.00000000000E+00 -0.10473608522E+04  0.10473608522E+04  0.00000000000E+00 0. -1.
          6    1    1    2  501    0  0.39008821999E+02  0.19525021355E+02 -0.72941715381E+03  0.75092030131E+03  0.17300000000E+03 0. -1.
         -6    1    1    2    0  502 -0.39008821999E+02 -0.19525021355E+02 -0.28128658209E+03  0.33309766724E+03  0.17300000000E+03 0.  1.
<mgrwt>
<rscale>  2 0.17841501E+03</rscale>
<asrwt>0</asrwt>
<pdfrwt beam="1">  1       21 0.56395567E-02 0.17841501E+03</pdfrwt>
<pdfrwt beam="2">  1       21 0.16113243E+00 0.17841501E+03</pdfrwt>
<totfact> 0.54572898E+04</totfact>
</mgrwt>
</event>
<event>
 4    1  0.3945627E+000  0.1820968E+03  0.7546771E-02  0.1165789E+00
         21   -1    0    0  501  502  0.00000000000E+00  0.00000000000E+00  0.94840372851E+02  0.94840372851E+02  0.00000000000E+00 0. -1.
         21   -1    0    0  502  503 -0.00000000000E+00 -0.00000000000E+00 -0.65228405735E+03  0.65228405735E+03  0.00000000000E+00 0. -1.
          6    1    1    2  501    0 -0.34921720425E+02 -0.44841190116E+02 -0.24263817894E+02  0.18370626486E+03  0.17300000000E+03 0. -1.
         -6    1    1    2    0  503  0.34921720425E+02  0.44841190116E+02 -0.53317986660E+03  0.56341816534E+03  0.17300000000E+03 0. -1.
<mgrwt>
<rscale>  2 0.18209684E+03</rscale>
<asrwt>0</asrwt>
<pdfrwt beam="1">  1       21 0.14590827E-01 0.18209684E+03</pdfrwt>
<pdfrwt beam="2">  1       21 0.10035139E+00 0.18209684E+03</pdfrwt>
<totfact> 0.33780495E+04</totfact>
</mgrwt>
</event>
<event>
 4    1  0.3945627E+000  0.1858921E+03  0.7546771E-02  0.1162219E+00
         21   -1    0    0  503  502  0.00000000000E+00  0.00000000000E+00  0.22450312377E+03  0.22450312377E+03  0.00000000000E+00 0. -1.
         21   -1    0    0  501  503 -0.00000000000E+00 -0.00000000000E+00 -0.15631473828E+03  0.15631473828E+03  0.00000000000E+00 0. -1.
          6    1    1    2  501    0  0.29910242407E+02 -0.61092203981E+02  0.10534411218E+02  0.18619036980E+03  0.17300000000E+03 0. -1.
         -6    1    1    2    0  502 -0.29910242407E+02  0.61092203981E+02  0.57653974275E+02  0.19462749225E+03  0.17300000000E+03 0. -1.
<mgrwt>
<rscale>  2 0.18589212E+03</rscale>
<asrwt>0</asrwt>
<pdfrwt beam="1">  1       21 0.34538942E-01 0.18589212E+03</pdfrwt>
<pdfrwt beam="2">  1       21 0.24048421E-01 0.18589212E+03</pdfrwt>
<totfact> 0.13206374E+05</totfact>
</mgrwt>
</event>
<event>
 4    1  0.3945627E+000  0.3100141E+03  0.7546771E-02  0.1080339E+00
         21   -1    0    0  501  502  0.00000000000E+00  0.00000000000E+00  0.37297439610E+03  0.37297439610E+03  0.00000000000E+00 0. -1.
         21   -1    0    0  502  503 -0.00000000000E+00 -0.00000000000E+00 -0.25776383830E+03  0.25776383830E+03  0.00000000000E+00 0.  1.
          6    1    1    2  501    0 -0.22387548530E+03  0.12672619007E+03  0.63227225680E+02  0.31639602121E+03  0.17300000000E+03 0. -1.
         -6    1    1    2    0  503  0.22387548530E+03 -0.12672619007E+03  0.51983332119E+02  0.31434221318E+03  0.17300000000E+03 0.  1.
<mgrwt>
<rscale>  2 0.31001413E+03</rscale>
<asrwt>0</asrwt>
<pdfrwt beam="1">  1       21 0.57380676E-01 0.31001413E+03</pdfrwt>
<pdfrwt beam="2">  1       21 0.39655975E-01 0.31001413E+03</pdfrwt>
<totfact> 0.16473061E+04</totfact>
</mgrwt>
</event>
<event>
 4    1  0.3945627E+000  0.2208865E+03  0.7546771E-02  0.1133224E+00
         21   -1    0    0  501  502  0.00000000000E+00  0.00000000000E+00  0.54666401696E+03  0.54666401696E+03  0.00000000000E+00 0. -1.
         21   -1    0    0  502  503 -0.00000000000E+00 -0.00000000000E+00 -0.17740970190E+03  0.17740970190E+03  0.00000000000E+00 0. -1.
          6    1    1    2  501    0 -0.12357410321E+03  0.59927515591E+02  0.43983510473E+03  0.49218470666E+03  0.17300000000E+03 0. -1.
         -6    1    1    2    0  503  0.12357410321E+03 -0.59927515591E+02 -0.70580789669E+02  0.23188901220E+03  0.17300000000E+03 0. -1.
<mgrwt>
<rscale>  2 0.22088655E+03</rscale>
<asrwt>0</asrwt>
<pdfrwt beam="1">  1       21 0.84102156E-01 0.22088655E+03</pdfrwt>
<pdfrwt beam="2">  1       21 0.27293801E-01 0.22088655E+03</pdfrwt>
<totfact> 0.15440722E+04</totfact>
</mgrwt>
</event>
<event>
 4    1  0.3945627E+000  0.1920959E+03  0.7546771E-02  0.1156584E+00
         21   -1    0    0  503  502  0.00000000000E+00  0.00000000000E+00  0.10582951532E+03  0.10582951532E+03  0.00000000000E+00 0.  1.
         21   -1    0    0  501  503 -0.00000000000E+00 -0.00000000000E+00 -0.37519335431E+03  0.37519335431E+03  0.00000000000E+00 0. -1.
          6    1    1    2  501    0 -0.82516721812E+02  0.12760272679E+02 -0.70748912215E+02  0.20471014268E+03  0.17300000000E+03 0.  1.
         -6    1    1    2    0  502  0.82516721812E+02 -0.12760272679E+02 -0.19861492678E+03  0.27631272695E+03  0.17300000000E+03 0. -1.
<mgrwt>
<rscale>  2 0.19209590E+03</rscale>
<asrwt>0</asrwt>
<pdfrwt beam="1">  1       21 0.16281464E-01 0.19209590E+03</pdfrwt>
<pdfrwt beam="2">  1       21 0.57722055E-01 0.19209590E+03</pdfrwt>
<totfact> 0.95094065E+04</totfact>
</mgrwt>
</event>
<event>
 4    1  0.3945627E+000  0.1870138E+03  0.7546771E-02  0.1161183E+00
         21   -1    0    0  503  502  0.00000000000E+00  0.00000000000E+00  0.96366719910E+02  0.96366719910E+02  0.00000000000E+00 0. -1.
         21   -1    0    0  501  503 -0.00000000000E+00 -0.00000000000E+00 -0.36513393527E+03  0.36513393527E+03  0.00000000000E+00 0.  1.
          6    1    1    2  501    0 -0.70936256310E+02 -0.36367630712E+01 -0.11644804194E+03  0.22030507251E+03  0.17300000000E+03 0. -1.
         -6    1    1    2    0  502  0.70936256310E+02  0.36367630712E+01 -0.15231917342E+03  0.24119558267E+03  0.17300000000E+03 0.  1.
<mgrwt>
<rscale>  2 0.18701385E+03</rscale>
<asrwt>0</asrwt>
<pdfrwt beam="1">  1       21 0.14825650E-01 0.18701385E+03</pdfrwt>
<pdfrwt beam="2">  1       21 0.56174450E-01 0.18701385E+03</pdfrwt>
<totfact> 0.11975960E+05</totfact>
</mgrwt>
</event>
<event>
 4    1  0.3945627E+000  0.1743932E+03  0.7546771E-02  0.1173342E+00
         21   -1    0    0  501  502  0.00000000000E+00  0.00000000000E+00  0.14317127696E+03  0.14317127696E+03  0.00000000000E+00 0.  1.
         21   -1    0    0  502  503 -0.00000000000E+00 -0.00000000000E+00 -0.35215890652E+03  0.35215890652E+03  0.00000000000E+00 0.  1.
          6    1    1    2  501    0  0.13732128510E+02  0.17187970227E+02  0.51514629139E+02  0.18184266466E+03  0.17300000000E+03 0.  1.
         -6    1    1    2    0  503 -0.13732128510E+02 -0.17187970227E+02 -0.26050225870E+03  0.31348751883E+03  0.17300000000E+03 0.  1.
<mgrwt>
<rscale>  2 0.17439323E+03</rscale>
<asrwt>0</asrwt>
<pdfrwt beam="1">  1       21 0.22026350E-01 0.17439323E+03</pdfrwt>
<pdfrwt beam="2">  1       21 0.54178294E-01 0.17439323E+03</pdfrwt>
<totfact> 0.62525031E+04</totfact>
</mgrwt>
</event>
<event>
 4    1  0.3945627E+000  0.5522325E+03  0.7546771E-02  0.1000979E+00
         21   -1    0    0  501  502  0.00000000000E+00  0.00000000000E+00  0.18372926708E+04  0.18372926708E+04  0.00000000000E+00 0.  1.
         21   -1    0    0  502  503 -0.00000000000E+00 -0.00000000000E+00 -0.18612892731E+03  0.18612892731E+03  0.00000000000E+00 0. -1.
          6    1    1    2  501    0 -0.51301932700E+03  0.10882486224E+03  0.49274205794E+03  0.74010500348E+03  0.17300000000E+03 0. -1.
         -6    1    1    2    0  503  0.51301932700E+03 -0.10882486224E+03  0.11584216856E+04  0.12833165947E+04  0.17300000000E+03 0.  1.
<mgrwt>
<rscale>  2 0.55223245E+03</rscale>
<asrwt>0</asrwt>
<pdfrwt beam="1">  1       21 0.28266040E+00 0.55223245E+03</pdfrwt>
<pdfrwt beam="2">  1       21 0.28635221E-01 0.55223245E+03</pdfrwt>
<totfact> 0.37994257E+02</totfact>
</mgrwt>
</event>
<event>
 4    1  0.3945627E+000  0.1797252E+03  0.7546771E-02  0.1168069E+00
         21   -1    0    0  503  502  0.00000000000E+00  0.00000000000E+00  0.80883273733E+02  0.80883273733E+02  0.00000000000E+00 0.  1.
         21   -1    0    0  501  503 -0.00000000000E+00 -0.00000000000E+00 -0.61395157037E+03  0.61395157037E+03  0.00000000000E+00 0.  1.
          6    1    1    2  501    0 -0.14966257252E+02  0.46348061733E+02 -0.47193206101E+03  0.50499604146E+03  0.17300000000E+03 0.  1.
         -6    1    1    2    0  502  0.14966257252E+02 -0.46348061733E+02 -0.61136235629E+02  0.18983880264E+03  0.17300000000E+03 0.  1.
<mgrwt>
<rscale>  2 0.17972516E+03</rscale>
<asrwt>0</asrwt>
<pdfrwt beam="1">  1       21 0.12443581E-01 0.17972516E+03</pdfrwt>
<pdfrwt beam="2">  1       21 0.94454088E-01 0.17972516E+03</pdfrwt>
<totfact> 0.51957157E+04</totfact>
</mgrwt>
</event>
<event>
 4    1  0.3945627E+000  0.1739940E+03  0.7546771E-02  0.1173746E+00
         21   -1    0    0  501  502  0.00000000000E+00  0.00000000000E+00  0.19964122897E+04  0.19964122897E+04  0.00000000000E+00 0. -1.
         21   -1    0    0  502  503 -0.00000000000E+00 -0.00000000000E+00 -0.39360966240E+02  0.39360966240E+02  0.00000000000E+00 0. -1.
          6    1    1    2  501    0  0.81558962828E+01 -0.16684756294E+02  0.17766041913E+04  0.17851040173E+04  0.17300000000E+03 0. -1.
         -6    1    1    2    0  503 -0.81558962828E+01  0.16684756294E+02  0.18044713215E+03  0.25066923872E+03  0.17300000000E+03 0. -1.
<mgrwt>
<rscale>  2 0.17399396E+03</rscale>
<asrwt>0</asrwt>
<pdfrwt beam="1">  1       21 0.30714027E+00 0.17399396E+03</pdfrwt>
<pdfrwt beam="2">  1       21 0.60555348E-02 0.17399396E+03</pdfrwt>
<totfact> 0.61641649E+03</totfact>
</mgrwt>
</event>
<event>
 4    1  0.3945627E+000  0.2198035E+03  0.7546771E-02  0.1134030E+00
         21   -1    0    0  503  502  0.00000000000E+00  0.00000000000E+00  0.49769889596E+03  0.49769889596E+03  0.00000000000E+00 0.  1.
         21   -1    0    0  501  503 -0.00000000000E+00 -0.00000000000E+00 -0.12099074648E+03  0.12099074648E+03  0.00000000000E+00 0. -1.
          6    1    1    2  501    0 -0.99097389508E+02  0.92543413706E+02  0.32589079754E+03  0.39308826992E+03  0.17300000000E+03 0.  1.
         -6    1    1    2    0  502  0.99097389508E+02 -0.92543413706E+02  0.50817351942E+02  0.22560137253E+03  0.17300000000E+03 0.  1.
<mgrwt>
<rscale>  2 0.21980349E+03</rscale>
<asrwt>0</asrwt>
<pdfrwt beam="1">  1       21 0.76569060E-01 0.21980349E+03</pdfrwt>
<pdfrwt beam="2">  1       21 0.18613961E-01 0.21980349E+03</pdfrwt>
<totfact> 0.39500161E+04</totfact>
</mgrwt>
</event>
<event>
 4    1  0.3945627E+000  0.1779473E+03  0.7546771E-02  0.1169805E+00
         21   -1    0    0  501  502  0.00000000000E+00  0.00000000000E+00  0.35267678896E+03  0.35267678896E+03  0.00000000000E+00 0. -1.
         21   -1    0    0  502  503 -0.00000000000E+00 -0.00000000000E+00 -0.17853412185E+03  0.17853412185E+03  0.00000000000E+00 0. -1.
          6    1    1    2  501    0 -0.41580205743E+02  0.27066121439E+01  0.27433664647E+03  0.32699516029E+03  0.17300000000E+03 0. -1.
         -6    1    1    2    0  503  0.41580205743E+02 -0.27066121439E+01 -0.10019397936E+03  0.20421575052E+03  0.17300000000E+03 0. -1.
<mgrwt>
<rscale>  2 0.17794729E+03</rscale>
<asrwt>0</asrwt>
<pdfrwt beam="1">  1       21 0.54257967E-01 0.17794729E+03</pdfrwt>
<pdfrwt beam="2">  1       21 0.27466788E-01 0.17794729E+03</pdfrwt>
<totfact> 0.40889699E+04</totfact>
</mgrwt>
</event>
<event>
 4    1  0.3945627E+000  0.1854022E+03  0.7546771E-02  0.1162675E+00
         21   -1    0    0  503  502  0.00000000000E+00  0.00000000000E+00  0.60864564209E+03  0.60864564209E+03  0.00000000000E+00 0.  1.
         21   -1    0    0  501  503 -0.00000000000E+00 -0.00000000000E+00 -0.82199582679E+02  0.82199582679E+02  0.00000000000E+00 0. -1.
          6    1    1    2  501    0 -0.37728820645E+02 -0.54968235268E+02  0.69990470636E+02  0.19817324939E+03  0.17300000000E+03 0. -1.
         -6    1    1    2    0  502  0.37728820645E+02  0.54968235268E+02  0.45645558878E+03  0.49267197538E+03  0.17300000000E+03 0.  1.
<mgrwt>
<rscale>  2 0.18540219E+03</rscale>
<asrwt>0</asrwt>
<pdfrwt beam="1">  1       21 0.93637788E-01 0.18540219E+03</pdfrwt>
<pdfrwt beam="2">  1       21 0.12646090E-01 0.18540219E+03</pdfrwt>
<totfact> 0.51363109E+04</totfact>
</mgrwt>
</event>
<event>
 4    1  0.3945627E+000  0.1964517E+03  0.7546771E-02  0.1152768E+00
         21   -1    0    0  501  502  0.00000000000E+00  0.00000000000E+00  0.26333635964E+03  0.26333635964E+03  0.00000000000E+00 0.  1.
         21   -1    0    0  502  503 -0.00000000000E+00 -0.00000000000E+00 -0.14715075612E+03  0.14715075612E+03  0.00000000000E+00 0.  1.
          6    1    1    2  501    0  0.22604704178E+02 -0.90295530561E+02  0.71152376786E+02  0.20893998232E+03  0.17300000000E+03 0.  1.
         -6    1    1    2    0  503 -0.22604704178E+02  0.90295530561E+02  0.45033226733E+02  0.20154713345E+03  0.17300000000E+03 0.  1.
<mgrwt>
<rscale>  2 0.19645166E+03</rscale>
<asrwt>0</asrwt>
<pdfrwt beam="1">  1       21 0.40513286E-01 0.19645166E+03</pdfrwt>
<pdfrwt beam="2">  1       21 0.22638578E-01 0.19645166E+03</pdfrwt>
<totfact> 0.10719798E+05</totfact>
</mgrwt>
</event>
<event>
 4    1  0.3945627E+000  0.2156122E+03  0.7546771E-02  0.1137197E+00
         21   -1    0    0  501  502  0.00000000000E+00  0.00000000000E+00  0.78756876282E+03  0.78756876282E+03  0.00000000000E+00 0. -1.
         21   -1    0    0  502  503 -0.00000000000E+00 -0.00000000000E+00 -0.60139712033E+02  0.60139712033E+02  0.00000000000E+00 0.  1.
          6    1    1    2  501    0  0.89822876480E+02  0.92149223755E+02  0.30608737591E+03  0.37440367288E+03  0.17300000000E+03 0.  1.
         -6    1    1    2    0  503 -0.89822876480E+02 -0.92149223755E+02  0.42134167488E+03  0.47330480197E+03  0.17300000000E+03 0. -1.
<mgrwt>
<rscale>  2 0.21561222E+03</rscale>
<asrwt>0</asrwt>
<pdfrwt beam="1">  1       21 0.12116442E+00 0.21561222E+03</pdfrwt>
<pdfrwt beam="2">  1       21 0.92522640E-02 0.21561222E+03</pdfrwt>
<totfact> 0.47399710E+04</totfact>
</mgrwt>
</event>
<event>
 4    1  0.3945627E+000  0.1757105E+03  0.7546771E-02  0.1172020E+00
         21   -1    0    0  501  502  0.00000000000E+00  0.00000000000E+00  0.79050022753E+03  0.79050022753E+03  0.00000000000E+00 0.  1.
         21   -1    0    0  502  503 -0.00000000000E+00 -0.00000000000E+00 -0.51912348297E+02  0.51912348297E+02  0.00000000000E+00 0.  1.
          6    1    1    2  501    0  0.97049119968E+01  0.29172063883E+02  0.57890268440E+03  0.60498141511E+03  0.17300000000E+03 0.  1.
         -6    1    1    2    0  503 -0.97049119968E+01 -0.29172063883E+02  0.15968519483E+03  0.23743116071E+03  0.17300000000E+03 0.  1.
<mgrwt>
<rscale>  2 0.17571054E+03</rscale>
<asrwt>0</asrwt>
<pdfrwt beam="1">  1       21 0.12161541E+00 0.17571054E+03</pdfrwt>
<pdfrwt beam="2">  1       21 0.79865157E-02 0.17571054E+03</pdfrwt>
<totfact> 0.62004689E+04</totfact>
</mgrwt>
</event>
<event>
 4    1  0.3945627E+000  0.3555645E+03  0.7546771E-02  0.1060354E+00
         21   -1    0    0  501  502  0.00000000000E+00  0.00000000000E+00  0.38265952166E+03  0.38265952166E+03  0.00000000000E+00 0.  1.
         21   -1    0    0  502  503 -0.00000000000E+00 -0.00000000000E+00 -0.39357956199E+03  0.39357956199E+03  0.00000000000E+00 0.  1.
          6    1    1    2  501    0  0.19425538059E+03 -0.24240861653E+03  0.15005738446E+03  0.38593174123E+03  0.17300000000E+03 0.  1.
         -6    1    1    2    0  503 -0.19425538059E+03  0.24240861653E+03 -0.16097742479E+03  0.39030734242E+03  0.17300000000E+03 0.  1.
<mgrwt>
<rscale>  2 0.35556447E+03</rscale>
<asrwt>0</asrwt>
<pdfrwt beam="1">  1       21 0.58870696E-01 0.35556447E+03</pdfrwt>
<pdfrwt beam="2">  1       21 0.60550702E-01 0.35556447E+03</pdfrwt>
<totfact> 0.62682230E+03</totfact>
</mgrwt>
</event>
<event>
 4    1  0.3945627E+000  0.1760244E+03  0.7546771E-02  0.1171707E+00
         21   -1    0    0  503  502  0.00000000000E+00  0.00000000000E+00  0.14427380609E+04  0.14427380609E+04  0.00000000000E+00 0.  1.
         21   -1    0    0  501  503 -0.00000000000E+00 -0.00000000000E+00 -0.23048902305E+02  0.23048902305E+02  0.00000000000E+00 0.  1.
          6    1    1    2  501    0  0.17628033550E+01 -0.32441834319E+02  0.90128529670E+03  0.91831354456E+03  0.17300000000E+03 0.  1.
         -6    1    1    2    0  502 -0.17628033550E+01  0.32441834319E+02  0.51840386194E+03  0.54747341868E+03  0.17300000000E+03 0.  1.
<mgrwt>
<rscale>  2 0.17602437E+03</rscale>
<asrwt>0</asrwt>
<pdfrwt beam="1">  1       21 0.22195963E+00 0.17602437E+03</pdfrwt>
<pdfrwt beam="2">  1       21 0.35459861E-02 0.17602437E+03</pdfrwt>
<totfact> 0.47469118E+04</totfact>
</mgrwt>
</event>
<event>
 4    1  0.3945627E+000  0.3431438E+03  0.7546771E-02  0.1065465E+00
         21   -1    0    0  503  502  0.00000000000E+00  0.00000000000E+00  0.36297540090E+03  0.36297540090E+03  0.00000000000E+00 0. -1.
         21   -1    0    0  501  503 -0.00000000000E+00 -0.00000000000E+00 -0.67802560651E+03  0.67802560651E+03  0.00000000000E+00 0.  1.
          6    1    1    2  501    0 -0.25843192128E+03  0.14502282792E+03 -0.53342531136E+03  0.63426354250E+03  0.17300000000E+03 0.  1.
         -6    1    1    2    0  502  0.25843192128E+03 -0.14502282792E+03  0.21837510574E+03  0.40673746491E+03  0.17300000000E+03 0. -1.
<mgrwt>
<rscale>  2 0.34314382E+03</rscale>
<asrwt>0</asrwt>
<pdfrwt beam="1">  1       21 0.55842369E-01 0.34314382E+03</pdfrwt>
<pdfrwt beam="2">  1       21 0.10431163E+00 0.34314382E+03</pdfrwt>
<totfact> 0.20238134E+03</totfact>
</mgrwt>
</event>
<event>
 4    1  0.3945627E+000  0.1831839E+03  0.7546771E-02  0.1164757E+00
         21   -1    0    0  503  502  0.00000000000E+00  0.00000000000E+00  0.11298485232E+03  0.11298485232E+03  0.00000000000E+00 0. -1.
         21   -1    0    0  501  503 -0.00000000000E+00 -0.00000000000E+00 -0.35055484381E+03  0.35055484381E+03  0.00000000000E+00 0.  1.
          6    1    1    2  501    0 -0.53935665310E+02  0.26800675030E+02 -0.20937585770E+03  0.27819881733E+03  0.17300000000E+03 0.  1.
         -6    1    1    2    0  502  0.53935665310E+02 -0.26800675030E+02 -0.28194133784E+02  0.18534087880E+03  0.17300000000E+03 0. -1.
<mgrwt>
<rscale>  2 0.18318388E+03</rscale>
<asrwt>0</asrwt>
<pdfrwt beam="1">  1       21 0.17382285E-01 0.18318388E+03</pdfrwt>
<pdfrwt beam="2">  1       21 0.53931514E-01 0.18318388E+03</pdfrwt>
<totfact> 0.97709188E+04</totfact>
</mgrwt>
</event>
<event>
 4    1  0.3945627E+000  0.2080336E+03  0.7546771E-02  0.1143133E+00
         21   -1    0    0  503  502  0.00000000000E+00  0.00000000000E+00  0.34993928602E+03  0.34993928602E+03  0.00000000000E+00 0.  1.
         21   -1    0    0  501  503 -0.00000000000E+00 -0.00000000000E+00 -0.16330689033E+03  0.16330689033E+03  0.00000000000E+00 0.  1.
          6    1    1    2  501    0  0.78829333219E-01 -0.11553776046E+03 -0.33107293379E+02  0.21065154445E+03  0.17300000000E+03 0.  1.
         -6    1    1    2    0  502 -0.78829333219E-01  0.11553776046E+03  0.21973968906E+03  0.30259463190E+03  0.17300000000E+03 0.  1.
<mgrwt>
<rscale>  2 0.20803360E+03</rscale>
<asrwt>0</asrwt>
<pdfrwt beam="1">  1       21 0.53836813E-01 0.20803360E+03</pdfrwt>
<pdfrwt beam="2">  1       21 0.25124137E-01 0.20803360E+03</pdfrwt>
<totfact> 0.48594536E+04</totfact>
</mgrwt>
</event>
<event>
 4    1  0.3945627E+000  0.3542478E+03  0.7546771E-02  0.1060885E+00
         21   -1    0    0  501  502  0.00000000000E+00  0.00000000000E+00  0.34220270639E+03  0.34220270639E+03  0.00000000000E+00 0.  1.
         21   -1    0    0  502  503 -0.00000000000E+00 -0.00000000000E+00 -0.36749456084E+03  0.36749456084E+03  0.00000000000E+00 0. -1.
          6    1    1    2  501    0  0.26242523241E+03  0.16338766418E+03  0.36770711981E+01  0.35426692234E+03  0.17300000000E+03 0. -1.
         -6    1    1    2    0  503 -0.26242523241E+03 -0.16338766418E+03 -0.28968925643E+02  0.35543034489E+03  0.17300000000E+03 0. -1.
<mgrwt>
<rscale>  2 0.35424784E+03</rscale>
<asrwt>0</asrwt>
<pdfrwt beam="1">  1       21 0.52646570E-01 0.35424784E+03</pdfrwt>
<pdfrwt beam="2">  1       21 0.56537624E-01 0.35424784E+03</pdfrwt>
<totfact> 0.92564566E+03</totfact>
</mgrwt>
</event>
<event>
 4    1  0.3945627E+000  0.1730710E+03  0.7546771E-02  0.1174683E+00
         21   -1    0    0  501  502  0.00000000000E+00  0.00000000000E+00  0.49371578920E+03  0.49371578920E+03  0.00000000000E+00 0.  1.
         21   -1    0    0  502  503 -0.00000000000E+00 -0.00000000000E+00 -0.22677481623E+03  0.22677481623E+03  0.00000000000E+00 0.  1.
          6    1    1    2  501    0 -0.48739866163E+01 -0.89700300124E+00  0.44178395347E+03  0.47447510146E+03  0.17300000000E+03 0.  1.
         -6    1    1    2    0  503  0.48739866163E+01  0.89700300124E+00 -0.17484298051E+03  0.24601550397E+03  0.17300000000E+03 0.  1.
<mgrwt>
<rscale>  2 0.17307097E+03</rscale>
<asrwt>0</asrwt>
<pdfrwt beam="1">  1       21 0.75956275E-01 0.17307097E+03</pdfrwt>
<pdfrwt beam="2">  1       21 0.34888433E-01 0.17307097E+03</pdfrwt>
<totfact> 0.12403525E+04</totfact>
</mgrwt>
</event>
<event>
 4    1  0.3945627E+000  0.1995314E+03  0.7546771E-02  0.1150135E+00
         21   -1    0    0  503  502  0.00000000000E+00  0.00000000000E+00  0.73634697420E+02  0.73634697420E+02  0.00000000000E+00 0. -1.
         21   -1    0    0  501  503 -0.00000000000E+00 -0.00000000000E+00 -0.81192776740E+03  0.81192776740E+03  0.00000000000E+00 0. -1.
          6    1    1    2  501    0 -0.36612592520E+02  0.92429891878E+02 -0.62507231957E+03  0.65614645586E+03  0.17300000000E+03 0. -1.
         -6    1    1    2    0  502  0.36612592520E+02 -0.92429891878E+02 -0.11322075041E+03  0.22941600896E+03  0.17300000000E+03 0. -1.
<mgrwt>
<rscale>  2 0.19953137E+03</rscale>
<asrwt>0</asrwt>
<pdfrwt beam="1">  1       21 0.11328416E-01 0.19953137E+03</pdfrwt>
<pdfrwt beam="2">  1       21 0.12491196E+00 0.19953137E+03</pdfrwt>
<totfact> 0.30952385E+04</totfact>
</mgrwt>
</event>
<event>
 4    1  0.3945627E+000  0.2528825E+03  0.7546771E-02  0.1111497E+00
         21   -1    0    0  501  502  0.00000000000E+00  0.00000000000E+00  0.72260626784E+03  0.72260626784E+03  0.00000000000E+00 0.  1.
         21   -1    0    0  502  503 -0.00000000000E+00 -0.00000000000E+00 -0.91642403792E+02  0.91642403792E+02  0.00000000000E+00 0.  1.
          6    1    1    2  501    0 -0.15768898269E+03  0.95680532597E+02  0.39088909658E+03  0.46555758549E+03  0.17300000000E+03 0.  1.
         -6    1    1    2    0  503  0.15768898269E+03 -0.95680532597E+02  0.24007476747E+03  0.34869108614E+03  0.17300000000E+03 0.  1.
<mgrwt>
<rscale>  2 0.25288254E+03</rscale>
<asrwt>0</asrwt>
<pdfrwt beam="1">  1       21 0.11117019E+00 0.25288254E+03</pdfrwt>
<pdfrwt beam="2">  1       21 0.14098832E-01 0.25288254E+03</pdfrwt>
<totfact> 0.27057100E+04</totfact>
</mgrwt>
</event>
<event>
 4    1  0.3945627E+000  0.2082791E+03  0.7546771E-02  0.1142936E+00
         21   -1    0    0  501  502  0.00000000000E+00  0.00000000000E+00  0.22265972389E+03  0.22265972389E+03  0.00000000000E+00 0. -1.
         21   -1    0    0  502  503 -0.00000000000E+00 -0.00000000000E+00 -0.22495822483E+03  0.22495822483E+03  0.00000000000E+00 0.  1.
          6    1    1    2  501    0 -0.54940783926E+02 -0.10214053170E+03  0.80760060214E+02  0.22338837320E+03  0.17300000000E+03 0. -1.
         -6    1    1    2    0  503  0.54940783926E+02  0.10214053170E+03 -0.83058561155E+02  0.22422957552E+03  0.17300000000E+03 0.  1.
<mgrwt>
<rscale>  2 0.20827909E+03</rscale>
<asrwt>0</asrwt>
<pdfrwt beam="1">  1       21 0.34255342E-01 0.20827909E+03</pdfrwt>
<pdfrwt beam="2">  1       21 0.34608958E-01 0.20827909E+03</pdfrwt>
<totfact> 0.65616566E+04</totfact>
</mgrwt>
</event>
<event>
 4    1  0.3945627E+000  0.3503440E+03  0.7546771E-02  0.1062474E+00
         21   -1    0    0  501  502  0.00000000000E+00  0.00000000000E+00  0.37989645969E+03  0.37989645969E+03  0.00000000000E+00 0. -1.
         21   -1    0    0  502  503 -0.00000000000E+00 -0.00000000000E+00 -0.33619324991E+03  0.33619324991E+03  0.00000000000E+00 0.  1.
          6    1    1    2  501    0 -0.89214914573E+02 -0.29129477428E+03 -0.48832824827E+02  0.35373095890E+03  0.17300000000E+03 0. -1.
         -6    1    1    2    0  503  0.89214914573E+02  0.29129477428E+03  0.92536034605E+02  0.36235875070E+03  0.17300000000E+03 0.  1.
<mgrwt>
<rscale>  2 0.35034404E+03</rscale>
<asrwt>0</asrwt>
<pdfrwt beam="1">  1       21 0.58445609E-01 0.35034404E+03</pdfrwt>
<pdfrwt beam="2">  1       21 0.51722038E-01 0.35034404E+03</pdfrwt>
<totfact> 0.89597631E+03</totfact>
</mgrwt>
</event>
<event>
 4    1  0.3945627E+000  0.1973647E+03  0.7546771E-02  0.1151982E+00
         21   -1    0    0  503  502  0.00000000000E+00  0.00000000000E+00  0.38714817164E+02  0.38714817164E+02  0.00000000000E+00 0. -1.
         21   -1    0    0  501  503 -0.00000000000E+00 -0.00000000000E+00 -0.16100048280E+04  0.16100048280E+04  0.00000000000E+00 0. -1.
          6    1    1    2  501    0  0.70972782183E+02  0.63140115104E+02 -0.12905044199E+04  0.13055092752E+04  0.17300000000E+03 0. -1.
         -6    1    1    2    0  502 -0.70972782183E+02 -0.63140115104E+02 -0.28078559091E+03  0.34321036990E+03  0.17300000000E+03 0. -1.
<mgrwt>
<rscale>  2 0.19736466E+03</rscale>
<asrwt>0</asrwt>
<pdfrwt beam="1">  1       21 0.59561265E-02 0.19736466E+03</pdfrwt>
<pdfrwt beam="2">  1       21 0.24769302E+00 0.19736466E+03</pdfrwt>
<totfact> 0.13640171E+04</totfact>
</mgrwt>
</event>
<event>
 4    1  0.3945627E+000  0.1733262E+03  0.7546771E-02  0.1174423E+00
         21   -1    0    0  501  502  0.00000000000E+00  0.00000000000E+00  0.14693938777E+03  0.14693938777E+03  0.00000000000E+00 0. -1.
         21   -1    0    0  502  503 -0.00000000000E+00 -0.00000000000E+00 -0.33189261771E+03  0.33189261771E+03  0.00000000000E+00 0. -1.
          6    1    1    2  501    0 -0.23781967254E+01 -0.10358928035E+02  0.55880828034E+02  0.18211158709E+03  0.17300000000E+03 0. -1.
         -6    1    1    2    0  503  0.23781967254E+01  0.10358928035E+02 -0.24083405798E+03  0.29672041839E+03  0.17300000000E+03 0. -1.
<mgrwt>
<rscale>  2 0.17332618E+03</rscale>
<asrwt>0</asrwt>
<pdfrwt beam="1">  1       21 0.22606060E-01 0.17332618E+03</pdfrwt>
<pdfrwt beam="2">  1       21 0.51060402E-01 0.17332618E+03</pdfrwt>
<totfact> 0.67447555E+04</totfact>
</mgrwt>
</event>
<event>
 4    1  0.3945627E+000  0.2147794E+03  0.7546771E-02  0.1137836E+00
         21   -1    0    0  501  502  0.00000000000E+00  0.00000000000E+00  0.23596806778E+02  0.23596806778E+02  0.00000000000E+00 0.  1.
         21   -1    0    0  502  503 -0.00000000000E+00 -0.00000000000E+00 -0.21324943616E+04  0.21324943616E+04  0.00000000000E+00 0.  1.
          6    1    1    2  501    0  0.12254003889E+03  0.34425971059E+02 -0.74337332888E+03  0.77377911235E+03  0.17300000000E+03 0.  1.
         -6    1    1    2    0  503 -0.12254003889E+03 -0.34425971059E+02 -0.13655242259E+04  0.13823120560E+04  0.17300000000E+03 0.  1.
<mgrwt>
<rscale>  2 0.21477944E+03</rscale>
<asrwt>0</asrwt>
<pdfrwt beam="1">  1       21 0.36302780E-02 0.21477944E+03</pdfrwt>
<pdfrwt beam="2">  1       21 0.32807606E+00 0.21477944E+03</pdfrwt>
<totfact> 0.10572302E+04</totfact>
</mgrwt>
</event>
<event>
 4    1  0.3945627E+000  0.1799281E+03  0.7546771E-02  0.1167873E+00
         21   -1    0    0  501  502  0.00000000000E+00  0.00000000000E+00  0.47383441831E+03  0.47383441831E+03  0.00000000000E+00 0.  1.
         21   -1    0    0  502  503 -0.00000000000E+00 -0.00000000000E+00 -0.10253764045E+03  0.10253764045E+03  0.00000000000E+00 0. -1.
          6    1    1    2  501    0  0.23174416468E+02  0.43681481567E+02  0.35211715001E+03  0.39542459805E+03  0.17300000000E+03 0.  1.
         -6    1    1    2    0  503 -0.23174416468E+02 -0.43681481567E+02  0.19179627850E+02  0.18094746070E+03  0.17300000000E+03 0. -1.
<mgrwt>
<rscale>  2 0.17992811E+03</rscale>
<asrwt>0</asrwt>
<pdfrwt beam="1">  1       21 0.72897602E-01 0.17992811E+03</pdfrwt>
<pdfrwt beam="2">  1       21 0.15775022E-01 0.17992811E+03</pdfrwt>
<totfact> 0.60962471E+04</totfact>
</mgrwt>
</event>
<event>
 4    1  0.3945627E+000  0.1978883E+03  0.7546771E-02  0.1151533E+00
         21   -1    0    0  503  502  0.00000000000E+00  0.00000000000E+00  0.31757138569E+02  0.31757138569E+02  0.00000000000E+00 0. -1.
         21   -1    0    0  501  503 -0.00000000000E+00 -0.00000000000E+00 -0.16578647512E+04  0.16578647512E+04  0.00000000000E+00 0. -1.
          6    1    1    2  501    0 -0.45732792555E+02 -0.84494396610E+02 -0.12406739850E+04  0.12563565292E+04  0.17300000000E+03 0.  1.
         -6    1    1    2    0  502  0.45732792555E+02  0.84494396610E+02 -0.38543362764E+03  0.43326536059E+03  0.17300000000E+03 0.  1.
<mgrwt>
<rscale>  2 0.19788833E+03</rscale>
<asrwt>0</asrwt>
<pdfrwt beam="1">  1       21 0.48857130E-02 0.19788833E+03</pdfrwt>
<pdfrwt beam="2">  1       21 0.25505615E+00 0.19788833E+03</pdfrwt>
<totfact> 0.17290859E+04</totfact>
</mgrwt>
</event>
<event>
 4    1  0.3945627E+000  0.1987967E+03  0.7546771E-02  0.1150758E+00
         21   -1    0    0  501  502  0.00000000000E+00  0.00000000000E+00  0.61730017904E+02  0.61730017904E+02  0.00000000000E+00 0. -1.
         21   -1    0    0  502  503 -0.00000000000E+00 -0.00000000000E+00 -0.67092957255E+03  0.67092957255E+03  0.00000000000E+00 0.  1.
          6    1    1    2  501    0 -0.25905584149E+02 -0.94445951374E+02 -0.22621248165E+03  0.30115149655E+03  0.17300000000E+03 0.  1.
         -6    1    1    2    0  503  0.25905584149E+02  0.94445951374E+02 -0.38298707299E+03  0.43150809390E+03  0.17300000000E+03 0.  1.
<mgrwt>
<rscale>  2 0.19879672E+03</rscale>
<asrwt>0</asrwt>
<pdfrwt beam="1">  1       21 0.94969260E-02 0.19879672E+03</pdfrwt>
<pdfrwt beam="2">  1       21 0.10321993E+00 0.19879672E+03</pdfrwt>
<totfact> 0.67452949E+04</totfact>
</mgrwt>
</event>
<event>
 4    1  0.3945627E+000  0.1875627E+03  0.7546771E-02  0.1160678E+00
         21   -1    0    0  503  502  0.00000000000E+00  0.00000000000E+00  0.16383470406E+03  0.16383470406E+03  0.00000000000E+00 0.  1.
         21   -1    0    0  501  503 -0.00000000000E+00 -0.00000000000E+00 -0.23767654805E+03  0.23767654805E+03  0.00000000000E+00 0.  1.
          6    1    1    2  501    0  0.22916192448E+02 -0.68743011972E+02 -0.99303098978E+02  0.21222831818E+03  0.17300000000E+03 0.  1.
         -6    1    1    2    0  502 -0.22916192448E+02  0.68743011972E+02  0.25461254982E+02  0.18928293393E+03  0.17300000000E+03 0.  1.
<mgrwt>
<rscale>  2 0.18756267E+03</rscale>
<asrwt>0</asrwt>
<pdfrwt beam="1">  1       21 0.25205339E-01 0.18756267E+03</pdfrwt>
<pdfrwt beam="2">  1       21 0.36565623E-01 0.18756267E+03</pdfrwt>
<totfact> 0.10776046E+05</totfact>
</mgrwt>
</event>
<event>
 4    1  0.3945627E+000  0.1962820E+03  0.7546771E-02  0.1152914E+00
         21   -1    0    0  503  502  0.00000000000E+00  0.00000000000E+00  0.12799993288E+03  0.12799993288E+03  0.00000000000E+00 0.  1.
         21   -1    0    0  501  503 -0.00000000000E+00 -0.00000000000E+00 -0.72112455443E+03  0.72112455443E+03  0.00000000000E+00 0.  1.
          6    1    1    2  501    0  0.40022734778E+01 -0.92637020464E+02 -0.62062623558E+03  0.65092515702E+03  0.17300000000E+03 0.  1.
         -6    1    1    2    0  502 -0.40022734778E+01  0.92637020464E+02  0.27501614035E+02  0.19819933029E+03  0.17300000000E+03 0.  1.
<mgrwt>
<rscale>  2 0.19628203E+03</rscale>
<asrwt>0</asrwt>
<pdfrwt beam="1">  1       21 0.19692297E-01 0.19628203E+03</pdfrwt>
<pdfrwt beam="2">  1       21 0.11094224E+00 0.19628203E+03</pdfrwt>
<totfact> 0.15164684E+04</totfact>
</mgrwt>
</event>
<event>
 4    1  0.3945627E+000  0.2113430E+03  0.7546771E-02  0.1140507E+00
         21   -1    0    0  501  502  0.00000000000E+00  0.00000000000E+00  0.46624273629E+03  0.46624273629E+03  0.00000000000E+00 0.  1.
         21   -1    0    0  502  503 -0.00000000000E+00 -0.00000000000E+00 -0.96880499371E+02  0.96880499371E+02  0.00000000000E+00 0. -1.
          6    1    1    2  501    0  0.39416731920E+01 -0.12133149483E+03  0.15494066672E+03  0.26205434289E+03  0.17300000000E+03 0. -1.
         -6    1    1    2    0  503 -0.39416731920E+01  0.12133149483E+03  0.21442157019E+03  0.30106889276E+03  0.17300000000E+03 0. -1.
<mgrwt>
<rscale>  2 0.21134301E+03</rscale>
<asrwt>0</asrwt>
<pdfrwt beam="1">  1       21 0.71729650E-01 0.21134301E+03</pdfrwt>
<pdfrwt beam="2">  1       21 0.14904693E-01 0.21134301E+03</pdfrwt>
<totfact> 0.69087437E+04</totfact>
</mgrwt>
</event>
<event>
 4    1  0.3945627E+000  0.2118441E+03  0.7546771E-02  0.1140114E+00
         21   -1    0    0  503  502  0.00000000000E+00  0.00000000000E+00  0.32604689731E+03  0.32604689731E+03  0.00000000000E+00 0. -1.
         21   -1    0    0  501  503 -0.00000000000E+00 -0.00000000000E+00 -0.14990816063E+03  0.14990816063E+03  0.00000000000E+00 0. -1.
          6    1    1    2  501    0 -0.10101722283E+02  0.12184771097E+03  0.15614141648E+03  0.26316924479E+03  0.17300000000E+03 0. -1.
         -6    1    1    2    0  502  0.10101722283E+02 -0.12184771097E+03  0.19997320204E+02  0.21278581315E+03  0.17300000000E+03 0. -1.
<mgrwt>
<rscale>  2 0.21184407E+03</rscale>
<asrwt>0</asrwt>
<pdfrwt beam="1">  1       21 0.50161061E-01 0.21184407E+03</pdfrwt>
<pdfrwt beam="2">  1       21 0.23062794E-01 0.21184407E+03</pdfrwt>
<totfact> 0.66257608E+04</totfact>
</mgrwt>
</event>
<event>
 4    1  0.3945627E+000  0.2023807E+03  0.7546771E-02  0.1147746E+00
         21   -1    0    0  503  502  0.00000000000E+00  0.00000000000E+00  0.79084817091E+03  0.79084817091E+03  0.00000000000E+00 0.  1.
         21   -1    0    0  501  503 -0.00000000000E+00 -0.00000000000E+00 -0.75905322131E+02  0.75905322131E+02  0.00000000000E+00 0. -1.
          6    1    1    2  501    0  0.37718039637E+01  0.10495109444E+03  0.11319767441E+03  0.23188719719E+03  0.17300000000E+03 0. -1.
         -6    1    1    2    0  502 -0.37718039637E+01 -0.10495109444E+03  0.60174517436E+03  0.63486629585E+03  0.17300000000E+03 0.  1.
<mgrwt>
<rscale>  2 0.20238073E+03</rscale>
<asrwt>0</asrwt>
<pdfrwt beam="1">  1       21 0.12166894E+00 0.20238073E+03</pdfrwt>
<pdfrwt beam="2">  1       21 0.11677742E-01 0.20238073E+03</pdfrwt>
<totfact> 0.31258197E+04</totfact>
</mgrwt>
</event>
<event>
 4    1  0.3945627E+000  0.2313202E+03  0.7546771E-02  0.1125714E+00
         21   -1    0    0  501  502  0.00000000000E+00  0.00000000000E+00  0.54329323508E+03  0.54329323508E+03  0.00000000000E+00 0.  1.
         21   -1    0    0  502  503 -0.00000000000E+00 -0.00000000000E+00 -0.11495219329E+03  0.11495219329E+03  0.00000000000E+00 0. -1.
          6    1    1    2  501    0 -0.38867693189E+02 -0.14855750086E+03  0.33871978949E+03  0.41017084785E+03  0.17300000000E+03 0.  1.
         -6    1    1    2    0  503  0.38867693189E+02  0.14855750086E+03  0.89621252305E+02  0.24807458052E+03  0.17300000000E+03 0.  1.
<mgrwt>
<rscale>  2 0.23132019E+03</rscale>
<asrwt>0</asrwt>
<pdfrwt beam="1">  1       21 0.83583573E-01 0.23132019E+03</pdfrwt>
<pdfrwt beam="2">  1       21 0.17684953E-01 0.23132019E+03</pdfrwt>
<totfact> 0.35405978E+04</totfact>
</mgrwt>
</event>
<event>
 4    1  0.3945627E+000  0.2133344E+03  0.7546771E-02  0.1138952E+00
         21   -1    0    0  503  502  0.00000000000E+00  0.00000000000E+00  0.38157272072E+03  0.38157272072E+03  0.00000000000E+00 0. -1.
         21   -1    0    0  501  503 -0.00000000000E+00 -0.00000000000E+00 -0.34065222940E+03  0.34065222940E+03  0.00000000000E+00 0. -1.
          6    1    1    2  501    0  0.17149584102E+02 -0.12364647758E+03 -0.27064813055E+03  0.34461858658E+03  0.17300000000E+03 0. -1.
         -6    1    1    2    0  502 -0.17149584102E+02  0.12364647758E+03  0.31156862186E+03  0.37760636353E+03  0.17300000000E+03 0. -1.
<mgrwt>
<rscale>  2 0.21333438E+03</rscale>
<asrwt>0</asrwt>
<pdfrwt beam="1">  1       21 0.58703495E-01 0.21333438E+03</pdfrwt>
<pdfrwt beam="2">  1       21 0.52408035E-01 0.21333438E+03</pdfrwt>
<totfact> 0.92450342E+03</totfact>
</mgrwt>
</event>
<event>
 4    1  0.3945627E+000  0.2394198E+03  0.7546771E-02  0.1120180E+00
         21   -1    0    0  503  502  0.00000000000E+00  0.00000000000E+00  0.14533344963E+03  0.14533344963E+03  0.00000000000E+00 0. -1.
         21   -1    0    0  501  503 -0.00000000000E+00 -0.00000000000E+00 -0.40169530242E+03  0.40169530242E+03  0.00000000000E+00 0. -1.
          6    1    1    2  501    0  0.34929139746E+02 -0.16178012128E+03 -0.16500006904E+03  0.29076945374E+03  0.17300000000E+03 0. -1.
         -6    1    1    2    0  502 -0.34929139746E+02  0.16178012128E+03 -0.91361783748E+02  0.25625929832E+03  0.17300000000E+03 0. -1.
<mgrwt>
<rscale>  2 0.23941982E+03</rscale>
<asrwt>0</asrwt>
<pdfrwt beam="1">  1       21 0.22358992E-01 0.23941982E+03</pdfrwt>
<pdfrwt beam="2">  1       21 0.61799278E-01 0.23941982E+03</pdfrwt>
<totfact> 0.44532942E+04</totfact>
</mgrwt>
</event>
<event>
 4    1  0.3945627E+000  0.3036406E+03  0.7546771E-02  0.1083435E+00
         21   -1    0    0  501  502  0.00000000000E+00  0.00000000000E+00  0.54881633384E+02  0.54881633384E+02  0.00000000000E+00 0.  1.
         21   -1    0    0  502  503 -0.00000000000E+00 -0.00000000000E+00 -0.19604395738E+04  0.19604395738E+04  0.00000000000E+00 0.  1.
          6    1    1    2  501    0 -0.24674580366E+03  0.37217181780E+02 -0.13339387352E+04  0.13680607295E+04  0.17300000000E+03 0.  1.
         -6    1    1    2    0  503  0.24674580366E+03 -0.37217181780E+02 -0.57161920521E+03  0.64726047771E+03  0.17300000000E+03 0.  1.
<mgrwt>
<rscale>  2 0.30364059E+03</rscale>
<asrwt>0</asrwt>
<pdfrwt beam="1">  1       21 0.84433274E-02 0.30364059E+03</pdfrwt>
<pdfrwt beam="2">  1       21 0.30160612E+00 0.30364059E+03</pdfrwt>
<totfact> 0.32836916E+03</totfact>
</mgrwt>
</event>
<event>
 4    1  0.3945627E+000  0.2884736E+03  0.7546771E-02  0.1091149E+00
         21   -1    0    0  503  502  0.00000000000E+00  0.00000000000E+00  0.10380406701E+04  0.10380406701E+04  0.00000000000E+00 0.  1.
         21   -1    0    0  501  503 -0.00000000000E+00 -0.00000000000E+00 -0.10053407920E+03  0.10053407920E+03  0.00000000000E+00 0. -1.
          6    1    1    2  501    0 -0.19877369323E+03  0.11737568167E+03  0.21252038640E+03  0.35830426512E+03  0.17300000000E+03 0. -1.
         -6    1    1    2    0  502  0.19877369323E+03 -0.11737568167E+03  0.72498620446E+03  0.78027048414E+03  0.17300000000E+03 0.  1.
<mgrwt>
<rscale>  2 0.28847362E+03</rscale>
<asrwt>0</asrwt>
<pdfrwt beam="1">  1       21 0.15969856E+00 0.28847362E+03</pdfrwt>
<pdfrwt beam="2">  1       21 0.15466782E-01 0.28847362E+03</pdfrwt>
<totfact> 0.88137217E+03</totfact>
</mgrwt>
</event>
<event>
 4    1  0.3945627E+000  0.1784511E+03  0.7546771E-02  0.1169311E+00
         21   -1    0    0  503  502  0.00000000000E+00  0.00000000000E+00  0.37622303219E+02  0.37622303219E+02  0.00000000000E+00 0.  1.
         21   -1    0    0  501  503 -0.00000000000E+00 -0.00000000000E+00 -0.87941339444E+03  0.87941339444E+03  0.00000000000E+00 0.  1.
          6    1    1    2  501    0 -0.49243484800E+01  0.43491924611E+02 -0.33210207586E+03  0.37701006022E+03  0.17300000000E+03 0. -1.
         -6    1    1    2    0  502  0.49243484800E+01 -0.43491924611E+02 -0.50968901536E+03  0.54002563744E+03  0.17300000000E+03 0. -1.
<mgrwt>
<rscale>  2 0.17845110E+03</rscale>
<asrwt>0</asrwt>
<pdfrwt beam="1">  1       21 0.57880471E-02 0.17845110E+03</pdfrwt>
<pdfrwt beam="2">  1       21 0.13529436E+00 0.17845110E+03</pdfrwt>
<totfact> 0.82475422E+04</totfact>
</mgrwt>
</event>
<event>
 4    1  0.3945627E+000  0.2758529E+03  0.7546771E-02  0.1097976E+00
         21   -1    0    0  501  502  0.00000000000E+00  0.00000000000E+00  0.77707757678E+03  0.77707757678E+03  0.00000000000E+00 0. -1.
         21   -1    0    0  502  503 -0.00000000000E+00 -0.00000000000E+00 -0.12758087713E+03  0.12758087713E+03  0.00000000000E+00 0. -1.
          6    1    1    2  501    0  0.12089766062E+03 -0.17762200134E+03  0.54283143154E+03  0.60890129148E+03  0.17300000000E+03 0. -1.
         -6    1    1    2    0  503 -0.12089766062E+03  0.17762200134E+03  0.10666526811E+03  0.29575716242E+03  0.17300000000E+03 0. -1.
<mgrwt>
<rscale>  2 0.27585290E+03</rscale>
<asrwt>0</asrwt>
<pdfrwt beam="1">  1       21 0.11955039E+00 0.27585290E+03</pdfrwt>
<pdfrwt beam="2">  1       21 0.19627828E-01 0.27585290E+03</pdfrwt>
<totfact> 0.12123933E+04</totfact>
</mgrwt>
</event>
<event>
 4    1  0.3945627E+000  0.2232294E+03  0.7546771E-02  0.1131498E+00
         21   -1    0    0  503  502  0.00000000000E+00  0.00000000000E+00  0.10841898603E+04  0.10841898603E+04  0.00000000000E+00 0.  1.
         21   -1    0    0  501  503 -0.00000000000E+00 -0.00000000000E+00 -0.51286399358E+03  0.51286399358E+03  0.00000000000E+00 0.  1.
          6    1    1    2  501    0  0.52296266263E+02 -0.13102465390E+03 -0.47624307735E+03  0.52596466432E+03  0.17300000000E+03 0.  1.
         -6    1    1    2    0  502 -0.52296266263E+02  0.13102465390E+03  0.10475689441E+04  0.10710891895E+04  0.17300000000E+03 0.  1.
<mgrwt>
<rscale>  2 0.22322939E+03</rscale>
<asrwt>0</asrwt>
<pdfrwt beam="1">  1       21 0.16679844E+00 0.22322939E+03</pdfrwt>
<pdfrwt beam="2">  1       21 0.78902153E-01 0.22322939E+03</pdfrwt>
<totfact> 0.30785353E+02</totfact>
</mgrwt>
</event>
<event>
 4    1  0.3945627E+000  0.2014880E+03  0.7546771E-02  0.1148490E+00
         21   -1    0    0  501  502  0.00000000000E+00  0.00000000000E+00  0.20608010348E+03  0.20608010348E+03  0.00000000000E+00 0. -1.
         21   -1    0    0  502  503 -0.00000000000E+00 -0.00000000000E+00 -0.19974663515E+03  0.19974663515E+03  0.00000000000E+00 0. -1.
          6    1    1    2  501    0 -0.55461217418E+02 -0.87134849082E+02 -0.20634876251E+02  0.20254191339E+03  0.17300000000E+03 0. -1.
         -6    1    1    2    0  503  0.55461217418E+02  0.87134849082E+02  0.26968344584E+02  0.20328482524E+03  0.17300000000E+03 0. -1.
<mgrwt>
<rscale>  2 0.20148804E+03</rscale>
<asrwt>0</asrwt>
<pdfrwt beam="1">  1       21 0.31704631E-01 0.20148804E+03</pdfrwt>
<pdfrwt beam="2">  1       21 0.30730252E-01 0.20148804E+03</pdfrwt>
<totfact> 0.96901983E+04</totfact>
</mgrwt>
</event>
<event>
 4    1  0.3945627E+000  0.1867146E+03  0.7546771E-02  0.1161458E+00
         21   -1    0    0  503  502  0.00000000000E+00  0.00000000000E+00  0.49517240621E+03  0.49517240621E+03  0.00000000000E+00 0.  1.
         21   -1    0    0  501  503 -0.00000000000E+00 -0.00000000000E+00 -0.91103626875E+02  0.91103626875E+02  0.00000000000E+00 0.  1.
          6    1    1    2  501    0  0.65200936551E+02  0.26118309198E+02  0.62307137415E+02  0.19683624558E+03  0.17300000000E+03 0.  1.
         -6    1    1    2    0  502 -0.65200936551E+02 -0.26118309198E+02  0.34176164192E+03  0.38943978751E+03  0.17300000000E+03 0.  1.
<mgrwt>
<rscale>  2 0.18671456E+03</rscale>
<asrwt>0</asrwt>
<pdfrwt beam="1">  1       21 0.76180369E-01 0.18671456E+03</pdfrwt>
<pdfrwt beam="2">  1       21 0.14015943E-01 0.18671456E+03</pdfrwt>
<totfact> 0.68305944E+04</totfact>
</mgrwt>
</event>
<event>
 4    1  0.3945627E+000  0.1800787E+03  0.7546771E-02  0.1167727E+00
         21   -1    0    0  503  502  0.00000000000E+00  0.00000000000E+00  0.84278221700E+03  0.84278221700E+03  0.00000000000E+00 0. -1.
         21   -1    0    0  501  503 -0.00000000000E+00 -0.00000000000E+00 -0.42425605746E+02  0.42425605746E+02  0.00000000000E+00 0. -1.
          6    1    1    2  501    0  0.12836401294E+02 -0.48317407088E+02  0.26516298200E+03  0.32053042297E+03  0.17300000000E+03 0. -1.
         -6    1    1    2    0  502 -0.12836401294E+02  0.48317407088E+02  0.53519362925E+03  0.56467739978E+03  0.17300000000E+03 0. -1.
<mgrwt>
<rscale>  2 0.18007872E+03</rscale>
<asrwt>0</asrwt>
<pdfrwt beam="1">  1       21 0.12965879E+00 0.18007872E+03</pdfrwt>
<pdfrwt beam="2">  1       21 0.65270169E-02 0.18007872E+03</pdfrwt>
<totfact> 0.74707034E+04</totfact>
</mgrwt>
</event>
<event>
 4    1  0.3945627E+000  0.1970044E+03  0.7546771E-02  0.1152291E+00
         21   -1    0    0  503  502  0.00000000000E+00  0.00000000000E+00  0.46507565976E+03  0.46507565976E+03  0.00000000000E+00 0. -1.
         21   -1    0    0  501  503 -0.00000000000E+00 -0.00000000000E+00 -0.52087343622E+03  0.52087343622E+03  0.00000000000E+00 0. -1.
          6    1    1    2  501    0  0.66745927359E+02 -0.66533471009E+02 -0.47966042095E+03  0.51854106975E+03  0.17300000000E+03 0. -1.
         -6    1    1    2    0  502 -0.66745927359E+02  0.66533471009E+02  0.42386264450E+03  0.46740802623E+03  0.17300000000E+03 0. -1.
<mgrwt>
<rscale>  2 0.19700437E+03</rscale>
<asrwt>0</asrwt>
<pdfrwt beam="1">  1       21 0.71550102E-01 0.19700437E+03</pdfrwt>
<pdfrwt beam="2">  1       21 0.80134375E-01 0.19700437E+03</pdfrwt>
<totfact> 0.24096275E+03</totfact>
</mgrwt>
</event>
<event>
 4    1  0.3945627E+000  0.2034890E+03  0.7546771E-02  0.1146828E+00
         21   -1    0    0  501  502  0.00000000000E+00  0.00000000000E+00  0.20956686704E+03  0.20956686704E+03  0.00000000000E+00 0. -1.
         21   -1    0    0  502  503 -0.00000000000E+00 -0.00000000000E+00 -0.23600099318E+03  0.23600099318E+03  0.00000000000E+00 0. -1.
          6    1    1    2  501    0 -0.10713778918E+03 -0.50256967076E+00  0.76664328571E+02  0.21745155259E+03  0.17300000000E+03 0. -1.
         -6    1    1    2    0  503  0.10713778918E+03  0.50256967076E+00 -0.10309845471E+03  0.22811630764E+03  0.17300000000E+03 0. -1.
<mgrwt>
<rscale>  2 0.20348896E+03</rscale>
<asrwt>0</asrwt>
<pdfrwt beam="1">  1       21 0.32241056E-01 0.20348896E+03</pdfrwt>
<pdfrwt beam="2">  1       21 0.36307845E-01 0.20348896E+03</pdfrwt>
<totfact> 0.67374054E+04</totfact>
</mgrwt>
</event>
<event>
 4    1  0.3945627E+000  0.3082793E+03  0.7546771E-02  0.1081174E+00
         21   -1    0    0  503  502  0.00000000000E+00  0.00000000000E+00  0.74112508942E+03  0.74112508942E+03  0.00000000000E+00 0. -1.
         21   -1    0    0  501  503 -0.00000000000E+00 -0.00000000000E+00 -0.22117109646E+03  0.22117109646E+03  0.00000000000E+00 0.  1.
          6    1    1    2  501    0  0.85383882199E+02  0.24045110967E+03 -0.51921444624E+02  0.31262114434E+03  0.17300000000E+03 0.  1.
         -6    1    1    2    0  502 -0.85383882199E+02 -0.24045110967E+03  0.57187543758E+03  0.64967504153E+03  0.17300000000E+03 0. -1.
<mgrwt>
<rscale>  2 0.30827933E+03</rscale>
<asrwt>0</asrwt>
<pdfrwt beam="1">  1       21 0.11401924E+00 0.30827933E+03</pdfrwt>
<pdfrwt beam="2">  1       21 0.34026323E-01 0.30827933E+03</pdfrwt>
<totfact> 0.46215682E+03</totfact>
</mgrwt>
</event>
<event>
 4    1  0.3945627E+000  0.2534151E+03  0.7546771E-02  0.1111165E+00
         21   -1    0    0  501  502  0.00000000000E+00  0.00000000000E+00  0.27527295160E+03  0.27527295160E+03  0.00000000000E+00 0. -1.
         21   -1    0    0  502  503 -0.00000000000E+00 -0.00000000000E+00 -0.23331713729E+03  0.23331713729E+03  0.00000000000E+00 0. -1.
          6    1    1    2  501    0  0.83722626794E+02 -0.16516878889E+03  0.18382561210E+02  0.25408094304E+03  0.17300000000E+03 0. -1.
         -6    1    1    2    0  503 -0.83722626794E+02  0.16516878889E+03  0.23573253101E+02  0.25450914585E+03  0.17300000000E+03 0. -1.
<mgrwt>
<rscale>  2 0.25341509E+03</rscale>
<asrwt>0</asrwt>
<pdfrwt beam="1">  1       21 0.42349685E-01 0.25341509E+03</pdfrwt>
<pdfrwt beam="2">  1       21 0.35894944E-01 0.25341509E+03</pdfrwt>
<totfact> 0.39027570E+04</totfact>
</mgrwt>
</event>
<event>
 4    1  0.3945627E+000  0.2484089E+03  0.7546771E-02  0.1114315E+00
         21   -1    0    0  503  502  0.00000000000E+00  0.00000000000E+00  0.17191762527E+03  0.17191762527E+03  0.00000000000E+00 0. -1.
         21   -1    0    0  501  503 -0.00000000000E+00 -0.00000000000E+00 -0.38807732098E+03  0.38807732098E+03  0.00000000000E+00 0. -1.
          6    1    1    2  501    0  0.39023956027E+02 -0.17393995252E+03 -0.18481052609E+03  0.30961574052E+03  0.17300000000E+03 0. -1.
         -6    1    1    2    0  502 -0.39023956027E+02  0.17393995252E+03 -0.31349169621E+02  0.25037920573E+03  0.17300000000E+03 0. -1.
<mgrwt>
<rscale>  2 0.24840889E+03</rscale>
<asrwt>0</asrwt>
<pdfrwt beam="1">  1       21 0.26448866E-01 0.24840889E+03</pdfrwt>
<pdfrwt beam="2">  1       21 0.59704203E-01 0.24840889E+03</pdfrwt>
<totfact> 0.34654350E+04</totfact>
</mgrwt>
</event>
<event>
 4    1  0.3945627E+000  0.1967989E+03  0.7546771E-02  0.1152468E+00
         21   -1    0    0  503  502  0.00000000000E+00  0.00000000000E+00  0.18130300924E+04  0.18130300924E+04  0.00000000000E+00 0. -1.
         21   -1    0    0  501  503 -0.00000000000E+00 -0.00000000000E+00 -0.25054977806E+02  0.25054977806E+02  0.00000000000E+00 0.  1.
          6    1    1    2  501    0 -0.32824161319E+02  0.87882845334E+02  0.54114486639E+03  0.57581905707E+03  0.17300000000E+03 0. -1.
         -6    1    1    2    0  502  0.32824161319E+02 -0.87882845334E+02  0.12468302482E+04  0.12622660131E+04  0.17300000000E+03 0. -1.
<mgrwt>
<rscale>  2 0.19679893E+03</rscale>
<asrwt>0</asrwt>
<pdfrwt beam="1">  1       21 0.27892760E+00 0.19679893E+03</pdfrwt>
<pdfrwt beam="2">  1       21 0.38546134E-02 0.19679893E+03</pdfrwt>
<totfact> 0.18745658E+04</totfact>
</mgrwt>
</event>
<event>
 4    1  0.3945627E+000  0.2220853E+03  0.7546771E-02  0.1132338E+00
         21   -1    0    0  503  502  0.00000000000E+00  0.00000000000E+00  0.98334597358E+03  0.98334597358E+03  0.00000000000E+00 0. -1.
         21   -1    0    0  501  503 -0.00000000000E+00 -0.00000000000E+00 -0.51531828652E+02  0.51531828652E+02  0.00000000000E+00 0. -1.
          6    1    1    2  501    0  0.89152751743E+02  0.10697968045E+03  0.38139544135E+03  0.44134379780E+03  0.17300000000E+03 0. -1.
         -6    1    1    2    0  502 -0.89152751743E+02 -0.10697968045E+03  0.55041870358E+03  0.59353400443E+03  0.17300000000E+03 0. -1.
<mgrwt>
<rscale>  2 0.22208527E+03</rscale>
<asrwt>0</asrwt>
<pdfrwt beam="1">  1       21 0.15128398E+00 0.22208527E+03</pdfrwt>
<pdfrwt beam="2">  1       21 0.79279744E-02 0.22208527E+03</pdfrwt>
<totfact> 0.35014752E+04</totfact>
</mgrwt>
</event>
<event>
 4    1  0.3945627E+000  0.2301889E+03  0.7546771E-02  0.1126507E+00
         21   -1    0    0  501  502  0.00000000000E+00  0.00000000000E+00  0.60083698141E+03  0.60083698141E+03  0.00000000000E+00 0. -1.
         21   -1    0    0  502  503 -0.00000000000E+00 -0.00000000000E+00 -0.88628928928E+02  0.88628928928E+02  0.00000000000E+00 0. -1.
          6    1    1    2  501    0  0.30137923769E+02 -0.14882751101E+03  0.28040504496E+03  0.36278631689E+03  0.17300000000E+03 0. -1.
         -6    1    1    2    0  503 -0.30137923769E+02  0.14882751101E+03  0.23180300752E+03  0.32667959345E+03  0.17300000000E+03 0. -1.
<mgrwt>
<rscale>  2 0.23018888E+03</rscale>
<asrwt>0</asrwt>
<pdfrwt beam="1">  1       21 0.92436456E-01 0.23018888E+03</pdfrwt>
<pdfrwt beam="2">  1       21 0.13635220E-01 0.23018888E+03</pdfrwt>
<totfact> 0.45206874E+04</totfact>
</mgrwt>
</event>
<event>
 4    1  0.3945627E+000  0.2082900E+03  0.7546771E-02  0.1142927E+00
         21   -1    0    0  501  502  0.00000000000E+00  0.00000000000E+00  0.43249986777E+03  0.43249986777E+03  0.00000000000E+00 0. -1.
         21   -1    0    0  502  503 -0.00000000000E+00 -0.00000000000E+00 -0.28899623829E+03  0.28899623829E+03  0.00000000000E+00 0. -1.
          6    1    1    2  501    0 -0.11582785191E+03 -0.62965933841E+01  0.36324352857E+03  0.41872496870E+03  0.17300000000E+03 0. -1.
         -6    1    1    2    0  503  0.11582785191E+03  0.62965933841E+01 -0.21973989909E+03  0.30277113736E+03  0.17300000000E+03 0. -1.
<mgrwt>
<rscale>  2 0.20829003E+03</rscale>
<asrwt>0</asrwt>
<pdfrwt beam="1">  1       21 0.66538441E-01 0.20829003E+03</pdfrwt>
<pdfrwt beam="2">  1       21 0.44460960E-01 0.20829003E+03</pdfrwt>
<totfact> 0.99528286E+03</totfact>
</mgrwt>
</event>
<event>
 4    1  0.3945627E+000  0.1852490E+03  0.7546771E-02  0.1162818E+00
         21   -1    0    0  501  502  0.00000000000E+00  0.00000000000E+00  0.63182842200E+03  0.63182842200E+03  0.00000000000E+00 0. -1.
         21   -1    0    0  502  503 -0.00000000000E+00 -0.00000000000E+00 -0.57197814360E+02  0.57197814360E+02  0.00000000000E+00 0. -1.
          6    1    1    2  501    0  0.30500405645E+02  0.58804204649E+02  0.20995999496E+03  0.28000072984E+03  0.17300000000E+03 0. -1.
         -6    1    1    2    0  503 -0.30500405645E+02 -0.58804204649E+02  0.36467061268E+03  0.40902550651E+03  0.17300000000E+03 0. -1.
<mgrwt>
<rscale>  2 0.18524905E+03</rscale>
<asrwt>0</asrwt>
<pdfrwt beam="1">  1       21 0.97204368E-01 0.18524905E+03</pdfrwt>
<pdfrwt beam="2">  1       21 0.87996642E-02 0.18524905E+03</pdfrwt>
<totfact> 0.89473934E+04</totfact>
</mgrwt>
</event>
<event>
 4    1  0.3945627E+000  0.2206953E+03  0.7546771E-02  0.1133366E+00
         21   -1    0    0  501  502  0.00000000000E+00  0.00000000000E+00  0.29246997627E+03  0.29246997627E+03  0.00000000000E+00 0. -1.
         21   -1    0    0  502  503 -0.00000000000E+00 -0.00000000000E+00 -0.16960154791E+03  0.16960154791E+03  0.00000000000E+00 0. -1.
          6    1    1    2  501    0  0.27591724606E+02  0.13422406259E+03  0.92501965548E+02  0.23929691991E+03  0.17300000000E+03 0.  1.
         -6    1    1    2    0  503 -0.27591724606E+02 -0.13422406259E+03  0.30366462814E+02  0.22277460428E+03  0.17300000000E+03 0.  1.
<mgrwt>
<rscale>  2 0.22069527E+03</rscale>
<asrwt>0</asrwt>
<pdfrwt beam="1">  1       21 0.44995381E-01 0.22069527E+03</pdfrwt>
<pdfrwt beam="2">  1       21 0.26092546E-01 0.22069527E+03</pdfrwt>
<totfact> 0.65334388E+04</totfact>
</mgrwt>
</event>
<event>
 4    1  0.3945627E+000  0.2095172E+03  0.7546771E-02  0.1141949E+00
         21   -1    0    0  501  502  0.00000000000E+00  0.00000000000E+00  0.26637500308E+03  0.26637500308E+03  0.00000000000E+00 0. -1.
         21   -1    0    0  502  503 -0.00000000000E+00 -0.00000000000E+00 -0.57809230116E+03  0.57809230116E+03  0.00000000000E+00 0. -1.
          6    1    1    2  501    0  0.10298789761E+03  0.57982186342E+02  0.20115530879E+03  0.29044947795E+03  0.17300000000E+03 0. -1.
         -6    1    1    2    0  503 -0.10298789761E+03 -0.57982186342E+02 -0.51287260686E+03  0.55401782630E+03  0.17300000000E+03 0. -1.
<mgrwt>
<rscale>  2 0.20951716E+03</rscale>
<asrwt>0</asrwt>
<pdfrwt beam="1">  1       21 0.40980770E-01 0.20951716E+03</pdfrwt>
<pdfrwt beam="2">  1       21 0.88937277E-01 0.20951716E+03</pdfrwt>
<totfact> 0.61153569E+03</totfact>
</mgrwt>
</event>
<event>
 4    1  0.3945627E+000  0.1876916E+03  0.7546771E-02  0.1160560E+00
         21   -1    0    0  503  502  0.00000000000E+00  0.00000000000E+00  0.45163866776E+03  0.45163866776E+03  0.00000000000E+00 0.  1.
         21   -1    0    0  501  503 -0.00000000000E+00 -0.00000000000E+00 -0.10622144068E+03  0.10622144068E+03  0.00000000000E+00 0.  1.
          6    1    1    2  501    0 -0.72166530318E+02 -0.95458632412E+01  0.28936905510E+02  0.18990912591E+03  0.17300000000E+03 0.  1.
         -6    1    1    2    0  502  0.72166530318E+02  0.95458632412E+01  0.31648032157E+03  0.36795098253E+03  0.17300000000E+03 0.  1.
<mgrwt>
<rscale>  2 0.18769159E+03</rscale>
<asrwt>0</asrwt>
<pdfrwt beam="1">  1       21 0.69482871E-01 0.18769159E+03</pdfrwt>
<pdfrwt beam="2">  1       21 0.16341760E-01 0.18769159E+03</pdfrwt>
<totfact> 0.63317464E+04</totfact>
</mgrwt>
</event>
